                         Program Version 4.2.0 -  RELEASE  -
|  1> # Test redundant internal optimization
|  2> #
|  3> ! RKS B3LYP  Opt TightSCF SmallPrint
|  4>
|  5> %basis
|  6>         Basis "6-31G"
|  7> end
|  8>
|  9> %geom
| 10> Constraints
| 11> { D 4  0  15  12  345.0   C } # D for Dihedral angle
| 12> { D 0  15  12  16  120.0   C } # D for Dihedral angle
| 13> { D 0  4  3  2   C } # D for Dihedral angle
| 14> { D 4  3  2  1   C } # D for Dihedral angle
| 15> { D 3  2  1  0   C } # D for Dihedral angle
| 16> { D 2  1  0  4   C } # D for Dihedral angle
| 17> { D 1  0  4  3   C } # D for Dihedral angle
| 18> { D 16  20  19  18   C } # D for Dihedral angle
| 19> { D 20  19  18  17   C } # D for Dihedral angle
| 20> { D 19  18  17  16   C } # D for Dihedral angle
| 21> { D 18  17  16  20   C } # D for Dihedral angle
| 22> { D 17  16  20  19   C } # D for Dihedral angle
| 23> { D 15  12  16  20   C } # D for Dihedral angle
| 24> end
| 25> end
| 26>
| 27>
| 28> #%pal
| 29> #nprocs 8
| 30> #end
| 31>
| 32> * xyz 0 1
| 33> C  -21.048   26.222   46.251
| 34> C  -20.361   27.558   45.944
| 35> C  -20.329   28.222   47.341
| 36> C  -20.110   27.022   48.296
| 37> O  -20.473   25.807   47.535
| 38> H  -20.833   25.428   45.533
| 39> H  -19.344   27.382   45.576
| 40> H  -20.898   28.157   45.201
| 41> H  -19.543   28.978   47.434
| 42> H  -21.289   28.710   47.548
| 43> H  -20.733   27.082   49.195
| 44> H  -19.064   26.913   48.597
| 45> C  -23.221   25.764   47.645
| 46> H  -23.951   25.003   47.345
| 47> H  -22.451   25.278   48.258
| 48> O  -22.586   26.394   46.375
| 49> C  -23.944   26.811   48.537
| 50> C  -23.004   27.959   48.923
| 51> C  -23.016   28.819   47.636
| 52> C  -24.468   28.660   47.120
| 53> O  -25.023   27.463   47.789
| 54> H  -24.405   26.301   49.385
| 55> O  -23.596   28.753   50.118
| 56> H  -21.999   27.619   49.197
| 57> H  -22.751   29.865   47.822
| 58> H  -22.301   28.417   46.908
| 59> H  -24.515   28.520   46.035
| 60> H  -25.104   29.507   47.396
| 61> H  -24.603   29.104   49.866
| 62> *
| 63>
| 64>                          ****END OF INPUT****
 Total Charge           Charge          ....    0
 Multiplicity           Mult            ....    1
 Number of Electrons    NEL             ....  102
FINAL SINGLE POINT ENERGY      -652.770126322251
FINAL SINGLE POINT ENERGY      -652.824885726976
FINAL SINGLE POINT ENERGY      -652.843604773755
FINAL SINGLE POINT ENERGY      -652.848694652636
FINAL SINGLE POINT ENERGY      -652.849602981539
FINAL SINGLE POINT ENERGY      -652.849781240419
FINAL SINGLE POINT ENERGY      -652.849793361543
FINAL SINGLE POINT ENERGY      -652.849790229239
                    ***********************HURRAY********************

CARTESIAN COORDINATES (ANGSTROEM)
---------------------------------
  C    -21.013365   26.146478   46.404764
  C    -20.203617   27.308470   45.817180
  C    -19.915486   28.171307   47.077257
  C    -19.737977   27.107609   48.186748
  O    -20.354285   25.859414   47.652949
  H    -20.858643   25.233851   45.816142
  H    -19.277827   26.900773   45.401190
  H    -20.743881   27.846759   45.034848
  H    -19.011278   28.777630   46.957930
  H    -20.735225   28.851302   47.295085
  H    -20.221884   27.373042   49.130038
  H    -18.688741   26.869596   48.379888
  C    -23.208041   25.838286   47.601412
  H    -23.914979   25.091047   47.223637
  H    -22.509007   25.343063   48.285885
  O    -22.474579   26.303562   46.419405
  C    -24.038583   26.848706   48.403518
  C    -23.336148   28.036382   49.075669
  C    -23.301232   29.079148   47.926261
  C    -24.637849   28.810493   47.184704
  O    -25.087796   27.471209   47.597487
  H    -24.548776   26.249834   49.168912
  O    -24.108393   28.511676   50.214575
  H    -22.355300   27.793061   49.481784
  H    -23.210141   30.097777   48.310617
  H    -22.479559   28.858720   47.251106
  H    -24.516205   28.823439   46.097794
  H    -25.425855   29.519638   47.461816
  H    -25.048347   28.595727   49.947397

 Multiplicity           Mult            ....    1
 Number of Electrons    NEL             ....  102
 Basis Dimension        Dim             ....  149

ORBITAL ENERGIES
----------------

  NO   OCC          E(Eh)            E(eV)
   0   2.0000     -19.158639      -521.3331
   1   2.0000     -19.144925      -520.9599
   2   2.0000     -19.137822      -520.7666
   3   2.0000     -19.137425      -520.7558
   4   2.0000     -10.282729      -279.8073
   5   2.0000     -10.240355      -278.6542
   6   2.0000     -10.238653      -278.6079
   7   2.0000     -10.233190      -278.4593
   8   2.0000     -10.225924      -278.2615
   9   2.0000     -10.225355      -278.2461
  10   2.0000     -10.196719      -277.4668
  11   2.0000     -10.195318      -277.4287
  12   2.0000     -10.183407      -277.1046
  13   2.0000      -1.056821       -28.7576
  14   2.0000      -1.035675       -28.1822
  15   2.0000      -1.005454       -27.3598
  16   2.0000      -0.994857       -27.0714
  17   2.0000      -0.796720       -21.6799
  18   2.0000      -0.778989       -21.1974
  19   2.0000      -0.767333       -20.8802
  20   2.0000      -0.739845       -20.1322
  21   2.0000      -0.675913       -18.3925
  22   2.0000      -0.613447       -16.6927
  23   2.0000      -0.601661       -16.3720
  24   2.0000      -0.600153       -16.3310
  25   2.0000      -0.570620       -15.5273
  26   2.0000      -0.522712       -14.2237
  27   2.0000      -0.513758       -13.9801
  28   2.0000      -0.504198       -13.7199
  29   2.0000      -0.492002       -13.3881
  30   2.0000      -0.471037       -12.8176
  31   2.0000      -0.462154       -12.5758
  32   2.0000      -0.453072       -12.3287
  33   2.0000      -0.439299       -11.9539
  34   2.0000      -0.424188       -11.5427
  35   2.0000      -0.416430       -11.3316
  36   2.0000      -0.406380       -11.0582
  37   2.0000      -0.389611       -10.6019
  38   2.0000      -0.378720       -10.3055
  39   2.0000      -0.373536       -10.1644
  40   2.0000      -0.366613        -9.9760
  41   2.0000      -0.359305        -9.7772
  42   2.0000      -0.349972        -9.5232
  43   2.0000      -0.340971        -9.2783
  44   2.0000      -0.327287        -8.9059
  45   2.0000      -0.306704        -8.3458
  46   2.0000      -0.303141        -8.2489
  47   2.0000      -0.273730        -7.4486
  48   2.0000      -0.267607        -7.2820
  49   2.0000      -0.261047        -7.1034
  50   2.0000      -0.234771        -6.3884
  51   0.0000       0.060657         1.6506
  52   0.0000       0.073655         2.0043
  53   0.0000       0.086561         2.3554
  54   0.0000       0.098762         2.6874
  55   0.0000       0.101839         2.7712

MULLIKEN ATOMIC CHARGES
-----------------------
   0 C :    0.312627
   1 C :   -0.270668
   2 C :   -0.314651
   3 C :   -0.023430
   4 O :   -0.513906
   5 H :    0.154579
   6 H :    0.155109
   7 H :    0.158512
   8 H :    0.147689
   9 H :    0.155245
  10 H :    0.151610
  11 H :    0.155661
  12 C :   -0.019775
  13 H :    0.157224
  14 H :    0.160181
  15 O :   -0.535878
  16 C :    0.074805
  17 C :    0.064468
  18 C :   -0.298548
  19 C :   -0.026631
  20 O :   -0.523855
  21 H :    0.154686
  22 O :   -0.603363
  23 H :    0.151970
  24 H :    0.149245
  25 H :    0.166681
  26 H :    0.157693
  27 H :    0.138370
  28 H :    0.364349
Sum of atomic charges:   -0.0000000

LOEWDIN ATOMIC CHARGES
----------------------
   0 C :    0.178871
   1 C :   -0.215948
   2 C :   -0.224085
   3 C :   -0.032877
   4 O :   -0.316658
   5 H :    0.096434
   6 H :    0.121210
   7 H :    0.125323
   8 H :    0.117730
   9 H :    0.114879
  10 H :    0.102699
  11 H :    0.109102
  12 C :   -0.044637
  13 H :    0.114018
  14 H :    0.115699
  15 O :   -0.342734
  16 C :    0.009299
  17 C :    0.035903
  18 C :   -0.244461
  19 C :   -0.035082
  20 O :   -0.327868
  21 H :    0.117356
  22 O :   -0.416279
  23 H :    0.112458
  24 H :    0.120929
  25 H :    0.120045
  26 H :    0.109477
  27 H :    0.096483
  28 H :    0.282714

  Mayer bond orders larger than 0.100000
B(  0-C ,  1-C ) :   0.9299 B(  0-C ,  4-O ) :   0.8964 B(  0-C ,  5-H ) :   0.9306
B(  0-C , 15-O ) :   0.8579 B(  1-C ,  2-C ) :   0.9592 B(  1-C ,  6-H ) :   0.9360
B(  1-C ,  7-H ) :   0.9356 B(  2-C ,  3-C ) :   0.9528 B(  2-C ,  8-H ) :   0.9435
B(  2-C ,  9-H ) :   0.9231 B(  3-C ,  4-O ) :   0.8291 B(  3-C , 10-H ) :   0.9241
B(  3-C , 11-H ) :   0.9391 B( 12-C , 13-H ) :   0.9277 B( 12-C , 14-H ) :   0.9004
B( 12-C , 15-O ) :   0.8491 B( 12-C , 16-C ) :   0.9008 B( 16-C , 17-C ) :   0.9062
B( 16-C , 20-O ) :   0.8609 B( 16-C , 21-H ) :   0.9159 B( 17-C , 18-C ) :   0.9259
B( 17-C , 22-O ) :   0.8871 B( 17-C , 23-H ) :   0.9266 B( 18-C , 19-C ) :   0.9377
B( 18-C , 24-H ) :   0.9391 B( 18-C , 25-H ) :   0.8955 B( 19-C , 20-O ) :   0.8450
B( 19-C , 26-H ) :   0.9323 B( 19-C , 27-H ) :   0.9363 B( 22-O , 28-H ) :   0.7946

FINAL SINGLE POINT ENERGY      -652.849786509254

DIPOLE MOMENT
-------------
                                X             Y             Z
Electronic contribution:     -4.17508      -3.73979       1.12999
Nuclear contribution   :      5.10993       4.40299      -1.48993
                        -----------------------------------------
Total Dipole Moment    :      0.93485       0.66320      -0.35994
                        -----------------------------------------
Magnitude (a.u.)       :      1.20139
Magnitude (Debye)      :      3.05369

Rotational constants in cm-1:     0.043216     0.017946     0.016762
Rotational constants in MHz :  1295.580470   538.015237   502.507035

                             ****ORCA TERMINATED NORMALLY****
TOTAL RUN TIME: 0 days 0 hours 32 minutes 32 seconds 933 msec
