                         Program Version 4.2.0 -  RELEASE  -
|  1> # Test redundant internal optimization
|  2> #
|  3> ! RKS B3LYP  Opt TightSCF SmallPrint
|  4>
|  5> %basis
|  6>         Basis "6-31G"
|  7> end
|  8>
|  9> %geom
| 10> Constraints
| 11> { D 4  0  15  12  195.0   C } # D for Dihedral angle
| 12> { D 0  15  12  16  345.0   C } # D for Dihedral angle
| 13> { D 0  4  3  2   C } # D for Dihedral angle
| 14> { D 4  3  2  1   C } # D for Dihedral angle
| 15> { D 3  2  1  0   C } # D for Dihedral angle
| 16> { D 2  1  0  4   C } # D for Dihedral angle
| 17> { D 1  0  4  3   C } # D for Dihedral angle
| 18> { D 16  20  19  18   C } # D for Dihedral angle
| 19> { D 20  19  18  17   C } # D for Dihedral angle
| 20> { D 19  18  17  16   C } # D for Dihedral angle
| 21> { D 18  17  16  20   C } # D for Dihedral angle
| 22> { D 17  16  20  19   C } # D for Dihedral angle
| 23> { D 15  12  16  20   C } # D for Dihedral angle
| 24> end
| 25> end
| 26>
| 27>
| 28> #%pal
| 29> #nprocs 8
| 30> #end
| 31>
| 32> * xyz 0 1
| 33> C  -21.048   26.222   46.251
| 34> C  -20.361   27.558   45.944
| 35> C  -20.329   28.222   47.341
| 36> C  -20.110   27.022   48.296
| 37> O  -20.473   25.807   47.535
| 38> H  -20.833   25.428   45.533
| 39> H  -19.344   27.382   45.576
| 40> H  -20.898   28.157   45.201
| 41> H  -19.543   28.978   47.434
| 42> H  -21.289   28.710   47.548
| 43> H  -20.733   27.082   49.195
| 44> H  -19.064   26.913   48.597
| 45> C  -23.353   26.472   45.026
| 46> H  -23.881   25.526   44.855
| 47> H  -24.096   27.279   45.053
| 48> O  -22.586   26.394   46.375
| 49> C  -22.414   26.734   43.816
| 50> C  -23.213   26.920   42.522
| 51> C  -23.698   28.383   42.660
| 52> C  -22.514   29.079   43.377
| 53> O  -21.701   28.005   43.986
| 54> H  -21.659   25.947   43.772
| 55> H  -22.554   26.812   41.653
| 56> O  -24.384   25.910   42.377
| 57> H  -23.932   28.846   41.696
| 58> H  -24.602   28.424   43.279
| 59> H  -22.846   29.767   44.163
| 60> H  -21.865   29.621   42.682
| 61> H  -25.058   26.000   43.235
| 62> *
| 63>
| 64>                          ****END OF INPUT****
 Total Charge           Charge          ....    0
 Multiplicity           Mult            ....    1
 Number of Electrons    NEL             ....  102
FINAL SINGLE POINT ENERGY      -652.788609252337
FINAL SINGLE POINT ENERGY      -652.823304685296
FINAL SINGLE POINT ENERGY      -652.843190196508
FINAL SINGLE POINT ENERGY      -652.847072090317
FINAL SINGLE POINT ENERGY      -652.847790486830
FINAL SINGLE POINT ENERGY      -652.847969694909
FINAL SINGLE POINT ENERGY      -652.847982388891
FINAL SINGLE POINT ENERGY      -652.847986021594
                    ***********************HURRAY********************

CARTESIAN COORDINATES (ANGSTROEM)
---------------------------------
  C    -20.835625   26.214656   46.259306
  C    -20.079197   27.533517   46.113674
  C    -20.306443   28.189853   47.497726
  C    -20.301417   26.977937   48.452616
  O    -20.535635   25.789414   47.597663
  H    -20.522387   25.413849   45.582543
  H    -19.014772   27.306538   45.968480
  H    -20.431077   28.132057   45.275550
  H    -19.532719   28.922369   47.746904
  H    -21.278939   28.691143   47.515583
  H    -21.087427   27.020267   49.211690
  H    -19.333706   26.825894   48.941479
  C    -23.086375   26.497538   45.010799
  H    -23.626719   25.547776   44.883370
  H    -23.823864   27.276668   45.243805
  O    -22.290009   26.379949   46.225466
  C    -22.430985   26.795823   43.656628
  C    -23.458912   26.914534   42.515590
  C    -23.907246   28.406358   42.640499
  C    -22.606188   29.114576   43.078373
  O    -21.697847   28.057699   43.602521
  H    -21.691726   26.020179   43.432829
  H    -22.950284   26.754779   41.562464
  O    -24.529387   25.945461   42.519748
  H    -24.306331   28.793906   41.700291
  H    -24.690403   28.493978   43.404865
  H    -22.768372   29.860892   43.861645
  H    -22.088419   29.587641   42.239316
  H    -25.168590   26.134749   43.236577

 Multiplicity           Mult            ....    1
 Number of Electrons    NEL             ....  102
 Basis Dimension        Dim             ....  149

ORBITAL ENERGIES
----------------

  NO   OCC          E(Eh)            E(eV)
   0   2.0000     -19.158271      -521.3231
   1   2.0000     -19.154371      -521.2169
   2   2.0000     -19.128798      -520.5210
   3   2.0000     -19.128062      -520.5010
   4   2.0000     -10.269691      -279.4525
   5   2.0000     -10.256226      -279.0861
   6   2.0000     -10.243927      -278.7514
   7   2.0000     -10.242687      -278.7177
   8   2.0000     -10.233631      -278.4713
   9   2.0000     -10.213664      -277.9279
  10   2.0000     -10.205059      -277.6938
  11   2.0000     -10.173218      -276.8273
  12   2.0000     -10.162550      -276.5370
  13   2.0000      -1.046745       -28.4834
  14   2.0000      -1.038319       -28.2541
  15   2.0000      -1.027970       -27.9725
  16   2.0000      -0.979158       -26.6443
  17   2.0000      -0.793609       -21.5952
  18   2.0000      -0.775120       -21.0921
  19   2.0000      -0.768965       -20.9246
  20   2.0000      -0.728791       -19.8314
  21   2.0000      -0.682618       -18.5750
  22   2.0000      -0.622591       -16.9416
  23   2.0000      -0.605192       -16.4681
  24   2.0000      -0.586298       -15.9540
  25   2.0000      -0.560278       -15.2459
  26   2.0000      -0.536079       -14.5874
  27   2.0000      -0.517715       -14.0877
  28   2.0000      -0.491766       -13.3816
  29   2.0000      -0.482051       -13.1173
  30   2.0000      -0.468644       -12.7525
  31   2.0000      -0.453765       -12.3476
  32   2.0000      -0.445472       -12.1219
  33   2.0000      -0.437855       -11.9146
  34   2.0000      -0.435645       -11.8545
  35   2.0000      -0.420141       -11.4326
  36   2.0000      -0.410808       -11.1787
  37   2.0000      -0.393011       -10.6944
  38   2.0000      -0.389511       -10.5991
  39   2.0000      -0.366069        -9.9612
  40   2.0000      -0.357904        -9.7391
  41   2.0000      -0.355492        -9.6734
  42   2.0000      -0.340278        -9.2594
  43   2.0000      -0.333629        -9.0785
  44   2.0000      -0.320533        -8.7221
  45   2.0000      -0.304684        -8.2909
  46   2.0000      -0.293661        -7.9909
  47   2.0000      -0.282562        -7.6889
  48   2.0000      -0.254578        -6.9274
  49   2.0000      -0.247332        -6.7303
  50   2.0000      -0.236371        -6.4320
  51   0.0000       0.045299         1.2326
  52   0.0000       0.067454         1.8355
  53   0.0000       0.080173         2.1816
  54   0.0000       0.095285         2.5928
  55   0.0000       0.100780         2.7424

MULLIKEN ATOMIC CHARGES
-----------------------
   0 C :    0.301021
   1 C :   -0.289971
   2 C :   -0.300446
   3 C :    0.001305
   4 O :   -0.503388
   5 H :    0.135416
   6 H :    0.132232
   7 H :    0.201909
   8 H :    0.135118
   9 H :    0.150523
  10 H :    0.148210
  11 H :    0.136990
  12 C :    0.007773
  13 H :    0.140155
  14 H :    0.130140
  15 O :   -0.532682
  16 C :    0.064053
  17 C :    0.088411
  18 C :   -0.324405
  19 C :   -0.011342
  20 O :   -0.518120
  21 H :    0.161816
  22 H :    0.170227
  23 O :   -0.594480
  24 H :    0.161074
  25 H :    0.141358
  26 H :    0.151208
  27 H :    0.155580
  28 H :    0.360314
Sum of atomic charges:    0.0000000

LOEWDIN ATOMIC CHARGES
----------------------
   0 C :    0.188001
   1 C :   -0.242691
   2 C :   -0.217836
   3 C :   -0.026726
   4 O :   -0.305342
   5 H :    0.093623
   6 H :    0.108724
   7 H :    0.139691
   8 H :    0.110931
   9 H :    0.112869
  10 H :    0.105720
  11 H :    0.099558
  12 C :   -0.047179
  13 H :    0.104361
  14 H :    0.098575
  15 O :   -0.340882
  16 C :    0.004190
  17 C :    0.039861
  18 C :   -0.240508
  19 C :   -0.029388
  20 O :   -0.318752
  21 H :    0.114453
  22 H :    0.120551
  23 O :   -0.401136
  24 H :    0.125075
  25 H :    0.107602
  26 H :    0.106508
  27 H :    0.109118
  28 H :    0.281028

  Mayer bond orders larger than 0.100000
B(  0-C ,  1-C ) :   0.9355 B(  0-C ,  4-O ) :   0.9339 B(  0-C ,  5-H ) :   0.9233
B(  0-C , 15-O ) :   0.8143 B(  1-C ,  2-C ) :   0.9508 B(  1-C ,  6-H ) :   0.9340
B(  1-C ,  7-H ) :   0.8951 B(  2-C ,  3-C ) :   0.9543 B(  2-C ,  8-H ) :   0.9457
B(  2-C ,  9-H ) :   0.9462 B(  3-C ,  4-O ) :   0.8368 B(  3-C , 10-H ) :   0.9360
B(  3-C , 11-H ) :   0.9401 B( 12-C , 13-H ) :   0.9020 B( 12-C , 14-H ) :   0.9316
B( 12-C , 15-O ) :   0.8650 B( 12-C , 16-C ) :   0.8984 B( 16-C , 17-C ) :   0.8657
B( 16-C , 20-O ) :   0.8395 B( 16-C , 21-H ) :   0.9284 B( 17-C , 18-C ) :   0.9209
B( 17-C , 22-H ) :   0.9333 B( 17-C , 23-O ) :   0.9084 B( 18-C , 19-C ) :   0.9401
B( 18-C , 24-H ) :   0.9417 B( 18-C , 25-H ) :   0.9397 B( 19-C , 20-O ) :   0.8328
B( 19-C , 26-H ) :   0.9318 B( 19-C , 27-H ) :   0.9377 B( 23-O , 28-H ) :   0.7950

FINAL SINGLE POINT ENERGY      -652.847986134058

DIPOLE MOMENT
-------------
                                X             Y             Z
Electronic contribution:     -0.61404      -4.91842      -0.43831
Nuclear contribution   :      0.11264       6.33975      -0.31260
                        -----------------------------------------
Total Dipole Moment    :     -0.50139       1.42134      -0.75091
                        -----------------------------------------
Magnitude (a.u.)       :      1.68388
Magnitude (Debye)      :      4.28008

Rotational constants in cm-1:     0.057280     0.014010     0.012302
Rotational constants in MHz :  1717.220506   420.007683   368.817240

                             ****ORCA TERMINATED NORMALLY****
TOTAL RUN TIME: 0 days 1 hours 8 minutes 47 seconds 456 msec
