                         Program Version 4.2.0 -  RELEASE  -
|  1> # Test redundant internal optimization
|  2> #
|  3> ! RKS B3LYP  Opt TightSCF SmallPrint
|  4>
|  5> %basis
|  6>         Basis "6-31G"
|  7> end
|  8>
|  9> %geom
| 10> Constraints
| 11> { D 4  0  15  12  285.0   C } # D for Dihedral angle
| 12> { D 0  15  12  16  270.0   C } # D for Dihedral angle
| 13> { D 0  4  3  2   C } # D for Dihedral angle
| 14> { D 4  3  2  1   C } # D for Dihedral angle
| 15> { D 3  2  1  0   C } # D for Dihedral angle
| 16> { D 2  1  0  4   C } # D for Dihedral angle
| 17> { D 1  0  4  3   C } # D for Dihedral angle
| 18> { D 16  20  19  18   C } # D for Dihedral angle
| 19> { D 20  19  18  17   C } # D for Dihedral angle
| 20> { D 19  18  17  16   C } # D for Dihedral angle
| 21> { D 18  17  16  20   C } # D for Dihedral angle
| 22> { D 17  16  20  19   C } # D for Dihedral angle
| 23> { D 15  12  16  20   C } # D for Dihedral angle
| 24> end
| 25> end
| 26>
| 27>
| 28> #%pal
| 29> #nprocs 8
| 30> #end
| 31>
| 32> * xyz 0 1
| 33> C  -21.048   26.222   46.251
| 34> C  -20.361   27.558   45.944
| 35> C  -20.329   28.222   47.341
| 36> C  -20.110   27.022   48.296
| 37> O  -20.473   25.807   47.535
| 38> H  -20.833   25.428   45.533
| 39> H  -19.344   27.382   45.576
| 40> H  -20.898   28.157   45.201
| 41> H  -19.543   28.978   47.434
| 42> H  -21.289   28.710   47.548
| 43> H  -20.733   27.082   49.195
| 44> H  -19.064   26.913   48.597
| 45> C  -23.396   25.070   46.435
| 46> H  -22.784   24.293   46.911
| 47> H  -24.307   25.204   47.033
| 48> O  -22.586   26.394   46.375
| 49> C  -23.824   24.563   45.030
| 50> C  -22.605   24.187   44.179
| 51> C  -22.247   22.792   44.744
| 52> C  -23.632   22.184   45.082
| 53> O  -24.583   23.313   45.145
| 54> H  -24.486   25.299   44.571
| 55> O  -23.011   24.087   42.684
| 56> H  -21.782   24.905   44.265
| 57> H  -21.684   22.178   44.033
| 58> H  -21.639   22.897   45.650
| 59> H  -23.635   21.657   46.042
| 60> H  -23.990   21.503   44.304
| 61> H  -23.835   23.372   42.572
| 62> *
| 63>
| 64>                          ****END OF INPUT****
 Total Charge           Charge          ....    0
 Multiplicity           Mult            ....    1
 Number of Electrons    NEL             ....  102
FINAL SINGLE POINT ENERGY      -652.834463551161
FINAL SINGLE POINT ENERGY      -652.858753197530
FINAL SINGLE POINT ENERGY      -652.863632409874
FINAL SINGLE POINT ENERGY      -652.864949211979
FINAL SINGLE POINT ENERGY      -652.865107602569
FINAL SINGLE POINT ENERGY      -652.865134529667
                    ***********************HURRAY********************

CARTESIAN COORDINATES (ANGSTROEM)
---------------------------------
  C    -20.999651   26.176514   46.255861
  C    -20.392070   27.552716   45.982673
  C    -20.446870   28.205603   47.382606
  C    -20.182850   27.017875   48.334828
  O    -20.448160   25.791444   47.538685
  H    -20.717816   25.383120   45.562065
  H    -19.356826   27.430474   45.644511
  H    -20.951987   28.105843   45.226042
  H    -19.709793   29.005420   47.502781
  H    -21.443553   28.622110   47.552926
  H    -20.835589   27.017573   49.211436
  H    -19.140251   26.957207   48.660880
  C    -23.254284   25.150872   46.385635
  H    -22.736788   24.380839   46.972428
  H    -24.156023   25.436452   46.931087
  O    -22.430764   26.354514   46.321265
  C    -23.682884   24.594309   45.017736
  C    -22.591535   24.103762   44.052138
  C    -22.249005   22.710325   44.645440
  C    -23.618979   22.208057   45.167902
  O    -24.493193   23.398622   45.280934
  H    -24.328080   25.319298   44.512304
  O    -23.129287   23.992675   42.703374
  H    -21.736873   24.768923   43.954881
  H    -21.821018   22.058330   43.880028
  H    -21.523233   22.808735   45.460796
  H    -23.548496   21.724033   46.146909
  H    -24.104347   21.516614   44.471856
  H    -24.020793   23.586743   42.745994

 Multiplicity           Mult            ....    1
 Number of Electrons    NEL             ....  102
 Basis Dimension        Dim             ....  149

ORBITAL ENERGIES
----------------

  NO   OCC          E(Eh)            E(eV)
   0   2.0000     -19.147847      -521.0394
   1   2.0000     -19.146457      -521.0016
   2   2.0000     -19.140828      -520.8484
   3   2.0000     -19.139346      -520.8081
   4   2.0000     -10.280692      -279.7519
   5   2.0000     -10.243805      -278.7481
   6   2.0000     -10.235174      -278.5132
   7   2.0000     -10.234265      -278.4885
   8   2.0000     -10.228457      -278.3305
   9   2.0000     -10.225455      -278.2488
  10   2.0000     -10.191396      -277.3220
  11   2.0000     -10.185908      -277.1727
  12   2.0000     -10.184971      -277.1472
  13   2.0000      -1.054943       -28.7065
  14   2.0000      -1.039914       -28.2975
  15   2.0000      -1.008042       -27.4302
  16   2.0000      -0.994556       -27.0632
  17   2.0000      -0.789552       -21.4848
  18   2.0000      -0.780412       -21.2361
  19   2.0000      -0.766853       -20.8671
  20   2.0000      -0.734225       -19.9793
  21   2.0000      -0.675740       -18.3878
  22   2.0000      -0.606157       -16.4944
  23   2.0000      -0.600487       -16.3401
  24   2.0000      -0.595672       -16.2090
  25   2.0000      -0.583615       -15.8810
  26   2.0000      -0.523631       -14.2487
  27   2.0000      -0.520874       -14.1737
  28   2.0000      -0.500705       -13.6249
  29   2.0000      -0.485918       -13.2225
  30   2.0000      -0.471927       -12.8418
  31   2.0000      -0.459799       -12.5118
  32   2.0000      -0.448776       -12.2118
  33   2.0000      -0.433342       -11.7918
  34   2.0000      -0.425426       -11.5764
  35   2.0000      -0.420957       -11.4548
  36   2.0000      -0.401985       -10.9386
  37   2.0000      -0.395553       -10.7635
  38   2.0000      -0.377550       -10.2737
  39   2.0000      -0.371455       -10.1078
  40   2.0000      -0.357958        -9.7405
  41   2.0000      -0.354265        -9.6400
  42   2.0000      -0.348331        -9.4786
  43   2.0000      -0.334096        -9.0912
  44   2.0000      -0.327779        -8.9193
  45   2.0000      -0.310564        -8.4509
  46   2.0000      -0.299991        -8.1632
  47   2.0000      -0.279500        -7.6056
  48   2.0000      -0.271683        -7.3929
  49   2.0000      -0.256313        -6.9746
  50   2.0000      -0.242680        -6.6037
  51   0.0000       0.064157         1.7458
  52   0.0000       0.072940         1.9848
  53   0.0000       0.092259         2.5105
  54   0.0000       0.100441         2.7331
  55   0.0000       0.103307         2.8111

MULLIKEN ATOMIC CHARGES
-----------------------
   0 C :    0.277404
   1 C :   -0.258963
   2 C :   -0.297444
   3 C :   -0.003193
   4 O :   -0.515895
   5 H :    0.142932
   6 H :    0.144657
   7 H :    0.158592
   8 H :    0.141160
   9 H :    0.165566
  10 H :    0.148919
  11 H :    0.141840
  12 C :   -0.026187
  13 H :    0.148810
  14 H :    0.167932
  15 O :   -0.517573
  16 C :    0.055130
  17 C :    0.080661
  18 C :   -0.303114
  19 C :   -0.034152
  20 O :   -0.523301
  21 H :    0.164777
  22 O :   -0.605111
  23 H :    0.159005
  24 H :    0.164269
  25 H :    0.156625
  26 H :    0.151653
  27 H :    0.149529
  28 H :    0.365472
Sum of atomic charges:   -0.0000000

LOEWDIN ATOMIC CHARGES
----------------------
   0 C :    0.167173
   1 C :   -0.214414
   2 C :   -0.215272
   3 C :   -0.027153
   4 O :   -0.331487
   5 H :    0.093761
   6 H :    0.113862
   7 H :    0.124917
   8 H :    0.113563
   9 H :    0.120777
  10 H :    0.106362
  11 H :    0.102437
  12 C :   -0.044841
  13 H :    0.105409
  14 H :    0.123191
  15 O :   -0.326223
  16 C :    0.008299
  17 C :    0.033358
  18 C :   -0.243382
  19 C :   -0.038823
  20 O :   -0.328844
  21 H :    0.116835
  22 O :   -0.414943
  23 H :    0.116974
  24 H :    0.127547
  25 H :    0.117759
  26 H :    0.106326
  27 H :    0.103557
  28 H :    0.283274

  Mayer bond orders larger than 0.100000
B(  0-C ,  1-C ) :   0.9500 B(  0-C ,  4-O ) :   0.9027 B(  0-C ,  5-H ) :   0.9048
B(  0-C , 15-O ) :   0.8618 B(  1-C ,  2-C ) :   0.9570 B(  1-C ,  6-H ) :   0.9401
B(  1-C ,  7-H ) :   0.9356 B(  2-C ,  3-C ) :   0.9555 B(  2-C ,  8-H ) :   0.9452
B(  2-C ,  9-H ) :   0.9436 B(  3-C ,  4-O ) :   0.8354 B(  3-C , 10-H ) :   0.9356
B(  3-C , 11-H ) :   0.9405 B( 12-C , 13-H ) :   0.9219 B( 12-C , 14-H ) :   0.9340
B( 12-C , 15-O ) :   0.8379 B( 12-C , 16-C ) :   0.8814 B( 16-C , 17-C ) :   0.9126
B( 16-C , 20-O ) :   0.8335 B( 16-C , 21-H ) :   0.9256 B( 17-C , 18-C ) :   0.9133
B( 17-C , 22-O ) :   0.8852 B( 17-C , 23-H ) :   0.9219 B( 18-C , 19-C ) :   0.9407
B( 18-C , 24-H ) :   0.9373 B( 18-C , 25-H ) :   0.9305 B( 19-C , 20-O ) :   0.8404
B( 19-C , 26-H ) :   0.9344 B( 19-C , 27-H ) :   0.9377 B( 22-O , 28-H ) :   0.7931

FINAL SINGLE POINT ENERGY      -652.865137134952

DIPOLE MOMENT
-------------
                                X             Y             Z
Electronic contribution:     -3.67076      -1.49418      -1.82214
Nuclear contribution   :      4.20984       1.50443       2.13468
                        -----------------------------------------
Total Dipole Moment    :      0.53908       0.01024       0.31254
                        -----------------------------------------
Magnitude (a.u.)       :      0.62321
Magnitude (Debye)      :      1.58408

Rotational constants in cm-1:     0.057343     0.013107     0.012523
Rotational constants in MHz :  1719.114590   392.926084   375.425413

                             ****ORCA TERMINATED NORMALLY****
TOTAL RUN TIME: 0 days 1 hours 45 minutes 6 seconds 979 msec
