                         Program Version 4.2.0 -  RELEASE  -
|  1> # Test redundant internal optimization
|  2> #
|  3> ! RKS B3LYP  Opt TightSCF SmallPrint
|  4>
|  5> %basis
|  6>         Basis "6-31G"
|  7> end
|  8>
|  9> %geom
| 10> Constraints
| 11> { D 4  0  15  12  270.0   C } # D for Dihedral angle
| 12> { D 0  15  12  16  210.0   C } # D for Dihedral angle
| 13> { D 0  4  3  2   C } # D for Dihedral angle
| 14> { D 4  3  2  1   C } # D for Dihedral angle
| 15> { D 3  2  1  0   C } # D for Dihedral angle
| 16> { D 2  1  0  4   C } # D for Dihedral angle
| 17> { D 1  0  4  3   C } # D for Dihedral angle
| 18> { D 16  20  19  18   C } # D for Dihedral angle
| 19> { D 20  19  18  17   C } # D for Dihedral angle
| 20> { D 19  18  17  16   C } # D for Dihedral angle
| 21> { D 18  17  16  20   C } # D for Dihedral angle
| 22> { D 17  16  20  19   C } # D for Dihedral angle
| 23> { D 15  12  16  20   C } # D for Dihedral angle
| 24> end
| 25> end
| 26>
| 27>
| 28> #%pal
| 29> #nprocs 8
| 30> #end
| 31>
| 32> * xyz 0 1
| 33> C  -21.048   26.222   46.251
| 34> C  -20.361   27.558   45.944
| 35> C  -20.329   28.222   47.341
| 36> C  -20.110   27.022   48.296
| 37> O  -20.473   25.807   47.535
| 38> H  -20.833   25.428   45.533
| 39> H  -19.344   27.382   45.576
| 40> H  -20.898   28.157   45.201
| 41> H  -19.543   28.978   47.434
| 42> H  -21.289   28.710   47.548
| 43> H  -20.733   27.082   49.195
| 44> H  -19.064   26.913   48.597
| 45> C  -23.420   25.119   46.072
| 46> H  -22.879   24.497   45.348
| 47> H  -23.567   24.530   46.987
| 48> O  -22.586   26.394   46.375
| 49> C  -24.822   25.443   45.487
| 50> C  -24.711   26.119   44.117
| 51> C  -24.435   24.910   43.192
| 52> C  -25.269   23.776   43.838
| 53> O  -25.565   24.206   45.221
| 54> H  -25.396   26.008   46.225
| 55> O  -26.058   26.797   43.746
| 56> H  -23.921   26.877   44.073
| 57> H  -24.719   25.097   42.152
| 58> H  -23.367   24.661   43.207
| 59> H  -24.731   22.823   43.866
| 60> H  -26.228   23.625   43.335
| 61> H  -26.866   26.056   43.782
| 62> *
| 63>
| 64>                          ****END OF INPUT****
 Total Charge           Charge          ....    0
 Multiplicity           Mult            ....    1
 Number of Electrons    NEL             ....  102
FINAL SINGLE POINT ENERGY      -652.838928715131
FINAL SINGLE POINT ENERGY      -652.862497016657
FINAL SINGLE POINT ENERGY      -652.866414448804
FINAL SINGLE POINT ENERGY      -652.867087136841
FINAL SINGLE POINT ENERGY      -652.867166622957
FINAL SINGLE POINT ENERGY      -652.867177476243
FINAL SINGLE POINT ENERGY      -652.867180533818
                    ***********************HURRAY********************

CARTESIAN COORDINATES (ANGSTROEM)
---------------------------------
  C    -21.081070   26.114608   46.230594
  C    -20.515833   27.494838   45.893541
  C    -20.548967   28.197447   47.271773
  C    -20.229316   27.048713   48.254291
  O    -20.485834   25.791573   47.507578
  H    -20.810256   25.304409   45.545608
  H    -19.486010   27.384527   45.534651
  H    -21.105223   28.009472   45.132017
  H    -19.830099   29.019203   47.343502
  H    -21.551094   28.595392   47.455498
  H    -20.858446   27.061625   49.147758
  H    -19.177150   27.025395   48.553502
  C    -23.307221   25.036969   46.097712
  H    -22.775984   24.356606   45.415279
  H    -23.474092   24.506664   47.041560
  O    -22.515857   26.239600   46.317659
  C    -24.648270   25.461727   45.499871
  C    -24.564992   26.143165   44.127288
  C    -24.406559   24.925105   43.180545
  C    -25.273384   23.835505   43.860190
  O    -25.475111   24.273040   45.264710
  H    -25.184104   26.093270   46.213822
  O    -25.781343   26.889188   43.844395
  H    -23.753383   26.865335   44.058587
  H    -24.748099   25.172844   42.172672
  H    -23.355960   24.620543   43.120986
  H    -24.798609   22.849661   43.859733
  H    -26.265376   23.745111   43.407096
  H    -26.557357   26.357465   44.121582

 Multiplicity           Mult            ....    1
 Number of Electrons    NEL             ....  102
 Basis Dimension        Dim             ....  149

ORBITAL ENERGIES
----------------

  NO   OCC          E(Eh)            E(eV)
   0   2.0000     -19.148524      -521.0578
   1   2.0000     -19.146319      -520.9978
   2   2.0000     -19.138981      -520.7981
   3   2.0000     -19.136942      -520.7427
   4   2.0000     -10.282181      -279.7924
   5   2.0000     -10.237666      -278.5811
   6   2.0000     -10.233599      -278.4704
   7   2.0000     -10.233361      -278.4639
   8   2.0000     -10.232490      -278.4402
   9   2.0000     -10.224342      -278.2185
  10   2.0000     -10.189684      -277.2754
  11   2.0000     -10.186478      -277.1882
  12   2.0000     -10.184918      -277.1457
  13   2.0000      -1.055682       -28.7266
  14   2.0000      -1.037227       -28.2244
  15   2.0000      -1.005653       -27.3652
  16   2.0000      -0.997263       -27.1369
  17   2.0000      -0.790321       -21.5057
  18   2.0000      -0.779652       -21.2154
  19   2.0000      -0.768440       -20.9103
  20   2.0000      -0.730381       -19.8747
  21   2.0000      -0.675304       -18.3760
  22   2.0000      -0.605337       -16.4720
  23   2.0000      -0.598648       -16.2900
  24   2.0000      -0.590698       -16.0737
  25   2.0000      -0.587190       -15.9783
  26   2.0000      -0.523332       -14.2406
  27   2.0000      -0.520776       -14.1710
  28   2.0000      -0.495682       -13.4882
  29   2.0000      -0.492005       -13.3881
  30   2.0000      -0.470309       -12.7977
  31   2.0000      -0.458067       -12.4646
  32   2.0000      -0.449632       -12.2351
  33   2.0000      -0.439696       -11.9647
  34   2.0000      -0.426606       -11.6085
  35   2.0000      -0.412190       -11.2163
  36   2.0000      -0.403146       -10.9702
  37   2.0000      -0.393676       -10.7125
  38   2.0000      -0.376896       -10.2559
  39   2.0000      -0.369623       -10.0580
  40   2.0000      -0.357643        -9.7320
  41   2.0000      -0.355424        -9.6716
  42   2.0000      -0.349485        -9.5100
  43   2.0000      -0.334982        -9.1153
  44   2.0000      -0.323730        -8.8092
  45   2.0000      -0.307943        -8.3796
  46   2.0000      -0.304946        -8.2980
  47   2.0000      -0.271639        -7.3917
  48   2.0000      -0.271054        -7.3758
  49   2.0000      -0.256176        -6.9709
  50   2.0000      -0.243909        -6.6371
  51   0.0000       0.063791         1.7359
  52   0.0000       0.068638         1.8677
  53   0.0000       0.092494         2.5169
  54   0.0000       0.095588         2.6011
  55   0.0000       0.104413         2.8412

MULLIKEN ATOMIC CHARGES
-----------------------
   0 C :    0.286766
   1 C :   -0.259636
   2 C :   -0.298869
   3 C :   -0.001413
   4 O :   -0.507809
   5 H :    0.138152
   6 H :    0.145127
   7 H :    0.152658
   8 H :    0.141337
   9 H :    0.165138
  10 H :    0.149862
  11 H :    0.141711
  12 C :    0.002184
  13 H :    0.122311
  14 H :    0.163759
  15 O :   -0.525980
  16 C :    0.058246
  17 C :    0.088013
  18 C :   -0.297194
  19 C :   -0.031211
  20 O :   -0.527172
  21 H :    0.169197
  22 O :   -0.604391
  23 H :    0.166380
  24 H :    0.162603
  25 H :    0.141055
  26 H :    0.146633
  27 H :    0.148370
  28 H :    0.364172
Sum of atomic charges:   -0.0000000

LOEWDIN ATOMIC CHARGES
----------------------
   0 C :    0.172858
   1 C :   -0.217043
   2 C :   -0.215765
   3 C :   -0.026965
   4 O :   -0.326214
   5 H :    0.095292
   6 H :    0.113984
   7 H :    0.120796
   8 H :    0.113766
   9 H :    0.120543
  10 H :    0.106993
  11 H :    0.102268
  12 C :   -0.034840
  13 H :    0.091502
  14 H :    0.113579
  15 O :   -0.329006
  16 C :    0.015824
  17 C :    0.037078
  18 C :   -0.241738
  19 C :   -0.038208
  20 O :   -0.329867
  21 H :    0.119656
  22 O :   -0.415125
  23 H :    0.121990
  24 H :    0.127140
  25 H :    0.111323
  26 H :    0.104159
  27 H :    0.103557
  28 H :    0.282462

  Mayer bond orders larger than 0.100000
B(  0-C ,  1-C ) :   0.9473 B(  0-C ,  4-O ) :   0.9215 B(  0-C ,  5-H ) :   0.9185
B(  0-C , 15-O ) :   0.8521 B(  1-C ,  2-C ) :   0.9581 B(  1-C ,  6-H ) :   0.9393
B(  1-C ,  7-H ) :   0.9363 B(  2-C ,  3-C ) :   0.9543 B(  2-C ,  8-H ) :   0.9451
B(  2-C ,  9-H ) :   0.9438 B(  3-C ,  4-O ) :   0.8373 B(  3-C , 10-H ) :   0.9354
B(  3-C , 11-H ) :   0.9402 B( 12-C , 13-H ) :   0.9193 B( 12-C , 14-H ) :   0.9197
B( 12-C , 15-O ) :   0.8207 B( 12-C , 16-C ) :   0.9043 B( 16-C , 17-C ) :   0.9097
B( 16-C , 20-O ) :   0.8421 B( 16-C , 21-H ) :   0.9247 B( 17-C , 18-C ) :   0.9120
B( 17-C , 22-O ) :   0.8915 B( 17-C , 23-H ) :   0.9252 B( 18-C , 19-C ) :   0.9413
B( 18-C , 24-H ) :   0.9375 B( 18-C , 25-H ) :   0.9351 B( 19-C , 20-O ) :   0.8445
B( 19-C , 26-H ) :   0.9355 B( 19-C , 27-H ) :   0.9377 B( 22-O , 28-H ) :   0.7949

FINAL SINGLE POINT ENERGY      -652.867181109341

DIPOLE MOMENT
-------------
                                X             Y             Z
Electronic contribution:     -3.55799      -1.64353       1.41886
Nuclear contribution   :      4.18809       1.60273      -1.95752
                        -----------------------------------------
Total Dipole Moment    :      0.63010      -0.04080      -0.53865
                        -----------------------------------------
Magnitude (a.u.)       :      0.82996
Magnitude (Debye)      :      2.10960

Rotational constants in cm-1:     0.059648     0.012138     0.011357
Rotational constants in MHz :  1788.188445   363.892351   340.461791

                             ****ORCA TERMINATED NORMALLY****
TOTAL RUN TIME: 0 days 1 hours 27 minutes 49 seconds 943 msec
