                         Program Version 4.2.0 -  RELEASE  -
|  1> # Test redundant internal optimization
|  2> #
|  3> ! RKS B3LYP  Opt TightSCF SmallPrint
|  4>
|  5> %basis
|  6>         Basis "6-31G"
|  7> end
|  8>
|  9> %geom
| 10> Constraints
| 11> { D 4  0  15  12  255.0   C } # D for Dihedral angle
| 12> { D 0  15  12  16  60.0   C } # D for Dihedral angle
| 13> { D 0  4  3  2   C } # D for Dihedral angle
| 14> { D 4  3  2  1   C } # D for Dihedral angle
| 15> { D 3  2  1  0   C } # D for Dihedral angle
| 16> { D 2  1  0  4   C } # D for Dihedral angle
| 17> { D 1  0  4  3   C } # D for Dihedral angle
| 18> { D 16  20  19  18   C } # D for Dihedral angle
| 19> { D 20  19  18  17   C } # D for Dihedral angle
| 20> { D 19  18  17  16   C } # D for Dihedral angle
| 21> { D 18  17  16  20   C } # D for Dihedral angle
| 22> { D 17  16  20  19   C } # D for Dihedral angle
| 23> { D 15  12  16  20   C } # D for Dihedral angle
| 24> end
| 25> end
| 26>
| 27>
| 28> #%pal
| 29> #nprocs 8
| 30> #end
| 31>
| 32> * xyz 0 1
| 33> C  -21.048   26.222   46.251
| 34> C  -20.361   27.558   45.944
| 35> C  -20.329   28.222   47.341
| 36> C  -20.110   27.022   48.296
| 37> O  -20.473   25.807   47.535
| 38> H  -20.833   25.428   45.533
| 39> H  -19.344   27.382   45.576
| 40> H  -20.898   28.157   45.201
| 41> H  -19.543   28.978   47.434
| 42> H  -21.289   28.710   47.548
| 43> H  -20.733   27.082   49.195
| 44> H  -19.064   26.913   48.597
| 45> C  -23.431   25.260   45.734
| 46> H  -24.497   25.482   45.869
| 47> H  -23.229   25.192   44.657
| 48> O  -22.586   26.394   46.375
| 49> C  -23.140   23.867   46.358
| 50> C  -23.903   22.758   45.626
| 51> C  -23.024   22.550   44.369
| 52> C  -21.588   22.783   44.902
| 53> O  -21.728   23.511   46.181
| 54> H  -23.327   23.911   47.433
| 55> O  -23.934   21.470   46.493
| 56> H  -24.934   23.035   45.381
| 57> H  -23.148   21.557   43.924
| 58> H  -23.278   23.294   43.605
| 59> H  -20.978   23.380   44.214
| 60> H  -21.066   21.847   45.118
| 61> H  -22.910   21.174   46.749
| 62> *
| 63>
| 64>                          ****END OF INPUT****
 Total Charge           Charge          ....    0
 Multiplicity           Mult            ....    1
 Number of Electrons    NEL             ....  102
FINAL SINGLE POINT ENERGY      -652.830635691173
FINAL SINGLE POINT ENERGY      -652.854183499360
FINAL SINGLE POINT ENERGY      -652.858952870587
FINAL SINGLE POINT ENERGY      -652.859937231654
FINAL SINGLE POINT ENERGY      -652.860069497860
FINAL SINGLE POINT ENERGY      -652.860086387918
                    ***********************HURRAY********************

CARTESIAN COORDINATES (ANGSTROEM)
---------------------------------
  C    -20.925324   26.230776   46.210653
  C    -20.413359   27.653548   45.983829
  C    -20.488278   28.251426   47.410007
  C    -20.131710   27.045638   48.306738
  O    -20.329916   25.840099   47.466475
  H    -20.630935   25.483264   45.475857
  H    -19.375582   27.613038   45.631911
  H    -21.016038   28.199256   45.254621
  H    -19.805727   29.094827   47.551545
  H    -21.508359   28.592247   47.610035
  H    -20.768747   26.967832   49.191754
  H    -19.082154   27.043664   48.617221
  C    -23.214923   25.277001   45.749547
  H    -24.234144   25.597848   45.986798
  H    -23.102697   25.283487   44.652464
  O    -22.371755   26.307631   46.321765
  C    -22.999206   23.859314   46.286935
  C    -23.894489   22.796615   45.632441
  C    -23.091974   22.458236   44.347134
  C    -21.619090   22.576155   44.810888
  O    -21.634428   23.366287   46.068418
  H    -23.135012   23.874643   47.372893
  O    -24.041445   21.637114   46.495928
  H    -24.911250   23.135790   45.428359
  H    -23.347581   21.459257   43.985663
  H    -23.321016   23.180448   43.555231
  H    -20.982398   23.081612   44.077887
  H    -21.172927   21.605673   45.047306
  H    -23.175538   21.433273   46.908696

 Multiplicity           Mult            ....    1
 Number of Electrons    NEL             ....  102
 Basis Dimension        Dim             ....  149

ORBITAL ENERGIES
----------------

  NO   OCC          E(Eh)            E(eV)
   0   2.0000     -19.145792      -520.9835
   1   2.0000     -19.140478      -520.8389
   2   2.0000     -19.135818      -520.7121
   3   2.0000     -19.125822      -520.4401
   4   2.0000     -10.267035      -279.3802
   5   2.0000     -10.245841      -278.8035
   6   2.0000     -10.234678      -278.4997
   7   2.0000     -10.234148      -278.4853
   8   2.0000     -10.233876      -278.4779
   9   2.0000     -10.214339      -277.9463
  10   2.0000     -10.192934      -277.3638
  11   2.0000     -10.176485      -276.9162
  12   2.0000     -10.176296      -276.9111
  13   2.0000      -1.045375       -28.4461
  14   2.0000      -1.035647       -28.1814
  15   2.0000      -1.008218       -27.4350
  16   2.0000      -0.985187       -26.8083
  17   2.0000      -0.788256       -21.4495
  18   2.0000      -0.778054       -21.1719
  19   2.0000      -0.765054       -20.8182
  20   2.0000      -0.726245       -19.7621
  21   2.0000      -0.673389       -18.3238
  22   2.0000      -0.606711       -16.5095
  23   2.0000      -0.598855       -16.2957
  24   2.0000      -0.588447       -16.0125
  25   2.0000      -0.573475       -15.6051
  26   2.0000      -0.526129       -14.3167
  27   2.0000      -0.508362       -13.8332
  28   2.0000      -0.494938       -13.4680
  29   2.0000      -0.481356       -13.0984
  30   2.0000      -0.472381       -12.8542
  31   2.0000      -0.456109       -12.4113
  32   2.0000      -0.447193       -12.1688
  33   2.0000      -0.437272       -11.8988
  34   2.0000      -0.422061       -11.4849
  35   2.0000      -0.409346       -11.1389
  36   2.0000      -0.396868       -10.7993
  37   2.0000      -0.390403       -10.6234
  38   2.0000      -0.376388       -10.2420
  39   2.0000      -0.366774        -9.9804
  40   2.0000      -0.360988        -9.8230
  41   2.0000      -0.347601        -9.4587
  42   2.0000      -0.341018        -9.2796
  43   2.0000      -0.334373        -9.0988
  44   2.0000      -0.316269        -8.6061
  45   2.0000      -0.304927        -8.2975
  46   2.0000      -0.292880        -7.9697
  47   2.0000      -0.274065        -7.4577
  48   2.0000      -0.264261        -7.1909
  49   2.0000      -0.250977        -6.8294
  50   2.0000      -0.231024        -6.2865
  51   0.0000       0.060578         1.6484
  52   0.0000       0.084312         2.2943
  53   0.0000       0.090090         2.4515
  54   0.0000       0.099565         2.7093
  55   0.0000       0.107694         2.9305

MULLIKEN ATOMIC CHARGES
-----------------------
   0 C :    0.296679
   1 C :   -0.253590
   2 C :   -0.297417
   3 C :   -0.001335
   4 O :   -0.497728
   5 H :    0.152378
   6 H :    0.139792
   7 H :    0.144055
   8 H :    0.135343
   9 H :    0.160150
  10 H :    0.144829
  11 H :    0.137270
  12 C :   -0.006181
  13 H :    0.152214
  14 H :    0.120865
  15 O :   -0.526716
  16 C :    0.060475
  17 C :    0.077522
  18 C :   -0.288169
  19 C :   -0.039655
  20 O :   -0.506428
  21 H :    0.174850
  22 O :   -0.601929
  23 H :    0.151908
  24 H :    0.162546
  25 H :    0.141135
  26 H :    0.146029
  27 H :    0.152650
  28 H :    0.368458
Sum of atomic charges:   -0.0000000

LOEWDIN ATOMIC CHARGES
----------------------
   0 C :    0.175771
   1 C :   -0.219185
   2 C :   -0.216534
   3 C :   -0.028782
   4 O :   -0.312699
   5 H :    0.106033
   6 H :    0.110672
   7 H :    0.117318
   8 H :    0.110591
   9 H :    0.118116
  10 H :    0.104109
  11 H :    0.099771
  12 C :   -0.038577
  13 H :    0.117480
  14 H :    0.087410
  15 O :   -0.330434
  16 C :    0.004386
  17 C :    0.036550
  18 C :   -0.239928
  19 C :   -0.041642
  20 O :   -0.318055
  21 H :    0.122956
  22 O :   -0.413361
  23 H :    0.115717
  24 H :    0.127215
  25 H :    0.111370
  26 H :    0.102665
  27 H :    0.105637
  28 H :    0.285425

  Mayer bond orders larger than 0.100000
B(  0-C ,  1-C ) :   0.9425 B(  0-C ,  4-O ) :   0.9188 B(  0-C ,  5-H ) :   0.9155
B(  0-C , 15-O ) :   0.8267 B(  1-C ,  2-C ) :   0.9572 B(  1-C ,  6-H ) :   0.9401
B(  1-C ,  7-H ) :   0.9387 B(  2-C ,  3-C ) :   0.9532 B(  2-C ,  8-H ) :   0.9461
B(  2-C ,  9-H ) :   0.9442 B(  3-C ,  4-O ) :   0.8467 B(  3-C , 10-H ) :   0.9354
B(  3-C , 11-H ) :   0.9400 B( 12-C , 13-H ) :   0.9312 B( 12-C , 14-H ) :   0.9225
B( 12-C , 15-O ) :   0.8744 B( 12-C , 16-C ) :   0.8855 B( 16-C , 17-C ) :   0.8952
B( 16-C , 20-O ) :   0.8525 B( 16-C , 21-H ) :   0.9213 B( 17-C , 18-C ) :   0.9093
B( 17-C , 22-O ) :   0.8951 B( 17-C , 23-H ) :   0.9337 B( 18-C , 19-C ) :   0.9394
B( 18-C , 24-H ) :   0.9377 B( 18-C , 25-H ) :   0.9337 B( 19-C , 20-O ) :   0.8473
B( 19-C , 26-H ) :   0.9330 B( 19-C , 27-H ) :   0.9374 B( 22-O , 28-H ) :   0.7923

FINAL SINGLE POINT ENERGY      -652.860088089823

DIPOLE MOMENT
-------------
                                X             Y             Z
Electronic contribution:     -1.26295      -3.49720       2.38753
Nuclear contribution   :      1.38680       3.91400      -3.39002
                        -----------------------------------------
Total Dipole Moment    :      0.12385       0.41680      -1.00249
                        -----------------------------------------
Magnitude (a.u.)       :      1.09272
Magnitude (Debye)      :      2.77748

Rotational constants in cm-1:     0.063922     0.012882     0.012828
Rotational constants in MHz :  1916.336781   386.206402   384.566481

                             ****ORCA TERMINATED NORMALLY****
TOTAL RUN TIME: 0 days 0 hours 20 minutes 23 seconds 616 msec
