                         Program Version 4.2.1 -  RELEASE  -
|  1> # Test redundant internal optimization
|  2> #
|  3> ! RKS B3LYP  Opt TightSCF SmallPrint
|  4>
|  5> %basis
|  6>         Basis "6-31G"
|  7> end
|  8>
|  9> %geom
| 10> Constraints
| 11> { D 4  0  19  14  150.0   C } # D for Dihedral angle
| 12> { D 0  19  14  12  150.0   C } # D for Dihedral angle
| 13> { D 0  4  3  2   C } # D for Dihedral angle
| 14> { D 4  3  2  1   C } # D for Dihedral angle
| 15> { D 3  2  1  0   C } # D for Dihedral angle
| 16> { D 2  1  0  4   C } # D for Dihedral angle
| 17> { D 1  0  4  3   C } # D for Dihedral angle
| 18> { D 14  15  16  17   C } # D for Dihedral angle
| 19> { D 15  16  17  12   C } # D for Dihedral angle
| 20> { D 16  17  12  14   C } # D for Dihedral angle
| 21> { D 17  12  14  15   C } # D for Dihedral angle
| 22> { D 12  14  15  16   C } # D for Dihedral angle
| 23> end
| 24> end
| 25>
| 26>
| 27> #%pal
| 28> #nprocs 8
| 29> #end
| 30>
| 31> * xyz 0 1
| 32> C  -21.048   26.222   46.251
| 33> C  -20.361   27.558   45.944
| 34> C  -20.329   28.222   47.341
| 35> C  -20.110   27.022   48.296
| 36> O  -20.473   25.807   47.535
| 37> H  -20.833   25.428   45.533
| 38> H  -19.344   27.382   45.576
| 39> H  -20.898   28.157   45.201
| 40> H  -19.543   28.978   47.434
| 41> H  -21.289   28.710   47.548
| 42> H  -20.733   27.082   49.195
| 43> H  -19.064   26.913   48.597
| 44> C  -24.469   26.990   45.114
| 45> H  -24.817   27.553   44.234
| 46> C  -23.030   27.370   45.486
| 47> C  -23.241   28.708   46.231
| 48> C  -24.588   28.494   46.967
| 49> O  -25.255   27.355   46.298
| 50> H  -24.626   25.924   44.943
| 51> O  -22.472   26.381   46.366
| 52> H  -22.373   27.467   44.615
| 53> H  -22.423   28.945   46.919
| 54> H  -23.322   29.532   45.511
| 55> H  -25.240   29.372   46.915
| 56> H  -24.451   28.215   48.016
| 57> *
| 58>
| 59>                          ****END OF INPUT****
 Total Charge           Charge          ....    0
 Multiplicity           Mult            ....    1
 Number of Electrons    NEL             ....   86
FINAL SINGLE POINT ENERGY      -538.399755552493
FINAL SINGLE POINT ENERGY      -538.419369656527
FINAL SINGLE POINT ENERGY      -538.420711721225
FINAL SINGLE POINT ENERGY      -538.420947767192
FINAL SINGLE POINT ENERGY      -538.420968005625
FINAL SINGLE POINT ENERGY      -538.420972974415
                    ***********************HURRAY********************

CARTESIAN COORDINATES (ANGSTROEM)
---------------------------------
  C    -21.020378   26.295829   46.244708
  C    -20.129026   27.511165   45.971953
  C    -20.081715   28.203641   47.365194
  C    -20.099873   26.996670   48.331703
  O    -20.594693   25.847703   47.538423
  H    -20.831221   25.459923   45.563779
  H    -19.135093   27.147379   45.691420
  H    -20.485738   28.169641   45.175088
  H    -19.184494   28.818109   47.488779
  H    -20.951312   28.844094   47.519068
  H    -20.760987   27.143218   49.189954
  H    -19.101744   26.725860   48.687417
  C    -24.528369   26.950422   45.134242
  H    -24.974104   27.457268   44.265443
  C    -23.130014   27.497771   45.426549
  C    -23.457222   28.805059   46.171789
  C    -24.727724   28.448699   46.979171
  O    -25.290733   27.233065   46.353501
  H    -24.529853   25.870923   44.984662
  O    -22.465642   26.502055   46.264234
  H    -22.559140   27.671987   44.505174
  H    -22.643581   29.154634   46.804935
  H    -23.671621   29.587718   45.433588
  H    -25.477732   29.248079   46.956996
  H    -24.499991   28.196089   48.018231

 Multiplicity           Mult            ....    1
 Number of Electrons    NEL             ....   86
 Basis Dimension        Dim             ....  127

ORBITAL ENERGIES
----------------

  NO   OCC          E(Eh)            E(eV)
   0   2.0000     -19.140996      -520.8530
   1   2.0000     -19.136410      -520.7282
   2   2.0000     -19.125814      -520.4399
   3   2.0000     -10.281274      -279.7677
   4   2.0000     -10.244503      -278.7671
   5   2.0000     -10.228171      -278.3227
   6   2.0000     -10.220205      -278.1059
   7   2.0000     -10.219857      -278.0964
   8   2.0000     -10.196227      -277.4534
   9   2.0000     -10.194889      -277.4170
  10   2.0000     -10.188639      -277.2470
  11   2.0000      -1.051283       -28.6069
  12   2.0000      -1.013423       -27.5767
  13   2.0000      -0.987523       -26.8719
  14   2.0000      -0.791576       -21.5399
  15   2.0000      -0.785715       -21.3804
  16   2.0000      -0.743268       -20.2254
  17   2.0000      -0.724632       -19.7182
  18   2.0000      -0.619661       -16.8618
  19   2.0000      -0.602717       -16.4008
  20   2.0000      -0.599673       -16.3179
  21   2.0000      -0.567993       -15.4559
  22   2.0000      -0.521135       -14.1808
  23   2.0000      -0.506041       -13.7701
  24   2.0000      -0.495418       -13.4810
  25   2.0000      -0.483322       -13.1519
  26   2.0000      -0.453037       -12.3278
  27   2.0000      -0.443485       -12.0678
  28   2.0000      -0.429026       -11.6744
  29   2.0000      -0.421982       -11.4827
  30   2.0000      -0.411109       -11.1868
  31   2.0000      -0.386936       -10.5291
  32   2.0000      -0.375434       -10.2161
  33   2.0000      -0.368752       -10.0342
  34   2.0000      -0.367520       -10.0007
  35   2.0000      -0.359402        -9.7798
  36   2.0000      -0.353114        -9.6087
  37   2.0000      -0.315581        -8.5874
  38   2.0000      -0.301497        -8.2041
  39   2.0000      -0.291044        -7.9197
  40   2.0000      -0.262056        -7.1309
  41   2.0000      -0.254274        -6.9191
  42   2.0000      -0.229526        -6.2457
  43   0.0000       0.067762         1.8439
  44   0.0000       0.085954         2.3389
  45   0.0000       0.091716         2.4957
  46   0.0000       0.110027         2.9940
  47   0.0000       0.115014         3.1297

MULLIKEN ATOMIC CHARGES
-----------------------
   0 C :    0.323075
   1 C :   -0.297655
   2 C :   -0.309762
   3 C :   -0.001430
   4 O :   -0.495426
   5 H :    0.148675
   6 H :    0.156060
   7 H :    0.142145
   8 H :    0.145495
   9 H :    0.156206
  10 H :    0.152607
  11 H :    0.144488
  12 C :    0.013014
  13 H :    0.119223
  14 C :    0.058115
  15 C :   -0.298090
  16 C :    0.000938
  17 O :   -0.515386
  18 H :    0.169447
  19 O :   -0.516967
  20 H :    0.125634
  21 H :    0.148992
  22 H :    0.138993
  23 H :    0.135789
  24 H :    0.155819
Sum of atomic charges:   -0.0000000

LOEWDIN ATOMIC CHARGES
----------------------
   0 C :    0.185055
   1 C :   -0.233324
   2 C :   -0.219583
   3 C :   -0.027195
   4 O :   -0.302913
   5 H :    0.098848
   6 H :    0.122388
   7 H :    0.112911
   8 H :    0.115861
   9 H :    0.109960
  10 H :    0.108081
  11 H :    0.103747
  12 C :   -0.033308
  13 H :    0.088735
  14 C :    0.037995
  15 C :   -0.236408
  16 C :   -0.028595
  17 O :   -0.326172
  18 H :    0.124565
  19 O :   -0.330546
  20 H :    0.094393
  21 H :    0.116342
  22 H :    0.112038
  23 H :    0.098052
  24 H :    0.109072

  Mayer bond orders larger than 0.100000
B(  0-C ,  1-C ) :   0.9243 B(  0-C ,  4-O ) :   0.9315 B(  0-C ,  5-H ) :   0.9271
B(  0-C , 19-O ) :   0.8565 B(  1-C ,  2-C ) :   0.9533 B(  1-C ,  6-H ) :   0.9328
B(  1-C ,  7-H ) :   0.9298 B(  2-C ,  3-C ) :   0.9520 B(  2-C ,  8-H ) :   0.9450
B(  2-C ,  9-H ) :   0.9283 B(  3-C ,  4-O ) :   0.8405 B(  3-C , 10-H ) :   0.9338
B(  3-C , 11-H ) :   0.9396 B( 12-C , 13-H ) :   0.9149 B( 12-C , 14-C ) :   0.9298
B( 12-C , 17-O ) :   0.8743 B( 12-C , 18-H ) :   0.9304 B( 14-C , 15-C ) :   0.9326
B( 14-C , 19-O ) :   0.8393 B( 14-C , 20-H ) :   0.9181 B( 15-C , 16-C ) :   0.9479
B( 15-C , 21-H ) :   0.9241 B( 15-C , 22-H ) :   0.9358 B( 16-C , 17-O ) :   0.8603
B( 16-C , 23-H ) :   0.9324 B( 16-C , 24-H ) :   0.9350

FINAL SINGLE POINT ENERGY      -538.420973467617

DIPOLE MOMENT
-------------
                                X             Y             Z
Electronic contribution:     -2.42687      -5.43001       0.37404
Nuclear contribution   :      3.58479       6.97483      -1.10108
                        -----------------------------------------
Total Dipole Moment    :      1.15792       1.54482      -0.72704
                        -----------------------------------------
Magnitude (a.u.)       :      2.06297
Magnitude (Debye)      :      5.24366

Rotational constants in cm-1:     0.073729     0.022239     0.021275
Rotational constants in MHz :  2210.345107   666.709793   637.804948

                             ****ORCA TERMINATED NORMALLY****
TOTAL RUN TIME: 0 days 0 hours 7 minutes 27 seconds 978 msec
