                         Program Version 4.2.1 -  RELEASE  -
|  1> # Test redundant internal optimization
|  2> #
|  3> ! RKS B3LYP  Opt TightSCF SmallPrint
|  4>
|  5> %basis
|  6>         Basis "6-31G"
|  7> end
|  8>
|  9> %geom
| 10> Constraints
| 11> { D 4  0  19  14  345.0   C } # D for Dihedral angle
| 12> { D 0  19  14  12  195.0   C } # D for Dihedral angle
| 13> { D 0  4  3  2   C } # D for Dihedral angle
| 14> { D 4  3  2  1   C } # D for Dihedral angle
| 15> { D 3  2  1  0   C } # D for Dihedral angle
| 16> { D 2  1  0  4   C } # D for Dihedral angle
| 17> { D 1  0  4  3   C } # D for Dihedral angle
| 18> { D 14  15  16  17   C } # D for Dihedral angle
| 19> { D 15  16  17  12   C } # D for Dihedral angle
| 20> { D 16  17  12  14   C } # D for Dihedral angle
| 21> { D 17  12  14  15   C } # D for Dihedral angle
| 22> { D 12  14  15  16   C } # D for Dihedral angle
| 23> end
| 24> end
| 25>
| 26>
| 27> #%pal
| 28> #nprocs 8
| 29> #end
| 30>
| 31> * xyz 0 1
| 32> C  -21.048   26.222   46.251
| 33> C  -20.361   27.558   45.944
| 34> C  -20.329   28.222   47.341
| 35> C  -20.110   27.022   48.296
| 36> O  -20.473   25.807   47.535
| 37> H  -20.833   25.428   45.533
| 38> H  -19.344   27.382   45.576
| 39> H  -20.898   28.157   45.201
| 40> H  -19.543   28.978   47.434
| 41> H  -21.289   28.710   47.548
| 42> H  -20.733   27.082   49.195
| 43> H  -19.064   26.913   48.597
| 44> C  -24.562   25.683   47.399
| 45> H  -25.048   25.514   48.373
| 46> C  -23.040   25.792   47.547
| 47> C  -22.629   24.306   47.668
| 48> C  -23.634   23.585   46.734
| 49> O  -24.758   24.524   46.522
| 50> H  -25.032   26.537   46.909
| 51> O  -22.472   26.381   46.366
| 52> H  -22.734   26.390   48.412
| 53> H  -21.589   24.128   47.379
| 54> H  -22.752   23.964   48.704
| 55> H  -24.019   22.656   47.168
| 56> H  -23.207   23.367   45.751
| 57> *
| 58>
| 59>                          ****END OF INPUT****
 Total Charge           Charge          ....    0
 Multiplicity           Mult            ....    1
 Number of Electrons    NEL             ....   86
FINAL SINGLE POINT ENERGY      -538.421681712092
FINAL SINGLE POINT ENERGY      -538.430243613983
FINAL SINGLE POINT ENERGY      -538.431322330426
FINAL SINGLE POINT ENERGY      -538.431565186191
FINAL SINGLE POINT ENERGY      -538.431583036300
FINAL SINGLE POINT ENERGY      -538.431589806444
                    ***********************HURRAY********************

CARTESIAN COORDINATES (ANGSTROEM)
---------------------------------
  C    -20.984119   26.250019   46.269696
  C    -20.443021   27.645790   45.956268
  C    -20.307153   28.255812   47.370234
  C    -19.891251   27.047643   48.239048
  O    -20.250035   25.837239   47.447439
  H    -20.778318   25.493259   45.508062
  H    -19.466079   27.554101   45.467633
  H    -21.117775   28.207049   45.306856
  H    -19.572555   29.065856   47.410692
  H    -21.273347   28.654599   47.694618
  H    -20.410193   27.005807   49.200735
  H    -18.812140   26.997565   48.411079
  C    -24.567375   25.681920   47.260102
  H    -25.171234   25.564906   48.172186
  C    -23.079003   25.720335   47.606227
  C    -22.766502   24.224294   47.796578
  C    -23.669887   23.532354   46.751221
  O    -24.708665   24.520223   46.379118
  H    -24.895514   26.560579   46.703609
  O    -22.423738   26.333366   46.451446
  H    -22.864826   26.306931   48.508042
  H    -21.705395   24.005787   47.679293
  H    -23.058203   23.936947   48.814753
  H    -24.153758   22.631198   47.143673
  H    -23.130912   23.274420   45.834395

 Multiplicity           Mult            ....    1
 Number of Electrons    NEL             ....   86
 Basis Dimension        Dim             ....  127

ORBITAL ENERGIES
----------------

  NO   OCC          E(Eh)            E(eV)
   0   2.0000     -19.151308      -521.1336
   1   2.0000     -19.136261      -520.7241
   2   2.0000     -19.121583      -520.3247
   3   2.0000     -10.280000      -279.7330
   4   2.0000     -10.237269      -278.5703
   5   2.0000     -10.233980      -278.4807
   6   2.0000     -10.216430      -278.0032
   7   2.0000     -10.214278      -277.9446
   8   2.0000     -10.191518      -277.3253
   9   2.0000     -10.186646      -277.1927
  10   2.0000     -10.175708      -276.8951
  11   2.0000      -1.055117       -28.7112
  12   2.0000      -1.009699       -27.4753
  13   2.0000      -0.985728       -26.8230
  14   2.0000      -0.794500       -21.6194
  15   2.0000      -0.774934       -21.0870
  16   2.0000      -0.741370       -20.1737
  17   2.0000      -0.718967       -19.5641
  18   2.0000      -0.614131       -16.7114
  19   2.0000      -0.603809       -16.4305
  20   2.0000      -0.591705       -16.1011
  21   2.0000      -0.561120       -15.2689
  22   2.0000      -0.524454       -14.2711
  23   2.0000      -0.496368       -13.5069
  24   2.0000      -0.488283       -13.2869
  25   2.0000      -0.480499       -13.0751
  26   2.0000      -0.452644       -12.3171
  27   2.0000      -0.443656       -12.0725
  28   2.0000      -0.418906       -11.3990
  29   2.0000      -0.411003       -11.1840
  30   2.0000      -0.406505       -11.0616
  31   2.0000      -0.386757       -10.5242
  32   2.0000      -0.369717       -10.0605
  33   2.0000      -0.361352        -9.8329
  34   2.0000      -0.360183        -9.8011
  35   2.0000      -0.359022        -9.7695
  36   2.0000      -0.346813        -9.4373
  37   2.0000      -0.329091        -8.9550
  38   2.0000      -0.306668        -8.3449
  39   2.0000      -0.290765        -7.9121
  40   2.0000      -0.263437        -7.1685
  41   2.0000      -0.250919        -6.8279
  42   2.0000      -0.228514        -6.2182
  43   0.0000       0.068353         1.8600
  44   0.0000       0.095890         2.6093
  45   0.0000       0.102645         2.7931
  46   0.0000       0.104573         2.8456
  47   0.0000       0.119645         3.2557

MULLIKEN ATOMIC CHARGES
-----------------------
   0 C :    0.304619
   1 C :   -0.257220
   2 C :   -0.304890
   3 C :   -0.015440
   4 O :   -0.517948
   5 H :    0.153334
   6 H :    0.144153
   7 H :    0.164272
   8 H :    0.146823
   9 H :    0.156249
  10 H :    0.144620
  11 H :    0.150843
  12 C :    0.001693
  13 H :    0.122518
  14 C :    0.089469
  15 C :   -0.309120
  16 C :    0.002007
  17 O :   -0.519578
  18 H :    0.164193
  19 O :   -0.538424
  20 H :    0.122892
  21 H :    0.186825
  22 H :    0.131969
  23 H :    0.132970
  24 H :    0.143172
Sum of atomic charges:   -0.0000000

LOEWDIN ATOMIC CHARGES
----------------------
   0 C :    0.181130
   1 C :   -0.216017
   2 C :   -0.218075
   3 C :   -0.031928
   4 O :   -0.324122
   5 H :    0.101569
   6 H :    0.113475
   7 H :    0.127855
   8 H :    0.117004
   9 H :    0.115713
  10 H :    0.102089
  11 H :    0.106700
  12 C :   -0.033850
  13 H :    0.089741
  14 C :    0.044896
  15 C :   -0.240399
  16 C :   -0.029494
  17 O :   -0.330583
  18 H :    0.121374
  19 O :   -0.335808
  20 H :    0.092638
  21 H :    0.135424
  22 H :    0.110871
  23 H :    0.097331
  24 H :    0.102465

  Mayer bond orders larger than 0.100000
B(  0-C ,  1-C ) :   0.9399 B(  0-C ,  4-O ) :   0.8919 B(  0-C ,  5-H ) :   0.9260
B(  0-C , 19-O ) :   0.8463 B(  1-C ,  2-C ) :   0.9529 B(  1-C ,  6-H ) :   0.9363
B(  1-C ,  7-H ) :   0.9354 B(  2-C ,  3-C ) :   0.9543 B(  2-C ,  8-H ) :   0.9444
B(  2-C ,  9-H ) :   0.9454 B(  3-C ,  4-O ) :   0.8301 B(  3-C , 10-H ) :   0.9334
B(  3-C , 11-H ) :   0.9399 B( 12-C , 13-H ) :   0.9155 B( 12-C , 14-C ) :   0.9341
B( 12-C , 17-O ) :   0.8741 B( 12-C , 18-H ) :   0.9303 B( 14-C , 15-C ) :   0.9346
B( 14-C , 19-O ) :   0.8245 B( 14-C , 20-H ) :   0.9223 B( 15-C , 16-C ) :   0.9407
B( 15-C , 21-H ) :   0.9210 B( 15-C , 22-H ) :   0.9388 B( 16-C , 17-O ) :   0.8567
B( 16-C , 23-H ) :   0.9339 B( 16-C , 24-H ) :   0.9378

FINAL SINGLE POINT ENERGY      -538.431590048094

DIPOLE MOMENT
-------------
                                X             Y             Z
Electronic contribution:     -1.95647      -1.76804      -2.16717
Nuclear contribution   :      2.88821       2.44259       2.99499
                        -----------------------------------------
Total Dipole Moment    :      0.93174       0.67455       0.82782
                        -----------------------------------------
Magnitude (a.u.)       :      1.41719
Magnitude (Debye)      :      3.60222

Rotational constants in cm-1:     0.083607     0.022088     0.020857
Rotational constants in MHz :  2506.475795   662.185109   625.273453

                             ****ORCA TERMINATED NORMALLY****
TOTAL RUN TIME: 0 days 0 hours 8 minutes 20 seconds 52 msec
