                         Program Version 4.2.0 -  RELEASE  -
|  1> # Test redundant internal optimization
|  2> #
|  3> ! RKS B3LYP  Opt TightSCF SmallPrint
|  4>
|  5> %basis
|  6>         Basis "6-31G"
|  7> end
|  8>
|  9> %geom
| 10> Constraints
| 11> { D 4  0  15  12  15.0   C } # D for Dihedral angle
| 12> { D 0  15  12  16  210.0   C } # D for Dihedral angle
| 13> { D 0  4  3  2   C } # D for Dihedral angle
| 14> { D 4  3  2  1   C } # D for Dihedral angle
| 15> { D 3  2  1  0   C } # D for Dihedral angle
| 16> { D 2  1  0  4   C } # D for Dihedral angle
| 17> { D 1  0  4  3   C } # D for Dihedral angle
| 18> { D 16  20  19  18   C } # D for Dihedral angle
| 19> { D 20  19  18  17   C } # D for Dihedral angle
| 20> { D 19  18  17  16   C } # D for Dihedral angle
| 21> { D 18  17  16  20   C } # D for Dihedral angle
| 22> { D 17  16  20  19   C } # D for Dihedral angle
| 23> { D 15  12  16  20   C } # D for Dihedral angle
| 24> end
| 25> end
| 26>
| 27>
| 28> #%pal
| 29> #nprocs 8
| 30> #end
| 31>
| 32> * xyz 0 1
| 33> C  -21.048   26.222   46.251
| 34> C  -20.361   27.558   45.944
| 35> C  -20.329   28.222   47.341
| 36> C  -20.110   27.022   48.296
| 37> O  -20.473   25.807   47.535
| 38> H  -20.833   25.428   45.533
| 39> H  -19.344   27.382   45.576
| 40> H  -20.898   28.157   45.201
| 41> H  -19.543   28.978   47.434
| 42> H  -21.289   28.710   47.548
| 43> H  -20.733   27.082   49.195
| 44> H  -19.064   26.913   48.597
| 45> C  -23.128   26.462   47.829
| 46> H  -22.472   25.879   48.488
| 47> H  -23.138   27.500   48.187
| 48> O  -22.586   26.394   46.375
| 49> C  -24.572   25.903   47.959
| 50> C  -25.532   26.612   46.997
| 51> C  -25.214   25.905   45.658
| 52> C  -24.905   24.450   46.093
| 53> O  -24.616   24.497   47.543
| 54> H  -24.875   25.936   49.007
| 55> O  -27.002   26.346   47.421
| 56> H  -25.376   27.695   46.953
| 57> H  -26.039   25.959   44.942
| 58> H  -24.334   26.363   45.190
| 59> H  -24.041   24.029   45.568
| 60> H  -25.761   23.783   45.957
| 61> H  -27.182   25.267   47.471
| 62> *
| 63>
| 64>                          ****END OF INPUT****
 Total Charge           Charge          ....    0
 Multiplicity           Mult            ....    1
 Number of Electrons    NEL             ....  102
FINAL SINGLE POINT ENERGY      -652.833581212712
FINAL SINGLE POINT ENERGY      -652.855784844506
FINAL SINGLE POINT ENERGY      -652.860400457985
FINAL SINGLE POINT ENERGY      -652.861433069467
FINAL SINGLE POINT ENERGY      -652.861540196485
FINAL SINGLE POINT ENERGY      -652.861556714127
                    ***********************HURRAY********************

CARTESIAN COORDINATES (ANGSTROEM)
---------------------------------
  C    -21.109051   26.235592   46.398008
  C    -20.435985   27.549430   45.995876
  C    -20.250018   28.245325   47.367248
  C    -19.955763   27.064960   48.319637
  O    -20.425466   25.843970   47.605140
  H    -20.977920   25.421136   45.684043
  H    -19.466703   27.330811   45.532928
  H    -21.043978   28.125855   45.295367
  H    -19.439590   28.980594   47.360253
  H    -21.170728   28.764174   47.654810
  H    -20.480341   27.135449   49.276306
  H    -18.887542   26.922864   48.504125
  C    -23.146797   26.471502   47.866425
  H    -22.542899   25.883920   48.563310
  H    -23.181202   27.516408   48.211475
  O    -22.555931   26.387992   46.538908
  C    -24.563222   25.898133   47.856067
  C    -25.577147   26.572813   46.921837
  C    -25.285443   25.865755   45.572140
  C    -24.920309   24.425072   46.006911
  O    -24.582548   24.494106   47.448696
  H    -24.931423   25.932648   48.889437
  O    -26.937663   26.339262   47.386675
  H    -25.475736   27.657723   46.872900
  H    -26.160291   25.905497   44.916598
  H    -24.435237   26.346889   45.086096
  H    -24.056919   24.033025   45.463521
  H    -25.756198   23.724224   45.906197
  H    -27.045948   25.385872   47.588068

 Multiplicity           Mult            ....    1
 Number of Electrons    NEL             ....  102
 Basis Dimension        Dim             ....  149

ORBITAL ENERGIES
----------------

  NO   OCC          E(Eh)            E(eV)
   0   2.0000     -19.155091      -521.2365
   1   2.0000     -19.143315      -520.9161
   2   2.0000     -19.133125      -520.6388
   3   2.0000     -19.131085      -520.5833
   4   2.0000     -10.283941      -279.8403
   5   2.0000     -10.237072      -278.5649
   6   2.0000     -10.232135      -278.4306
   7   2.0000     -10.229782      -278.3665
   8   2.0000     -10.228800      -278.3398
   9   2.0000     -10.218609      -278.0625
  10   2.0000     -10.196893      -277.4716
  11   2.0000     -10.190660      -277.3020
  12   2.0000     -10.171996      -276.7941
  13   2.0000      -1.059493       -28.8303
  14   2.0000      -1.028567       -27.9887
  15   2.0000      -1.001068       -27.2405
  16   2.0000      -0.992223       -26.9998
  17   2.0000      -0.795403       -21.6440
  18   2.0000      -0.776225       -21.1222
  19   2.0000      -0.761371       -20.7180
  20   2.0000      -0.735873       -20.0241
  21   2.0000      -0.671711       -18.2782
  22   2.0000      -0.609137       -16.5755
  23   2.0000      -0.601133       -16.3577
  24   2.0000      -0.592555       -16.1242
  25   2.0000      -0.567421       -15.4403
  26   2.0000      -0.525104       -14.2888
  27   2.0000      -0.511377       -13.9153
  28   2.0000      -0.497649       -13.5417
  29   2.0000      -0.486176       -13.2295
  30   2.0000      -0.473265       -12.8782
  31   2.0000      -0.459039       -12.4911
  32   2.0000      -0.448450       -12.2029
  33   2.0000      -0.437867       -11.9150
  34   2.0000      -0.422549       -11.4981
  35   2.0000      -0.408391       -11.1129
  36   2.0000      -0.399647       -10.8749
  37   2.0000      -0.383146       -10.4259
  38   2.0000      -0.378770       -10.3069
  39   2.0000      -0.368622       -10.0307
  40   2.0000      -0.365559        -9.9474
  41   2.0000      -0.358593        -9.7578
  42   2.0000      -0.348755        -9.4901
  43   2.0000      -0.334555        -9.1037
  44   2.0000      -0.323086        -8.7916
  45   2.0000      -0.309153        -8.4125
  46   2.0000      -0.295986        -8.0542
  47   2.0000      -0.270837        -7.3699
  48   2.0000      -0.263535        -7.1712
  49   2.0000      -0.253115        -6.8876
  50   2.0000      -0.237177        -6.4539
  51   0.0000       0.067440         1.8351
  52   0.0000       0.077750         2.1157
  53   0.0000       0.092740         2.5236
  54   0.0000       0.101278         2.7559
  55   0.0000       0.108620         2.9557

MULLIKEN ATOMIC CHARGES
-----------------------
   0 C :    0.304991
   1 C :   -0.255487
   2 C :   -0.314444
   3 C :   -0.017923
   4 O :   -0.506283
   5 H :    0.162327
   6 H :    0.146821
   7 H :    0.156718
   8 H :    0.150593
   9 H :    0.154832
  10 H :    0.146099
  11 H :    0.154459
  12 C :   -0.001884
  13 H :    0.176274
  14 H :    0.114655
  15 O :   -0.544323
  16 C :    0.067180
  17 C :    0.075950
  18 C :   -0.289267
  19 C :   -0.018878
  20 O :   -0.524303
  21 H :    0.152284
  22 O :   -0.605401
  23 H :    0.149217
  24 H :    0.146944
  25 H :    0.172941
  26 H :    0.148610
  27 H :    0.135010
  28 H :    0.362287
Sum of atomic charges:   -0.0000000

LOEWDIN ATOMIC CHARGES
----------------------
   0 C :    0.183849
   1 C :   -0.223183
   2 C :   -0.221005
   3 C :   -0.032954
   4 O :   -0.312513
   5 H :    0.110087
   6 H :    0.115337
   7 H :    0.123374
   8 H :    0.118876
   9 H :    0.113026
  10 H :    0.103454
  11 H :    0.109217
  12 C :   -0.041949
  13 H :    0.120590
  14 H :    0.087102
  15 O :   -0.341842
  16 C :    0.014879
  17 C :    0.037621
  18 C :   -0.242892
  19 C :   -0.032984
  20 O :   -0.328329
  21 H :    0.114167
  22 O :   -0.419227
  23 H :    0.114580
  24 H :    0.117404
  25 H :    0.129626
  26 H :    0.106746
  27 H :    0.095349
  28 H :    0.281591

  Mayer bond orders larger than 0.100000
B(  0-C ,  1-C ) :   0.9250 B(  0-C ,  4-O ) :   0.9174 B(  0-C ,  5-H ) :   0.9326
B(  0-C , 15-O ) :   0.8407 B(  1-C ,  2-C ) :   0.9525 B(  1-C ,  6-H ) :   0.9343
B(  1-C ,  7-H ) :   0.9368 B(  2-C ,  3-C ) :   0.9515 B(  2-C ,  8-H ) :   0.9445
B(  2-C ,  9-H ) :   0.9439 B(  3-C ,  4-O ) :   0.8295 B(  3-C , 10-H ) :   0.9327
B(  3-C , 11-H ) :   0.9402 B( 12-C , 13-H ) :   0.9041 B( 12-C , 14-H ) :   0.9075
B( 12-C , 15-O ) :   0.8411 B( 12-C , 16-C ) :   0.9035 B( 16-C , 17-C ) :   0.9098
B( 16-C , 20-O ) :   0.8762 B( 16-C , 21-H ) :   0.9226 B( 17-C , 18-C ) :   0.9244
B( 17-C , 22-O ) :   0.8903 B( 17-C , 23-H ) :   0.9354 B( 18-C , 19-C ) :   0.9465
B( 18-C , 24-H ) :   0.9374 B( 18-C , 25-H ) :   0.9190 B( 19-C , 20-O ) :   0.8411
B( 19-C , 26-H ) :   0.9347 B( 19-C , 27-H ) :   0.9367 B( 22-O , 28-H ) :   0.7961

FINAL SINGLE POINT ENERGY      -652.861557339674

DIPOLE MOMENT
-------------
                                X             Y             Z
Electronic contribution:     -2.98129      -3.93764       1.33575
Nuclear contribution   :      4.00579       4.79561      -1.59524
                        -----------------------------------------
Total Dipole Moment    :      1.02449       0.85797      -0.25949
                        -----------------------------------------
Magnitude (a.u.)       :      1.36126
Magnitude (Debye)      :      3.46005

Rotational constants in cm-1:     0.059677     0.013514     0.013339
Rotational constants in MHz :  1789.063057   405.142843   399.898275

                             ****ORCA TERMINATED NORMALLY****
TOTAL RUN TIME: 0 days 0 hours 14 minutes 19 seconds 433 msec
