                         Program Version 4.2.0 -  RELEASE  -
|  1> # Test redundant internal optimization
|  2> #
|  3> ! RKS B3LYP  Opt TightSCF SmallPrint
|  4>
|  5> %basis
|  6>         Basis "6-31G"
|  7> end
|  8>
|  9> %geom
| 10> Constraints
| 11> { D 4  0  15  12  45.0   C } # D for Dihedral angle
| 12> { D 0  15  12  16  165.0   C } # D for Dihedral angle
| 13> { D 0  4  3  2   C } # D for Dihedral angle
| 14> { D 4  3  2  1   C } # D for Dihedral angle
| 15> { D 3  2  1  0   C } # D for Dihedral angle
| 16> { D 2  1  0  4   C } # D for Dihedral angle
| 17> { D 1  0  4  3   C } # D for Dihedral angle
| 18> { D 16  20  19  18   C } # D for Dihedral angle
| 19> { D 20  19  18  17   C } # D for Dihedral angle
| 20> { D 19  18  17  16   C } # D for Dihedral angle
| 21> { D 18  17  16  20   C } # D for Dihedral angle
| 22> { D 17  16  20  19   C } # D for Dihedral angle
| 23> { D 15  12  16  20   C } # D for Dihedral angle
| 24> end
| 25> end
| 26>
| 27>
| 28> #%pal
| 29> #nprocs 8
| 30> #end
| 31>
| 32> * xyz 0 1
| 33> C  -21.048   26.222   46.251
| 34> C  -20.361   27.558   45.944
| 35> C  -20.329   28.222   47.341
| 36> C  -20.110   27.022   48.296
| 37> O  -20.473   25.807   47.535
| 38> H  -20.833   25.428   45.533
| 39> H  -19.344   27.382   45.576
| 40> H  -20.898   28.157   45.201
| 41> H  -19.543   28.978   47.434
| 42> H  -21.289   28.710   47.548
| 43> H  -20.733   27.082   49.195
| 44> H  -19.064   26.913   48.597
| 45> C  -23.065   27.161   47.638
| 46> H  -22.970   26.510   48.515
| 47> H  -22.446   28.053   47.803
| 48> O  -22.586   26.394   46.375
| 49> C  -24.544   27.626   47.533
| 50> C  -24.947   28.477   48.742
| 51> C  -24.329   29.849   48.380
| 52> C  -24.488   29.911   46.840
| 53> O  -24.719   28.523   46.386
| 54> H  -25.181   26.756   47.360
| 55> H  -26.039   28.550   48.805
| 56> O  -24.416   27.914   50.089
| 57> H  -24.825   30.685   48.885
| 58> H  -23.269   29.870   48.660
| 59> H  -23.597   30.308   46.342
| 60> H  -25.358   30.500   46.534
| 61> H  -23.324   27.834   50.050
| 62> *
| 63>
| 64>                          ****END OF INPUT****
 Total Charge           Charge          ....    0
 Multiplicity           Mult            ....    1
 Number of Electrons    NEL             ....  102
FINAL SINGLE POINT ENERGY      -652.805712522179
FINAL SINGLE POINT ENERGY      -652.833299282227
FINAL SINGLE POINT ENERGY      -652.848013421681
FINAL SINGLE POINT ENERGY      -652.850284649933
FINAL SINGLE POINT ENERGY      -652.850649230618
FINAL SINGLE POINT ENERGY      -652.850729553397
FINAL SINGLE POINT ENERGY      -652.850736090182
FINAL SINGLE POINT ENERGY      -652.850734531223
                    ***********************HURRAY********************

CARTESIAN COORDINATES (ANGSTROEM)
---------------------------------
  C    -21.164717   26.321491   46.370342
  C    -20.313424   27.510571   45.901263
  C    -19.880849   28.151921   47.252059
  C    -19.707943   26.916318   48.171496
  O    -20.440200   25.805896   47.514523
  H    -21.189099   25.512574   45.637818
  H    -19.443669   27.127185   45.357233
  H    -20.872981   28.188893   45.253025
  H    -18.949159   28.720268   47.163900
  H    -20.648012   28.836978   47.622350
  H    -20.112867   27.064168   49.177762
  H    -18.663011   26.602696   48.252281
  C    -23.037952   27.237275   47.790981
  H    -23.002362   26.550285   48.645759
  H    -22.432104   28.121726   48.023008
  O    -22.565708   26.565847   46.595041
  C    -24.481979   27.653920   47.520081
  C    -25.142374   28.425381   48.675158
  C    -24.637859   29.878217   48.419301
  C    -24.593940   29.956158   46.877962
  O    -24.601343   28.557272   46.379189
  H    -25.045556   26.757673   47.246388
  H    -26.227999   28.375951   48.566003
  O    -24.889054   27.910129   50.003314
  H    -25.294148   30.628472   48.867817
  H    -23.637605   30.001682   48.856801
  H    -23.701014   30.466486   46.501277
  H    -25.478724   30.448286   46.462569
  H    -23.972350   28.108281   50.283302

 Multiplicity           Mult            ....    1
 Number of Electrons    NEL             ....  102
 Basis Dimension        Dim             ....  149

ORBITAL ENERGIES
----------------

  NO   OCC          E(Eh)            E(eV)
   0   2.0000     -19.151563      -521.1405
   1   2.0000     -19.144619      -520.9516
   2   2.0000     -19.139123      -520.8020
   3   2.0000     -19.137478      -520.7573
   4   2.0000     -10.276537      -279.6388
   5   2.0000     -10.246686      -278.8265
   6   2.0000     -10.233193      -278.4593
   7   2.0000     -10.232235      -278.4333
   8   2.0000     -10.230964      -278.3987
   9   2.0000     -10.230196      -278.3778
  10   2.0000     -10.197887      -277.4986
  11   2.0000     -10.195718      -277.4396
  12   2.0000     -10.187859      -277.2257
  13   2.0000      -1.052559       -28.6416
  14   2.0000      -1.034837       -28.1593
  15   2.0000      -1.016792       -27.6683
  16   2.0000      -0.993923       -27.0460
  17   2.0000      -0.789658       -21.4877
  18   2.0000      -0.784608       -21.3503
  19   2.0000      -0.773244       -21.0410
  20   2.0000      -0.733587       -19.9619
  21   2.0000      -0.683549       -18.6003
  22   2.0000      -0.613125       -16.6840
  23   2.0000      -0.605939       -16.4885
  24   2.0000      -0.597070       -16.2471
  25   2.0000      -0.573809       -15.6141
  26   2.0000      -0.528697       -14.3866
  27   2.0000      -0.508185       -13.8284
  28   2.0000      -0.504721       -13.7342
  29   2.0000      -0.495876       -13.4935
  30   2.0000      -0.470433       -12.8011
  31   2.0000      -0.462117       -12.5748
  32   2.0000      -0.450213       -12.2509
  33   2.0000      -0.433476       -11.7955
  34   2.0000      -0.427465       -11.6319
  35   2.0000      -0.418493       -11.3878
  36   2.0000      -0.411983       -11.2106
  37   2.0000      -0.403087       -10.9686
  38   2.0000      -0.381602       -10.3839
  39   2.0000      -0.377140       -10.2625
  40   2.0000      -0.362063        -9.8522
  41   2.0000      -0.358440        -9.7537
  42   2.0000      -0.345850        -9.4111
  43   2.0000      -0.335300        -9.1240
  44   2.0000      -0.320453        -8.7200
  45   2.0000      -0.314586        -8.5603
  46   2.0000      -0.307299        -8.3620
  47   2.0000      -0.272236        -7.4079
  48   2.0000      -0.262785        -7.1507
  49   2.0000      -0.248434        -6.7602
  50   2.0000      -0.242529        -6.5995
  51   0.0000       0.043107         1.1730
  52   0.0000       0.060857         1.6560
  53   0.0000       0.084073         2.2877
  54   0.0000       0.091368         2.4862
  55   0.0000       0.103572         2.8183

MULLIKEN ATOMIC CHARGES
-----------------------
   0 C :    0.299537
   1 C :   -0.265824
   2 C :   -0.318060
   3 C :   -0.010958
   4 O :   -0.509018
   5 H :    0.167366
   6 H :    0.151629
   7 H :    0.161622
   8 H :    0.145533
   9 H :    0.146295
  10 H :    0.136423
  11 H :    0.150977
  12 C :   -0.009947
  13 H :    0.151685
  14 H :    0.106477
  15 O :   -0.514954
  16 C :    0.091905
  17 C :    0.076556
  18 C :   -0.317584
  19 C :   -0.012669
  20 O :   -0.503417
  21 H :    0.170995
  22 H :    0.174100
  23 O :   -0.598197
  24 H :    0.158658
  25 H :    0.125352
  26 H :    0.139641
  27 H :    0.151106
  28 H :    0.354768
Sum of atomic charges:    0.0000000

LOEWDIN ATOMIC CHARGES
----------------------
   0 C :    0.177523
   1 C :   -0.226755
   2 C :   -0.224193
   3 C :   -0.034626
   4 O :   -0.322371
   5 H :    0.113700
   6 H :    0.119329
   7 H :    0.125560
   8 H :    0.115466
   9 H :    0.105344
  10 H :    0.098317
  11 H :    0.106561
  12 C :   -0.050619
  13 H :    0.107598
  14 H :    0.082323
  15 O :   -0.310544
  16 C :    0.022749
  17 C :    0.033842
  18 C :   -0.241615
  19 C :   -0.031443
  20 O :   -0.312452
  21 H :    0.123108
  22 H :    0.121909
  23 O :   -0.405924
  24 H :    0.123217
  25 H :    0.100157
  26 H :    0.100102
  27 H :    0.106600
  28 H :    0.277135

  Mayer bond orders larger than 0.100000
B(  0-C ,  1-C ) :   0.9142 B(  0-C ,  4-O ) :   0.8948 B(  0-C ,  5-H ) :   0.9359
B(  0-C , 15-O ) :   0.8951 B(  1-C ,  2-C ) :   0.9551 B(  1-C ,  6-H ) :   0.9349
B(  1-C ,  7-H ) :   0.9355 B(  2-C ,  3-C ) :   0.9477 B(  2-C ,  8-H ) :   0.9443
B(  2-C ,  9-H ) :   0.9398 B(  3-C ,  4-O ) :   0.8462 B(  3-C , 10-H ) :   0.9342
B(  3-C , 11-H ) :   0.9387 B( 12-C , 13-H ) :   0.9053 B( 12-C , 14-H ) :   0.9025
B( 12-C , 15-O ) :   0.8414 B( 12-C , 16-C ) :   0.9085 B( 16-C , 17-C ) :   0.8757
B( 16-C , 20-O ) :   0.8687 B( 16-C , 21-H ) :   0.9267 B( 17-C , 18-C ) :   0.9228
B( 17-C , 22-H ) :   0.9317 B( 17-C , 23-O ) :   0.8980 B( 18-C , 19-C ) :   0.9370
B( 18-C , 24-H ) :   0.9415 B( 18-C , 25-H ) :   0.9419 B( 19-C , 20-O ) :   0.8529
B( 19-C , 26-H ) :   0.9321 B( 19-C , 27-H ) :   0.9376 B( 23-O , 28-H ) :   0.7989

FINAL SINGLE POINT ENERGY      -652.850722382611

DIPOLE MOMENT
-------------
                                X             Y             Z
Electronic contribution:     -3.78415      -5.37845      -1.07061
Nuclear contribution   :      4.74396       6.96397       1.52236
                        -----------------------------------------
Total Dipole Moment    :      0.95981       1.58552       0.45174
                        -----------------------------------------
Magnitude (a.u.)       :      1.90767
Magnitude (Debye)      :      4.84890

Rotational constants in cm-1:     0.045307     0.014933     0.013999
Rotational constants in MHz :  1358.270463   447.677406   419.690776

                             ****ORCA TERMINATED NORMALLY****
TOTAL RUN TIME: 0 days 0 hours 53 minutes 25 seconds 337 msec
