                         Program Version 4.2.0 -  RELEASE  -
|  1> # Test redundant internal optimization
|  2> #
|  3> ! RKS B3LYP  Opt TightSCF SmallPrint
|  4>
|  5> %basis
|  6>         Basis "6-31G"
|  7> end
|  8>
|  9> %geom
| 10> Constraints
| 11> { D 4  0  15  12  315.0   C } # D for Dihedral angle
| 12> { D 0  15  12  16  180.0   C } # D for Dihedral angle
| 13> { D 0  4  3  2   C } # D for Dihedral angle
| 14> { D 4  3  2  1   C } # D for Dihedral angle
| 15> { D 3  2  1  0   C } # D for Dihedral angle
| 16> { D 2  1  0  4   C } # D for Dihedral angle
| 17> { D 1  0  4  3   C } # D for Dihedral angle
| 18> { D 16  20  19  18   C } # D for Dihedral angle
| 19> { D 20  19  18  17   C } # D for Dihedral angle
| 20> { D 19  18  17  16   C } # D for Dihedral angle
| 21> { D 18  17  16  20   C } # D for Dihedral angle
| 22> { D 17  16  20  19   C } # D for Dihedral angle
| 23> { D 15  12  16  20   C } # D for Dihedral angle
| 24> end
| 25> end
| 26>
| 27>
| 28> #%pal
| 29> #nprocs 8
| 30> #end
| 31>
| 32> * xyz 0 1
| 33> C  -21.048   26.222   46.251
| 34> C  -20.361   27.558   45.944
| 35> C  -20.329   28.222   47.341
| 36> C  -20.110   27.022   48.296
| 37> O  -20.473   25.807   47.535
| 38> H  -20.833   25.428   45.533
| 39> H  -19.344   27.382   45.576
| 40> H  -20.898   28.157   45.201
| 41> H  -19.543   28.978   47.434
| 42> H  -21.289   28.710   47.548
| 43> H  -20.733   27.082   49.195
| 44> H  -19.064   26.913   48.597
| 45> C  -23.319   25.255   47.135
| 46> H  -23.142   24.303   46.618
| 47> H  -22.933   25.166   48.159
| 48> O  -22.586   26.394   46.375
| 49> C  -24.853   25.483   47.226
| 50> C  -25.504   25.451   45.838
| 51> C  -25.591   23.930   45.569
| 52> C  -25.873   23.339   46.973
| 53> O  -25.493   24.381   47.951
| 54> H  -25.046   26.395   47.795
| 55> O  -26.923   26.079   45.901
| 56> H  -24.924   25.985   45.078
| 57> H  -26.369   23.671   44.843
| 58> H  -24.634   23.562   45.179
| 59> H  -25.292   22.432   47.171
| 60> H  -26.933   23.121   47.129
| 61> H  -27.523   25.559   46.657
| 62> *
| 63>
| 64>                          ****END OF INPUT****
 Total Charge           Charge          ....    0
 Multiplicity           Mult            ....    1
 Number of Electrons    NEL             ....  102
FINAL SINGLE POINT ENERGY      -652.840942182742
FINAL SINGLE POINT ENERGY      -652.865061997574
FINAL SINGLE POINT ENERGY      -652.868987896764
FINAL SINGLE POINT ENERGY      -652.869650255348
FINAL SINGLE POINT ENERGY      -652.869737305750
FINAL SINGLE POINT ENERGY      -652.869747540270
                    ***********************HURRAY********************

CARTESIAN COORDINATES (ANGSTROEM)
---------------------------------
  C    -21.116804   26.129782   46.289682
  C    -20.582916   27.521304   45.952016
  C    -20.549923   28.191026   47.343040
  C    -20.168990   27.030700   48.288178
  O    -20.453603   25.780956   47.527612
  H    -20.866494   25.330518   45.583292
  H    -19.575808   27.427778   45.530494
  H    -21.221992   28.044679   45.237593
  H    -19.835420   29.018263   47.394562
  H    -21.543714   28.577282   47.586674
  H    -20.749181   27.019352   49.214261
  H    -19.102574   27.008632   48.530061
  C    -23.194250   25.152797   47.176296
  H    -22.991512   24.181502   46.699771
  H    -22.807832   25.109779   48.197922
  O    -22.552823   26.226927   46.426695
  C    -24.688330   25.460466   47.191583
  C    -25.367433   25.474558   45.814152
  C    -25.575232   23.961133   45.553146
  C    -25.874416   23.396050   46.963840
  O    -25.396205   24.411901   47.934242
  H    -24.860372   26.403668   47.717852
  O    -26.633961   26.189576   45.870239
  H    -24.774276   25.978090   45.052734
  H    -26.393485   23.799307   44.846895
  H    -24.665773   23.519906   45.131748
  H    -25.364166   22.448419   47.160904
  H    -26.945451   23.258703   47.143646
  H    -27.110062   25.933944   46.688867

 Multiplicity           Mult            ....    1
 Number of Electrons    NEL             ....  102
 Basis Dimension        Dim             ....  149

ORBITAL ENERGIES
----------------

  NO   OCC          E(Eh)            E(eV)
   0   2.0000     -19.147375      -521.0266
   1   2.0000     -19.146431      -521.0009
   2   2.0000     -19.142445      -520.8924
   3   2.0000     -19.132809      -520.6302
   4   2.0000     -10.281231      -279.7665
   5   2.0000     -10.233234      -278.4604
   6   2.0000     -10.230560      -278.3877
   7   2.0000     -10.229735      -278.3652
   8   2.0000     -10.229108      -278.3482
   9   2.0000     -10.226236      -278.2700
  10   2.0000     -10.187695      -277.2213
  11   2.0000     -10.187544      -277.2172
  12   2.0000     -10.185476      -277.1609
  13   2.0000      -1.058210       -28.7954
  14   2.0000      -1.033831       -28.1320
  15   2.0000      -1.001983       -27.2654
  16   2.0000      -0.996378       -27.1128
  17   2.0000      -0.792774       -21.5725
  18   2.0000      -0.777008       -21.1435
  19   2.0000      -0.766477       -20.8569
  20   2.0000      -0.730503       -19.8780
  21   2.0000      -0.671708       -18.2781
  22   2.0000      -0.602213       -16.3871
  23   2.0000      -0.601515       -16.3681
  24   2.0000      -0.589184       -16.0325
  25   2.0000      -0.579944       -15.7811
  26   2.0000      -0.522098       -14.2070
  27   2.0000      -0.515378       -14.0241
  28   2.0000      -0.496312       -13.5053
  29   2.0000      -0.492189       -13.3931
  30   2.0000      -0.471452       -12.8289
  31   2.0000      -0.455761       -12.4019
  32   2.0000      -0.448353       -12.2003
  33   2.0000      -0.437491       -11.9047
  34   2.0000      -0.422298       -11.4913
  35   2.0000      -0.410358       -11.1664
  36   2.0000      -0.402059       -10.9406
  37   2.0000      -0.390115       -10.6156
  38   2.0000      -0.376574       -10.2471
  39   2.0000      -0.365443        -9.9442
  40   2.0000      -0.360180        -9.8010
  41   2.0000      -0.353707        -9.6248
  42   2.0000      -0.350793        -9.5456
  43   2.0000      -0.342485        -9.3195
  44   2.0000      -0.323419        -8.8007
  45   2.0000      -0.307082        -8.3561
  46   2.0000      -0.299063        -8.1379
  47   2.0000      -0.269787        -7.3413
  48   2.0000      -0.263119        -7.1598
  49   2.0000      -0.260135        -7.0786
  50   2.0000      -0.246028        -6.6948
  51   0.0000       0.068200         1.8558
  52   0.0000       0.077282         2.1030
  53   0.0000       0.094137         2.5616
  54   0.0000       0.101933         2.7737
  55   0.0000       0.106424         2.8959

MULLIKEN ATOMIC CHARGES
-----------------------
   0 C :    0.299377
   1 C :   -0.264288
   2 C :   -0.298623
   3 C :   -0.010835
   4 O :   -0.514331
   5 H :    0.145037
   6 H :    0.146128
   7 H :    0.161440
   8 H :    0.143657
   9 H :    0.161953
  10 H :    0.148179
  11 H :    0.147427
  12 C :    0.007116
  13 H :    0.121459
  14 H :    0.166847
  15 O :   -0.539140
  16 C :    0.055367
  17 C :    0.090141
  18 C :   -0.299667
  19 C :   -0.029242
  20 O :   -0.528982
  21 H :    0.162587
  22 O :   -0.604725
  23 H :    0.171975
  24 H :    0.163505
  25 H :    0.143377
  26 H :    0.146391
  27 H :    0.145626
  28 H :    0.362246
Sum of atomic charges:   -0.0000000

LOEWDIN ATOMIC CHARGES
----------------------
   0 C :    0.175726
   1 C :   -0.214674
   2 C :   -0.216199
   3 C :   -0.029441
   4 O :   -0.326603
   5 H :    0.095910
   6 H :    0.114760
   7 H :    0.126335
   8 H :    0.115117
   9 H :    0.119022
  10 H :    0.105459
  11 H :    0.105179
  12 C :   -0.038098
  13 H :    0.090737
  14 H :    0.114616
  15 O :   -0.336662
  16 C :    0.017898
  17 C :    0.037534
  18 C :   -0.241737
  19 C :   -0.037757
  20 O :   -0.330753
  21 H :    0.116956
  22 O :   -0.416054
  23 H :    0.125698
  24 H :    0.126723
  25 H :    0.112982
  26 H :    0.104010
  27 H :    0.102180
  28 H :    0.281136

  Mayer bond orders larger than 0.100000
B(  0-C ,  1-C ) :   0.9503 B(  0-C ,  4-O ) :   0.9015 B(  0-C ,  5-H ) :   0.9209
B(  0-C , 15-O ) :   0.8466 B(  1-C ,  2-C ) :   0.9550 B(  1-C ,  6-H ) :   0.9388
B(  1-C ,  7-H ) :   0.9352 B(  2-C ,  3-C ) :   0.9554 B(  2-C ,  8-H ) :   0.9447
B(  2-C ,  9-H ) :   0.9444 B(  3-C ,  4-O ) :   0.8324 B(  3-C , 10-H ) :   0.9352
B(  3-C , 11-H ) :   0.9404 B( 12-C , 13-H ) :   0.9211 B( 12-C , 14-H ) :   0.9141
B( 12-C , 15-O ) :   0.8125 B( 12-C , 16-C ) :   0.9068 B( 16-C , 17-C ) :   0.9122
B( 16-C , 20-O ) :   0.8439 B( 16-C , 21-H ) :   0.9253 B( 17-C , 18-C ) :   0.9134
B( 17-C , 22-O ) :   0.8866 B( 17-C , 23-H ) :   0.9249 B( 18-C , 19-C ) :   0.9411
B( 18-C , 24-H ) :   0.9374 B( 18-C , 25-H ) :   0.9349 B( 19-C , 20-O ) :   0.8434
B( 19-C , 26-H ) :   0.9357 B( 19-C , 27-H ) :   0.9385 B( 22-O , 28-H ) :   0.7962

FINAL SINGLE POINT ENERGY      -652.869749624950

DIPOLE MOMENT
-------------
                                X             Y             Z
Electronic contribution:     -2.63950      -0.92137       0.87052
Nuclear contribution   :      3.26564       0.85734      -1.03194
                        -----------------------------------------
Total Dipole Moment    :      0.62614      -0.06403      -0.16142
                        -----------------------------------------
Magnitude (a.u.)       :      0.64978
Magnitude (Debye)      :      1.65160

Rotational constants in cm-1:     0.059261     0.012280     0.011577
Rotational constants in MHz :  1776.592462   368.134917   347.061568

                             ****ORCA TERMINATED NORMALLY****
TOTAL RUN TIME: 0 days 0 hours 20 minutes 15 seconds 924 msec
