                         Program Version 4.2.0 -  RELEASE  -
|  1> # Test redundant internal optimization
|  2> #
|  3> ! RKS B3LYP  Opt TightSCF SmallPrint
|  4>
|  5> %basis
|  6>         Basis "6-31G"
|  7> end
|  8>
|  9> %geom
| 10> Constraints
| 11> { D 4  0  15  12  150.0   C } # D for Dihedral angle
| 12> { D 0  15  12  16  75.0   C } # D for Dihedral angle
| 13> { D 0  4  3  2   C } # D for Dihedral angle
| 14> { D 4  3  2  1   C } # D for Dihedral angle
| 15> { D 3  2  1  0   C } # D for Dihedral angle
| 16> { D 2  1  0  4   C } # D for Dihedral angle
| 17> { D 1  0  4  3   C } # D for Dihedral angle
| 18> { D 16  20  19  18   C } # D for Dihedral angle
| 19> { D 20  19  18  17   C } # D for Dihedral angle
| 20> { D 19  18  17  16   C } # D for Dihedral angle
| 21> { D 18  17  16  20   C } # D for Dihedral angle
| 22> { D 17  16  20  19   C } # D for Dihedral angle
| 23> { D 15  12  16  20   C } # D for Dihedral angle
| 24> end
| 25> end
| 26>
| 27>
| 28> #%pal
| 29> #nprocs 8
| 30> #end
| 31>
| 32> * xyz 0 1
| 33> C  -21.048   26.222   46.251
| 34> C  -20.361   27.558   45.944
| 35> C  -20.329   28.222   47.341
| 36> C  -20.110   27.022   48.296
| 37> O  -20.473   25.807   47.535
| 38> H  -20.833   25.428   45.533
| 39> H  -19.344   27.382   45.576
| 40> H  -20.898   28.157   45.201
| 41> H  -19.543   28.978   47.434
| 42> H  -21.289   28.710   47.548
| 43> H  -20.733   27.082   49.195
| 44> H  -19.064   26.913   48.597
| 45> C  -23.210   27.459   45.431
| 46> H  -24.222   27.701   45.779
| 47> H  -22.613   28.380   45.444
| 48> O  -22.586   26.394   46.375
| 49> C  -23.301   26.975   43.958
| 50> C  -24.259   25.786   43.821
| 51> C  -25.637   26.489   43.838
| 52> C  -25.362   27.820   43.095
| 53> O  -23.896   28.016   43.113
| 54> H  -22.295   26.792   43.578
| 55> O  -24.025   25.068   42.463
| 56> H  -24.147   25.048   44.623
| 57> H  -26.421   25.896   43.356
| 58> H  -25.949   26.679   44.872
| 59> H  -25.844   28.677   43.578
| 60> H  -25.670   27.785   42.047
| 61> H  -24.133   25.788   41.643
| 62> *
| 63>
| 64>                          ****END OF INPUT****
 Total Charge           Charge          ....    0
 Multiplicity           Mult            ....    1
 Number of Electrons    NEL             ....  102
FINAL SINGLE POINT ENERGY      -652.829612013178
FINAL SINGLE POINT ENERGY      -652.852424538015
FINAL SINGLE POINT ENERGY      -652.856151424301
FINAL SINGLE POINT ENERGY      -652.857743849547
FINAL SINGLE POINT ENERGY      -652.857904383714
FINAL SINGLE POINT ENERGY      -652.857938255397
FINAL SINGLE POINT ENERGY      -652.857941999744
                    ***********************HURRAY********************

CARTESIAN COORDINATES (ANGSTROEM)
---------------------------------
  C    -21.102732   26.274719   46.192135
  C    -20.258308   27.518383   45.914686
  C    -20.256312   28.222775   47.296121
  C    -20.238645   27.034457   48.280963
  O    -20.678302   25.853478   47.496826
  H    -20.928177   25.433785   45.517280
  H    -19.247034   27.188714   45.651075
  H    -20.620707   28.152497   45.102050
  H    -19.394714   28.884763   47.424204
  H    -21.166243   28.819596   47.420528
  H    -20.917884   27.165570   49.126918
  H    -19.235375   26.807188   48.652609
  C    -23.189833   27.508254   45.431060
  H    -24.170908   27.660600   45.889054
  H    -22.663585   28.469742   45.442954
  O    -22.547380   26.514234   46.275490
  C    -23.336185   27.033610   43.982144
  C    -24.225999   25.796779   43.794631
  C    -25.642568   26.420672   43.840661
  C    -25.448990   27.796284   43.154861
  O    -23.989962   28.076764   43.181038
  H    -22.349243   26.869389   43.536248
  O    -23.955054   25.150586   42.519159
  H    -24.059588   25.034086   44.554174
  H    -26.361849   25.782998   43.320731
  H    -25.974209   26.533789   44.878366
  H    -25.975140   28.606764   43.668176
  H    -25.755885   27.790781   42.104532
  H    -23.904190   25.832741   41.816324

 Multiplicity           Mult            ....    1
 Number of Electrons    NEL             ....  102
 Basis Dimension        Dim             ....  149

ORBITAL ENERGIES
----------------

  NO   OCC          E(Eh)            E(eV)
   0   2.0000     -19.147910      -521.0411
   1   2.0000     -19.142583      -520.8962
   2   2.0000     -19.140364      -520.8358
   3   2.0000     -19.138122      -520.7748
   4   2.0000     -10.281509      -279.7741
   5   2.0000     -10.238230      -278.5964
   6   2.0000     -10.235458      -278.5210
   7   2.0000     -10.234636      -278.4986
   8   2.0000     -10.233220      -278.4601
   9   2.0000     -10.226935      -278.2891
  10   2.0000     -10.193651      -277.3834
  11   2.0000     -10.192567      -277.3538
  12   2.0000     -10.189650      -277.2745
  13   2.0000      -1.052962       -28.6526
  14   2.0000      -1.038099       -28.2481
  15   2.0000      -1.006749       -27.3950
  16   2.0000      -0.994045       -27.0493
  17   2.0000      -0.790841       -21.5199
  18   2.0000      -0.782013       -21.2797
  19   2.0000      -0.769221       -20.9316
  20   2.0000      -0.736487       -20.0408
  21   2.0000      -0.680424       -18.5153
  22   2.0000      -0.605584       -16.4788
  23   2.0000      -0.605315       -16.4714
  24   2.0000      -0.603245       -16.4151
  25   2.0000      -0.571794       -15.5593
  26   2.0000      -0.528783       -14.3889
  27   2.0000      -0.513275       -13.9669
  28   2.0000      -0.499914       -13.6034
  29   2.0000      -0.494422       -13.4539
  30   2.0000      -0.475123       -12.9287
  31   2.0000      -0.461599       -12.5607
  32   2.0000      -0.452443       -12.3116
  33   2.0000      -0.440291       -11.9809
  34   2.0000      -0.425907       -11.5895
  35   2.0000      -0.413388       -11.2488
  36   2.0000      -0.406590       -11.0639
  37   2.0000      -0.394424       -10.7328
  38   2.0000      -0.381882       -10.3915
  39   2.0000      -0.369632       -10.0582
  40   2.0000      -0.362994        -9.8776
  41   2.0000      -0.361704        -9.8425
  42   2.0000      -0.357692        -9.7333
  43   2.0000      -0.333216        -9.0673
  44   2.0000      -0.316591        -8.6149
  45   2.0000      -0.309446        -8.4205
  46   2.0000      -0.299745        -8.1565
  47   2.0000      -0.275386        -7.4936
  48   2.0000      -0.267692        -7.2843
  49   2.0000      -0.257987        -7.0202
  50   2.0000      -0.240738        -6.5508
  51   0.0000       0.062154         1.6913
  52   0.0000       0.071421         1.9435
  53   0.0000       0.089943         2.4475
  54   0.0000       0.096148         2.6163
  55   0.0000       0.102539         2.7902

MULLIKEN ATOMIC CHARGES
-----------------------
   0 C :    0.310916
   1 C :   -0.302739
   2 C :   -0.300724
   3 C :   -0.000374
   4 O :   -0.496964
   5 H :    0.156514
   6 H :    0.155886
   7 H :    0.150117
   8 H :    0.146180
   9 H :    0.155074
  10 H :    0.153485
  11 H :    0.144030
  12 C :   -0.027190
  13 H :    0.153496
  14 H :    0.141895
  15 O :   -0.517289
  16 C :    0.048598
  17 C :    0.089648
  18 C :   -0.306772
  19 C :   -0.030461
  20 O :   -0.527605
  21 H :    0.154641
  22 O :   -0.602037
  23 H :    0.178078
  24 H :    0.164556
  25 H :    0.152567
  26 H :    0.147621
  27 H :    0.147299
  28 H :    0.361554
Sum of atomic charges:    0.0000000

LOEWDIN ATOMIC CHARGES
----------------------
   0 C :    0.180607
   1 C :   -0.234738
   2 C :   -0.217270
   3 C :   -0.026113
   4 O :   -0.303727
   5 H :    0.103938
   6 H :    0.121750
   7 H :    0.116533
   8 H :    0.116356
   9 H :    0.113270
  10 H :    0.109025
  11 H :    0.103824
  12 C :   -0.045718
  13 H :    0.112922
  14 H :    0.100409
  15 O :   -0.332942
  16 C :    0.000888
  17 C :    0.037326
  18 C :   -0.242468
  19 C :   -0.037797
  20 O :   -0.332947
  21 H :    0.109449
  22 O :   -0.414738
  23 H :    0.128467
  24 H :    0.127772
  25 H :    0.117224
  26 H :    0.104665
  27 H :    0.102977
  28 H :    0.281056

  Mayer bond orders larger than 0.100000
B(  0-C ,  1-C ) :   0.9308 B(  0-C ,  4-O ) :   0.9328 B(  0-C ,  5-H ) :   0.9241
B(  0-C , 15-O ) :   0.8337 B(  1-C ,  2-C ) :   0.9491 B(  1-C ,  6-H ) :   0.9334
B(  1-C ,  7-H ) :   0.9262 B(  2-C ,  3-C ) :   0.9534 B(  2-C ,  8-H ) :   0.9452
B(  2-C ,  9-H ) :   0.9440 B(  3-C ,  4-O ) :   0.8377 B(  3-C , 10-H ) :   0.9343
B(  3-C , 11-H ) :   0.9396 B( 12-C , 13-H ) :   0.9374 B( 12-C , 14-H ) :   0.9083
B( 12-C , 15-O ) :   0.8527 B( 12-C , 16-C ) :   0.8741 B( 16-C , 17-C ) :   0.9091
B( 16-C , 20-O ) :   0.8418 B( 16-C , 21-H ) :   0.9259 B( 17-C , 18-C ) :   0.9145
B( 17-C , 22-O ) :   0.8914 B( 17-C , 23-H ) :   0.9230 B( 18-C , 19-C ) :   0.9429
B( 18-C , 24-H ) :   0.9374 B( 18-C , 25-H ) :   0.9328 B( 19-C , 20-O ) :   0.8404
B( 19-C , 26-H ) :   0.9354 B( 19-C , 27-H ) :   0.9381 B( 22-O , 28-H ) :   0.7969

FINAL SINGLE POINT ENERGY      -652.857943259403

DIPOLE MOMENT
-------------
                                X             Y             Z
Electronic contribution:     -0.32180      -3.79055      -1.47239
Nuclear contribution   :      0.29949       5.06306       1.41145
                        -----------------------------------------
Total Dipole Moment    :     -0.02231       1.27250      -0.06094
                        -----------------------------------------
Magnitude (a.u.)       :      1.27416
Magnitude (Debye)      :      3.23865

Rotational constants in cm-1:     0.061623     0.012515     0.011853
Rotational constants in MHz :  1847.407707   375.178485   355.347540

                             ****ORCA TERMINATED NORMALLY****
TOTAL RUN TIME: 0 days 0 hours 29 minutes 59 seconds 107 msec
