                         Program Version 4.2.0 -  RELEASE  -
|  1> # Test redundant internal optimization
|  2> #
|  3> ! RKS B3LYP  Opt TightSCF SmallPrint
|  4>
|  5> %basis
|  6>         Basis "6-31G"
|  7> end
|  8>
|  9> %geom
| 10> Constraints
| 11> { D 4  0  15  12  330.0   C } # D for Dihedral angle
| 12> { D 0  15  12  16  195.0   C } # D for Dihedral angle
| 13> { D 0  4  3  2   C } # D for Dihedral angle
| 14> { D 4  3  2  1   C } # D for Dihedral angle
| 15> { D 3  2  1  0   C } # D for Dihedral angle
| 16> { D 2  1  0  4   C } # D for Dihedral angle
| 17> { D 1  0  4  3   C } # D for Dihedral angle
| 18> { D 16  20  19  18   C } # D for Dihedral angle
| 19> { D 20  19  18  17   C } # D for Dihedral angle
| 20> { D 19  18  17  16   C } # D for Dihedral angle
| 21> { D 18  17  16  20   C } # D for Dihedral angle
| 22> { D 17  16  20  19   C } # D for Dihedral angle
| 23> { D 15  12  16  20   C } # D for Dihedral angle
| 24> end
| 25> end
| 26>
| 27>
| 28> #%pal
| 29> #nprocs 8
| 30> #end
| 31>
| 32> * xyz 0 1
| 33> C  -21.048   26.222   46.251
| 34> C  -20.361   27.558   45.944
| 35> C  -20.329   28.222   47.341
| 36> C  -20.110   27.022   48.296
| 37> O  -20.473   25.807   47.535
| 38> H  -20.833   25.428   45.533
| 39> H  -19.344   27.382   45.576
| 40> H  -20.898   28.157   45.201
| 41> H  -19.543   28.978   47.434
| 42> H  -21.289   28.710   47.548
| 43> H  -20.733   27.082   49.195
| 44> H  -19.064   26.913   48.597
| 45> C  -23.271   25.476   47.424
| 46> H  -22.873   24.458   47.329
| 47> H  -23.062   25.832   48.441
| 48> O  -22.586   26.394   46.375
| 49> C  -24.814   25.415   47.253
| 50> C  -25.200   24.767   45.918
| 51> C  -25.022   23.263   46.236
| 52> C  -25.458   23.163   47.719
| 53> O  -25.408   24.536   48.266
| 54> H  -25.231   26.411   47.409
| 55> H  -26.247   24.990   45.681
| 56> O  -24.318   25.242   44.731
| 57> H  -25.616   22.618   45.581
| 58> H  -23.969   22.978   46.122
| 59> H  -24.798   22.518   48.308
| 60> H  -26.487   22.810   47.828
| 61> H  -23.265   25.028   44.947
| 62> *
| 63>
| 64>                          ****END OF INPUT****
 Total Charge           Charge          ....    0
 Multiplicity           Mult            ....    1
 Number of Electrons    NEL             ....  102
FINAL SINGLE POINT ENERGY      -652.830614673591
FINAL SINGLE POINT ENERGY      -652.855810826378
FINAL SINGLE POINT ENERGY      -652.862386004695
FINAL SINGLE POINT ENERGY      -652.865103373550
FINAL SINGLE POINT ENERGY      -652.866679788889
FINAL SINGLE POINT ENERGY      -652.867776091967
FINAL SINGLE POINT ENERGY      -652.868363611054
FINAL SINGLE POINT ENERGY      -652.868543900612
FINAL SINGLE POINT ENERGY      -652.868575597771
FINAL SINGLE POINT ENERGY      -652.868579910274
                    ***********************HURRAY********************

CARTESIAN COORDINATES (ANGSTROEM)
---------------------------------
  C    -21.055964   26.117936   46.327357
  C    -20.481257   27.481531   45.951434
  C    -20.442748   28.194645   47.319893
  C    -20.103234   27.057874   48.306152
  O    -20.417861   25.791758   47.576761
  H    -20.832682   25.292911   45.644918
  H    -19.473495   27.343933   45.543851
  H    -21.094475   28.002909   45.213001
  H    -19.705888   29.002934   47.350474
  H    -21.426551   28.619044   47.541138
  H    -20.693897   27.086193   49.225016
  H    -19.040810   27.009468   48.558868
  C    -23.157020   25.418511   47.483938
  H    -22.742821   24.403481   47.465644
  H    -22.971712   25.841818   48.474177
  O    -22.509023   26.243478   46.448767
  C    -24.661690   25.409092   47.195217
  C    -25.078722   24.761916   45.863216
  C    -25.005808   23.246524   46.211570
  C    -25.460616   23.204247   47.685107
  O    -25.321748   24.593704   48.212934
  H    -25.056996   26.424125   47.296175
  H    -26.119966   25.037038   45.656809
  O    -24.291008   25.122668   44.711762
  H    -25.640152   22.646903   45.553829
  H    -23.972887   22.905560   46.085772
  H    -24.859222   22.532508   48.305186
  H    -26.515206   22.935344   47.794105
  H    -23.516541   25.651947   45.015930

 Multiplicity           Mult            ....    1
 Number of Electrons    NEL             ....  102
 Basis Dimension        Dim             ....  149

ORBITAL ENERGIES
----------------

  NO   OCC          E(Eh)            E(eV)
   0   2.0000     -19.163383      -521.4622
   1   2.0000     -19.158853      -521.3389
   2   2.0000     -19.138301      -520.7796
   3   2.0000     -19.111819      -520.0590
   4   2.0000     -10.292692      -280.0784
   5   2.0000     -10.238427      -278.6018
   6   2.0000     -10.233885      -278.4782
   7   2.0000     -10.232428      -278.4385
   8   2.0000     -10.228383      -278.3285
   9   2.0000     -10.224430      -278.2209
  10   2.0000     -10.196307      -277.4556
  11   2.0000     -10.196123      -277.4506
  12   2.0000     -10.177012      -276.9306
  13   2.0000      -1.068781       -29.0830
  14   2.0000      -1.024435       -27.8763
  15   2.0000      -1.006878       -27.3985
  16   2.0000      -0.991088       -26.9689
  17   2.0000      -0.800502       -21.7828
  18   2.0000      -0.772902       -21.0317
  19   2.0000      -0.766328       -20.8529
  20   2.0000      -0.736951       -20.0534
  21   2.0000      -0.676148       -18.3989
  22   2.0000      -0.611381       -16.6365
  23   2.0000      -0.598962       -16.2986
  24   2.0000      -0.592837       -16.1319
  25   2.0000      -0.576403       -15.6847
  26   2.0000      -0.531953       -14.4752
  27   2.0000      -0.516983       -14.0678
  28   2.0000      -0.504804       -13.7364
  29   2.0000      -0.486485       -13.2379
  30   2.0000      -0.476057       -12.9542
  31   2.0000      -0.457384       -12.4461
  32   2.0000      -0.440989       -11.9999
  33   2.0000      -0.431899       -11.7526
  34   2.0000      -0.426641       -11.6095
  35   2.0000      -0.418263       -11.3815
  36   2.0000      -0.409426       -11.1410
  37   2.0000      -0.387020       -10.5313
  38   2.0000      -0.381362       -10.3774
  39   2.0000      -0.369761       -10.0617
  40   2.0000      -0.364890        -9.9291
  41   2.0000      -0.362768        -9.8714
  42   2.0000      -0.355803        -9.6819
  43   2.0000      -0.339889        -9.2488
  44   2.0000      -0.331485        -9.0202
  45   2.0000      -0.315389        -8.5822
  46   2.0000      -0.290559        -7.9065
  47   2.0000      -0.275682        -7.5017
  48   2.0000      -0.268454        -7.3050
  49   2.0000      -0.246813        -6.7161
  50   2.0000      -0.241772        -6.5789
  51   0.0000       0.059534         1.6200
  52   0.0000       0.076366         2.0780
  53   0.0000       0.093098         2.5333
  54   0.0000       0.098666         2.6848
  55   0.0000       0.102595         2.7918

MULLIKEN ATOMIC CHARGES
-----------------------
   0 C :    0.298577
   1 C :   -0.261074
   2 C :   -0.301933
   3 C :   -0.015998
   4 O :   -0.509693
   5 H :    0.159432
   6 H :    0.151226
   7 H :    0.163706
   8 H :    0.149397
   9 H :    0.162461
  10 H :    0.152379
  11 H :    0.153355
  12 C :   -0.000840
  13 H :    0.151371
  14 H :    0.159363
  15 O :   -0.569874
  16 C :    0.044910
  17 C :    0.120777
  18 C :   -0.299984
  19 C :   -0.020615
  20 O :   -0.522293
  21 H :    0.158255
  22 H :    0.143162
  23 O :   -0.642952
  24 H :    0.152032
  25 H :    0.144612
  26 H :    0.143948
  27 H :    0.147230
  28 H :    0.389061
Sum of atomic charges:   -0.0000000

LOEWDIN ATOMIC CHARGES
----------------------
   0 C :    0.178434
   1 C :   -0.214946
   2 C :   -0.216660
   3 C :   -0.029376
   4 O :   -0.317462
   5 H :    0.104301
   6 H :    0.117546
   7 H :    0.127206
   8 H :    0.118425
   9 H :    0.119223
  10 H :    0.107178
  11 H :    0.108673
  12 C :   -0.040675
  13 H :    0.105771
  14 H :    0.112054
  15 O :   -0.348731
  16 C :    0.017165
  17 C :    0.041761
  18 C :   -0.235615
  19 C :   -0.032670
  20 O :   -0.323850
  21 H :    0.114219
  22 H :    0.102765
  23 O :   -0.438401
  24 H :    0.121444
  25 H :    0.111028
  26 H :    0.102641
  27 H :    0.105315
  28 H :    0.283238

  Mayer bond orders larger than 0.100000
B(  0-C ,  1-C ) :   0.9476 B(  0-C ,  4-O ) :   0.9204 B(  0-C ,  5-H ) :   0.9227
B(  0-C , 15-O ) :   0.7953 B(  1-C ,  2-C ) :   0.9521 B(  1-C ,  6-H ) :   0.9361
B(  1-C ,  7-H ) :   0.9350 B(  2-C ,  3-C ) :   0.9551 B(  2-C ,  8-H ) :   0.9440
B(  2-C ,  9-H ) :   0.9444 B(  3-C ,  4-O ) :   0.8246 B(  3-C , 10-H ) :   0.9334
B(  3-C , 11-H ) :   0.9398 B( 12-C , 13-H ) :   0.9211 B( 12-C , 14-H ) :   0.9261
B( 12-C , 15-O ) :   0.7727 B( 12-C , 16-C ) :   0.9050 B( 16-C , 17-C ) :   0.9149
B( 16-C , 20-O ) :   0.8554 B( 16-C , 21-H ) :   0.9285 B( 17-C , 18-C ) :   0.9030
B( 17-C , 22-H ) :   0.9291 B( 17-C , 23-O ) :   0.9313 B( 18-C , 19-C ) :   0.9412
B( 18-C , 24-H ) :   0.9443 B( 18-C , 25-H ) :   0.9434 B( 19-C , 20-O ) :   0.8325
B( 19-C , 26-H ) :   0.9338 B( 19-C , 27-H ) :   0.9388 B( 23-O , 28-H ) :   0.7228

FINAL SINGLE POINT ENERGY      -652.868580956057

DIPOLE MOMENT
-------------
                                X             Y             Z
Electronic contribution:     -1.93632      -0.81936      -0.50297
Nuclear contribution   :      2.90847       1.32176       0.86678
                        -----------------------------------------
Total Dipole Moment    :      0.97215       0.50240       0.36381
                        -----------------------------------------
Magnitude (a.u.)       :      1.15319
Magnitude (Debye)      :      2.93117

Rotational constants in cm-1:     0.056257     0.013851     0.012521
Rotational constants in MHz :  1686.547750   415.228750   375.375027

                             ****ORCA TERMINATED NORMALLY****
TOTAL RUN TIME: 0 days 1 hours 19 minutes 27 seconds 976 msec
