                         Program Version 4.2.0 -  RELEASE  -
|  1> # Test redundant internal optimization
|  2> #
|  3> ! RKS B3LYP  Opt TightSCF SmallPrint
|  4>
|  5> %basis
|  6>         Basis "6-31G"
|  7> end
|  8>
|  9> %geom
| 10> Constraints
| 11> { D 4  0  15  12  255.0   C } # D for Dihedral angle
| 12> { D 0  15  12  16  270.0   C } # D for Dihedral angle
| 13> { D 0  4  3  2   C } # D for Dihedral angle
| 14> { D 4  3  2  1   C } # D for Dihedral angle
| 15> { D 3  2  1  0   C } # D for Dihedral angle
| 16> { D 2  1  0  4   C } # D for Dihedral angle
| 17> { D 1  0  4  3   C } # D for Dihedral angle
| 18> { D 16  20  19  18   C } # D for Dihedral angle
| 19> { D 20  19  18  17   C } # D for Dihedral angle
| 20> { D 19  18  17  16   C } # D for Dihedral angle
| 21> { D 18  17  16  20   C } # D for Dihedral angle
| 22> { D 17  16  20  19   C } # D for Dihedral angle
| 23> { D 15  12  16  20   C } # D for Dihedral angle
| 24> end
| 25> end
| 26>
| 27>
| 28> #%pal
| 29> #nprocs 8
| 30> #end
| 31>
| 32> * xyz 0 1
| 33> C  -21.048   26.222   46.251
| 34> C  -20.361   27.558   45.944
| 35> C  -20.329   28.222   47.341
| 36> C  -20.110   27.022   48.296
| 37> O  -20.473   25.807   47.535
| 38> H  -20.833   25.428   45.533
| 39> H  -19.344   27.382   45.576
| 40> H  -20.898   28.157   45.201
| 41> H  -19.543   28.978   47.434
| 42> H  -21.289   28.710   47.548
| 43> H  -20.733   27.082   49.195
| 44> H  -19.064   26.913   48.597
| 45> C  -23.431   25.260   45.734
| 46> H  -22.872   24.317   45.787
| 47> H  -24.376   25.130   46.278
| 48> O  -22.586   26.394   46.375
| 49> C  -23.778   25.538   44.245
| 50> C  -24.484   26.888   44.080
| 51> C  -23.294   27.875   44.147
| 52> C  -22.151   27.094   43.450
| 53> O  -22.553   25.671   43.449
| 54> H  -24.330   24.687   43.841
| 55> O  -25.178   26.961   42.693
| 56> H  -25.237   27.078   44.853
| 57> H  -23.506   28.830   43.657
| 58> H  -23.036   28.084   45.192
| 59> H  -21.194   27.197   43.972
| 60> H  -22.018   27.392   42.406
| 61> H  -24.443   26.774   41.902
| 62> *
| 63>
| 64>                          ****END OF INPUT****
 Total Charge           Charge          ....    0
 Multiplicity           Mult            ....    1
 Number of Electrons    NEL             ....  102
FINAL SINGLE POINT ENERGY      -652.823173346717
FINAL SINGLE POINT ENERGY      -652.847123979575
FINAL SINGLE POINT ENERGY      -652.860008989167
FINAL SINGLE POINT ENERGY      -652.862879713434
FINAL SINGLE POINT ENERGY      -652.863352094431
FINAL SINGLE POINT ENERGY      -652.863380874788
FINAL SINGLE POINT ENERGY      -652.863384983646
                    ***********************HURRAY********************

CARTESIAN COORDINATES (ANGSTROEM)
---------------------------------
  C    -20.970620   26.197075   46.299185
  C    -20.300548   27.559543   46.109987
  C    -20.327282   28.136251   47.550213
  C    -20.118324   26.875995   48.420113
  O    -20.438309   25.721807   47.550481
  H    -20.754493   25.443902   45.539232
  H    -19.268265   27.409644   45.771750
  H    -20.818646   28.195789   45.393137
  H    -19.554207   28.892144   47.716348
  H    -21.305032   28.585646   47.748081
  H    -20.770915   26.847868   49.296355
  H    -19.079329   26.750508   48.739982
  C    -23.272284   25.418606   45.777027
  H    -22.791779   24.432577   45.836998
  H    -24.180466   25.384500   46.388968
  O    -22.408778   26.405220   46.410514
  C    -23.675531   25.663376   44.321073
  C    -24.493665   26.926060   44.015178
  C    -23.377565   27.982677   43.805296
  C    -22.246685   27.167011   43.130148
  O    -22.541252   25.737178   43.396204
  H    -24.256266   24.780858   44.021829
  O    -25.307528   26.739733   42.823200
  H    -25.197257   27.193352   44.803497
  H    -23.732208   28.813304   43.190138
  H    -23.057869   28.361342   44.780014
  H    -21.254105   27.403813   43.516991
  H    -22.233082   27.290780   42.041942
  H    -24.759710   26.334441   42.118122

 Multiplicity           Mult            ....    1
 Number of Electrons    NEL             ....  102
 Basis Dimension        Dim             ....  149

ORBITAL ENERGIES
----------------

  NO   OCC          E(Eh)            E(eV)
   0   2.0000     -19.149260      -521.0778
   1   2.0000     -19.145577      -520.9776
   2   2.0000     -19.138884      -520.7955
   3   2.0000     -19.137670      -520.7625
   4   2.0000     -10.278535      -279.6932
   5   2.0000     -10.241328      -278.6807
   6   2.0000     -10.237241      -278.5695
   7   2.0000     -10.234099      -278.4840
   8   2.0000     -10.233022      -278.4547
   9   2.0000     -10.223926      -278.2072
  10   2.0000     -10.187202      -277.2079
  11   2.0000     -10.186258      -277.1822
  12   2.0000     -10.185805      -277.1698
  13   2.0000      -1.053323       -28.6624
  14   2.0000      -1.038584       -28.2613
  15   2.0000      -1.008268       -27.4364
  16   2.0000      -0.993843       -27.0438
  17   2.0000      -0.789545       -21.4846
  18   2.0000      -0.780311       -21.2334
  19   2.0000      -0.769972       -20.9520
  20   2.0000      -0.732320       -19.9274
  21   2.0000      -0.678720       -18.4689
  22   2.0000      -0.604869       -16.4593
  23   2.0000      -0.601720       -16.3736
  24   2.0000      -0.598816       -16.2946
  25   2.0000      -0.578118       -15.7314
  26   2.0000      -0.526614       -14.3299
  27   2.0000      -0.508694       -13.8423
  28   2.0000      -0.503066       -13.6891
  29   2.0000      -0.486089       -13.2271
  30   2.0000      -0.471630       -12.8337
  31   2.0000      -0.462105       -12.5745
  32   2.0000      -0.452137       -12.3033
  33   2.0000      -0.437065       -11.8931
  34   2.0000      -0.430719       -11.7204
  35   2.0000      -0.413788       -11.2597
  36   2.0000      -0.397786       -10.8243
  37   2.0000      -0.396839       -10.7985
  38   2.0000      -0.379120       -10.3164
  39   2.0000      -0.368290       -10.0217
  40   2.0000      -0.362983        -9.8773
  41   2.0000      -0.355478        -9.6730
  42   2.0000      -0.349284        -9.5045
  43   2.0000      -0.334668        -9.1068
  44   2.0000      -0.320660        -8.7256
  45   2.0000      -0.309622        -8.4252
  46   2.0000      -0.305669        -8.3177
  47   2.0000      -0.277063        -7.5393
  48   2.0000      -0.268854        -7.3159
  49   2.0000      -0.254550        -6.9267
  50   2.0000      -0.241773        -6.5790
  51   0.0000       0.061914         1.6848
  52   0.0000       0.081797         2.2258
  53   0.0000       0.087037         2.3684
  54   0.0000       0.099841         2.7168
  55   0.0000       0.104462         2.8425

MULLIKEN ATOMIC CHARGES
-----------------------
   0 C :    0.279263
   1 C :   -0.263427
   2 C :   -0.304828
   3 C :    0.001977
   4 O :   -0.505113
   5 H :    0.165635
   6 H :    0.146266
   7 H :    0.146810
   8 H :    0.141359
   9 H :    0.161654
  10 H :    0.150088
  11 H :    0.140637
  12 C :   -0.021627
  13 H :    0.150960
  14 H :    0.151088
  15 O :   -0.520667
  16 C :    0.069968
  17 C :    0.082548
  18 C :   -0.295748
  19 C :   -0.037028
  20 O :   -0.529738
  21 H :    0.156363
  22 O :   -0.603227
  23 H :    0.156432
  24 H :    0.155464
  25 H :    0.169336
  26 H :    0.147276
  27 H :    0.144907
  28 H :    0.363370
Sum of atomic charges:   -0.0000000

LOEWDIN ATOMIC CHARGES
----------------------
   0 C :    0.172512
   1 C :   -0.220820
   2 C :   -0.217040
   3 C :   -0.026082
   4 O :   -0.318531
   5 H :    0.110578
   6 H :    0.114587
   7 H :    0.115185
   8 H :    0.113620
   9 H :    0.118364
  10 H :    0.106916
  11 H :    0.101715
  12 C :   -0.038084
  13 H :    0.108257
  14 H :    0.115242
  15 O :   -0.335083
  16 C :    0.002492
  17 C :    0.039150
  18 C :   -0.241549
  19 C :   -0.039185
  20 O :   -0.333856
  21 H :    0.116961
  22 O :   -0.416152
  23 H :    0.118445
  24 H :    0.122814
  25 H :    0.124259
  26 H :    0.102304
  27 H :    0.100751
  28 H :    0.282230

  Mayer bond orders larger than 0.100000
B(  0-C ,  1-C ) :   0.9440 B(  0-C ,  4-O ) :   0.9194 B(  0-C ,  5-H ) :   0.9117
B(  0-C , 15-O ) :   0.8327 B(  1-C ,  2-C ) :   0.9518 B(  1-C ,  6-H ) :   0.9384
B(  1-C ,  7-H ) :   0.9279 B(  2-C ,  3-C ) :   0.9543 B(  2-C ,  8-H ) :   0.9452
B(  2-C ,  9-H ) :   0.9439 B(  3-C ,  4-O ) :   0.8381 B(  3-C , 10-H ) :   0.9351
B(  3-C , 11-H ) :   0.9401 B( 12-C , 13-H ) :   0.9213 B( 12-C , 14-H ) :   0.9281
B( 12-C , 15-O ) :   0.8762 B( 12-C , 16-C ) :   0.8847 B( 16-C , 17-C ) :   0.9096
B( 16-C , 20-O ) :   0.8596 B( 16-C , 21-H ) :   0.9156 B( 17-C , 18-C ) :   0.9201
B( 17-C , 22-O ) :   0.8922 B( 17-C , 23-H ) :   0.9345 B( 18-C , 19-C ) :   0.9455
B( 18-C , 24-H ) :   0.9363 B( 18-C , 25-H ) :   0.9174 B( 19-C , 20-O ) :   0.8407
B( 19-C , 26-H ) :   0.9227 B( 19-C , 27-H ) :   0.9365 B( 22-O , 28-H ) :   0.7957

FINAL SINGLE POINT ENERGY      -652.863384312596

DIPOLE MOMENT
-------------
                                X             Y             Z
Electronic contribution:     -2.75629      -4.67503      -1.45670
Nuclear contribution   :      3.29675       5.43551       1.43262
                        -----------------------------------------
Total Dipole Moment    :      0.54046       0.76048      -0.02408
                        -----------------------------------------
Magnitude (a.u.)       :      0.93328
Magnitude (Debye)      :      2.37220

Rotational constants in cm-1:     0.060097     0.014467     0.013628
Rotational constants in MHz :  1801.649855   433.708922   408.564819

                             ****ORCA TERMINATED NORMALLY****
TOTAL RUN TIME: 0 days 0 hours 22 minutes 32 seconds 327 msec
