                         Program Version 4.2.0 -  RELEASE  -
|  1> # Test redundant internal optimization
|  2> #
|  3> ! RKS B3LYP  Opt TightSCF SmallPrint
|  4>
|  5> %basis
|  6>         Basis "6-31G"
|  7> end
|  8>
|  9> %geom
| 10> Constraints
| 11> { D 4  0  15  12  345.0   C } # D for Dihedral angle
| 12> { D 0  15  12  16  180.0   C } # D for Dihedral angle
| 13> { D 0  4  3  2   C } # D for Dihedral angle
| 14> { D 4  3  2  1   C } # D for Dihedral angle
| 15> { D 3  2  1  0   C } # D for Dihedral angle
| 16> { D 2  1  0  4   C } # D for Dihedral angle
| 17> { D 1  0  4  3   C } # D for Dihedral angle
| 18> { D 16  20  19  18   C } # D for Dihedral angle
| 19> { D 20  19  18  17   C } # D for Dihedral angle
| 20> { D 19  18  17  16   C } # D for Dihedral angle
| 21> { D 18  17  16  20   C } # D for Dihedral angle
| 22> { D 17  16  20  19   C } # D for Dihedral angle
| 23> { D 15  12  16  20   C } # D for Dihedral angle
| 24> end
| 25> end
| 26>
| 27>
| 28> #%pal
| 29> #nprocs 8
| 30> #end
| 31>
| 32> * xyz 0 1
| 33> C  -21.048   26.222   46.251
| 34> C  -20.361   27.558   45.944
| 35> C  -20.329   28.222   47.341
| 36> C  -20.110   27.022   48.296
| 37> O  -20.473   25.807   47.535
| 38> H  -20.833   25.428   45.533
| 39> H  -19.344   27.382   45.576
| 40> H  -20.898   28.157   45.201
| 41> H  -19.543   28.978   47.434
| 42> H  -21.289   28.710   47.548
| 43> H  -20.733   27.082   49.195
| 44> H  -19.064   26.913   48.597
| 45> C  -23.221   25.764   47.645
| 46> H  -23.015   24.687   47.656
| 47> H  -22.785   26.205   48.551
| 48> O  -22.586   26.394   46.375
| 49> C  -24.760   25.969   47.712
| 50> C  -25.129   27.454   47.611
| 51> C  -25.007   27.703   46.088
| 52> C  -25.488   26.365   45.473
| 53> O  -25.410   25.355   46.550
| 54> H  -25.149   25.467   48.599
| 55> O  -26.590   27.673   48.086
| 56> H  -24.472   28.102   48.201
| 57> H  -25.603   28.556   45.748
| 58> H  -23.961   27.897   45.821
| 59> H  -24.865   26.042   44.632
| 60> H  -26.531   26.407   45.146
| 61> H  -27.266   27.033   47.508
| 62> *
| 63>
| 64>                          ****END OF INPUT****
 Total Charge           Charge          ....    0
 Multiplicity           Mult            ....    1
 Number of Electrons    NEL             ....  102
FINAL SINGLE POINT ENERGY      -652.836365127519
FINAL SINGLE POINT ENERGY      -652.858240670176
FINAL SINGLE POINT ENERGY      -652.862456772046
FINAL SINGLE POINT ENERGY      -652.863499205895
FINAL SINGLE POINT ENERGY      -652.863616285565
FINAL SINGLE POINT ENERGY      -652.863633836762
                    ***********************HURRAY********************

CARTESIAN COORDINATES (ANGSTROEM)
---------------------------------
  C    -21.095942   26.163644   46.350762
  C    -20.477143   27.510547   45.977626
  C    -20.370126   28.201774   47.355988
  C    -20.048030   27.033334   48.313467
  O    -20.432763   25.794224   47.578921
  H    -20.903738   25.348635   45.647793
  H    -19.485562   27.341390   45.542622
  H    -21.088993   28.064059   45.262104
  H    -19.600294   28.979105   47.378288
  H    -21.327727   28.664747   47.614913
  H    -20.607201   27.073471   49.252374
  H    -18.980871   26.943320   48.534182
  C    -23.177726   25.761714   47.670647
  H    -23.003329   24.680719   47.723477
  H    -22.766518   26.216261   48.581014
  O    -22.541517   26.309428   46.479129
  C    -24.682194   26.014422   47.616908
  C    -25.142847   27.478465   47.554902
  C    -25.055650   27.773223   46.033101
  C    -25.462805   26.421811   45.394414
  O    -25.308043   25.394283   46.449613
  H    -25.116583   25.528782   48.499450
  O    -26.499282   27.610231   48.066840
  H    -24.540989   28.155060   48.162715
  H    -25.724901   28.593530   45.758641
  H    -24.028906   28.027245   45.768901
  H    -24.822887   26.153760   44.550032
  H    -26.509821   26.399945   45.074163
  H    -27.060613   26.916872   47.660013

 Multiplicity           Mult            ....    1
 Number of Electrons    NEL             ....  102
 Basis Dimension        Dim             ....  149

ORBITAL ENERGIES
----------------

  NO   OCC          E(Eh)            E(eV)
   0   2.0000     -19.154047      -521.2081
   1   2.0000     -19.144634      -520.9520
   2   2.0000     -19.134227      -520.6688
   3   2.0000     -19.132617      -520.6250
   4   2.0000     -10.283906      -279.8393
   5   2.0000     -10.236300      -278.5439
   6   2.0000     -10.234408      -278.4924
   7   2.0000     -10.231004      -278.3998
   8   2.0000     -10.229321      -278.3540
   9   2.0000     -10.219644      -278.0906
  10   2.0000     -10.195481      -277.4331
  11   2.0000     -10.191842      -277.3341
  12   2.0000     -10.173885      -276.8455
  13   2.0000      -1.060119       -28.8473
  14   2.0000      -1.030223       -28.0338
  15   2.0000      -1.002191       -27.2710
  16   2.0000      -0.993170       -27.0255
  17   2.0000      -0.796624       -21.6772
  18   2.0000      -0.776109       -21.1190
  19   2.0000      -0.762460       -20.7476
  20   2.0000      -0.735848       -20.0235
  21   2.0000      -0.671492       -18.2722
  22   2.0000      -0.608861       -16.5680
  23   2.0000      -0.598993       -16.2994
  24   2.0000      -0.594385       -16.1740
  25   2.0000      -0.570018       -15.5110
  26   2.0000      -0.525088       -14.2884
  27   2.0000      -0.512011       -13.9325
  28   2.0000      -0.499464       -13.5911
  29   2.0000      -0.489438       -13.3183
  30   2.0000      -0.470709       -12.8086
  31   2.0000      -0.459568       -12.5055
  32   2.0000      -0.447555       -12.1786
  33   2.0000      -0.432884       -11.7794
  34   2.0000      -0.422193       -11.4885
  35   2.0000      -0.411673       -11.2022
  36   2.0000      -0.404398       -11.0042
  37   2.0000      -0.384471       -10.4620
  38   2.0000      -0.378389       -10.2965
  39   2.0000      -0.367581       -10.0024
  40   2.0000      -0.365207        -9.9378
  41   2.0000      -0.358535        -9.7562
  42   2.0000      -0.350273        -9.5314
  43   2.0000      -0.341004        -9.2792
  44   2.0000      -0.321644        -8.7524
  45   2.0000      -0.309018        -8.4088
  46   2.0000      -0.299472        -8.1491
  47   2.0000      -0.268425        -7.3042
  48   2.0000      -0.264810        -7.2059
  49   2.0000      -0.253852        -6.9077
  50   2.0000      -0.239784        -6.5249
  51   0.0000       0.058779         1.5995
  52   0.0000       0.078270         2.1298
  53   0.0000       0.094806         2.5798
  54   0.0000       0.099072         2.6959
  55   0.0000       0.104067         2.8318

MULLIKEN ATOMIC CHARGES
-----------------------
   0 C :    0.305555
   1 C :   -0.259959
   2 C :   -0.305948
   3 C :   -0.017343
   4 O :   -0.510791
   5 H :    0.157906
   6 H :    0.147509
   7 H :    0.158229
   8 H :    0.149369
   9 H :    0.154869
  10 H :    0.146932
  11 H :    0.152714
  12 C :    0.024193
  13 H :    0.155155
  14 H :    0.123980
  15 O :   -0.547360
  16 C :    0.061998
  17 C :    0.078245
  18 C :   -0.284944
  19 C :   -0.015533
  20 O :   -0.527162
  21 H :    0.153779
  22 O :   -0.604928
  23 H :    0.143935
  24 H :    0.145798
  25 H :    0.166336
  26 H :    0.150808
  27 H :    0.133842
  28 H :    0.362817
Sum of atomic charges:   -0.0000000

LOEWDIN ATOMIC CHARGES
----------------------
   0 C :    0.182598
   1 C :   -0.217729
   2 C :   -0.218723
   3 C :   -0.032068
   4 O :   -0.318715
   5 H :    0.104326
   6 H :    0.115482
   7 H :    0.123660
   8 H :    0.118259
   9 H :    0.114148
  10 H :    0.102889
  11 H :    0.108092
  12 C :   -0.030706
  13 H :    0.109966
  14 H :    0.094762
  15 O :   -0.343166
  16 C :    0.014690
  17 C :    0.038853
  18 C :   -0.241611
  19 C :   -0.032021
  20 O :   -0.329683
  21 H :    0.115168
  22 O :   -0.418277
  23 H :    0.112131
  24 H :    0.116808
  25 H :    0.125769
  26 H :    0.107870
  27 H :    0.095343
  28 H :    0.281883

  Mayer bond orders larger than 0.100000
B(  0-C ,  1-C ) :   0.9393 B(  0-C ,  4-O ) :   0.9088 B(  0-C ,  5-H ) :   0.9254
B(  0-C , 15-O ) :   0.8338 B(  1-C ,  2-C ) :   0.9522 B(  1-C ,  6-H ) :   0.9357
B(  1-C ,  7-H ) :   0.9359 B(  2-C ,  3-C ) :   0.9536 B(  2-C ,  8-H ) :   0.9444
B(  2-C ,  9-H ) :   0.9451 B(  3-C ,  4-O ) :   0.8303 B(  3-C , 10-H ) :   0.9315
B(  3-C , 11-H ) :   0.9400 B( 12-C , 13-H ) :   0.9194 B( 12-C , 14-H ) :   0.9083
B( 12-C , 15-O ) :   0.8270 B( 12-C , 16-C ) :   0.9093 B( 16-C , 17-C ) :   0.9071
B( 16-C , 20-O ) :   0.8706 B( 16-C , 21-H ) :   0.9235 B( 17-C , 18-C ) :   0.9238
B( 17-C , 22-O ) :   0.8900 B( 17-C , 23-H ) :   0.9361 B( 18-C , 19-C ) :   0.9478
B( 18-C , 24-H ) :   0.9376 B( 18-C , 25-H ) :   0.9194 B( 19-C , 20-O ) :   0.8402
B( 19-C , 26-H ) :   0.9344 B( 19-C , 27-H ) :   0.9374 B( 22-O , 28-H ) :   0.7957

FINAL SINGLE POINT ENERGY      -652.863634085058

DIPOLE MOMENT
-------------
                                X             Y             Z
Electronic contribution:     -3.21840      -4.45138       0.63822
Nuclear contribution   :      4.17604       5.21000      -0.87162
                        -----------------------------------------
Total Dipole Moment    :      0.95764       0.75862      -0.23339
                        -----------------------------------------
Magnitude (a.u.)       :      1.24381
Magnitude (Debye)      :      3.16150

Rotational constants in cm-1:     0.052387     0.014450     0.014209
Rotational constants in MHz :  1570.526479   433.212410   425.971323

                             ****ORCA TERMINATED NORMALLY****
TOTAL RUN TIME: 0 days 0 hours 19 minutes 28 seconds 840 msec
