                         Program Version 4.2.0 -  RELEASE  -
|  1> # Test redundant internal optimization
|  2> #
|  3> ! RKS B3LYP  Opt TightSCF SmallPrint
|  4>
|  5> %basis
|  6>         Basis "6-31G"
|  7> end
|  8>
|  9> %geom
| 10> Constraints
| 11> { D 4  0  15  12  270.0   C } # D for Dihedral angle
| 12> { D 0  15  12  16  210.0   C } # D for Dihedral angle
| 13> { D 0  4  3  2   C } # D for Dihedral angle
| 14> { D 4  3  2  1   C } # D for Dihedral angle
| 15> { D 3  2  1  0   C } # D for Dihedral angle
| 16> { D 2  1  0  4   C } # D for Dihedral angle
| 17> { D 1  0  4  3   C } # D for Dihedral angle
| 18> { D 16  20  19  18   C } # D for Dihedral angle
| 19> { D 20  19  18  17   C } # D for Dihedral angle
| 20> { D 19  18  17  16   C } # D for Dihedral angle
| 21> { D 18  17  16  20   C } # D for Dihedral angle
| 22> { D 17  16  20  19   C } # D for Dihedral angle
| 23> { D 15  12  16  20   C } # D for Dihedral angle
| 24> end
| 25> end
| 26>
| 27>
| 28> #%pal
| 29> #nprocs 8
| 30> #end
| 31>
| 32> * xyz 0 1
| 33> C  -21.048   26.222   46.251
| 34> C  -20.361   27.558   45.944
| 35> C  -20.329   28.222   47.341
| 36> C  -20.110   27.022   48.296
| 37> O  -20.473   25.807   47.535
| 38> H  -20.833   25.428   45.533
| 39> H  -19.344   27.382   45.576
| 40> H  -20.898   28.157   45.201
| 41> H  -19.543   28.978   47.434
| 42> H  -21.289   28.710   47.548
| 43> H  -20.733   27.082   49.195
| 44> H  -19.064   26.913   48.597
| 45> C  -23.420   25.119   46.072
| 46> H  -22.879   24.497   45.348
| 47> H  -23.567   24.530   46.987
| 48> O  -22.586   26.394   46.375
| 49> C  -24.822   25.443   45.487
| 50> C  -25.659   24.171   45.310
| 51> C  -26.150   23.915   46.754
| 52> C  -26.357   25.344   47.314
| 53> O  -25.596   26.255   46.432
| 54> H  -24.703   26.036   44.579
| 55> O  -26.859   24.450   44.364
| 56> H  -25.085   23.332   44.901
| 57> H  -27.066   23.316   46.791
| 58> H  -25.379   23.384   47.326
| 59> H  -25.989   25.450   48.341
| 60> H  -27.404   25.660   47.278
| 61> H  -27.448   25.287   44.754
| 62> *
| 63>
| 64>                          ****END OF INPUT****
 Total Charge           Charge          ....    0
 Multiplicity           Mult            ....    1
 Number of Electrons    NEL             ....  102
FINAL SINGLE POINT ENERGY      -652.834414460443
FINAL SINGLE POINT ENERGY      -652.858337781459
FINAL SINGLE POINT ENERGY      -652.862539876430
FINAL SINGLE POINT ENERGY      -652.863293066236
FINAL SINGLE POINT ENERGY      -652.863379762046
FINAL SINGLE POINT ENERGY      -652.863389456101
FINAL SINGLE POINT ENERGY      -652.863391262019
                    ***********************HURRAY********************

CARTESIAN COORDINATES (ANGSTROEM)
---------------------------------
  C    -21.092236   26.130749   46.215944
  C    -20.563449   27.533238   45.912751
  C    -20.556620   28.180537   47.317733
  C    -20.180846   27.000829   48.242142
  O    -20.443319   25.768545   47.457836
  H    -20.832850   25.353082   45.489619
  H    -19.546593   27.457088   45.510188
  H    -21.194174   28.062501   45.196012
  H    -19.849499   29.011984   47.395740
  H    -21.558296   28.550842   47.553420
  H    -20.776890   26.969136   49.157603
  H    -19.117908   26.985819   48.502125
  C    -23.294645   25.026795   46.126045
  H    -22.788922   24.394007   45.379139
  H    -23.376264   24.453586   47.058916
  O    -22.522377   26.232455   46.361950
  C    -24.667278   25.428526   45.593623
  C    -25.609300   24.240817   45.345322
  C    -26.178848   23.985913   46.766150
  C    -26.277695   25.411981   47.362498
  O    -25.402062   26.276355   46.535361
  H    -24.529691   26.025921   44.687170
  O    -26.655061   24.601608   44.401836
  H    -25.120717   23.366172   44.913136
  H    -27.144259   23.477345   46.708302
  H    -25.491189   23.357751   47.343484
  H    -25.944111   25.460088   48.403462
  H    -27.290055   25.824013   47.301066
  H    -26.988847   25.496316   44.625428

 Multiplicity           Mult            ....    1
 Number of Electrons    NEL             ....  102
 Basis Dimension        Dim             ....  149

ORBITAL ENERGIES
----------------

  NO   OCC          E(Eh)            E(eV)
   0   2.0000     -19.142013      -520.8807
   1   2.0000     -19.140507      -520.8397
   2   2.0000     -19.140030      -520.8267
   3   2.0000     -19.134760      -520.6833
   4   2.0000     -10.276892      -279.6484
   5   2.0000     -10.244290      -278.7613
   6   2.0000     -10.234794      -278.5029
   7   2.0000     -10.233618      -278.4709
   8   2.0000     -10.230033      -278.3734
   9   2.0000     -10.220626      -278.1174
  10   2.0000     -10.190333      -277.2931
  11   2.0000     -10.181256      -277.0461
  12   2.0000     -10.180139      -277.0157
  13   2.0000      -1.052054       -28.6278
  14   2.0000      -1.036353       -28.2006
  15   2.0000      -1.006800       -27.3964
  16   2.0000      -0.992089       -26.9961
  17   2.0000      -0.789149       -21.4738
  18   2.0000      -0.780163       -21.2293
  19   2.0000      -0.766891       -20.8682
  20   2.0000      -0.728125       -19.8133
  21   2.0000      -0.673451       -18.3255
  22   2.0000      -0.605469       -16.4757
  23   2.0000      -0.595753       -16.2113
  24   2.0000      -0.590638       -16.0721
  25   2.0000      -0.582943       -15.8627
  26   2.0000      -0.528255       -14.3745
  27   2.0000      -0.510644       -13.8953
  28   2.0000      -0.493729       -13.4351
  29   2.0000      -0.487172       -13.2566
  30   2.0000      -0.473857       -12.8943
  31   2.0000      -0.457936       -12.4611
  32   2.0000      -0.449479       -12.2309
  33   2.0000      -0.441540       -12.0149
  34   2.0000      -0.423615       -11.5271
  35   2.0000      -0.408327       -11.1112
  36   2.0000      -0.397178       -10.8078
  37   2.0000      -0.394011       -10.7216
  38   2.0000      -0.373289       -10.1577
  39   2.0000      -0.367750       -10.0070
  40   2.0000      -0.361792        -9.8449
  41   2.0000      -0.352214        -9.5842
  42   2.0000      -0.345213        -9.3937
  43   2.0000      -0.331262        -9.0141
  44   2.0000      -0.320474        -8.7205
  45   2.0000      -0.308543        -8.3959
  46   2.0000      -0.298824        -8.1314
  47   2.0000      -0.272242        -7.4081
  48   2.0000      -0.267123        -7.2688
  49   2.0000      -0.252207        -6.8629
  50   2.0000      -0.239338        -6.5127
  51   0.0000       0.065455         1.7811
  52   0.0000       0.082527         2.2457
  53   0.0000       0.090032         2.4499
  54   0.0000       0.100065         2.7229
  55   0.0000       0.103740         2.8229

MULLIKEN ATOMIC CHARGES
-----------------------
   0 C :    0.281197
   1 C :   -0.256955
   2 C :   -0.299429
   3 C :   -0.001061
   4 O :   -0.510922
   5 H :    0.136643
   6 H :    0.142340
   7 H :    0.154896
   8 H :    0.138415
   9 H :    0.169998
  10 H :    0.147714
  11 H :    0.139824
  12 C :    0.007285
  13 H :    0.123976
  14 H :    0.143949
  15 O :   -0.508210
  16 C :    0.069690
  17 C :    0.076101
  18 C :   -0.300022
  19 C :   -0.028126
  20 O :   -0.509961
  21 H :    0.162082
  22 O :   -0.601691
  23 H :    0.149849
  24 H :    0.163412
  25 H :    0.146938
  26 H :    0.151497
  27 H :    0.144516
  28 H :    0.366054
Sum of atomic charges:   -0.0000000

LOEWDIN ATOMIC CHARGES
----------------------
   0 C :    0.171593
   1 C :   -0.216563
   2 C :   -0.216093
   3 C :   -0.027106
   4 O :   -0.329633
   5 H :    0.094353
   6 H :    0.112466
   7 H :    0.122990
   8 H :    0.112305
   9 H :    0.122995
  10 H :    0.105843
  11 H :    0.101043
  12 C :   -0.038119
  13 H :    0.095296
  14 H :    0.101445
  15 O :   -0.315224
  16 C :    0.016145
  17 C :    0.035197
  18 C :   -0.242404
  19 C :   -0.037676
  20 O :   -0.320599
  21 H :    0.117969
  22 O :   -0.414065
  23 H :    0.114602
  24 H :    0.126942
  25 H :    0.113916
  26 H :    0.106715
  27 H :    0.101656
  28 H :    0.284013

  Mayer bond orders larger than 0.100000
B(  0-C ,  1-C ) :   0.9479 B(  0-C ,  4-O ) :   0.9149 B(  0-C ,  5-H ) :   0.9171
B(  0-C , 15-O ) :   0.8639 B(  1-C ,  2-C ) :   0.9584 B(  1-C ,  6-H ) :   0.9399
B(  1-C ,  7-H ) :   0.9365 B(  2-C ,  3-C ) :   0.9549 B(  2-C ,  8-H ) :   0.9453
B(  2-C ,  9-H ) :   0.9425 B(  3-C ,  4-O ) :   0.8384 B(  3-C , 10-H ) :   0.9357
B(  3-C , 11-H ) :   0.9403 B( 12-C , 13-H ) :   0.9108 B( 12-C , 14-H ) :   0.9202
B( 12-C , 15-O ) :   0.8374 B( 12-C , 16-C ) :   0.8986 B( 16-C , 17-C ) :   0.8985
B( 16-C , 20-O ) :   0.8678 B( 16-C , 21-H ) :   0.9245 B( 17-C , 18-C ) :   0.9127
B( 17-C , 22-O ) :   0.8942 B( 17-C , 23-H ) :   0.9335 B( 18-C , 19-C ) :   0.9392
B( 18-C , 24-H ) :   0.9370 B( 18-C , 25-H ) :   0.9331 B( 19-C , 20-O ) :   0.8494
B( 19-C , 26-H ) :   0.9339 B( 19-C , 27-H ) :   0.9379 B( 22-O , 28-H ) :   0.7935

FINAL SINGLE POINT ENERGY      -652.863391223272

DIPOLE MOMENT
-------------
                                X             Y             Z
Electronic contribution:     -1.93531      -0.94210      -2.02025
Nuclear contribution   :      2.14956       0.93506       2.25655
                        -----------------------------------------
Total Dipole Moment    :      0.21425      -0.00704       0.23630
                        -----------------------------------------
Magnitude (a.u.)       :      0.31905
Magnitude (Debye)      :      0.81096

Rotational constants in cm-1:     0.064547     0.011233     0.010956
Rotational constants in MHz :  1935.061992   336.744239   328.441218

                             ****ORCA TERMINATED NORMALLY****
TOTAL RUN TIME: 0 days 0 hours 37 minutes 54 seconds 20 msec
