                         Program Version 4.2.0 -  RELEASE  -
|  1> # Test redundant internal optimization
|  2> #
|  3> ! RKS B3LYP  Opt TightSCF SmallPrint
|  4>
|  5> %basis
|  6>         Basis "6-31G"
|  7> end
|  8>
|  9> %geom
| 10> Constraints
| 11> { D 4  0  15  12  255.0   C } # D for Dihedral angle
| 12> { D 0  15  12  16  60.0   C } # D for Dihedral angle
| 13> { D 0  4  3  2   C } # D for Dihedral angle
| 14> { D 4  3  2  1   C } # D for Dihedral angle
| 15> { D 3  2  1  0   C } # D for Dihedral angle
| 16> { D 2  1  0  4   C } # D for Dihedral angle
| 17> { D 1  0  4  3   C } # D for Dihedral angle
| 18> { D 16  20  19  18   C } # D for Dihedral angle
| 19> { D 20  19  18  17   C } # D for Dihedral angle
| 20> { D 19  18  17  16   C } # D for Dihedral angle
| 21> { D 18  17  16  20   C } # D for Dihedral angle
| 22> { D 17  16  20  19   C } # D for Dihedral angle
| 23> { D 15  12  16  20   C } # D for Dihedral angle
| 24> end
| 25> end
| 26>
| 27>
| 28> #%pal
| 29> #nprocs 8
| 30> #end
| 31>
| 32> * xyz 0 1
| 33> C  -21.048   26.222   46.251
| 34> C  -20.361   27.558   45.944
| 35> C  -20.329   28.222   47.341
| 36> C  -20.110   27.022   48.296
| 37> O  -20.473   25.807   47.535
| 38> H  -20.833   25.428   45.533
| 39> H  -19.344   27.382   45.576
| 40> H  -20.898   28.157   45.201
| 41> H  -19.543   28.978   47.434
| 42> H  -21.289   28.710   47.548
| 43> H  -20.733   27.082   49.195
| 44> H  -19.064   26.913   48.597
| 45> C  -23.431   25.260   45.734
| 46> H  -24.497   25.482   45.869
| 47> H  -23.229   25.192   44.657
| 48> O  -22.586   26.394   46.375
| 49> C  -23.140   23.867   46.358
| 50> C  -23.556   23.820   47.832
| 51> C  -25.087   23.621   47.720
| 52> C  -25.233   22.722   46.466
| 53> O  -23.963   22.836   45.717
| 54> H  -22.097   23.604   46.174
| 55> O  -22.894   22.603   48.534
| 56> H  -23.285   24.725   48.386
| 57> H  -25.522   23.163   48.614
| 58> H  -25.581   24.587   47.563
| 59> H  -26.059   23.036   45.820
| 60> H  -25.364   21.667   46.721
| 61> H  -23.153   21.682   47.997
| 62> *
| 63>
| 64>                          ****END OF INPUT****
 Total Charge           Charge          ....    0
 Multiplicity           Mult            ....    1
 Number of Electrons    NEL             ....  102
FINAL SINGLE POINT ENERGY      -652.838084877842
FINAL SINGLE POINT ENERGY      -652.860535093000
FINAL SINGLE POINT ENERGY      -652.864138587773
FINAL SINGLE POINT ENERGY      -652.864787415437
FINAL SINGLE POINT ENERGY      -652.864892082925
FINAL SINGLE POINT ENERGY      -652.864904040594
FINAL SINGLE POINT ENERGY      -652.864907075073
                    ***********************HURRAY********************

CARTESIAN COORDINATES (ANGSTROEM)
---------------------------------
  C    -21.045543   26.136864   46.232002
  C    -20.415824   27.499561   45.941189
  C    -20.464559   28.176530   47.332124
  C    -20.221741   26.996987   48.299946
  O    -20.504626   25.766095   47.518446
  H    -20.783093   25.342370   45.528535
  H    -19.379851   27.358076   45.611519
  H    -20.962487   28.049697   45.172622
  H    -19.716500   28.967231   47.443216
  H    -21.455841   28.610287   47.493547
  H    -20.877169   27.015805   49.174004
  H    -19.181294   26.924331   48.630011
  C    -23.311184   25.259245   45.727353
  H    -24.337625   25.608637   45.865276
  H    -23.123691   25.168530   44.648323
  O    -22.482331   26.311706   46.302458
  C    -23.107652   23.880866   46.370467
  C    -23.491469   23.788133   47.853572
  C    -25.034602   23.669577   47.769992
  C    -25.258036   22.836586   46.482846
  O    -23.996246   22.920303   45.702393
  H    -22.084588   23.526860   46.216895
  O    -22.903994   22.608064   48.468845
  H    -23.137580   24.635973   48.436661
  H    -25.430796   23.182893   48.664397
  H    -25.492954   24.661150   47.689715
  H    -26.081104   23.212850   45.867211
  H    -25.435248   21.777145   46.692201
  H    -22.984371   21.849651   47.852232

 Multiplicity           Mult            ....    1
 Number of Electrons    NEL             ....  102
 Basis Dimension        Dim             ....  149

ORBITAL ENERGIES
----------------

  NO   OCC          E(Eh)            E(eV)
   0   2.0000     -19.145767      -520.9828
   1   2.0000     -19.144293      -520.9427
   2   2.0000     -19.139300      -520.8068
   3   2.0000     -19.130226      -520.5599
   4   2.0000     -10.279962      -279.7320
   5   2.0000     -10.232000      -278.4269
   6   2.0000     -10.231497      -278.4132
   7   2.0000     -10.230769      -278.3934
   8   2.0000     -10.230718      -278.3920
   9   2.0000     -10.223955      -278.2080
  10   2.0000     -10.184840      -277.1436
  11   2.0000     -10.184765      -277.1415
  12   2.0000     -10.184574      -277.1364
  13   2.0000      -1.053659       -28.6715
  14   2.0000      -1.033249       -28.1161
  15   2.0000      -1.000566       -27.2268
  16   2.0000      -0.995262       -27.0825
  17   2.0000      -0.787940       -21.4409
  18   2.0000      -0.775114       -21.0919
  19   2.0000      -0.763614       -20.7790
  20   2.0000      -0.732337       -19.9279
  21   2.0000      -0.673510       -18.3271
  22   2.0000      -0.603625       -16.4255
  23   2.0000      -0.600136       -16.3305
  24   2.0000      -0.596949       -16.2438
  25   2.0000      -0.572264       -15.5721
  26   2.0000      -0.521148       -14.1812
  27   2.0000      -0.518566       -14.1109
  28   2.0000      -0.491599       -13.3771
  29   2.0000      -0.486741       -13.2449
  30   2.0000      -0.465702       -12.6724
  31   2.0000      -0.459237       -12.4965
  32   2.0000      -0.450201       -12.2506
  33   2.0000      -0.434710       -11.8291
  34   2.0000      -0.422766       -11.5040
  35   2.0000      -0.412043       -11.2123
  36   2.0000      -0.399203       -10.8629
  37   2.0000      -0.388937       -10.5835
  38   2.0000      -0.373534       -10.1644
  39   2.0000      -0.365597        -9.9484
  40   2.0000      -0.357261        -9.7216
  41   2.0000      -0.355549        -9.6750
  42   2.0000      -0.349650        -9.5145
  43   2.0000      -0.333212        -9.0672
  44   2.0000      -0.319573        -8.6960
  45   2.0000      -0.309025        -8.4090
  46   2.0000      -0.300939        -8.1890
  47   2.0000      -0.272675        -7.4199
  48   2.0000      -0.263549        -7.1715
  49   2.0000      -0.255295        -6.9469
  50   2.0000      -0.237376        -6.4593
  51   0.0000       0.066435         1.8078
  52   0.0000       0.076732         2.0880
  53   0.0000       0.095680         2.6036
  54   0.0000       0.098385         2.6772
  55   0.0000       0.103052         2.8042

MULLIKEN ATOMIC CHARGES
-----------------------
   0 C :    0.278212
   1 C :   -0.252497
   2 C :   -0.301077
   3 C :   -0.001495
   4 O :   -0.505964
   5 H :    0.145318
   6 H :    0.144216
   7 H :    0.150931
   8 H :    0.141429
   9 H :    0.163358
  10 H :    0.150497
  11 H :    0.143246
  12 C :   -0.024474
  13 H :    0.150468
  14 H :    0.146720
  15 O :   -0.516306
  16 C :    0.049083
  17 C :    0.097359
  18 C :   -0.296946
  19 C :   -0.036382
  20 O :   -0.530204
  21 H :    0.167914
  22 O :   -0.602158
  23 H :    0.177105
  24 H :    0.161087
  25 H :    0.144799
  26 H :    0.145658
  27 H :    0.149310
  28 H :    0.360792
Sum of atomic charges:   -0.0000000

LOEWDIN ATOMIC CHARGES
----------------------
   0 C :    0.169962
   1 C :   -0.216479
   2 C :   -0.216448
   3 C :   -0.026328
   4 O :   -0.321433
   5 H :    0.099586
   6 H :    0.113116
   7 H :    0.121018
   8 H :    0.113820
   9 H :    0.119632
  10 H :    0.107037
  11 H :    0.103218
  12 C :   -0.041655
  13 H :    0.112297
  14 H :    0.102265
  15 O :   -0.329052
  16 C :    0.003025
  17 C :    0.040236
  18 C :   -0.241408
  19 C :   -0.039578
  20 O :   -0.332334
  21 H :    0.116184
  22 O :   -0.412833
  23 H :    0.128779
  24 H :    0.126567
  25 H :    0.113344
  26 H :    0.103448
  27 H :    0.103772
  28 H :    0.280243

  Mayer bond orders larger than 0.100000
B(  0-C ,  1-C ) :   0.9468 B(  0-C ,  4-O ) :   0.9147 B(  0-C ,  5-H ) :   0.9177
B(  0-C , 15-O ) :   0.8441 B(  1-C ,  2-C ) :   0.9572 B(  1-C ,  6-H ) :   0.9385
B(  1-C ,  7-H ) :   0.9379 B(  2-C ,  3-C ) :   0.9540 B(  2-C ,  8-H ) :   0.9453
B(  2-C ,  9-H ) :   0.9438 B(  3-C ,  4-O ) :   0.8360 B(  3-C , 10-H ) :   0.9350
B(  3-C , 11-H ) :   0.9400 B( 12-C , 13-H ) :   0.9412 B( 12-C , 14-H ) :   0.9200
B( 12-C , 15-O ) :   0.8488 B( 12-C , 16-C ) :   0.8768 B( 16-C , 17-C ) :   0.9105
B( 16-C , 20-O ) :   0.8292 B( 16-C , 21-H ) :   0.9228 B( 17-C , 18-C ) :   0.9109
B( 17-C , 22-O ) :   0.8888 B( 17-C , 23-H ) :   0.9221 B( 18-C , 19-C ) :   0.9420
B( 18-C , 24-H ) :   0.9381 B( 18-C , 25-H ) :   0.9341 B( 19-C , 20-O ) :   0.8432
B( 19-C , 26-H ) :   0.9357 B( 19-C , 27-H ) :   0.9376 B( 22-O , 28-H ) :   0.7965

FINAL SINGLE POINT ENERGY      -652.864907775954

DIPOLE MOMENT
-------------
                                X             Y             Z
Electronic contribution:      0.38215      -4.18849      -0.49913
Nuclear contribution   :     -0.68452       4.96282       0.09331
                        -----------------------------------------
Total Dipole Moment    :     -0.30237       0.77433      -0.40582
                        -----------------------------------------
Magnitude (a.u.)       :      0.92504
Magnitude (Debye)      :      2.35126

Rotational constants in cm-1:     0.056574     0.014151     0.012774
Rotational constants in MHz :  1696.053178   424.232552   382.952135

                             ****ORCA TERMINATED NORMALLY****
TOTAL RUN TIME: 0 days 0 hours 53 minutes 34 seconds 753 msec
