                         Program Version 4.2.0 -  RELEASE  -
|  1> # Test redundant internal optimization
|  2> #
|  3> ! RKS B3LYP  Opt TightSCF SmallPrint
|  4>
|  5> %basis
|  6>         Basis "6-31G"
|  7> end
|  8>
|  9> %geom
| 10> Constraints
| 11> { D 4  0  15  12  135.0   C } # D for Dihedral angle
| 12> { D 0  15  12  16  270.0   C } # D for Dihedral angle
| 13> { D 0  4  3  2   C } # D for Dihedral angle
| 14> { D 4  3  2  1   C } # D for Dihedral angle
| 15> { D 3  2  1  0   C } # D for Dihedral angle
| 16> { D 2  1  0  4   C } # D for Dihedral angle
| 17> { D 1  0  4  3   C } # D for Dihedral angle
| 18> { D 16  20  19  18   C } # D for Dihedral angle
| 19> { D 20  19  18  17   C } # D for Dihedral angle
| 20> { D 19  18  17  16   C } # D for Dihedral angle
| 21> { D 18  17  16  20   C } # D for Dihedral angle
| 22> { D 17  16  20  19   C } # D for Dihedral angle
| 23> { D 15  12  16  20   C } # D for Dihedral angle
| 24> end
| 25> end
| 26>
| 27>
| 28> #%pal
| 29> #nprocs 8
| 30> #end
| 31>
| 32> * xyz 0 1
| 33> C  -21.048   26.222   46.251
| 34> C  -20.361   27.558   45.944
| 35> C  -20.329   28.222   47.341
| 36> C  -20.110   27.022   48.296
| 37> O  -20.473   25.807   47.535
| 38> H  -20.833   25.428   45.533
| 39> H  -19.344   27.382   45.576
| 40> H  -20.898   28.157   45.201
| 41> H  -19.543   28.978   47.434
| 42> H  -21.289   28.710   47.548
| 43> H  -20.733   27.082   49.195
| 44> H  -19.064   26.913   48.597
| 45> C  -23.162   27.680   45.721
| 46> H  -22.540   27.957   44.860
| 47> H  -24.184   27.503   45.362
| 48> O  -22.586   26.394   46.375
| 49> C  -23.206   28.885   46.701
| 50> C  -23.884   30.100   46.059
| 51> C  -25.381   29.734   46.198
| 52> C  -25.434   28.983   47.553
| 53> O  -24.048   28.572   47.860
| 54> H  -22.199   29.076   47.078
| 55> H  -23.653   31.006   46.630
| 56> O  -23.455   30.329   44.584
| 57> H  -26.036   30.611   46.181
| 58> H  -25.685   29.072   45.378
| 59> H  -26.073   28.093   47.514
| 60> H  -25.770   29.625   48.372
| 61> H  -23.678   29.435   43.991
| 62> *
| 63>
| 64>                          ****END OF INPUT****
 Total Charge           Charge          ....    0
 Multiplicity           Mult            ....    1
 Number of Electrons    NEL             ....  102
FINAL SINGLE POINT ENERGY      -652.781767109946
FINAL SINGLE POINT ENERGY      -652.816910904206
FINAL SINGLE POINT ENERGY      -652.836077767989
FINAL SINGLE POINT ENERGY      -652.840257342901
FINAL SINGLE POINT ENERGY      -652.841022202530
FINAL SINGLE POINT ENERGY      -652.841215455741
FINAL SINGLE POINT ENERGY      -652.841237781420
FINAL SINGLE POINT ENERGY      -652.841245737554
                    ***********************HURRAY********************

CARTESIAN COORDINATES (ANGSTROEM)
---------------------------------
  C    -21.074505   26.317602   46.295334
  C    -20.080416   27.440635   45.977862
  C    -19.924522   28.142672   47.359874
  C    -20.026597   26.953287   48.344837
  O    -20.652332   25.846139   47.583884
  H    -20.960668   25.456050   45.630854
  H    -19.135725   26.977682   45.676031
  H    -20.396890   28.119437   45.180367
  H    -18.965587   28.663976   47.444867
  H    -20.713209   28.872826   47.536399
  H    -20.644834   27.174025   49.218956
  H    -19.047397   26.594071   48.673892
  C    -23.148821   27.764082   45.726464
  H    -22.613551   28.112335   44.830406
  H    -24.127300   27.387172   45.410650
  O    -22.505619   26.591767   46.287763
  C    -23.338692   28.961467   46.662114
  C    -24.091527   30.122973   45.988817
  C    -25.579815   29.678100   46.148219
  C    -25.571807   28.968442   47.521455
  O    -24.156406   28.643038   47.827190
  H    -22.379119   29.294401   47.052353
  H    -23.910321   31.041674   46.551549
  O    -23.680774   30.436954   44.635315
  H    -26.269174   30.525413   46.109388
  H    -25.846433   28.985091   45.339419
  H    -26.157840   28.044718   47.528490
  H    -25.930303   29.619745   48.324275
  H    -24.068816   29.800225   44.000972

 Multiplicity           Mult            ....    1
 Number of Electrons    NEL             ....  102
 Basis Dimension        Dim             ....  149

ORBITAL ENERGIES
----------------

  NO   OCC          E(Eh)            E(eV)
   0   2.0000     -19.154997      -521.2340
   1   2.0000     -19.138235      -520.7778
   2   2.0000     -19.133633      -520.6526
   3   2.0000     -19.132928      -520.6334
   4   2.0000     -10.275469      -279.6097
   5   2.0000     -10.249677      -278.9079
   6   2.0000     -10.233679      -278.4726
   7   2.0000     -10.232128      -278.4304
   8   2.0000     -10.232090      -278.4293
   9   2.0000     -10.220858      -278.1237
  10   2.0000     -10.199383      -277.5393
  11   2.0000     -10.191426      -277.3228
  12   2.0000     -10.188414      -277.2408
  13   2.0000      -1.043935       -28.4069
  14   2.0000      -1.037093       -28.2207
  15   2.0000      -1.018375       -27.7114
  16   2.0000      -0.987790       -26.8791
  17   2.0000      -0.786222       -21.3942
  18   2.0000      -0.785258       -21.3679
  19   2.0000      -0.770724       -20.9725
  20   2.0000      -0.732680       -19.9372
  21   2.0000      -0.685106       -18.6427
  22   2.0000      -0.615201       -16.7405
  23   2.0000      -0.606987       -16.5170
  24   2.0000      -0.594755       -16.1841
  25   2.0000      -0.568628       -15.4732
  26   2.0000      -0.525908       -14.3107
  27   2.0000      -0.508562       -13.8387
  28   2.0000      -0.503178       -13.6922
  29   2.0000      -0.497606       -13.5406
  30   2.0000      -0.466481       -12.6936
  31   2.0000      -0.453690       -12.3455
  32   2.0000      -0.445737       -12.1291
  33   2.0000      -0.433917       -11.8075
  34   2.0000      -0.431306       -11.7364
  35   2.0000      -0.426901       -11.6166
  36   2.0000      -0.408879       -11.1262
  37   2.0000      -0.404578       -11.0091
  38   2.0000      -0.382561       -10.4100
  39   2.0000      -0.376852       -10.2547
  40   2.0000      -0.360900        -9.8206
  41   2.0000      -0.353340        -9.6149
  42   2.0000      -0.348353        -9.4792
  43   2.0000      -0.332496        -9.0477
  44   2.0000      -0.319952        -8.7063
  45   2.0000      -0.306459        -8.3392
  46   2.0000      -0.284594        -7.7442
  47   2.0000      -0.275300        -7.4913
  48   2.0000      -0.266246        -7.2449
  49   2.0000      -0.251268        -6.8374
  50   2.0000      -0.232099        -6.3157
  51   0.0000       0.047708         1.2982
  52   0.0000       0.075636         2.0582
  53   0.0000       0.078970         2.1489
  54   0.0000       0.086916         2.3651
  55   0.0000       0.100074         2.7232

MULLIKEN ATOMIC CHARGES
-----------------------
   0 C :    0.324020
   1 C :   -0.304933
   2 C :   -0.314145
   3 C :   -0.003529
   4 O :   -0.494215
   5 H :    0.151591
   6 H :    0.157186
   7 H :    0.147196
   8 H :    0.143382
   9 H :    0.162136
  10 H :    0.158212
  11 H :    0.142014
  12 C :   -0.004810
  13 H :    0.119449
  14 H :    0.144135
  15 O :   -0.522754
  16 C :    0.075606
  17 C :    0.082185
  18 C :   -0.326679
  19 C :   -0.010417
  20 O :   -0.502611
  21 H :    0.156025
  22 H :    0.166570
  23 O :   -0.599991
  24 H :    0.160426
  25 H :    0.134375
  26 H :    0.152590
  27 H :    0.149939
  28 H :    0.357045
Sum of atomic charges:   -0.0000000

LOEWDIN ATOMIC CHARGES
----------------------
   0 C :    0.184381
   1 C :   -0.233155
   2 C :   -0.221266
   3 C :   -0.028652
   4 O :   -0.306866
   5 H :    0.100648
   6 H :    0.123676
   7 H :    0.115187
   8 H :    0.115064
   9 H :    0.111594
  10 H :    0.110902
  11 H :    0.102377
  12 C :   -0.043747
  13 H :    0.091964
  14 H :    0.108326
  15 O :   -0.325407
  16 C :    0.007116
  17 C :    0.034101
  18 C :   -0.242123
  19 C :   -0.029507
  20 O :   -0.314051
  21 H :    0.109587
  22 H :    0.118462
  23 O :   -0.408450
  24 H :    0.123704
  25 H :    0.104339
  26 H :    0.107127
  27 H :    0.106296
  28 H :    0.278371

  Mayer bond orders larger than 0.100000
B(  0-C ,  1-C ) :   0.9263 B(  0-C ,  4-O ) :   0.9259 B(  0-C ,  5-H ) :   0.9318
B(  0-C , 15-O ) :   0.8645 B(  1-C ,  2-C ) :   0.9551 B(  1-C ,  6-H ) :   0.9330
B(  1-C ,  7-H ) :   0.9297 B(  2-C ,  3-C ) :   0.9512 B(  2-C ,  8-H ) :   0.9452
B(  2-C ,  9-H ) :   0.9224 B(  3-C ,  4-O ) :   0.8418 B(  3-C , 10-H ) :   0.9326
B(  3-C , 11-H ) :   0.9396 B( 12-C , 13-H ) :   0.9015 B( 12-C , 14-H ) :   0.9359
B( 12-C , 15-O ) :   0.8700 B( 12-C , 16-C ) :   0.8826 B( 16-C , 17-C ) :   0.8637
B( 16-C , 20-O ) :   0.8790 B( 16-C , 21-H ) :   0.9092 B( 17-C , 18-C ) :   0.9246
B( 17-C , 22-H ) :   0.9330 B( 17-C , 23-O ) :   0.8962 B( 18-C , 19-C ) :   0.9397
B( 18-C , 24-H ) :   0.9408 B( 18-C , 25-H ) :   0.9404 B( 19-C , 20-O ) :   0.8472
B( 19-C , 26-H ) :   0.9302 B( 19-C , 27-H ) :   0.9375 B( 23-O , 28-H ) :   0.7978

FINAL SINGLE POINT ENERGY      -652.841246491512

DIPOLE MOMENT
-------------
                                X             Y             Z
Electronic contribution:     -0.81414      -3.07440       0.61376
Nuclear contribution   :      0.58298       4.06958      -1.45325
                        -----------------------------------------
Total Dipole Moment    :     -0.23116       0.99518      -0.83949
                        -----------------------------------------
Magnitude (a.u.)       :      1.32234
Magnitude (Debye)      :      3.36111

Rotational constants in cm-1:     0.048737     0.014772     0.013682
Rotational constants in MHz :  1461.109661   442.863314   410.183594

                             ****ORCA TERMINATED NORMALLY****
TOTAL RUN TIME: 0 days 0 hours 26 minutes 53 seconds 136 msec
