                         Program Version 4.2.1 -  RELEASE  -
|  1> # Test redundant internal optimization
|  2> #
|  3> ! RKS B3LYP  Opt TightSCF SmallPrint
|  4>
|  5> %basis
|  6>         Basis "6-31G"
|  7> end
|  8>
|  9> %geom
| 10> Constraints
| 11> { D 4  0  19  14  315.0   C } # D for Dihedral angle
| 12> { D 0  19  14  12  45.0   C } # D for Dihedral angle
| 13> { D 0  4  3  2   C } # D for Dihedral angle
| 14> { D 4  3  2  1   C } # D for Dihedral angle
| 15> { D 3  2  1  0   C } # D for Dihedral angle
| 16> { D 2  1  0  4   C } # D for Dihedral angle
| 17> { D 1  0  4  3   C } # D for Dihedral angle
| 18> { D 14  15  16  17   C } # D for Dihedral angle
| 19> { D 15  16  17  12   C } # D for Dihedral angle
| 20> { D 16  17  12  14   C } # D for Dihedral angle
| 21> { D 17  12  14  15   C } # D for Dihedral angle
| 22> { D 12  14  15  16   C } # D for Dihedral angle
| 23> end
| 24> end
| 25>
| 26>
| 27> #%pal
| 28> #nprocs 8
| 29> #end
| 30>
| 31> * xyz 0 1
| 32> C  -21.048   26.222   46.251
| 33> C  -20.361   27.558   45.944
| 34> C  -20.329   28.222   47.341
| 35> C  -20.110   27.022   48.296
| 36> O  -20.473   25.807   47.535
| 37> H  -20.833   25.428   45.533
| 38> H  -19.344   27.382   45.576
| 39> H  -20.898   28.157   45.201
| 40> H  -19.543   28.978   47.434
| 41> H  -21.289   28.710   47.548
| 42> H  -20.733   27.082   49.195
| 43> H  -19.064   26.913   48.597
| 44> C  -22.350   24.967   48.343
| 45> H  -22.655   23.987   48.744
| 46> C  -23.132   25.318   47.072
| 47> C  -24.479   25.802   47.655
| 48> C  -24.061   26.514   48.966
| 49> O  -22.697   26.036   49.287
| 50> H  -21.266   24.984   48.227
| 51> O  -22.472   26.381   46.366
| 52> H  -23.245   24.468   46.389
| 53> H  -25.023   26.466   46.975
| 54> H  -25.127   24.944   47.872
| 55> H  -24.728   26.281   49.803
| 56> H  -24.002   27.600   48.851
| 57> *
| 58>
| 59>                          ****END OF INPUT****
 Total Charge           Charge          ....    0
 Multiplicity           Mult            ....    1
 Number of Electrons    NEL             ....   86
FINAL SINGLE POINT ENERGY      -538.373589082218
FINAL SINGLE POINT ENERGY      -538.403185719682
FINAL SINGLE POINT ENERGY      -538.418801546937
FINAL SINGLE POINT ENERGY      -538.427504114209
FINAL SINGLE POINT ENERGY      -538.432071116573
FINAL SINGLE POINT ENERGY      -538.434152944265
FINAL SINGLE POINT ENERGY      -538.434803980282
FINAL SINGLE POINT ENERGY      -538.435030304315
FINAL SINGLE POINT ENERGY      -538.435128414184
FINAL SINGLE POINT ENERGY      -538.435179468960
FINAL SINGLE POINT ENERGY      -538.435198250180
FINAL SINGLE POINT ENERGY      -538.435201520390
                    ***********************HURRAY********************

CARTESIAN COORDINATES (ANGSTROEM)
---------------------------------
  C    -20.899192   26.200551   46.264873
  C    -20.479256   27.634108   45.939649
  C    -20.409286   28.269525   47.347072
  C    -19.897368   27.113023   48.234035
  O    -20.145329   25.867341   47.448470
  H    -20.632301   25.442542   45.520492
  H    -19.493413   27.620795   45.460181
  H    -21.192610   28.127931   45.276876
  H    -19.749692   29.142016   47.381746
  H    -21.410252   28.577359   47.660586
  H    -20.437084   27.026451   49.178506
  H    -18.819316   27.153845   48.413721
  C    -22.549988   24.734923   48.493425
  H    -23.104204   23.835361   48.803453
  C    -23.107155   25.209756   47.149062
  C    -24.409152   25.907711   47.581613
  C    -24.042016   26.541906   48.944996
  O    -22.823244   25.846569   49.415082
  H    -21.481022   24.550459   48.506692
  O    -22.340665   26.233591   46.433261
  H    -23.283217   24.364185   46.469411
  H    -24.718433   26.643367   46.835892
  H    -25.206127   25.163670   47.693849
  H    -24.834937   26.417891   49.691551
  H    -23.796742   27.604123   48.856505

 Multiplicity           Mult            ....    1
 Number of Electrons    NEL             ....   86
 Basis Dimension        Dim             ....  127

ORBITAL ENERGIES
----------------

  NO   OCC          E(Eh)            E(eV)
   0   2.0000     -19.140639      -520.8433
   1   2.0000     -19.137515      -520.7582
   2   2.0000     -19.127866      -520.4957
   3   2.0000     -10.276969      -279.6506
   4   2.0000     -10.237711      -278.5823
   5   2.0000     -10.219238      -278.0796
   6   2.0000     -10.217974      -278.0452
   7   2.0000     -10.211809      -277.8775
   8   2.0000     -10.182230      -277.0726
   9   2.0000     -10.181233      -277.0454
  10   2.0000     -10.180568      -277.0273
  11   2.0000      -1.048584       -28.5334
  12   2.0000      -1.009265       -27.4635
  13   2.0000      -0.985772       -26.8242
  14   2.0000      -0.790974       -21.5235
  15   2.0000      -0.773112       -21.0374
  16   2.0000      -0.733821       -19.9683
  17   2.0000      -0.717816       -19.5328
  18   2.0000      -0.610935       -16.6244
  19   2.0000      -0.597333       -16.2543
  20   2.0000      -0.589073       -16.0295
  21   2.0000      -0.565430       -15.3861
  22   2.0000      -0.512262       -13.9394
  23   2.0000      -0.499452       -13.5908
  24   2.0000      -0.481686       -13.1073
  25   2.0000      -0.479142       -13.0381
  26   2.0000      -0.446298       -12.1444
  27   2.0000      -0.442344       -12.0368
  28   2.0000      -0.423375       -11.5206
  29   2.0000      -0.406295       -11.0559
  30   2.0000      -0.398419       -10.8415
  31   2.0000      -0.381606       -10.3840
  32   2.0000      -0.366363        -9.9692
  33   2.0000      -0.363316        -9.8863
  34   2.0000      -0.355254        -9.6670
  35   2.0000      -0.351848        -9.5743
  36   2.0000      -0.339098        -9.2273
  37   2.0000      -0.325072        -8.8457
  38   2.0000      -0.303751        -8.2655
  39   2.0000      -0.294356        -8.0098
  40   2.0000      -0.257887        -7.0175
  41   2.0000      -0.249813        -6.7978
  42   2.0000      -0.233786        -6.3617
  43   0.0000       0.079057         2.1512
  44   0.0000       0.096098         2.6150
  45   0.0000       0.102588         2.7916
  46   0.0000       0.114513         3.1161
  47   0.0000       0.120841         3.2883

MULLIKEN ATOMIC CHARGES
-----------------------
   0 C :    0.306900
   1 C :   -0.261876
   2 C :   -0.298860
   3 C :   -0.020838
   4 O :   -0.518235
   5 H :    0.141431
   6 H :    0.142593
   7 H :    0.157712
   8 H :    0.139106
   9 H :    0.161257
  10 H :    0.178871
  11 H :    0.141209
  12 C :   -0.024291
  13 H :    0.117854
  14 C :    0.088472
  15 C :   -0.293437
  16 C :   -0.005640
  17 O :   -0.527915
  18 H :    0.202319
  19 O :   -0.543299
  20 H :    0.128238
  21 H :    0.164164
  22 H :    0.139747
  23 H :    0.136374
  24 H :    0.148144
Sum of atomic charges:   -0.0000000

LOEWDIN ATOMIC CHARGES
----------------------
   0 C :    0.180669
   1 C :   -0.214832
   2 C :   -0.214920
   3 C :   -0.033001
   4 O :   -0.323587
   5 H :    0.094424
   6 H :    0.112373
   7 H :    0.124312
   8 H :    0.113025
   9 H :    0.117665
  10 H :    0.120823
  11 H :    0.102128
  12 C :   -0.056632
  13 H :    0.089944
  14 C :    0.045717
  15 C :   -0.225169
  16 C :   -0.031712
  17 O :   -0.335492
  18 H :    0.136853
  19 O :   -0.339271
  20 H :    0.095889
  21 H :    0.128213
  22 H :    0.111036
  23 H :    0.098149
  24 H :    0.103394

  Mayer bond orders larger than 0.100000
B(  0-C ,  1-C ) :   0.9455 B(  0-C ,  4-O ) :   0.9062 B(  0-C ,  5-H ) :   0.9242
B(  0-C , 19-O ) :   0.8440 B(  1-C ,  2-C ) :   0.9572 B(  1-C ,  6-H ) :   0.9393
B(  1-C ,  7-H ) :   0.9366 B(  2-C ,  3-C ) :   0.9590 B(  2-C ,  8-H ) :   0.9449
B(  2-C ,  9-H ) :   0.9425 B(  3-C ,  4-O ) :   0.8159 B(  3-C , 10-H ) :   0.9207
B(  3-C , 11-H ) :   0.9397 B( 12-C , 13-H ) :   0.9100 B( 12-C , 14-C ) :   0.9208
B( 12-C , 17-O ) :   0.8520 B( 12-C , 18-H ) :   0.9041 B( 14-C , 15-C ) :   0.9544
B( 14-C , 19-O ) :   0.8333 B( 14-C , 20-H ) :   0.9232 B( 15-C , 16-C ) :   0.9486
B( 15-C , 21-H ) :   0.9358 B( 15-C , 22-H ) :   0.9417 B( 16-C , 17-O ) :   0.8564
B( 16-C , 23-H ) :   0.9333 B( 16-C , 24-H ) :   0.9353

FINAL SINGLE POINT ENERGY      -538.435201747198

DIPOLE MOMENT
-------------
                                X             Y             Z
Electronic contribution:      0.98278      -2.74257      -0.14522
Nuclear contribution   :     -1.25327       3.00728      -0.36473
                        -----------------------------------------
Total Dipole Moment    :     -0.27049       0.26471      -0.50995
                        -----------------------------------------
Magnitude (a.u.)       :      0.63505
Magnitude (Debye)      :      1.61417

Rotational constants in cm-1:     0.064118     0.028163     0.026268
Rotational constants in MHz :  1922.212134   844.306428   787.497868

                             ****ORCA TERMINATED NORMALLY****
TOTAL RUN TIME: 0 days 0 hours 15 minutes 53 seconds 957 msec
