                         Program Version 4.2.0 -  RELEASE  -
|  1> # Test redundant internal optimization
|  2> #
|  3> ! RKS B3LYP  Opt TightSCF SmallPrint
|  4>
|  5> %basis
|  6>         Basis "6-31G"
|  7> end
|  8>
|  9> %geom
| 10> Constraints
| 11> { D 4  0  15  12  210.0   C } # D for Dihedral angle
| 12> { D 0  15  12  16  345.0   C } # D for Dihedral angle
| 13> { D 0  4  3  2   C } # D for Dihedral angle
| 14> { D 4  3  2  1   C } # D for Dihedral angle
| 15> { D 3  2  1  0   C } # D for Dihedral angle
| 16> { D 2  1  0  4   C } # D for Dihedral angle
| 17> { D 1  0  4  3   C } # D for Dihedral angle
| 18> { D 16  20  19  18   C } # D for Dihedral angle
| 19> { D 20  19  18  17   C } # D for Dihedral angle
| 20> { D 19  18  17  16   C } # D for Dihedral angle
| 21> { D 18  17  16  20   C } # D for Dihedral angle
| 22> { D 17  16  20  19   C } # D for Dihedral angle
| 23> { D 15  12  16  20   C } # D for Dihedral angle
| 24> end
| 25> end
| 26>
| 27>
| 28> #%pal
| 29> #nprocs 8
| 30> #end
| 31>
| 32> * xyz 0 1
| 33> C  -21.048   26.222   46.251
| 34> C  -20.361   27.558   45.944
| 35> C  -20.329   28.222   47.341
| 36> C  -20.110   27.022   48.296
| 37> O  -20.473   25.807   47.535
| 38> H  -20.833   25.428   45.533
| 39> H  -19.344   27.382   45.576
| 40> H  -20.898   28.157   45.201
| 41> H  -19.543   28.978   47.434
| 42> H  -21.289   28.710   47.548
| 43> H  -20.733   27.082   49.195
| 44> H  -19.064   26.913   48.597
| 45> C  -23.389   26.110   45.076
| 46> H  -23.898   25.143   45.169
| 47> H  -24.151   26.885   44.919
| 48> O  -22.586   26.394   46.375
| 49> C  -22.489   26.069   43.810
| 50> C  -23.326   25.903   42.537
| 51> C  -23.842   27.344   42.311
| 52> C  -22.658   28.221   42.788
| 53> O  -21.803   27.353   43.627
| 54> H  -21.716   25.309   43.946
| 55> H  -22.687   25.586   41.705
| 56> O  -24.475   24.869   42.693
| 57> H  -24.113   27.539   41.268
| 58> H  -24.731   27.526   42.927
| 59> H  -22.986   29.082   43.382
| 60> H  -22.040   28.576   41.959
| 61> H  -25.129   25.166   43.520
| 62> *
| 63>
| 64>                          ****END OF INPUT****
 Total Charge           Charge          ....    0
 Multiplicity           Mult            ....    1
 Number of Electrons    NEL             ....  102
FINAL SINGLE POINT ENERGY      -652.815272795254
FINAL SINGLE POINT ENERGY      -652.838035764701
FINAL SINGLE POINT ENERGY      -652.848151272894
FINAL SINGLE POINT ENERGY      -652.850025480411
FINAL SINGLE POINT ENERGY      -652.850437997191
FINAL SINGLE POINT ENERGY      -652.850504962767
FINAL SINGLE POINT ENERGY      -652.850512511893
FINAL SINGLE POINT ENERGY      -652.850513813542
                    ***********************HURRAY********************

CARTESIAN COORDINATES (ANGSTROEM)
---------------------------------
  C    -20.871359   26.223230   46.238712
  C    -20.191819   27.578629   46.053850
  C    -20.371735   28.220408   47.450366
  C    -20.250979   27.010925   48.401855
  O    -20.473950   25.810424   47.557850
  H    -20.554959   25.439060   45.547912
  H    -19.128036   27.416884   45.837549
  H    -20.631767   28.148889   45.237236
  H    -19.624780   28.992316   47.658968
  H    -21.366630   28.669780   47.524546
  H    -20.993374   27.015569   49.204502
  H    -19.250541   26.908234   48.834071
  C    -23.156391   26.134372   45.082424
  H    -23.681908   25.178787   45.222534
  H    -23.901550   26.940252   45.107645
  O    -22.324534   26.358628   46.257341
  C    -22.492489   26.082930   43.703041
  C    -23.506025   25.894400   42.558333
  C    -23.993280   27.358424   42.316849
  C    -22.718121   28.188291   42.582236
  O    -21.790771   27.316124   43.353197
  H    -21.736644   25.292672   43.681746
  H    -22.979644   25.522926   41.676403
  O    -24.551526   24.925781   42.789881
  H    -24.388855   27.497693   41.307685
  H    -24.789370   27.603509   43.031609
  H    -22.911209   29.096950   43.160078
  H    -22.200922   28.460336   41.658108
  H    -25.210834   25.269578   43.426473

 Multiplicity           Mult            ....    1
 Number of Electrons    NEL             ....  102
 Basis Dimension        Dim             ....  149

ORBITAL ENERGIES
----------------

  NO   OCC          E(Eh)            E(eV)
   0   2.0000     -19.157126      -521.2919
   1   2.0000     -19.151892      -521.1495
   2   2.0000     -19.129419      -520.5380
   3   2.0000     -19.128100      -520.5021
   4   2.0000     -10.269119      -279.4369
   5   2.0000     -10.255005      -279.0529
   6   2.0000     -10.242477      -278.7120
   7   2.0000     -10.241050      -278.6731
   8   2.0000     -10.233364      -278.4640
   9   2.0000     -10.213979      -277.9365
  10   2.0000     -10.204107      -277.6679
  11   2.0000     -10.173383      -276.8318
  12   2.0000     -10.165674      -276.6220
  13   2.0000      -1.045835       -28.4586
  14   2.0000      -1.038021       -28.2460
  15   2.0000      -1.026131       -27.9224
  16   2.0000      -0.980749       -26.6875
  17   2.0000      -0.792341       -21.5607
  18   2.0000      -0.775137       -21.0926
  19   2.0000      -0.768655       -20.9162
  20   2.0000      -0.728588       -19.8259
  21   2.0000      -0.681975       -18.5575
  22   2.0000      -0.621355       -16.9079
  23   2.0000      -0.605401       -16.4738
  24   2.0000      -0.586318       -15.9545
  25   2.0000      -0.559855       -15.2344
  26   2.0000      -0.537125       -14.6159
  27   2.0000      -0.516915       -14.0660
  28   2.0000      -0.492597       -13.4042
  29   2.0000      -0.480696       -13.0804
  30   2.0000      -0.469221       -12.7682
  31   2.0000      -0.453859       -12.3501
  32   2.0000      -0.444221       -12.0879
  33   2.0000      -0.436746       -11.8845
  34   2.0000      -0.434409       -11.8209
  35   2.0000      -0.421896       -11.4804
  36   2.0000      -0.409342       -11.1388
  37   2.0000      -0.391915       -10.6645
  38   2.0000      -0.388104       -10.5608
  39   2.0000      -0.366541        -9.9741
  40   2.0000      -0.357475        -9.7274
  41   2.0000      -0.351693        -9.5701
  42   2.0000      -0.341057        -9.2806
  43   2.0000      -0.334369        -9.0987
  44   2.0000      -0.323020        -8.7898
  45   2.0000      -0.303891        -8.2693
  46   2.0000      -0.297291        -8.0897
  47   2.0000      -0.280971        -7.6456
  48   2.0000      -0.255983        -6.9657
  49   2.0000      -0.247449        -6.7334
  50   2.0000      -0.234616        -6.3842
  51   0.0000       0.045941         1.2501
  52   0.0000       0.068424         1.8619
  53   0.0000       0.080852         2.2001
  54   0.0000       0.096184         2.6173
  55   0.0000       0.099450         2.7062

MULLIKEN ATOMIC CHARGES
-----------------------
   0 C :    0.298227
   1 C :   -0.260913
   2 C :   -0.301640
   3 C :    0.000063
   4 O :   -0.506821
   5 H :    0.139605
   6 H :    0.133810
   7 H :    0.175572
   8 H :    0.135030
   9 H :    0.154210
  10 H :    0.148699
  11 H :    0.136607
  12 C :    0.011302
  13 H :    0.140204
  14 H :    0.132308
  15 O :   -0.531522
  16 C :    0.056546
  17 C :    0.085577
  18 C :   -0.321180
  19 C :   -0.013786
  20 O :   -0.516279
  21 H :    0.164248
  22 H :    0.171050
  23 O :   -0.595327
  24 H :    0.160069
  25 H :    0.139119
  26 H :    0.149795
  27 H :    0.155382
  28 H :    0.360045
Sum of atomic charges:   -0.0000000

LOEWDIN ATOMIC CHARGES
----------------------
   0 C :    0.185785
   1 C :   -0.229295
   2 C :   -0.218985
   3 C :   -0.026439
   4 O :   -0.309018
   5 H :    0.096296
   6 H :    0.109283
   7 H :    0.129878
   8 H :    0.110876
   9 H :    0.114968
  10 H :    0.105898
  11 H :    0.099471
  12 C :   -0.045215
  13 H :    0.104082
  14 H :    0.099289
  15 O :   -0.337568
  16 C :    0.002827
  17 C :    0.038891
  18 C :   -0.240106
  19 C :   -0.029417
  20 O :   -0.321579
  21 H :    0.114759
  22 H :    0.120674
  23 O :   -0.401913
  24 H :    0.124521
  25 H :    0.106575
  26 H :    0.105731
  27 H :    0.108952
  28 H :    0.280779

  Mayer bond orders larger than 0.100000
B(  0-C ,  1-C ) :   0.9374 B(  0-C ,  4-O ) :   0.9260 B(  0-C ,  5-H ) :   0.9200
B(  0-C , 15-O ) :   0.8207 B(  1-C ,  2-C ) :   0.9502 B(  1-C ,  6-H ) :   0.9361
B(  1-C ,  7-H ) :   0.9182 B(  2-C ,  3-C ) :   0.9540 B(  2-C ,  8-H ) :   0.9457
B(  2-C ,  9-H ) :   0.9453 B(  3-C ,  4-O ) :   0.8387 B(  3-C , 10-H ) :   0.9356
B(  3-C , 11-H ) :   0.9402 B( 12-C , 13-H ) :   0.9034 B( 12-C , 14-H ) :   0.9304
B( 12-C , 15-O ) :   0.8618 B( 12-C , 16-C ) :   0.9011 B( 16-C , 17-C ) :   0.8669
B( 16-C , 20-O ) :   0.8454 B( 16-C , 21-H ) :   0.9249 B( 17-C , 18-C ) :   0.9210
B( 17-C , 22-H ) :   0.9325 B( 17-C , 23-O ) :   0.9068 B( 18-C , 19-C ) :   0.9392
B( 18-C , 24-H ) :   0.9420 B( 18-C , 25-H ) :   0.9403 B( 19-C , 20-O ) :   0.8373
B( 19-C , 26-H ) :   0.9317 B( 19-C , 27-H ) :   0.9375 B( 23-O , 28-H ) :   0.7955

FINAL SINGLE POINT ENERGY      -652.850513912910

DIPOLE MOMENT
-------------
                                X             Y             Z
Electronic contribution:     -0.43058      -4.86083       0.10370
Nuclear contribution   :     -0.14468       6.08716      -0.97287
                        -----------------------------------------
Total Dipole Moment    :     -0.57527       1.22633      -0.86918
                        -----------------------------------------
Magnitude (a.u.)       :      1.60943
Magnitude (Debye)      :      4.09085

Rotational constants in cm-1:     0.058783     0.013703     0.012109
Rotational constants in MHz :  1762.261791   410.793123   363.024927

                             ****ORCA TERMINATED NORMALLY****
TOTAL RUN TIME: 0 days 0 hours 25 minutes 55 seconds 763 msec
