                         Program Version 4.2.0 -  RELEASE  -
|  1> # Test redundant internal optimization
|  2> #
|  3> ! RKS B3LYP  Opt TightSCF SmallPrint
|  4>
|  5> %basis
|  6>         Basis "6-31G"
|  7> end
|  8>
|  9> %geom
| 10> Constraints
| 11> { D 4  0  15  12  45.0   C } # D for Dihedral angle
| 12> { D 0  15  12  16  120.0   C } # D for Dihedral angle
| 13> { D 0  4  3  2   C } # D for Dihedral angle
| 14> { D 4  3  2  1   C } # D for Dihedral angle
| 15> { D 3  2  1  0   C } # D for Dihedral angle
| 16> { D 2  1  0  4   C } # D for Dihedral angle
| 17> { D 1  0  4  3   C } # D for Dihedral angle
| 18> { D 16  20  19  18   C } # D for Dihedral angle
| 19> { D 20  19  18  17   C } # D for Dihedral angle
| 20> { D 19  18  17  16   C } # D for Dihedral angle
| 21> { D 18  17  16  20   C } # D for Dihedral angle
| 22> { D 17  16  20  19   C } # D for Dihedral angle
| 23> { D 15  12  16  20   C } # D for Dihedral angle
| 24> end
| 25> end
| 26>
| 27>
| 28> #%pal
| 29> #nprocs 8
| 30> #end
| 31>
| 32> * xyz 0 1
| 33> C  -21.048   26.222   46.251
| 34> C  -20.361   27.558   45.944
| 35> C  -20.329   28.222   47.341
| 36> C  -20.110   27.022   48.296
| 37> O  -20.473   25.807   47.535
| 38> H  -20.833   25.428   45.533
| 39> H  -19.344   27.382   45.576
| 40> H  -20.898   28.157   45.201
| 41> H  -19.543   28.978   47.434
| 42> H  -21.289   28.710   47.548
| 43> H  -20.733   27.082   49.195
| 44> H  -19.064   26.913   48.597
| 45> C  -23.065   27.161   47.638
| 46> H  -23.711   26.507   48.236
| 47> H  -22.208   27.455   48.257
| 48> O  -22.586   26.394   46.375
| 49> C  -23.861   28.450   47.291
| 50> C  -25.171   28.117   46.568
| 51> C  -26.079   27.688   47.746
| 52> C  -25.618   28.613   48.900
| 53> O  -24.289   29.133   48.517
| 54> H  -23.209   29.139   46.751
| 55> H  -25.570   29.014   46.080
| 56> O  -25.011   27.006   45.495
| 57> H  -27.145   27.798   47.522
| 58> H  -25.896   26.636   47.997
| 59> H  -25.534   28.083   49.854
| 60> H  -26.277   29.476   49.032
| 61> H  -24.613   26.098   45.961
| 62> *
| 63>
| 64>                          ****END OF INPUT****
 Total Charge           Charge          ....    0
 Multiplicity           Mult            ....    1
 Number of Electrons    NEL             ....  102
FINAL SINGLE POINT ENERGY      -652.815117132430
FINAL SINGLE POINT ENERGY      -652.842819283473
FINAL SINGLE POINT ENERGY      -652.855458418860
FINAL SINGLE POINT ENERGY      -652.858747061153
FINAL SINGLE POINT ENERGY      -652.860309044428
FINAL SINGLE POINT ENERGY      -652.861223229305
FINAL SINGLE POINT ENERGY      -652.861593080196
FINAL SINGLE POINT ENERGY      -652.861688838397
FINAL SINGLE POINT ENERGY      -652.861707176731
                    ***********************HURRAY********************

CARTESIAN COORDINATES (ANGSTROEM)
---------------------------------
  C    -21.187682   26.296522   46.428220
  C    -20.419103   27.527413   45.934389
  C    -20.039935   28.228906   47.268956
  C    -19.787026   27.035713   48.221069
  O    -20.442657   25.860915   47.580458
  H    -21.179103   25.468515   45.718045
  H    -19.522208   27.188704   45.404629
  H    -21.011257   28.153505   45.262733
  H    -19.153546   28.862416   47.167934
  H    -20.858528   28.863874   47.621315
  H    -20.206289   27.173378   49.221742
  H    -18.725407   26.788566   48.310135
  C    -23.139495   27.174072   47.844731
  H    -23.767720   26.452211   48.376841
  H    -22.346945   27.488611   48.524112
  O    -22.610631   26.480874   46.662436
  C    -23.956628   28.388882   47.391776
  C    -25.204160   28.050891   46.557908
  C    -26.216344   27.629156   47.662955
  C    -25.858384   28.556676   48.841627
  O    -24.484064   29.078777   48.567526
  H    -23.301939   29.099515   46.876654
  H    -25.560971   28.967201   46.074379
  O    -25.024786   27.067699   45.522100
  H    -27.250669   27.746436   47.328650
  H    -26.060745   26.572575   47.906174
  H    -25.850834   28.046574   49.809597
  H    -26.513460   29.430151   48.907681
  H    -24.187484   26.570271   45.676227

 Multiplicity           Mult            ....    1
 Number of Electrons    NEL             ....  102
 Basis Dimension        Dim             ....  149

ORBITAL ENERGIES
----------------

  NO   OCC          E(Eh)            E(eV)
   0   2.0000     -19.162077      -521.4266
   1   2.0000     -19.156912      -521.2861
   2   2.0000     -19.142182      -520.8853
   3   2.0000     -19.113829      -520.1137
   4   2.0000     -10.292512      -280.0735
   5   2.0000     -10.240304      -278.6528
   6   2.0000     -10.238987      -278.6170
   7   2.0000     -10.235566      -278.5239
   8   2.0000     -10.231153      -278.4038
   9   2.0000     -10.227694      -278.3097
  10   2.0000     -10.201236      -277.5898
  11   2.0000     -10.197890      -277.4987
  12   2.0000     -10.179455      -276.9971
  13   2.0000      -1.065653       -28.9979
  14   2.0000      -1.026952       -27.9448
  15   2.0000      -1.008715       -27.4485
  16   2.0000      -0.992942       -27.0193
  17   2.0000      -0.798290       -21.7226
  18   2.0000      -0.779710       -21.2170
  19   2.0000      -0.769450       -20.9378
  20   2.0000      -0.739538       -20.1238
  21   2.0000      -0.683124       -18.5888
  22   2.0000      -0.613683       -16.6992
  23   2.0000      -0.603022       -16.4091
  24   2.0000      -0.597137       -16.2489
  25   2.0000      -0.578905       -15.7528
  26   2.0000      -0.538573       -14.6553
  27   2.0000      -0.511101       -13.9078
  28   2.0000      -0.509146       -13.8546
  29   2.0000      -0.490344       -13.3429
  30   2.0000      -0.475621       -12.9423
  31   2.0000      -0.459916       -12.5150
  32   2.0000      -0.446937       -12.1618
  33   2.0000      -0.432228       -11.7615
  34   2.0000      -0.426597       -11.6083
  35   2.0000      -0.425717       -11.5843
  36   2.0000      -0.411696       -11.2028
  37   2.0000      -0.389701       -10.6043
  38   2.0000      -0.389518       -10.5993
  39   2.0000      -0.370441       -10.0802
  40   2.0000      -0.367966       -10.0129
  41   2.0000      -0.357921        -9.7395
  42   2.0000      -0.354337        -9.6420
  43   2.0000      -0.343647        -9.3511
  44   2.0000      -0.328447        -8.9375
  45   2.0000      -0.322777        -8.7832
  46   2.0000      -0.288040        -7.8380
  47   2.0000      -0.277677        -7.5560
  48   2.0000      -0.271472        -7.3871
  49   2.0000      -0.248500        -6.7620
  50   2.0000      -0.240680        -6.5492
  51   0.0000       0.056448         1.5360
  52   0.0000       0.066570         1.8115
  53   0.0000       0.088927         2.4198
  54   0.0000       0.093950         2.5565
  55   0.0000       0.102585         2.7915

MULLIKEN ATOMIC CHARGES
-----------------------
   0 C :    0.308734
   1 C :   -0.268488
   2 C :   -0.324835
   3 C :   -0.023316
   4 O :   -0.501928
   5 H :    0.171219
   6 H :    0.156945
   7 H :    0.157269
   8 H :    0.153554
   9 H :    0.162632
  10 H :    0.153780
  11 H :    0.155476
  12 C :   -0.033316
  13 H :    0.159595
  14 H :    0.162769
  15 O :   -0.563542
  16 C :    0.053436
  17 C :    0.124125
  18 C :   -0.304647
  19 C :   -0.020814
  20 O :   -0.523269
  21 H :    0.150348
  22 H :    0.145828
  23 O :   -0.641221
  24 H :    0.152081
  25 H :    0.149854
  26 H :    0.142130
  27 H :    0.150528
  28 H :    0.395073
Sum of atomic charges:   -0.0000000

LOEWDIN ATOMIC CHARGES
----------------------
   0 C :    0.182139
   1 C :   -0.227150
   2 C :   -0.224892
   3 C :   -0.035407
   4 O :   -0.313338
   5 H :    0.115895
   6 H :    0.121846
   7 H :    0.122642
   8 H :    0.120482
   9 H :    0.114864
  10 H :    0.105397
  11 H :    0.109122
  12 C :   -0.045612
  13 H :    0.111388
  14 H :    0.115146
  15 O :   -0.338386
  16 C :    0.010100
  17 C :    0.042653
  18 C :   -0.237549
  19 C :   -0.032167
  20 O :   -0.327241
  21 H :    0.107513
  22 H :    0.104917
  23 O :   -0.433757
  24 H :    0.121612
  25 H :    0.113029
  26 H :    0.102140
  27 H :    0.106547
  28 H :    0.288067

  Mayer bond orders larger than 0.100000
B(  0-C ,  1-C ) :   0.9211 B(  0-C ,  4-O ) :   0.9272 B(  0-C ,  5-H ) :   0.9345
B(  0-C , 15-O ) :   0.8333 B(  1-C ,  2-C ) :   0.9526 B(  1-C ,  6-H ) :   0.9331
B(  1-C ,  7-H ) :   0.9351 B(  2-C ,  3-C ) :   0.9473 B(  2-C ,  8-H ) :   0.9440
B(  2-C ,  9-H ) :   0.9379 B(  3-C ,  4-O ) :   0.8323 B(  3-C , 10-H ) :   0.9293
B(  3-C , 11-H ) :   0.9378 B( 12-C , 13-H ) :   0.9323 B( 12-C , 14-H ) :   0.9165
B( 12-C , 15-O ) :   0.7801 B( 12-C , 16-C ) :   0.8902 B( 16-C , 17-C ) :   0.9107
B( 16-C , 20-O ) :   0.8545 B( 16-C , 21-H ) :   0.9276 B( 17-C , 18-C ) :   0.9002
B( 17-C , 22-H ) :   0.9317 B( 17-C , 23-O ) :   0.9346 B( 18-C , 19-C ) :   0.9388
B( 18-C , 24-H ) :   0.9445 B( 18-C , 25-H ) :   0.9425 B( 19-C , 20-O ) :   0.8309
B( 19-C , 26-H ) :   0.9346 B( 19-C , 27-H ) :   0.9381 B( 23-O , 28-H ) :   0.7240

FINAL SINGLE POINT ENERGY      -652.861709372085

DIPOLE MOMENT
-------------
                                X             Y             Z
Electronic contribution:     -0.86167      -2.51351      -1.42830
Nuclear contribution   :      1.71236       3.04219       1.85324
                        -----------------------------------------
Total Dipole Moment    :      0.85068       0.52869       0.42494
                        -----------------------------------------
Magnitude (a.u.)       :      1.08800
Magnitude (Debye)      :      2.76549

Rotational constants in cm-1:     0.051546     0.015072     0.013525
Rotational constants in MHz :  1545.311910   451.836842   405.464986

                             ****ORCA TERMINATED NORMALLY****
TOTAL RUN TIME: 0 days 0 hours 31 minutes 39 seconds 538 msec
