                         Program Version 4.2.1 -  RELEASE  -
|  1> # Test redundant internal optimization
|  2> #
|  3> ! RKS B3LYP  Opt TightSCF SmallPrint
|  4>
|  5> %basis
|  6>         Basis "6-31G"
|  7> end
|  8>
|  9> %geom
| 10> Constraints
| 11> { D 4  0  19  14  225.0   C } # D for Dihedral angle
| 12> { D 0  19  14  12  45.0   C } # D for Dihedral angle
| 13> { D 0  4  3  2   C } # D for Dihedral angle
| 14> { D 4  3  2  1   C } # D for Dihedral angle
| 15> { D 3  2  1  0   C } # D for Dihedral angle
| 16> { D 2  1  0  4   C } # D for Dihedral angle
| 17> { D 1  0  4  3   C } # D for Dihedral angle
| 18> { D 14  15  16  17   C } # D for Dihedral angle
| 19> { D 15  16  17  12   C } # D for Dihedral angle
| 20> { D 16  17  12  14   C } # D for Dihedral angle
| 21> { D 17  12  14  15   C } # D for Dihedral angle
| 22> { D 12  14  15  16   C } # D for Dihedral angle
| 23> end
| 24> end
| 25>
| 26>
| 27> #%pal
| 28> #nprocs 8
| 29> #end
| 30>
| 31> * xyz 0 1
| 32> C  -21.048   26.222   46.251
| 33> C  -20.361   27.558   45.944
| 34> C  -20.329   28.222   47.341
| 35> C  -20.110   27.022   48.296
| 36> O  -20.473   25.807   47.535
| 37> H  -20.833   25.428   45.533
| 38> H  -19.344   27.382   45.576
| 39> H  -20.898   28.157   45.201
| 40> H  -19.543   28.978   47.434
| 41> H  -21.289   28.710   47.548
| 42> H  -20.733   27.082   49.195
| 43> H  -19.064   26.913   48.597
| 44> C  -22.686   24.399   44.969
| 45> H  -23.033   24.052   43.983
| 46> C  -23.222   25.800   45.287
| 47> C  -24.669   25.489   45.733
| 48> C  -24.529   24.131   46.465
| 49> O  -23.237   23.552   46.032
| 50> H  -21.600   24.308   45.019
| 51> O  -22.472   26.381   46.366
| 52> H  -23.178   26.481   44.430
| 53> H  -25.093   26.268   46.375
| 54> H  -25.321   25.388   44.856
| 55> H  -25.336   23.434   46.217
| 56> H  -24.481   24.246   47.553
| 57> *
| 58>
| 59>                          ****END OF INPUT****
 Total Charge           Charge          ....    0
 Multiplicity           Mult            ....    1
 Number of Electrons    NEL             ....   86
FINAL SINGLE POINT ENERGY      -538.414863996833
FINAL SINGLE POINT ENERGY      -538.426664924148
FINAL SINGLE POINT ENERGY      -538.428058557164
FINAL SINGLE POINT ENERGY      -538.428344498004
FINAL SINGLE POINT ENERGY      -538.428381141996
FINAL SINGLE POINT ENERGY      -538.428390626031
FINAL SINGLE POINT ENERGY      -538.428391671344
                    ***********************HURRAY********************

CARTESIAN COORDINATES (ANGSTROEM)
---------------------------------
  C    -20.902734   26.193112   46.237915
  C    -20.274789   27.562016   45.977114
  C    -20.424545   28.250887   47.355560
  C    -20.229370   27.082694   48.346358
  O    -20.443347   25.843138   47.557280
  H    -20.577794   25.398252   45.566148
  H    -19.216710   27.437006   45.717028
  H    -20.773772   28.103898   45.169404
  H    -19.698207   29.054834   47.507078
  H    -21.431322   28.668889   47.447592
  H    -20.942254   27.097849   49.174895
  H    -19.211724   27.028737   48.745080
  C    -22.828827   24.297290   44.794094
  H    -23.356055   24.053311   43.858726
  C    -23.180395   25.726859   45.204193
  C    -24.569176   25.535578   45.838273
  C    -24.465230   24.152264   46.522845
  O    -23.304247   23.472151   45.904655
  H    -21.768820   24.078343   44.661227
  O    -22.347551   26.315029   46.253277
  H    -23.202285   26.404129   44.338978
  H    -24.781923   26.345660   46.539139
  H    -25.337125   25.536242   45.055743
  H    -25.360792   23.539414   46.371561
  H    -24.253007   24.232417   47.591835

 Multiplicity           Mult            ....    1
 Number of Electrons    NEL             ....   86
 Basis Dimension        Dim             ....  127

ORBITAL ENERGIES
----------------

  NO   OCC          E(Eh)            E(eV)
   0   2.0000     -19.137737      -520.7643
   1   2.0000     -19.133797      -520.6571
   2   2.0000     -19.128304      -520.5076
   3   2.0000     -10.276060      -279.6258
   4   2.0000     -10.243077      -278.7283
   5   2.0000     -10.226716      -278.2831
   6   2.0000     -10.220425      -278.1119
   7   2.0000     -10.218164      -278.0504
   8   2.0000     -10.184372      -277.1308
   9   2.0000     -10.182906      -277.0910
  10   2.0000     -10.182548      -277.0812
  11   2.0000      -1.048413       -28.5288
  12   2.0000      -1.013387       -27.5757
  13   2.0000      -0.985995       -26.8303
  14   2.0000      -0.789382       -21.4802
  15   2.0000      -0.776191       -21.1212
  16   2.0000      -0.736994       -20.0546
  17   2.0000      -0.723339       -19.6830
  18   2.0000      -0.617538       -16.8041
  19   2.0000      -0.596495       -16.2315
  20   2.0000      -0.592172       -16.1138
  21   2.0000      -0.566432       -15.4134
  22   2.0000      -0.527183       -14.3454
  23   2.0000      -0.497938       -13.5496
  24   2.0000      -0.487168       -13.2565
  25   2.0000      -0.475930       -12.9507
  26   2.0000      -0.449478       -12.2309
  27   2.0000      -0.445871       -12.1328
  28   2.0000      -0.429491       -11.6870
  29   2.0000      -0.415642       -11.3102
  30   2.0000      -0.399689       -10.8761
  31   2.0000      -0.375519       -10.2184
  32   2.0000      -0.371347       -10.1049
  33   2.0000      -0.364195        -9.9102
  34   2.0000      -0.361516        -9.8374
  35   2.0000      -0.353336        -9.6148
  36   2.0000      -0.346227        -9.4213
  37   2.0000      -0.313763        -8.5379
  38   2.0000      -0.306439        -8.3386
  39   2.0000      -0.295102        -8.0301
  40   2.0000      -0.259432        -7.0595
  41   2.0000      -0.243965        -6.6386
  42   2.0000      -0.235374        -6.4049
  43   0.0000       0.079045         2.1509
  44   0.0000       0.099321         2.7027
  45   0.0000       0.103384         2.8132
  46   0.0000       0.107939         2.9372
  47   0.0000       0.117933         3.2091

MULLIKEN ATOMIC CHARGES
-----------------------
   0 C :    0.291558
   1 C :   -0.254765
   2 C :   -0.298101
   3 C :   -0.001038
   4 O :   -0.496600
   5 H :    0.138511
   6 H :    0.141674
   7 H :    0.140208
   8 H :    0.139265
   9 H :    0.160083
  10 H :    0.150756
  11 H :    0.139844
  12 C :   -0.017529
  13 H :    0.126066
  14 C :    0.083622
  15 C :   -0.290331
  16 C :   -0.003351
  17 O :   -0.515440
  18 H :    0.158183
  19 O :   -0.524010
  20 H :    0.126921
  21 H :    0.166382
  22 H :    0.138484
  23 H :    0.135028
  24 H :    0.164583
Sum of atomic charges:   -0.0000000

LOEWDIN ATOMIC CHARGES
----------------------
   0 C :    0.177838
   1 C :   -0.223915
   2 C :   -0.216749
   3 C :   -0.026777
   4 O :   -0.308975
   5 H :    0.098052
   6 H :    0.111503
   7 H :    0.114526
   8 H :    0.112899
   9 H :    0.118087
  10 H :    0.107264
  11 H :    0.101279
  12 C :   -0.049458
  13 H :    0.094377
  14 C :    0.041619
  15 C :   -0.223237
  16 C :   -0.028643
  17 O :   -0.327146
  18 H :    0.113457
  19 O :   -0.331078
  20 H :    0.093155
  21 H :    0.130020
  22 H :    0.110146
  23 H :    0.098149
  24 H :    0.113607

  Mayer bond orders larger than 0.100000
B(  0-C ,  1-C ) :   0.9358 B(  0-C ,  4-O ) :   0.9351 B(  0-C ,  5-H ) :   0.9137
B(  0-C , 19-O ) :   0.8360 B(  1-C ,  2-C ) :   0.9567 B(  1-C ,  6-H ) :   0.9361
B(  1-C ,  7-H ) :   0.9396 B(  2-C ,  3-C ) :   0.9537 B(  2-C ,  8-H ) :   0.9455
B(  2-C ,  9-H ) :   0.9441 B(  3-C ,  4-O ) :   0.8406 B(  3-C , 10-H ) :   0.9347
B(  3-C , 11-H ) :   0.9397 B( 12-C , 13-H ) :   0.9075 B( 12-C , 14-C ) :   0.9145
B( 12-C , 17-O ) :   0.8770 B( 12-C , 18-H ) :   0.9239 B( 14-C , 15-C ) :   0.9543
B( 14-C , 19-O ) :   0.8427 B( 14-C , 20-H ) :   0.9209 B( 15-C , 16-C ) :   0.9479
B( 15-C , 21-H ) :   0.9351 B( 15-C , 22-H ) :   0.9414 B( 16-C , 17-O ) :   0.8519
B( 16-C , 23-H ) :   0.9332 B( 16-C , 24-H ) :   0.9342

FINAL SINGLE POINT ENERGY      -538.428391942559

DIPOLE MOMENT
-------------
                                X             Y             Z
Electronic contribution:      0.46285      -3.65831       0.58443
Nuclear contribution   :     -0.63207       4.86680      -1.33990
                        -----------------------------------------
Total Dipole Moment    :     -0.16922       1.20849      -0.75547
                        -----------------------------------------
Magnitude (a.u.)       :      1.43520
Magnitude (Debye)      :      3.64799

Rotational constants in cm-1:     0.079442     0.020836     0.020301
Rotational constants in MHz :  2381.610957   624.634507   608.617518

                             ****ORCA TERMINATED NORMALLY****
TOTAL RUN TIME: 0 days 0 hours 17 minutes 18 seconds 675 msec
