                         Program Version 4.2.0 -  RELEASE  -
|  1> # Test redundant internal optimization
|  2> #
|  3> ! RKS B3LYP  Opt TightSCF SmallPrint
|  4>
|  5> %basis
|  6>         Basis "6-31G"
|  7> end
|  8>
|  9> %geom
| 10> Constraints
| 11> { D 4  0  15  12  150.0   C } # D for Dihedral angle
| 12> { D 0  15  12  16  150.0   C } # D for Dihedral angle
| 13> { D 0  4  3  2   C } # D for Dihedral angle
| 14> { D 4  3  2  1   C } # D for Dihedral angle
| 15> { D 3  2  1  0   C } # D for Dihedral angle
| 16> { D 2  1  0  4   C } # D for Dihedral angle
| 17> { D 1  0  4  3   C } # D for Dihedral angle
| 18> { D 16  20  19  18   C } # D for Dihedral angle
| 19> { D 20  19  18  17   C } # D for Dihedral angle
| 20> { D 19  18  17  16   C } # D for Dihedral angle
| 21> { D 18  17  16  20   C } # D for Dihedral angle
| 22> { D 17  16  20  19   C } # D for Dihedral angle
| 23> { D 15  12  16  20   C } # D for Dihedral angle
| 24> end
| 25> end
| 26>
| 27>
| 28> #%pal
| 29> #nprocs 8
| 30> #end
| 31>
| 32> * xyz 0 1
| 33> C  -21.048   26.222   46.251
| 34> C  -20.361   27.558   45.944
| 35> C  -20.329   28.222   47.341
| 36> C  -20.110   27.022   48.296
| 37> O  -20.473   25.807   47.535
| 38> H  -20.833   25.428   45.533
| 39> H  -19.344   27.382   45.576
| 40> H  -20.898   28.157   45.201
| 41> H  -19.543   28.978   47.434
| 42> H  -21.289   28.710   47.548
| 43> H  -20.733   27.082   49.195
| 44> H  -19.064   26.913   48.597
| 45> C  -23.210   27.459   45.431
| 46> H  -23.207   28.434   45.934
| 47> H  -22.621   27.547   44.509
| 48> O  -22.586   26.394   46.375
| 49> C  -24.672   27.121   45.028
| 50> C  -25.604   27.145   46.244
| 51> C  -25.842   28.663   46.427
| 52> C  -25.854   29.194   44.972
| 53> O  -25.210   28.156   44.140
| 54> H  -24.681   26.183   44.469
| 55> O  -26.935   26.417   45.909
| 56> H  -25.168   26.673   47.131
| 57> H  -26.772   28.885   46.961
| 58> H  -25.016   29.107   46.995
| 59> H  -25.303   30.134   44.864
| 60> H  -26.868   29.334   44.587
| 61> H  -27.392   26.874   45.023
| 62> *
| 63>
| 64>                          ****END OF INPUT****
 Total Charge           Charge          ....    0
 Multiplicity           Mult            ....    1
 Number of Electrons    NEL             ....  102
FINAL SINGLE POINT ENERGY      -652.829991458262
FINAL SINGLE POINT ENERGY      -652.853228023845
FINAL SINGLE POINT ENERGY      -652.857202044266
FINAL SINGLE POINT ENERGY      -652.857910927411
FINAL SINGLE POINT ENERGY      -652.858012052322
FINAL SINGLE POINT ENERGY      -652.858027922941
                    ***********************HURRAY********************

CARTESIAN COORDINATES (ANGSTROEM)
---------------------------------
  C    -21.168073   26.284134   46.194458
  C    -20.271734   27.492827   45.924842
  C    -20.269588   28.208039   47.301227
  C    -20.316147   27.027318   48.294257
  O    -20.785149   25.858103   47.509703
  H    -21.017023   25.432003   45.527098
  H    -19.267768   27.129913   45.677312
  H    -20.606157   28.134365   45.106343
  H    -19.386463   28.838256   47.441820
  H    -21.158800   28.839235   47.402789
  H    -21.005725   27.190191   49.126289
  H    -19.329798   26.764632   48.687163
  C    -23.156524   27.606424   45.354604
  H    -23.111267   28.596075   45.828946
  H    -22.624984   27.662349   44.396708
  O    -22.597763   26.591974   46.233449
  C    -24.600293   27.197230   45.064944
  C    -25.523821   27.151413   46.289860
  C    -25.874168   28.649556   46.473391
  C    -25.937735   29.180280   45.019364
  O    -25.220350   28.188734   44.177890
  H    -24.604232   26.239326   44.538568
  O    -26.709055   26.355084   46.010739
  H    -25.053919   26.694752   47.159209
  H    -26.819526   28.762123   47.009753
  H    -25.090958   29.155884   47.048780
  H    -25.461112   30.158210   44.900478
  H    -26.961875   29.243492   44.638673
  H    -27.035992   26.569079   45.111342

 Multiplicity           Mult            ....    1
 Number of Electrons    NEL             ....  102
 Basis Dimension        Dim             ....  149

ORBITAL ENERGIES
----------------

  NO   OCC          E(Eh)            E(eV)
   0   2.0000     -19.145052      -520.9633
   1   2.0000     -19.142913      -520.9051
   2   2.0000     -19.142743      -520.9005
   3   2.0000     -19.132715      -520.6277
   4   2.0000     -10.283653      -279.8324
   5   2.0000     -10.234827      -278.5038
   6   2.0000     -10.233128      -278.4576
   7   2.0000     -10.232373      -278.4370
   8   2.0000     -10.232067      -278.4287
   9   2.0000     -10.229194      -278.3505
  10   2.0000     -10.195031      -277.4209
  11   2.0000     -10.194912      -277.4177
  12   2.0000     -10.186788      -277.1966
  13   2.0000      -1.055072       -28.7100
  14   2.0000      -1.035372       -28.1739
  15   2.0000      -1.002655       -27.2836
  16   2.0000      -0.996035       -27.1035
  17   2.0000      -0.792929       -21.5767
  18   2.0000      -0.780078       -21.2270
  19   2.0000      -0.769380       -20.9359
  20   2.0000      -0.733973       -19.9724
  21   2.0000      -0.679170       -18.4812
  22   2.0000      -0.607175       -16.5221
  23   2.0000      -0.602972       -16.4077
  24   2.0000      -0.596185       -16.2230
  25   2.0000      -0.575950       -15.6724
  26   2.0000      -0.521858       -14.2005
  27   2.0000      -0.518297       -14.1036
  28   2.0000      -0.503041       -13.6884
  29   2.0000      -0.493214       -13.4210
  30   2.0000      -0.473872       -12.8947
  31   2.0000      -0.456729       -12.4282
  32   2.0000      -0.453946       -12.3525
  33   2.0000      -0.442109       -12.0304
  34   2.0000      -0.428403       -11.6574
  35   2.0000      -0.412021       -11.2117
  36   2.0000      -0.407689       -11.0938
  37   2.0000      -0.391249       -10.6464
  38   2.0000      -0.383502       -10.4356
  39   2.0000      -0.368286       -10.0216
  40   2.0000      -0.362635        -9.8678
  41   2.0000      -0.360752        -9.8166
  42   2.0000      -0.355504        -9.6737
  43   2.0000      -0.332215        -9.0400
  44   2.0000      -0.316867        -8.6224
  45   2.0000      -0.306859        -8.3501
  46   2.0000      -0.297391        -8.0924
  47   2.0000      -0.271295        -7.3823
  48   2.0000      -0.266276        -7.2458
  49   2.0000      -0.256719        -6.9857
  50   2.0000      -0.243795        -6.6340
  51   0.0000       0.064679         1.7600
  52   0.0000       0.066173         1.8007
  53   0.0000       0.093226         2.5368
  54   0.0000       0.100681         2.7397
  55   0.0000       0.102169         2.7802

MULLIKEN ATOMIC CHARGES
-----------------------
   0 C :    0.315818
   1 C :   -0.293310
   2 C :   -0.302317
   3 C :   -0.000532
   4 O :   -0.495896
   5 H :    0.152690
   6 H :    0.153535
   7 H :    0.148007
   8 H :    0.146213
   9 H :    0.152134
  10 H :    0.152986
  11 H :    0.145031
  12 C :   -0.010166
  13 H :    0.124139
  14 H :    0.146817
  15 O :   -0.528017
  16 C :    0.056648
  17 C :    0.096897
  18 C :   -0.302024
  19 C :   -0.029308
  20 O :   -0.530105
  21 H :    0.164923
  22 O :   -0.604325
  23 H :    0.181566
  24 H :    0.162795
  25 H :    0.143977
  26 H :    0.143272
  27 H :    0.146816
  28 H :    0.361737
Sum of atomic charges:    0.0000000

LOEWDIN ATOMIC CHARGES
----------------------
   0 C :    0.185306
   1 C :   -0.233713
   2 C :   -0.217102
   3 C :   -0.026592
   4 O :   -0.303402
   5 H :    0.103546
   6 H :    0.120486
   7 H :    0.116311
   8 H :    0.116438
   9 H :    0.111693
  10 H :    0.108650
  11 H :    0.104329
  12 C :   -0.041731
  13 H :    0.089485
  14 H :    0.103365
  15 O :   -0.341609
  16 C :    0.017578
  17 C :    0.040147
  18 C :   -0.242238
  19 C :   -0.038064
  20 O :   -0.333410
  21 H :    0.118646
  22 O :   -0.414640
  23 H :    0.130917
  24 H :    0.127123
  25 H :    0.112638
  26 H :    0.102347
  27 H :    0.102747
  28 H :    0.280750

  Mayer bond orders larger than 0.100000
B(  0-C ,  1-C ) :   0.9323 B(  0-C ,  4-O ) :   0.9367 B(  0-C ,  5-H ) :   0.9249
B(  0-C , 15-O ) :   0.8333 B(  1-C ,  2-C ) :   0.9490 B(  1-C ,  6-H ) :   0.9339
B(  1-C ,  7-H ) :   0.9274 B(  2-C ,  3-C ) :   0.9536 B(  2-C ,  8-H ) :   0.9452
B(  2-C ,  9-H ) :   0.9449 B(  3-C ,  4-O ) :   0.8377 B(  3-C , 10-H ) :   0.9345
B(  3-C , 11-H ) :   0.9394 B( 12-C , 13-H ) :   0.9171 B( 12-C , 14-H ) :   0.9135
B( 12-C , 15-O ) :   0.8334 B( 12-C , 16-C ) :   0.8949 B( 16-C , 17-C ) :   0.9161
B( 16-C , 20-O ) :   0.8424 B( 16-C , 21-H ) :   0.9256 B( 17-C , 18-C ) :   0.9114
B( 17-C , 22-O ) :   0.8884 B( 17-C , 23-H ) :   0.9228 B( 18-C , 19-C ) :   0.9407
B( 18-C , 24-H ) :   0.9377 B( 18-C , 25-H ) :   0.9350 B( 19-C , 20-O ) :   0.8420
B( 19-C , 26-H ) :   0.9364 B( 19-C , 27-H ) :   0.9381 B( 22-O , 28-H ) :   0.7964

FINAL SINGLE POINT ENERGY      -652.858030814640

DIPOLE MOMENT
-------------
                                X             Y             Z
Electronic contribution:     -2.99677      -5.61384      -1.52041
Nuclear contribution   :      3.84822       7.19756       1.33092
                        -----------------------------------------
Total Dipole Moment    :      0.85145       1.58372      -0.18949
                        -----------------------------------------
Magnitude (a.u.)       :      1.80805
Magnitude (Debye)      :      4.59571

Rotational constants in cm-1:     0.055025     0.012553     0.012003
Rotational constants in MHz :  1649.619444   376.315308   359.835518

                             ****ORCA TERMINATED NORMALLY****
TOTAL RUN TIME: 0 days 0 hours 44 minutes 55 seconds 334 msec
