                         Program Version 4.2.0 -  RELEASE  -
|  1> # Test redundant internal optimization
|  2> #
|  3> ! RKS B3LYP  Opt TightSCF SmallPrint
|  4>
|  5> %basis
|  6>         Basis "6-31G"
|  7> end
|  8>
|  9> %geom
| 10> Constraints
| 11> { D 4  0  15  12  75.0   C } # D for Dihedral angle
| 12> { D 0  15  12  16  135.0   C } # D for Dihedral angle
| 13> { D 0  4  3  2   C } # D for Dihedral angle
| 14> { D 4  3  2  1   C } # D for Dihedral angle
| 15> { D 3  2  1  0   C } # D for Dihedral angle
| 16> { D 2  1  0  4   C } # D for Dihedral angle
| 17> { D 1  0  4  3   C } # D for Dihedral angle
| 18> { D 16  20  19  18   C } # D for Dihedral angle
| 19> { D 20  19  18  17   C } # D for Dihedral angle
| 20> { D 19  18  17  16   C } # D for Dihedral angle
| 21> { D 18  17  16  20   C } # D for Dihedral angle
| 22> { D 17  16  20  19   C } # D for Dihedral angle
| 23> { D 15  12  16  20   C } # D for Dihedral angle
| 24> end
| 25> end
| 26>
| 27>
| 28> #%pal
| 29> #nprocs 8
| 30> #end
| 31>
| 32> * xyz 0 1
| 33> C  -21.048   26.222   46.251
| 34> C  -20.361   27.558   45.944
| 35> C  -20.329   28.222   47.341
| 36> C  -20.110   27.022   48.296
| 37> O  -20.473   25.807   47.535
| 38> H  -20.833   25.428   45.533
| 39> H  -19.344   27.382   45.576
| 40> H  -20.898   28.157   45.201
| 41> H  -19.543   28.978   47.434
| 42> H  -21.289   28.710   47.548
| 43> H  -20.733   27.082   49.195
| 44> H  -19.064   26.913   48.597
| 45> C  -23.049   27.675   47.122
| 46> H  -23.391   27.403   48.129
| 47> H  -22.217   28.383   47.222
| 48> O  -22.586   26.394   46.375
| 49> C  -24.210   28.408   46.394
| 50> C  -25.477   27.547   46.360
| 51> C  -26.036   27.755   47.788
| 52> C  -25.667   29.228   48.098
| 53> O  -24.607   29.607   47.140
| 54> H  -23.863   28.742   45.414
| 55> O  -26.467   28.099   45.297
| 56> H  -25.278   26.495   46.130
| 57> H  -27.113   27.573   47.853
| 58> H  -25.538   27.076   48.489
| 59> H  -25.293   29.360   49.119
| 60> H  -26.506   29.911   47.938
| 61> H  -26.683   29.154   45.507
| 62> *
| 63>
| 64>                          ****END OF INPUT****
 Total Charge           Charge          ....    0
 Multiplicity           Mult            ....    1
 Number of Electrons    NEL             ....  102
FINAL SINGLE POINT ENERGY      -652.787125549532
FINAL SINGLE POINT ENERGY      -652.832179793638
FINAL SINGLE POINT ENERGY      -652.852500649768
FINAL SINGLE POINT ENERGY      -652.856220377649
FINAL SINGLE POINT ENERGY      -652.856721865383
FINAL SINGLE POINT ENERGY      -652.856869023628
FINAL SINGLE POINT ENERGY      -652.856898387380
FINAL SINGLE POINT ENERGY      -652.856904637652
FINAL SINGLE POINT ENERGY      -652.856903523755
                    ***********************HURRAY********************

CARTESIAN COORDINATES (ANGSTROEM)
---------------------------------
  C    -21.257334   26.417697   46.419103
  C    -20.325683   27.534500   45.920828
  C    -19.844792   28.181413   47.256480
  C    -19.757096   26.955863   48.202910
  O    -20.565715   25.886490   47.572649
  H    -21.326017   25.585447   45.716576
  H    -19.485027   27.073648   45.392584
  H    -20.822376   28.237593   45.246818
  H    -18.872632   28.673017   47.147272
  H    -20.547554   28.933158   47.621274
  H    -20.147977   27.156690   49.205172
  H    -18.736216   26.572541   48.289430
  C    -23.160094   27.859166   47.370662
  H    -23.510514   27.516821   48.350802
  H    -22.410758   28.636708   47.528352
  O    -22.651095   26.712863   46.628648
  C    -24.299076   28.462735   46.546985
  C    -25.505172   27.538193   46.333394
  C    -26.256800   27.689189   47.680123
  C    -26.012026   29.171205   48.059858
  O    -24.850950   29.626465   47.251208
  H    -23.907128   28.818095   45.589820
  O    -26.311468   27.990176   45.209220
  H    -25.217496   26.514671   46.100254
  H    -27.316385   27.449918   47.559716
  H    -25.835298   27.009975   48.428873
  H    -25.779558   29.307455   49.120853
  H    -26.856027   29.818670   47.802134
  H    -26.437736   28.960637   45.274002

 Multiplicity           Mult            ....    1
 Number of Electrons    NEL             ....  102
 Basis Dimension        Dim             ....  149

ORBITAL ENERGIES
----------------

  NO   OCC          E(Eh)            E(eV)
   0   2.0000     -19.146703      -521.0083
   1   2.0000     -19.145729      -520.9818
   2   2.0000     -19.142057      -520.8819
   3   2.0000     -19.134488      -520.6759
   4   2.0000     -10.281363      -279.7701
   5   2.0000     -10.234254      -278.4882
   6   2.0000     -10.233095      -278.4567
   7   2.0000     -10.232912      -278.4517
   8   2.0000     -10.232606      -278.4434
   9   2.0000     -10.230958      -278.3985
  10   2.0000     -10.195928      -277.4453
  11   2.0000     -10.194325      -277.4017
  12   2.0000     -10.187005      -277.2025
  13   2.0000      -1.052641       -28.6438
  14   2.0000      -1.035623       -28.1807
  15   2.0000      -1.003920       -27.3181
  16   2.0000      -0.998483       -27.1701
  17   2.0000      -0.790672       -21.5153
  18   2.0000      -0.782322       -21.2881
  19   2.0000      -0.771092       -20.9825
  20   2.0000      -0.733638       -19.9633
  21   2.0000      -0.680497       -18.5173
  22   2.0000      -0.607543       -16.5321
  23   2.0000      -0.603861       -16.4319
  24   2.0000      -0.598830       -16.2950
  25   2.0000      -0.574747       -15.6397
  26   2.0000      -0.526213       -14.3190
  27   2.0000      -0.512739       -13.9523
  28   2.0000      -0.504387       -13.7251
  29   2.0000      -0.490438       -13.3455
  30   2.0000      -0.473188       -12.8761
  31   2.0000      -0.460783       -12.5385
  32   2.0000      -0.447117       -12.1667
  33   2.0000      -0.439799       -11.9675
  34   2.0000      -0.427756       -11.6398
  35   2.0000      -0.416266       -11.3272
  36   2.0000      -0.409816       -11.1517
  37   2.0000      -0.392090       -10.6693
  38   2.0000      -0.385161       -10.4808
  39   2.0000      -0.367758       -10.0072
  40   2.0000      -0.362606        -9.8670
  41   2.0000      -0.359554        -9.7840
  42   2.0000      -0.351972        -9.5777
  43   2.0000      -0.329910        -8.9773
  44   2.0000      -0.317085        -8.6283
  45   2.0000      -0.310712        -8.4549
  46   2.0000      -0.299816        -8.1584
  47   2.0000      -0.274927        -7.4811
  48   2.0000      -0.266649        -7.2559
  49   2.0000      -0.257513        -7.0073
  50   2.0000      -0.243568        -6.6278
  51   0.0000       0.062924         1.7123
  52   0.0000       0.067024         1.8238
  53   0.0000       0.090523         2.4633
  54   0.0000       0.095781         2.6063
  55   0.0000       0.102302         2.7838

MULLIKEN ATOMIC CHARGES
-----------------------
   0 C :    0.306576
   1 C :   -0.283762
   2 C :   -0.319978
   3 C :   -0.010220
   4 O :   -0.503045
   5 H :    0.168584
   6 H :    0.159598
   7 H :    0.151341
   8 H :    0.146942
   9 H :    0.155270
  10 H :    0.145526
  11 H :    0.149371
  12 C :   -0.018139
  13 H :    0.144045
  14 H :    0.145499
  15 O :   -0.529637
  16 C :    0.064659
  17 C :    0.092522
  18 C :   -0.304832
  19 C :   -0.034461
  20 O :   -0.529350
  21 H :    0.156695
  22 O :   -0.602294
  23 H :    0.180037
  24 H :    0.162120
  25 H :    0.152476
  26 H :    0.146458
  27 H :    0.147818
  28 H :    0.360180
Sum of atomic charges:    0.0000000

LOEWDIN ATOMIC CHARGES
----------------------
   0 C :    0.176212
   1 C :   -0.229737
   2 C :   -0.224509
   3 C :   -0.033503
   4 O :   -0.321046
   5 H :    0.114206
   6 H :    0.124347
   7 H :    0.119225
   8 H :    0.116313
   9 H :    0.109646
  10 H :    0.103315
  11 H :    0.105476
  12 C :   -0.042547
  13 H :    0.102990
  14 H :    0.105186
  15 O :   -0.323486
  16 C :    0.014924
  17 C :    0.038818
  18 C :   -0.242571
  19 C :   -0.039549
  20 O :   -0.334079
  21 H :    0.113992
  22 O :   -0.414417
  23 H :    0.130055
  24 H :    0.126809
  25 H :    0.117070
  26 H :    0.103692
  27 H :    0.102989
  28 H :    0.280180

  Mayer bond orders larger than 0.100000
B(  0-C ,  1-C ) :   0.9190 B(  0-C ,  4-O ) :   0.9043 B(  0-C ,  5-H ) :   0.9359
B(  0-C , 15-O ) :   0.8954 B(  1-C ,  2-C ) :   0.9548 B(  1-C ,  6-H ) :   0.9345
B(  1-C ,  7-H ) :   0.9359 B(  2-C ,  3-C ) :   0.9464 B(  2-C ,  8-H ) :   0.9443
B(  2-C ,  9-H ) :   0.9345 B(  3-C ,  4-O ) :   0.8472 B(  3-C , 10-H ) :   0.9341
B(  3-C , 11-H ) :   0.9386 B( 12-C , 13-H ) :   0.9288 B( 12-C , 14-H ) :   0.9017
B( 12-C , 15-O ) :   0.8188 B( 12-C , 16-C ) :   0.8971 B( 16-C , 17-C ) :   0.9143
B( 16-C , 20-O ) :   0.8443 B( 16-C , 21-H ) :   0.9268 B( 17-C , 18-C ) :   0.9133
B( 17-C , 22-O ) :   0.8898 B( 17-C , 23-H ) :   0.9230 B( 18-C , 19-C ) :   0.9412
B( 18-C , 24-H ) :   0.9378 B( 18-C , 25-H ) :   0.9333 B( 19-C , 20-O ) :   0.8419
B( 19-C , 26-H ) :   0.9357 B( 19-C , 27-H ) :   0.9376 B( 22-O , 28-H ) :   0.7974

FINAL SINGLE POINT ENERGY      -652.856901788945

DIPOLE MOMENT
-------------
                                X             Y             Z
Electronic contribution:     -2.54503      -2.05171      -2.38603
Nuclear contribution   :      3.13139       2.87723       2.97002
                        -----------------------------------------
Total Dipole Moment    :      0.58636       0.82552       0.58398
                        -----------------------------------------
Magnitude (a.u.)       :      1.16891
Magnitude (Debye)      :      2.97112

Rotational constants in cm-1:     0.057447     0.012451     0.011958
Rotational constants in MHz :  1722.226084   373.278626   358.490171

                             ****ORCA TERMINATED NORMALLY****
TOTAL RUN TIME: 0 days 0 hours 58 minutes 46 seconds 152 msec
