                         Program Version 4.2.0 -  RELEASE  -
|  1> # Test redundant internal optimization
|  2> #
|  3> ! RKS B3LYP  Opt TightSCF SmallPrint
|  4>
|  5> %basis
|  6>         Basis "6-31G"
|  7> end
|  8>
|  9> %geom
| 10> Constraints
| 11> { D 4  0  15  12  60.0   C } # D for Dihedral angle
| 12> { D 0  15  12  16  195.0   C } # D for Dihedral angle
| 13> { D 0  4  3  2   C } # D for Dihedral angle
| 14> { D 4  3  2  1   C } # D for Dihedral angle
| 15> { D 3  2  1  0   C } # D for Dihedral angle
| 16> { D 2  1  0  4   C } # D for Dihedral angle
| 17> { D 1  0  4  3   C } # D for Dihedral angle
| 18> { D 16  20  19  18   C } # D for Dihedral angle
| 19> { D 20  19  18  17   C } # D for Dihedral angle
| 20> { D 19  18  17  16   C } # D for Dihedral angle
| 21> { D 18  17  16  20   C } # D for Dihedral angle
| 22> { D 17  16  20  19   C } # D for Dihedral angle
| 23> { D 15  12  16  20   C } # D for Dihedral angle
| 24> end
| 25> end
| 26>
| 27>
| 28> #%pal
| 29> #nprocs 8
| 30> #end
| 31>
| 32> * xyz 0 1
| 33> C  -21.048   26.222   46.251
| 34> C  -20.361   27.558   45.944
| 35> C  -20.329   28.222   47.341
| 36> C  -20.110   27.022   48.296
| 37> O  -20.473   25.807   47.535
| 38> H  -20.833   25.428   45.533
| 39> H  -19.344   27.382   45.576
| 40> H  -20.898   28.157   45.201
| 41> H  -19.543   28.978   47.434
| 42> H  -21.289   28.710   47.548
| 43> H  -20.733   27.082   49.195
| 44> H  -19.064   26.913   48.597
| 45> C  -23.051   27.452   47.413
| 46> H  -22.470   27.332   48.337
| 47> H  -22.881   28.466   47.030
| 48> O  -22.586   26.394   46.375
| 49> C  -24.559   27.326   47.765
| 50> C  -25.432   27.393   46.506
| 51> C  -25.285   25.958   45.946
| 52> C  -25.195   25.089   47.225
| 53> O  -24.844   26.004   48.332
| 54> H  -24.811   28.063   48.529
| 55> O  -26.907   27.680   46.896
| 56> H  -25.106   28.162   45.797
| 57> H  -26.120   25.667   45.301
| 58> H  -24.363   25.876   45.358
| 59> H  -24.431   24.307   47.149
| 60> H  -26.152   24.624   47.482
| 61> H  -27.255   26.922   47.607
| 62> *
| 63>
| 64>                          ****END OF INPUT****
 Total Charge           Charge          ....    0
 Multiplicity           Mult            ....    1
 Number of Electrons    NEL             ....  102
FINAL SINGLE POINT ENERGY      -652.818942208103
FINAL SINGLE POINT ENERGY      -652.844921885249
FINAL SINGLE POINT ENERGY      -652.857415570084
FINAL SINGLE POINT ENERGY      -652.859594661577
FINAL SINGLE POINT ENERGY      -652.859918259366
FINAL SINGLE POINT ENERGY      -652.859971926472
FINAL SINGLE POINT ENERGY      -652.859976195680
                    ***********************HURRAY********************

CARTESIAN COORDINATES (ANGSTROEM)
---------------------------------
  C    -21.177201   26.343719   46.446147
  C    -20.356182   27.552496   45.975718
  C    -20.046552   28.278174   47.317602
  C    -19.874903   27.096835   48.305865
  O    -20.508060   25.922304   47.654571
  H    -21.123464   25.496939   45.760571
  H    -19.433899   27.190259   45.510005
  H    -20.893219   28.175112   45.254999
  H    -19.141480   28.890650   47.257927
  H    -20.870444   28.933641   47.610800
  H    -20.353606   27.266998   49.274611
  H    -18.824241   26.839201   48.468096
  C    -23.153005   27.493684   47.510740
  H    -22.656919   27.386420   48.482051
  H    -23.017883   28.521982   47.144904
  O    -22.604394   26.528502   46.571828
  C    -24.645454   27.232561   47.714806
  C    -25.537163   27.320334   46.467257
  C    -25.376290   25.900201   45.861555
  C    -25.256673   24.999508   47.115582
  O    -24.903392   25.895884   48.243476
  H    -24.995831   27.945827   48.471199
  O    -26.913020   27.611793   46.843758
  H    -25.254809   28.118331   45.779420
  H    -26.236961   25.648437   45.234867
  H    -24.461072   25.857507   45.269974
  H    -24.473155   24.244744   47.013394
  H    -26.199035   24.508652   47.380802
  H    -27.184694   26.995301   47.556475

 Multiplicity           Mult            ....    1
 Number of Electrons    NEL             ....  102
 Basis Dimension        Dim             ....  149

ORBITAL ENERGIES
----------------

  NO   OCC          E(Eh)            E(eV)
   0   2.0000     -19.150065      -521.0998
   1   2.0000     -19.146727      -521.0089
   2   2.0000     -19.134327      -520.6715
   3   2.0000     -19.132705      -520.6274
   4   2.0000     -10.283312      -279.8231
   5   2.0000     -10.235200      -278.5139
   6   2.0000     -10.234296      -278.4894
   7   2.0000     -10.233508      -278.4679
   8   2.0000     -10.232789      -278.4483
   9   2.0000     -10.218447      -278.0581
  10   2.0000     -10.197087      -277.4768
  11   2.0000     -10.194618      -277.4097
  12   2.0000     -10.172969      -276.8206
  13   2.0000      -1.057868       -28.7861
  14   2.0000      -1.029963       -28.0267
  15   2.0000      -1.004073       -27.3222
  16   2.0000      -0.995543       -27.0901
  17   2.0000      -0.792912       -21.5762
  18   2.0000      -0.780299       -21.2330
  19   2.0000      -0.762722       -20.7547
  20   2.0000      -0.735278       -20.0079
  21   2.0000      -0.676862       -18.4184
  22   2.0000      -0.608280       -16.5521
  23   2.0000      -0.604582       -16.4515
  24   2.0000      -0.593987       -16.1632
  25   2.0000      -0.569141       -15.4871
  26   2.0000      -0.523673       -14.2499
  27   2.0000      -0.512267       -13.9395
  28   2.0000      -0.500663       -13.6237
  29   2.0000      -0.484052       -13.1717
  30   2.0000      -0.477298       -12.9879
  31   2.0000      -0.458051       -12.4642
  32   2.0000      -0.449638       -12.2353
  33   2.0000      -0.437288       -11.8992
  34   2.0000      -0.423814       -11.5326
  35   2.0000      -0.414774       -11.2866
  36   2.0000      -0.402549       -10.9539
  37   2.0000      -0.385679       -10.4949
  38   2.0000      -0.383892       -10.4462
  39   2.0000      -0.366313        -9.9679
  40   2.0000      -0.364959        -9.9310
  41   2.0000      -0.359936        -9.7943
  42   2.0000      -0.349359        -9.5065
  43   2.0000      -0.325866        -8.8673
  44   2.0000      -0.321219        -8.7408
  45   2.0000      -0.310554        -8.4506
  46   2.0000      -0.297675        -8.1002
  47   2.0000      -0.271971        -7.4007
  48   2.0000      -0.262785        -7.1507
  49   2.0000      -0.257027        -6.9941
  50   2.0000      -0.239486        -6.5167
  51   0.0000       0.066887         1.8201
  52   0.0000       0.076166         2.0726
  53   0.0000       0.086873         2.3639
  54   0.0000       0.103883         2.8268
  55   0.0000       0.107658         2.9295

MULLIKEN ATOMIC CHARGES
-----------------------
   0 C :    0.304318
   1 C :   -0.274928
   2 C :   -0.314252
   3 C :   -0.014440
   4 O :   -0.501513
   5 H :    0.163743
   6 H :    0.155857
   7 H :    0.149348
   8 H :    0.148037
   9 H :    0.148405
  10 H :    0.148331
  11 H :    0.149864
  12 C :    0.001551
  13 H :    0.157135
  14 H :    0.123251
  15 O :   -0.526232
  16 C :    0.060026
  17 C :    0.078556
  18 C :   -0.289541
  19 C :   -0.017655
  20 O :   -0.521969
  21 H :    0.155440
  22 O :   -0.604097
  23 H :    0.147809
  24 H :    0.147166
  25 H :    0.173593
  26 H :    0.156872
  27 H :    0.133074
  28 H :    0.362250
Sum of atomic charges:   -0.0000000

LOEWDIN ATOMIC CHARGES
----------------------
   0 C :    0.175741
   1 C :   -0.228737
   2 C :   -0.224243
   3 C :   -0.033748
   4 O :   -0.316696
   5 H :    0.112671
   6 H :    0.121739
   7 H :    0.118813
   8 H :    0.117154
   9 H :    0.109798
  10 H :    0.103394
  11 H :    0.105866
  12 C :   -0.041546
  13 H :    0.110445
  14 H :    0.091135
  15 O :   -0.320456
  16 C :    0.014723
  17 C :    0.038709
  18 C :   -0.242501
  19 C :   -0.032273
  20 O :   -0.326771
  21 H :    0.115306
  22 O :   -0.417824
  23 H :    0.113885
  24 H :    0.117362
  25 H :    0.130108
  26 H :    0.111158
  27 H :    0.095058
  28 H :    0.281729

  Mayer bond orders larger than 0.100000
B(  0-C ,  1-C ) :   0.9179 B(  0-C ,  4-O ) :   0.9099 B(  0-C ,  5-H ) :   0.9370
B(  0-C , 15-O ) :   0.8860 B(  1-C ,  2-C ) :   0.9557 B(  1-C ,  6-H ) :   0.9352
B(  1-C ,  7-H ) :   0.9372 B(  2-C ,  3-C ) :   0.9478 B(  2-C ,  8-H ) :   0.9450
B(  2-C ,  9-H ) :   0.9405 B(  3-C ,  4-O ) :   0.8414 B(  3-C , 10-H ) :   0.9315
B(  3-C , 11-H ) :   0.9387 B( 12-C , 13-H ) :   0.9104 B( 12-C , 14-H ) :   0.9048
B( 12-C , 15-O ) :   0.8400 B( 12-C , 16-C ) :   0.9018 B( 16-C , 17-C ) :   0.9091
B( 16-C , 20-O ) :   0.8831 B( 16-C , 21-H ) :   0.9225 B( 17-C , 18-C ) :   0.9244
B( 17-C , 22-O ) :   0.8902 B( 17-C , 23-H ) :   0.9359 B( 18-C , 19-C ) :   0.9471
B( 18-C , 24-H ) :   0.9371 B( 18-C , 25-H ) :   0.9189 B( 19-C , 20-O ) :   0.8372
B( 19-C , 26-H ) :   0.9335 B( 19-C , 27-H ) :   0.9374 B( 22-O , 28-H ) :   0.7963

FINAL SINGLE POINT ENERGY      -652.859974744207

DIPOLE MOMENT
-------------
                                X             Y             Z
Electronic contribution:     -3.63071      -2.64762       1.47691
Nuclear contribution   :      4.66121       3.35453      -1.84384
                        -----------------------------------------
Total Dipole Moment    :      1.03050       0.70691      -0.36693
                        -----------------------------------------
Magnitude (a.u.)       :      1.30242
Magnitude (Debye)      :      3.31048

Rotational constants in cm-1:     0.059684     0.013617     0.013220
Rotational constants in MHz :  1789.271227   408.240703   396.326141

                             ****ORCA TERMINATED NORMALLY****
TOTAL RUN TIME: 0 days 1 hours 12 minutes 26 seconds 441 msec
