                         Program Version 4.2.0 -  RELEASE  -
|  1> # Test redundant internal optimization
|  2> #
|  3> ! RKS B3LYP  Opt TightSCF SmallPrint
|  4>
|  5> %basis
|  6>         Basis "6-31G"
|  7> end
|  8>
|  9> %geom
| 10> Constraints
| 11> { D 4  0  15  12  345.0   C } # D for Dihedral angle
| 12> { D 0  15  12  16  150.0   C } # D for Dihedral angle
| 13> { D 0  4  3  2   C } # D for Dihedral angle
| 14> { D 4  3  2  1   C } # D for Dihedral angle
| 15> { D 3  2  1  0   C } # D for Dihedral angle
| 16> { D 2  1  0  4   C } # D for Dihedral angle
| 17> { D 1  0  4  3   C } # D for Dihedral angle
| 18> { D 16  20  19  18   C } # D for Dihedral angle
| 19> { D 20  19  18  17   C } # D for Dihedral angle
| 20> { D 19  18  17  16   C } # D for Dihedral angle
| 21> { D 18  17  16  20   C } # D for Dihedral angle
| 22> { D 17  16  20  19   C } # D for Dihedral angle
| 23> { D 15  12  16  20   C } # D for Dihedral angle
| 24> end
| 25> end
| 26>
| 27>
| 28> #%pal
| 29> #nprocs 8
| 30> #end
| 31>
| 32> * xyz 0 1
| 33> C  -21.048   26.222   46.251
| 34> C  -20.361   27.558   45.944
| 35> C  -20.329   28.222   47.341
| 36> C  -20.110   27.022   48.296
| 37> O  -20.473   25.807   47.535
| 38> H  -20.833   25.428   45.533
| 39> H  -19.344   27.382   45.576
| 40> H  -20.898   28.157   45.201
| 41> H  -19.543   28.978   47.434
| 42> H  -21.289   28.710   47.548
| 43> H  -20.733   27.082   49.195
| 44> H  -19.064   26.913   48.597
| 45> C  -23.221   25.764   47.645
| 46> H  -23.501   24.725   47.432
| 47> H  -22.501   25.762   48.474
| 48> O  -22.586   26.394   46.375
| 49> C  -24.489   26.524   48.123
| 50> C  -25.616   26.432   47.088
| 51> C  -26.175   25.015   47.359
| 52> C  -26.022   24.865   48.894
| 53> O  -25.046   25.889   49.322
| 54> H  -24.212   27.543   48.400
| 55> H  -26.377   27.193   47.293
| 56> O  -25.120   26.615   45.627
| 57> H  -27.212   24.897   47.030
| 58> H  -25.570   24.265   46.835
| 59> H  -25.654   23.875   49.184
| 60> H  -26.955   25.065   49.428
| 61> H  -24.357   25.862   45.401
| 62> *
| 63>
| 64>                          ****END OF INPUT****
 Total Charge           Charge          ....    0
 Multiplicity           Mult            ....    1
 Number of Electrons    NEL             ....  102
FINAL SINGLE POINT ENERGY      -652.832307276424
FINAL SINGLE POINT ENERGY      -652.856076311639
FINAL SINGLE POINT ENERGY      -652.862582404680
FINAL SINGLE POINT ENERGY      -652.864855149126
FINAL SINGLE POINT ENERGY      -652.866155000278
FINAL SINGLE POINT ENERGY      -652.866849778417
FINAL SINGLE POINT ENERGY      -652.867069952059
FINAL SINGLE POINT ENERGY      -652.867114362105
FINAL SINGLE POINT ENERGY      -652.867118320363
                    ***********************HURRAY********************

CARTESIAN COORDINATES (ANGSTROEM)
---------------------------------
  C    -21.090526   26.153011   46.340545
  C    -20.571869   27.539354   45.963926
  C    -20.449780   28.217204   47.347164
  C    -20.017580   27.061894   48.273019
  O    -20.359037   25.808788   47.529678
  H    -20.891637   25.360505   45.615171
  H    -19.592559   27.435967   45.482979
  H    -21.247043   28.065806   45.285566
  H    -19.728199   29.039655   47.348193
  H    -21.421789   28.617982   47.650330
  H    -20.539189   27.051475   49.233234
  H    -18.938761   27.028168   48.445855
  C    -23.143687   25.634710   47.746602
  H    -23.386047   24.580949   47.558904
  H    -22.445149   25.675811   48.583979
  O    -22.541557   26.217984   46.541251
  C    -24.400622   26.449786   48.064800
  C    -25.504912   26.395283   46.994622
  C    -26.171353   25.021058   47.299104
  C    -26.073929   24.918736   48.835111
  O    -25.031992   25.900484   49.262319
  H    -24.111254   27.478326   48.300641
  H    -26.223683   27.197555   47.195901
  O    -25.073623   26.540391   45.628598
  H    -27.201027   24.980223   46.934795
  H    -25.604385   24.231710   46.794517
  H    -25.782279   23.924360   49.187151
  H    -27.000469   25.212378   49.336915
  H    -24.095064   26.426445   45.580131

 Multiplicity           Mult            ....    1
 Number of Electrons    NEL             ....  102
 Basis Dimension        Dim             ....  149

ORBITAL ENERGIES
----------------

  NO   OCC          E(Eh)            E(eV)
   0   2.0000     -19.161772      -521.4183
   1   2.0000     -19.159653      -521.3607
   2   2.0000     -19.138360      -520.7812
   3   2.0000     -19.110552      -520.0246
   4   2.0000     -10.293153      -280.0909
   5   2.0000     -10.240388      -278.6551
   6   2.0000     -10.232775      -278.4480
   7   2.0000     -10.231669      -278.4179
   8   2.0000     -10.227687      -278.3095
   9   2.0000     -10.224228      -278.2154
  10   2.0000     -10.197946      -277.5002
  11   2.0000     -10.196033      -277.4482
  12   2.0000     -10.176521      -276.9172
  13   2.0000      -1.067863       -29.0580
  14   2.0000      -1.024013       -27.8648
  15   2.0000      -1.006033       -27.3755
  16   2.0000      -0.989511       -26.9260
  17   2.0000      -0.800747       -21.7894
  18   2.0000      -0.774066       -21.0634
  19   2.0000      -0.766105       -20.8468
  20   2.0000      -0.737252       -20.0616
  21   2.0000      -0.676569       -18.4104
  22   2.0000      -0.612445       -16.6655
  23   2.0000      -0.598412       -16.2836
  24   2.0000      -0.592840       -16.1320
  25   2.0000      -0.576489       -15.6871
  26   2.0000      -0.534639       -14.5483
  27   2.0000      -0.513059       -13.9610
  28   2.0000      -0.508033       -13.8243
  29   2.0000      -0.486275       -13.2322
  30   2.0000      -0.477437       -12.9917
  31   2.0000      -0.458586       -12.4788
  32   2.0000      -0.442264       -12.0346
  33   2.0000      -0.426317       -11.6007
  34   2.0000      -0.424176       -11.5424
  35   2.0000      -0.422586       -11.4991
  36   2.0000      -0.409564       -11.1448
  37   2.0000      -0.385068       -10.4782
  38   2.0000      -0.383198       -10.4273
  39   2.0000      -0.370432       -10.0800
  40   2.0000      -0.365043        -9.9333
  41   2.0000      -0.361764        -9.8441
  42   2.0000      -0.356425        -9.6988
  43   2.0000      -0.341988        -9.3060
  44   2.0000      -0.328831        -8.9480
  45   2.0000      -0.316110        -8.6018
  46   2.0000      -0.285647        -7.7728
  47   2.0000      -0.276301        -7.5185
  48   2.0000      -0.269525        -7.3341
  49   2.0000      -0.247714        -6.7406
  50   2.0000      -0.239011        -6.5038
  51   0.0000       0.059671         1.6237
  52   0.0000       0.072115         1.9624
  53   0.0000       0.091639         2.4936
  54   0.0000       0.094954         2.5838
  55   0.0000       0.100462         2.7337

MULLIKEN ATOMIC CHARGES
-----------------------
   0 C :    0.314716
   1 C :   -0.262731
   2 C :   -0.305338
   3 C :   -0.023218
   4 O :   -0.508990
   5 H :    0.160616
   6 H :    0.151092
   7 H :    0.164702
   8 H :    0.151672
   9 H :    0.160513
  10 H :    0.154374
  11 H :    0.157071
  12 C :   -0.019141
  13 H :    0.143844
  14 H :    0.177242
  15 O :   -0.581776
  16 C :    0.058674
  17 C :    0.120789
  18 C :   -0.301746
  19 C :   -0.017043
  20 O :   -0.523653
  21 H :    0.147481
  22 H :    0.146054
  23 O :   -0.641630
  24 H :    0.149516
  25 H :    0.145789
  26 H :    0.140505
  27 H :    0.147976
  28 H :    0.392642
Sum of atomic charges:   -0.0000000

LOEWDIN ATOMIC CHARGES
----------------------
   0 C :    0.186037
   1 C :   -0.217778
   2 C :   -0.217767
   3 C :   -0.031394
   4 O :   -0.313655
   5 H :    0.106011
   6 H :    0.117312
   7 H :    0.127440
   8 H :    0.119796
   9 H :    0.117030
  10 H :    0.107530
  11 H :    0.110438
  12 C :   -0.043479
  13 H :    0.100342
  14 H :    0.120602
  15 O :   -0.354871
  16 C :    0.016938
  17 C :    0.041232
  18 C :   -0.236893
  19 C :   -0.031439
  20 O :   -0.325650
  21 H :    0.109081
  22 H :    0.104250
  23 O :   -0.436158
  24 H :    0.120685
  25 H :    0.111495
  26 H :    0.101388
  27 H :    0.105246
  28 H :    0.286232

  Mayer bond orders larger than 0.100000
B(  0-C ,  1-C ) :   0.9410 B(  0-C ,  4-O ) :   0.9281 B(  0-C ,  5-H ) :   0.9269
B(  0-C , 15-O ) :   0.7906 B(  1-C ,  2-C ) :   0.9520 B(  1-C ,  6-H ) :   0.9351
B(  1-C ,  7-H ) :   0.9349 B(  2-C ,  3-C ) :   0.9538 B(  2-C ,  8-H ) :   0.9437
B(  2-C ,  9-H ) :   0.9433 B(  3-C ,  4-O ) :   0.8212 B(  3-C , 10-H ) :   0.9319
B(  3-C , 11-H ) :   0.9399 B( 12-C , 13-H ) :   0.9266 B( 12-C , 14-H ) :   0.9142
B( 12-C , 15-O ) :   0.7751 B( 12-C , 16-C ) :   0.8996 B( 16-C , 17-C ) :   0.9123
B( 16-C , 20-O ) :   0.8559 B( 16-C , 21-H ) :   0.9299 B( 17-C , 18-C ) :   0.9023
B( 17-C , 22-H ) :   0.9304 B( 17-C , 23-O ) :   0.9349 B( 18-C , 19-C ) :   0.9377
B( 18-C , 24-H ) :   0.9450 B( 18-C , 25-H ) :   0.9433 B( 19-C , 20-O ) :   0.8316
B( 19-C , 26-H ) :   0.9348 B( 19-C , 27-H ) :   0.9387 B( 23-O , 28-H ) :   0.7238

FINAL SINGLE POINT ENERGY      -652.867119574453

DIPOLE MOMENT
-------------
                                X             Y             Z
Electronic contribution:     -0.57211      -1.29902      -0.49702
Nuclear contribution   :      1.50320       1.55522       0.66840
                        -----------------------------------------
Total Dipole Moment    :      0.93109       0.25620       0.17138
                        -----------------------------------------
Magnitude (a.u.)       :      0.98078
Magnitude (Debye)      :      2.49295

Rotational constants in cm-1:     0.053896     0.014448     0.012985
Rotational constants in MHz :  1615.764864   433.144631   389.292892

                             ****ORCA TERMINATED NORMALLY****
TOTAL RUN TIME: 0 days 0 hours 32 minutes 37 seconds 258 msec
