                         Program Version 4.2.0 -  RELEASE  -
|  1> # Test redundant internal optimization
|  2> #
|  3> ! RKS B3LYP  Opt TightSCF SmallPrint
|  4>
|  5> %basis
|  6>         Basis "6-31G"
|  7> end
|  8>
|  9> %geom
| 10> Constraints
| 11> { D 4  0  15  12  105.0   C } # D for Dihedral angle
| 12> { D 0  15  12  16  240.0   C } # D for Dihedral angle
| 13> { D 0  4  3  2   C } # D for Dihedral angle
| 14> { D 4  3  2  1   C } # D for Dihedral angle
| 15> { D 3  2  1  0   C } # D for Dihedral angle
| 16> { D 2  1  0  4   C } # D for Dihedral angle
| 17> { D 1  0  4  3   C } # D for Dihedral angle
| 18> { D 16  20  19  18   C } # D for Dihedral angle
| 19> { D 20  19  18  17   C } # D for Dihedral angle
| 20> { D 19  18  17  16   C } # D for Dihedral angle
| 21> { D 18  17  16  20   C } # D for Dihedral angle
| 22> { D 17  16  20  19   C } # D for Dihedral angle
| 23> { D 15  12  16  20   C } # D for Dihedral angle
| 24> end
| 25> end
| 26>
| 27>
| 28> #%pal
| 29> #nprocs 8
| 30> #end
| 31>
| 32> * xyz 0 1
| 33> C  -21.048   26.222   46.251
| 34> C  -20.361   27.558   45.944
| 35> C  -20.329   28.222   47.341
| 36> C  -20.110   27.022   48.296
| 37> O  -20.473   25.807   47.535
| 38> H  -20.833   25.428   45.533
| 39> H  -19.344   27.382   45.576
| 40> H  -20.898   28.157   45.201
| 41> H  -19.543   28.978   47.434
| 42> H  -21.289   28.710   47.548
| 43> H  -20.733   27.082   49.195
| 44> H  -19.064   26.913   48.597
| 45> C  -23.085   27.864   46.420
| 46> H  -22.224   28.541   46.345
| 47> H  -23.756   28.068   45.576
| 48> O  -22.586   26.394   46.375
| 49> C  -23.854   28.198   47.728
| 50> C  -22.937   28.103   48.953
| 51> C  -22.174   29.447   48.877
| 52> C  -23.240   30.427   48.326
| 53> O  -24.301   29.595   47.718
| 54> H  -24.750   27.576   47.785
| 55> O  -23.788   28.028   50.250
| 56> H  -22.272   27.234   48.927
| 57> H  -21.777   29.765   49.847
| 58> H  -21.330   29.362   48.182
| 59> H  -22.835   31.103   47.566
| 60> H  -23.708   31.021   49.114
| 61> H  -24.464   28.890   50.299
| 62> *
| 63>
| 64>                          ****END OF INPUT****
 Total Charge           Charge          ....    0
 Multiplicity           Mult            ....    1
 Number of Electrons    NEL             ....  102
FINAL SINGLE POINT ENERGY      -652.713485819532
FINAL SINGLE POINT ENERGY      -652.815645415494
FINAL SINGLE POINT ENERGY      -652.840261717455
FINAL SINGLE POINT ENERGY      -652.848350729332
FINAL SINGLE POINT ENERGY      -652.849726628783
FINAL SINGLE POINT ENERGY      -652.850026124177
FINAL SINGLE POINT ENERGY      -652.850072623577
FINAL SINGLE POINT ENERGY      -652.850097528187
FINAL SINGLE POINT ENERGY      -652.850106601023
FINAL SINGLE POINT ENERGY      -652.850104178799
FINAL SINGLE POINT ENERGY      -652.850102939802
                    ***********************HURRAY********************

CARTESIAN COORDINATES (ANGSTROEM)
---------------------------------
  C    -21.168000   26.311565   46.371974
  C    -20.146846   27.295588   45.787449
  C    -19.696240   28.080507   47.050825
  C    -19.730351   26.995998   48.156639
  O    -20.574702   25.894996   47.624211
  H    -21.222595   25.388033   45.791338
  H    -19.316092   26.714850   45.375407
  H    -20.550091   27.932873   44.995782
  H    -18.698712   28.516583   46.939458
  H    -20.390665   28.896718   47.260563
  H    -20.150939   27.352877   49.100373
  H    -18.741920   26.568981   48.348093
  C    -23.128690   28.014508   46.440383
  H    -22.359777   28.782141   46.285538
  H    -23.830411   28.064507   45.603227
  O    -22.562744   26.671329   46.462580
  C    -23.897414   28.274253   47.746104
  C    -23.135007   28.206600   49.078351
  C    -22.495044   29.619423   49.146917
  C    -23.572814   30.522652   48.494609
  O    -24.467377   29.625331   47.726308
  H    -24.740365   27.576650   47.783851
  O    -24.061739   27.996840   50.179222
  H    -22.428099   27.379962   49.125629
  H    -22.284559   29.893996   50.183610
  H    -21.557927   29.654269   48.587386
  H    -23.149426   31.270866   47.816798
  H    -24.192456   31.037090   49.235658
  H    -24.854997   28.557012   50.040715

 Multiplicity           Mult            ....    1
 Number of Electrons    NEL             ....  102
 Basis Dimension        Dim             ....  149

ORBITAL ENERGIES
----------------

  NO   OCC          E(Eh)            E(eV)
   0   2.0000     -19.147406      -521.0274
   1   2.0000     -19.145904      -520.9865
   2   2.0000     -19.145879      -520.9858
   3   2.0000     -19.135752      -520.7103
   4   2.0000     -10.284223      -279.8479
   5   2.0000     -10.238082      -278.5924
   6   2.0000     -10.237849      -278.5860
   7   2.0000     -10.235298      -278.5166
   8   2.0000     -10.233545      -278.4689
   9   2.0000     -10.233034      -278.4550
  10   2.0000     -10.200623      -277.5731
  11   2.0000     -10.200010      -277.5564
  12   2.0000     -10.191414      -277.3225
  13   2.0000      -1.052477       -28.6393
  14   2.0000      -1.038606       -28.2619
  15   2.0000      -1.005783       -27.3688
  16   2.0000      -0.999557       -27.1993
  17   2.0000      -0.796923       -21.6854
  18   2.0000      -0.782608       -21.2958
  19   2.0000      -0.773669       -21.0526
  20   2.0000      -0.736647       -20.0452
  21   2.0000      -0.685556       -18.6549
  22   2.0000      -0.612570       -16.6689
  23   2.0000      -0.605932       -16.4883
  24   2.0000      -0.600011       -16.3271
  25   2.0000      -0.577078       -15.7031
  26   2.0000      -0.527961       -14.3665
  27   2.0000      -0.514453       -13.9990
  28   2.0000      -0.508615       -13.8401
  29   2.0000      -0.496810       -13.5189
  30   2.0000      -0.478571       -13.0226
  31   2.0000      -0.461386       -12.5549
  32   2.0000      -0.450427       -12.2567
  33   2.0000      -0.442518       -12.0415
  34   2.0000      -0.428412       -11.6577
  35   2.0000      -0.420875       -11.4526
  36   2.0000      -0.412426       -11.2227
  37   2.0000      -0.394736       -10.7413
  38   2.0000      -0.390074       -10.6144
  39   2.0000      -0.375545       -10.2191
  40   2.0000      -0.369060       -10.0426
  41   2.0000      -0.356660        -9.7052
  42   2.0000      -0.352637        -9.5957
  43   2.0000      -0.334633        -9.1058
  44   2.0000      -0.320875        -8.7315
  45   2.0000      -0.307079        -8.3560
  46   2.0000      -0.293817        -7.9952
  47   2.0000      -0.282117        -7.6768
  48   2.0000      -0.266639        -7.2556
  49   2.0000      -0.261018        -7.1027
  50   2.0000      -0.243867        -6.6360
  51   0.0000       0.056047         1.5251
  52   0.0000       0.063202         1.7198
  53   0.0000       0.085292         2.3209
  54   0.0000       0.090542         2.4638
  55   0.0000       0.100835         2.7438

MULLIKEN ATOMIC CHARGES
-----------------------
   0 C :    0.315205
   1 C :   -0.295903
   2 C :   -0.318585
   3 C :   -0.012944
   4 O :   -0.497346
   5 H :    0.167395
   6 H :    0.163222
   7 H :    0.150235
   8 H :    0.148307
   9 H :    0.152224
  10 H :    0.144856
  11 H :    0.150894
  12 C :   -0.015752
  13 H :    0.122416
  14 H :    0.164886
  15 O :   -0.530596
  16 C :    0.067194
  17 C :    0.065811
  18 C :   -0.305948
  19 C :   -0.029261
  20 O :   -0.527929
  21 H :    0.172397
  22 O :   -0.599459
  23 H :    0.189089
  24 H :    0.163749
  25 H :    0.140299
  26 H :    0.142792
  27 H :    0.148911
  28 H :    0.363843
Sum of atomic charges:   -0.0000000

LOEWDIN ATOMIC CHARGES
----------------------
   0 C :    0.178256
   1 C :   -0.229697
   2 C :   -0.223502
   3 C :   -0.034288
   4 O :   -0.317005
   5 H :    0.110503
   6 H :    0.126183
   7 H :    0.117946
   8 H :    0.117765
   9 H :    0.103990
  10 H :    0.101889
  11 H :    0.106795
  12 C :   -0.035410
  13 H :    0.092409
  14 H :    0.116510
  15 O :   -0.326839
  16 C :    0.011272
  17 C :    0.034700
  18 C :   -0.245540
  19 C :   -0.037686
  20 O :   -0.331090
  21 H :    0.119965
  22 O :   -0.410923
  23 H :    0.131086
  24 H :    0.127268
  25 H :    0.108126
  26 H :    0.102045
  27 H :    0.103551
  28 H :    0.281720

  Mayer bond orders larger than 0.100000
B(  0-C ,  1-C ) :   0.9231 B(  0-C ,  4-O ) :   0.8984 B(  0-C ,  5-H ) :   0.9358
B(  0-C , 15-O ) :   0.8948 B(  1-C ,  2-C ) :   0.9506 B(  1-C ,  6-H ) :   0.9342
B(  1-C ,  7-H ) :   0.9337 B(  2-C ,  3-C ) :   0.9498 B(  2-C ,  8-H ) :   0.9449
B(  2-C ,  9-H ) :   0.9227 B(  3-C ,  4-O ) :   0.8470 B(  3-C , 10-H ) :   0.9266
B(  3-C , 11-H ) :   0.9385 B( 12-C , 13-H ) :   0.9181 B( 12-C , 14-H ) :   0.9281
B( 12-C , 15-O ) :   0.8293 B( 12-C , 16-C ) :   0.8933 B( 16-C , 17-C ) :   0.9101
B( 16-C , 20-O ) :   0.8338 B( 16-C , 21-H ) :   0.9234 B( 17-C , 18-C ) :   0.9126
B( 17-C , 22-O ) :   0.8874 B( 17-C , 23-H ) :   0.9115 B( 18-C , 19-C ) :   0.9412
B( 18-C , 24-H ) :   0.9371 B( 18-C , 25-H ) :   0.9168 B( 19-C , 20-O ) :   0.8455
B( 19-C , 26-H ) :   0.9358 B( 19-C , 27-H ) :   0.9378 B( 22-O , 28-H ) :   0.7938

FINAL SINGLE POINT ENERGY      -652.850103671451

DIPOLE MOMENT
-------------
                                X             Y             Z
Electronic contribution:     -5.48019      -4.42201       0.52173
Nuclear contribution   :      6.68006       5.81427      -1.14531
                        -----------------------------------------
Total Dipole Moment    :      1.19987       1.39225      -0.62358
                        -----------------------------------------
Magnitude (a.u.)       :      1.94085
Magnitude (Debye)      :      4.93325

Rotational constants in cm-1:     0.043438     0.017225     0.016479
Rotational constants in MHz :  1302.248818   516.392724   494.028357

                             ****ORCA TERMINATED NORMALLY****
TOTAL RUN TIME: 0 days 0 hours 44 minutes 16 seconds 813 msec
