                         Program Version 4.2.1 -  RELEASE  -
|  1> # Test redundant internal optimization
|  2> #
|  3> ! RKS B3LYP  Opt TightSCF SmallPrint
|  4>
|  5> %basis
|  6>         Basis "6-31G"
|  7> end
|  8>
|  9> %geom
| 10> Constraints
| 11> { D 4  0  19  14  105.0   C } # D for Dihedral angle
| 12> { D 0  19  14  12  120.0   C } # D for Dihedral angle
| 13> { D 0  4  3  2   C } # D for Dihedral angle
| 14> { D 4  3  2  1   C } # D for Dihedral angle
| 15> { D 3  2  1  0   C } # D for Dihedral angle
| 16> { D 2  1  0  4   C } # D for Dihedral angle
| 17> { D 1  0  4  3   C } # D for Dihedral angle
| 18> { D 14  15  16  17   C } # D for Dihedral angle
| 19> { D 15  16  17  12   C } # D for Dihedral angle
| 20> { D 16  17  12  14   C } # D for Dihedral angle
| 21> { D 17  12  14  15   C } # D for Dihedral angle
| 22> { D 12  14  15  16   C } # D for Dihedral angle
| 23> end
| 24> end
| 25>
| 26>
| 27> #%pal
| 28> #nprocs 8
| 29> #end
| 30>
| 31> * xyz 0 1
| 32> C  -21.048   26.222   46.251
| 33> C  -20.361   27.558   45.944
| 34> C  -20.329   28.222   47.341
| 35> C  -20.110   27.022   48.296
| 36> O  -20.473   25.807   47.535
| 37> H  -20.833   25.428   45.533
| 38> H  -19.344   27.382   45.576
| 39> H  -20.898   28.157   45.201
| 40> H  -19.543   28.978   47.434
| 41> H  -21.289   28.710   47.548
| 42> H  -20.733   27.082   49.195
| 43> H  -19.064   26.913   48.597
| 44> C  -23.858   28.029   45.232
| 45> H  -23.980   29.111   45.067
| 46> C  -22.914   27.747   46.406
| 47> C  -23.842   27.986   47.620
| 48> C  -25.217   27.477   47.118
| 49> O  -25.133   27.428   45.641
| 50> H  -23.568   27.554   44.294
| 51> O  -22.472   26.381   46.366
| 52> H  -22.031   28.396   46.413
| 53> H  -23.507   27.462   48.521
| 54> H  -23.889   29.057   47.855
| 55> H  -26.041   28.137   47.408
| 56> H  -25.438   26.462   47.462
| 57> *
| 58>
| 59>                          ****END OF INPUT****
 Total Charge           Charge          ....    0
 Multiplicity           Mult            ....    1
 Number of Electrons    NEL             ....   86
FINAL SINGLE POINT ENERGY      -538.388681218654
FINAL SINGLE POINT ENERGY      -538.420195402133
FINAL SINGLE POINT ENERGY      -538.422519767066
FINAL SINGLE POINT ENERGY      -538.422924902774
FINAL SINGLE POINT ENERGY      -538.422942452060
FINAL SINGLE POINT ENERGY      -538.422946175175
                    ***********************HURRAY********************

CARTESIAN COORDINATES (ANGSTROEM)
---------------------------------
  C    -21.097113   26.343872   46.361530
  C    -20.152961   27.484493   45.953655
  C    -19.905258   28.206978   47.311727
  C    -19.905112   27.026396   48.317182
  O    -20.561888   25.895128   47.627355
  H    -21.035560   25.471935   45.708604
  H    -19.222614   27.043980   45.582538
  H    -20.557355   28.137426   45.175010
  H    -18.955566   28.750957   47.320999
  H    -20.698060   28.924089   47.541231
  H    -20.449596   27.250295   49.239476
  H    -18.893166   26.699188   48.573029
  C    -24.029922   28.108234   45.230440
  H    -24.293938   29.167607   45.087233
  C    -23.116910   27.939967   46.445039
  C    -24.128795   27.996477   47.608083
  C    -25.379770   27.298807   47.022954
  O    -25.211206   27.309669   45.553002
  H    -23.601212   27.706048   44.311262
  O    -22.514845   26.613046   46.416605
  H    -22.365938   28.731390   46.502291
  H    -23.737318   27.491891   48.493850
  H    -24.341782   29.041668   47.861055
  H    -26.309963   27.816444   47.281709
  H    -25.449154   26.252016   47.328139

 Multiplicity           Mult            ....    1
 Number of Electrons    NEL             ....   86
 Basis Dimension        Dim             ....  127

ORBITAL ENERGIES
----------------

  NO   OCC          E(Eh)            E(eV)
   0   2.0000     -19.139103      -520.8015
   1   2.0000     -19.138881      -520.7954
   2   2.0000     -19.125360      -520.4275
   3   2.0000     -10.280742      -279.7532
   4   2.0000     -10.243025      -278.7269
   5   2.0000     -10.229792      -278.3668
   6   2.0000     -10.220905      -278.1250
   7   2.0000     -10.217057      -278.0203
   8   2.0000     -10.197876      -277.4983
   9   2.0000     -10.197486      -277.4877
  10   2.0000     -10.184205      -277.1263
  11   2.0000      -1.050617       -28.5887
  12   2.0000      -1.013425       -27.5767
  13   2.0000      -0.989833       -26.9347
  14   2.0000      -0.792607       -21.5679
  15   2.0000      -0.785802       -21.3828
  16   2.0000      -0.740007       -20.1366
  17   2.0000      -0.725076       -19.7303
  18   2.0000      -0.622440       -16.9374
  19   2.0000      -0.607405       -16.5283
  20   2.0000      -0.596139       -16.2218
  21   2.0000      -0.565031       -15.3753
  22   2.0000      -0.528114       -14.3707
  23   2.0000      -0.506123       -13.7723
  24   2.0000      -0.485727       -13.2173
  25   2.0000      -0.480596       -13.0777
  26   2.0000      -0.451598       -12.2886
  27   2.0000      -0.449683       -12.2365
  28   2.0000      -0.425512       -11.5788
  29   2.0000      -0.423875       -11.5342
  30   2.0000      -0.409089       -11.1319
  31   2.0000      -0.389040       -10.5863
  32   2.0000      -0.371999       -10.1226
  33   2.0000      -0.368411       -10.0250
  34   2.0000      -0.365985        -9.9589
  35   2.0000      -0.363562        -9.8930
  36   2.0000      -0.350050        -9.5253
  37   2.0000      -0.315903        -8.5962
  38   2.0000      -0.302454        -8.2302
  39   2.0000      -0.289089        -7.8665
  40   2.0000      -0.267101        -7.2682
  41   2.0000      -0.252305        -6.8656
  42   2.0000      -0.230390        -6.2692
  43   0.0000       0.067435         1.8350
  44   0.0000       0.090191         2.4542
  45   0.0000       0.096122         2.6156
  46   0.0000       0.109024         2.9667
  47   0.0000       0.113125         3.0783

MULLIKEN ATOMIC CHARGES
-----------------------
   0 C :    0.315049
   1 C :   -0.301954
   2 C :   -0.314636
   3 C :   -0.005273
   4 O :   -0.497310
   5 H :    0.165294
   6 H :    0.160478
   7 H :    0.147550
   8 H :    0.147266
   9 H :    0.151804
  10 H :    0.144576
  11 H :    0.146643
  12 C :    0.019625
  13 H :    0.118075
  14 C :    0.050668
  15 C :   -0.279274
  16 C :    0.006701
  17 O :   -0.519553
  18 H :    0.153001
  19 O :   -0.520605
  20 H :    0.125946
  21 H :    0.161352
  22 H :    0.134668
  23 H :    0.130713
  24 H :    0.159196
Sum of atomic charges:   -0.0000000

LOEWDIN ATOMIC CHARGES
----------------------
   0 C :    0.179825
   1 C :   -0.232969
   2 C :   -0.223998
   3 C :   -0.031801
   4 O :   -0.317828
   5 H :    0.111141
   6 H :    0.125501
   7 H :    0.115312
   8 H :    0.116571
   9 H :    0.107774
  10 H :    0.102933
  11 H :    0.104406
  12 C :   -0.039370
  13 H :    0.088149
  14 C :    0.034210
  15 C :   -0.226687
  16 C :   -0.025468
  17 O :   -0.328606
  18 H :    0.115803
  19 O :   -0.317245
  20 H :    0.098084
  21 H :    0.127280
  22 H :    0.109074
  23 H :    0.096400
  24 H :    0.111509

  Mayer bond orders larger than 0.100000
B(  0-C ,  1-C ) :   0.9264 B(  0-C ,  4-O ) :   0.9044 B(  0-C ,  5-H ) :   0.9337
B(  0-C , 19-O ) :   0.8960 B(  1-C ,  2-C ) :   0.9517 B(  1-C ,  6-H ) :   0.9341
B(  1-C ,  7-H ) :   0.9323 B(  2-C ,  3-C ) :   0.9459 B(  2-C ,  8-H ) :   0.9453
B(  2-C ,  9-H ) :   0.9367 B(  3-C ,  4-O ) :   0.8513 B(  3-C , 10-H ) :   0.9339
B(  3-C , 11-H ) :   0.9390 B( 12-C , 13-H ) :   0.9119 B( 12-C , 14-C ) :   0.9245
B( 12-C , 17-O ) :   0.8767 B( 12-C , 18-H ) :   0.9342 B( 14-C , 15-C ) :   0.9468
B( 14-C , 19-O ) :   0.8251 B( 14-C , 20-H ) :   0.9052 B( 15-C , 16-C ) :   0.9493
B( 15-C , 21-H ) :   0.9385 B( 15-C , 22-H ) :   0.9395 B( 16-C , 17-O ) :   0.8542
B( 16-C , 23-H ) :   0.9341 B( 16-C , 24-H ) :   0.9353

FINAL SINGLE POINT ENERGY      -538.422944975380

DIPOLE MOMENT
-------------
                                X             Y             Z
Electronic contribution:     -2.04966      -4.58402      -1.57273
Nuclear contribution   :      3.09986       6.10654       1.89676
                        -----------------------------------------
Total Dipole Moment    :      1.05021       1.52252       0.32403
                        -----------------------------------------
Magnitude (a.u.)       :      1.87776
Magnitude (Debye)      :      4.77290

Rotational constants in cm-1:     0.080471     0.021075     0.020268
Rotational constants in MHz :  2412.463728   631.820553   607.606235

                             ****ORCA TERMINATED NORMALLY****
TOTAL RUN TIME: 0 days 0 hours 7 minutes 28 seconds 928 msec
