                         Program Version 4.2.0 -  RELEASE  -
|  1> # Test redundant internal optimization
|  2> #
|  3> ! RKS B3LYP  Opt TightSCF SmallPrint
|  4>
|  5> %basis
|  6>         Basis "6-31G"
|  7> end
|  8>
|  9> %geom
| 10> Constraints
| 11> { D 4  0  15  12  300.0   C } # D for Dihedral angle
| 12> { D 0  15  12  16  0.0   C } # D for Dihedral angle
| 13> { D 0  4  3  2   C } # D for Dihedral angle
| 14> { D 4  3  2  1   C } # D for Dihedral angle
| 15> { D 3  2  1  0   C } # D for Dihedral angle
| 16> { D 2  1  0  4   C } # D for Dihedral angle
| 17> { D 1  0  4  3   C } # D for Dihedral angle
| 18> { D 16  20  19  18   C } # D for Dihedral angle
| 19> { D 20  19  18  17   C } # D for Dihedral angle
| 20> { D 19  18  17  16   C } # D for Dihedral angle
| 21> { D 18  17  16  20   C } # D for Dihedral angle
| 22> { D 17  16  20  19   C } # D for Dihedral angle
| 23> { D 15  12  16  20   C } # D for Dihedral angle
| 24> end
| 25> end
| 26>
| 27>
| 28> #%pal
| 29> #nprocs 8
| 30> #end
| 31>
| 32> * xyz 0 1
| 33> C  -21.048   26.222   46.251
| 34> C  -20.361   27.558   45.944
| 35> C  -20.329   28.222   47.341
| 36> C  -20.110   27.022   48.296
| 37> O  -20.473   25.807   47.535
| 38> H  -20.833   25.428   45.533
| 39> H  -19.344   27.382   45.576
| 40> H  -20.898   28.157   45.201
| 41> H  -19.543   28.978   47.434
| 42> H  -21.289   28.710   47.548
| 43> H  -20.733   27.082   49.195
| 44> H  -19.064   26.913   48.597
| 45> C  -23.362   25.116   46.798
| 46> H  -23.900   25.312   47.733
| 47> H  -24.097   24.842   46.030
| 48> O  -22.586   26.394   46.375
| 49> C  -22.429   23.893   47.018
| 50> C  -23.236   22.625   47.320
| 51> C  -23.705   22.208   45.906
| 52> C  -22.510   22.609   45.006
| 53> O  -21.703   23.573   45.784
| 54> H  -21.682   24.144   47.773
| 55> O  -22.311   21.539   47.934
| 56> H  -24.069   22.800   48.010
| 57> H  -23.942   21.141   45.835
| 58> H  -24.604   22.770   45.626
| 59> H  -22.829   23.082   44.070
| 60> H  -21.860   21.761   44.771
| 61> H  -21.469   21.347   47.259
| 62> *
| 63>
| 64>                          ****END OF INPUT****
 Total Charge           Charge          ....    0
 Multiplicity           Mult            ....    1
 Number of Electrons    NEL             ....  102
FINAL SINGLE POINT ENERGY      -652.832525331044
FINAL SINGLE POINT ENERGY      -652.855687391169
FINAL SINGLE POINT ENERGY      -652.859675510154
FINAL SINGLE POINT ENERGY      -652.862538891927
FINAL SINGLE POINT ENERGY      -652.862838634566
FINAL SINGLE POINT ENERGY      -652.862896388531
FINAL SINGLE POINT ENERGY      -652.862900940203
                    ***********************HURRAY********************

CARTESIAN COORDINATES (ANGSTROEM)
---------------------------------
  C    -20.934232   26.240111   46.213989
  C    -20.456630   27.674912   45.979554
  C    -20.453344   28.244149   47.416960
  C    -20.026010   27.031791   48.275745
  O    -20.255372   25.830495   47.432026
  H    -20.663185   25.497795   45.464113
  H    -19.445118   27.650658   45.558586
  H    -21.114989   28.220326   45.300599
  H    -19.773364   29.093671   47.533677
  H    -21.463216   28.568269   47.683277
  H    -20.605966   26.935953   49.197976
  H    -18.960048   27.041498   48.522740
  C    -23.144307   25.122541   46.747664
  H    -23.666288   25.375390   47.680112
  H    -23.899229   24.995702   45.961867
  O    -22.369475   26.304471   46.372352
  C    -22.382539   23.813577   46.967277
  C    -23.299258   22.622797   47.294589
  C    -23.778597   22.196194   45.880248
  C    -22.536984   22.468590   44.992814
  O    -21.663296   23.391695   45.756316
  H    -21.617534   23.958979   47.731215
  O    -22.554206   21.561868   47.951455
  H    -24.118557   22.865983   47.972420
  H    -24.082411   21.146679   45.876897
  H    -24.634738   22.804804   45.567935
  H    -22.794766   22.930522   44.034926
  H    -21.955141   21.562447   44.797714
  H    -21.670201   21.485134   47.533957

 Multiplicity           Mult            ....    1
 Number of Electrons    NEL             ....  102
 Basis Dimension        Dim             ....  149

ORBITAL ENERGIES
----------------

  NO   OCC          E(Eh)            E(eV)
   0   2.0000     -19.144524      -520.9490
   1   2.0000     -19.138247      -520.7782
   2   2.0000     -19.135104      -520.6926
   3   2.0000     -19.134671      -520.6809
   4   2.0000     -10.266341      -279.3613
   5   2.0000     -10.243642      -278.7437
   6   2.0000     -10.231855      -278.4229
   7   2.0000     -10.230215      -278.3783
   8   2.0000     -10.229891      -278.3695
   9   2.0000     -10.220487      -278.1136
  10   2.0000     -10.190350      -277.2935
  11   2.0000     -10.179501      -276.9983
  12   2.0000     -10.178216      -276.9633
  13   2.0000      -1.046181       -28.4680
  14   2.0000      -1.034647       -28.1542
  15   2.0000      -1.006098       -27.3773
  16   2.0000      -0.984058       -26.7776
  17   2.0000      -0.787955       -21.4414
  18   2.0000      -0.779460       -21.2102
  19   2.0000      -0.762516       -20.7491
  20   2.0000      -0.728628       -19.8270
  21   2.0000      -0.671312       -18.2673
  22   2.0000      -0.604680       -16.4542
  23   2.0000      -0.600483       -16.3400
  24   2.0000      -0.592083       -16.1114
  25   2.0000      -0.566565       -15.4170
  26   2.0000      -0.523882       -14.2556
  27   2.0000      -0.507669       -13.8144
  28   2.0000      -0.493678       -13.4337
  29   2.0000      -0.477696       -12.9988
  30   2.0000      -0.474746       -12.9185
  31   2.0000      -0.456498       -12.4219
  32   2.0000      -0.445205       -12.1146
  33   2.0000      -0.439327       -11.9547
  34   2.0000      -0.414311       -11.2740
  35   2.0000      -0.406266       -11.0551
  36   2.0000      -0.395930       -10.7738
  37   2.0000      -0.393848       -10.7171
  38   2.0000      -0.376605       -10.2479
  39   2.0000      -0.367058        -9.9882
  40   2.0000      -0.361317        -9.8319
  41   2.0000      -0.351153        -9.5554
  42   2.0000      -0.342106        -9.3092
  43   2.0000      -0.333515        -9.0754
  44   2.0000      -0.321578        -8.7506
  45   2.0000      -0.310904        -8.4601
  46   2.0000      -0.290777        -7.9124
  47   2.0000      -0.273796        -7.4504
  48   2.0000      -0.261044        -7.1034
  49   2.0000      -0.246018        -6.6945
  50   2.0000      -0.239418        -6.5149
  51   0.0000       0.065942         1.7944
  52   0.0000       0.086437         2.3521
  53   0.0000       0.090674         2.4674
  54   0.0000       0.101027         2.7491
  55   0.0000       0.104995         2.8571

MULLIKEN ATOMIC CHARGES
-----------------------
   0 C :    0.289220
   1 C :   -0.260733
   2 C :   -0.296342
   3 C :   -0.006495
   4 O :   -0.518995
   5 H :    0.181945
   6 H :    0.144039
   7 H :    0.156354
   8 H :    0.137441
   9 H :    0.159302
  10 H :    0.140672
  11 H :    0.142792
  12 C :    0.025899
  13 H :    0.136833
  14 H :    0.137467
  15 O :   -0.548127
  16 C :    0.022368
  17 C :    0.077715
  18 C :   -0.291920
  19 C :   -0.031312
  20 O :   -0.523953
  21 H :    0.203612
  22 O :   -0.601799
  23 H :    0.152868
  24 H :    0.162640
  25 H :    0.141730
  26 H :    0.148288
  27 H :    0.150079
  28 H :    0.368411
Sum of atomic charges:   -0.0000000

LOEWDIN ATOMIC CHARGES
----------------------
   0 C :    0.171745
   1 C :   -0.213284
   2 C :   -0.215933
   3 C :   -0.031098
   4 O :   -0.330781
   5 H :    0.114542
   6 H :    0.113401
   7 H :    0.124165
   8 H :    0.111566
   9 H :    0.117737
  10 H :    0.101557
  11 H :    0.102425
  12 C :   -0.035281
  13 H :    0.105082
  14 H :    0.101048
  15 O :   -0.333228
  16 C :   -0.003687
  17 C :    0.038722
  18 C :   -0.240383
  19 C :   -0.039306
  20 O :   -0.329622
  21 H :    0.134949
  22 O :   -0.413671
  23 H :    0.115927
  24 H :    0.126914
  25 H :    0.111774
  26 H :    0.105097
  27 H :    0.104120
  28 H :    0.285503

  Mayer bond orders larger than 0.100000
B(  0-C ,  1-C ) :   0.9439 B(  0-C ,  4-O ) :   0.8771 B(  0-C ,  5-H ) :   0.9047
B(  0-C , 15-O ) :   0.8469 B(  1-C ,  2-C ) :   0.9547 B(  1-C ,  6-H ) :   0.9411
B(  1-C ,  7-H ) :   0.9368 B(  2-C ,  3-C ) :   0.9559 B(  2-C ,  8-H ) :   0.9457
B(  2-C ,  9-H ) :   0.9446 B(  3-C ,  4-O ) :   0.8390 B(  3-C , 10-H ) :   0.9364
B(  3-C , 11-H ) :   0.9406 B( 12-C , 13-H ) :   0.9204 B( 12-C , 14-H ) :   0.9300
B( 12-C , 15-O ) :   0.8414 B( 12-C , 16-C ) :   0.9053 B( 16-C , 17-C ) :   0.8942
B( 16-C , 20-O ) :   0.8309 B( 16-C , 21-H ) :   0.8977 B( 17-C , 18-C ) :   0.9090
B( 17-C , 22-O ) :   0.8972 B( 17-C , 23-H ) :   0.9334 B( 18-C , 19-C ) :   0.9413
B( 18-C , 24-H ) :   0.9379 B( 18-C , 25-H ) :   0.9336 B( 19-C , 20-O ) :   0.8439
B( 19-C , 26-H ) :   0.9346 B( 19-C , 27-H ) :   0.9378 B( 22-O , 28-H ) :   0.7920

FINAL SINGLE POINT ENERGY      -652.862901920455

DIPOLE MOMENT
-------------
                                X             Y             Z
Electronic contribution:      0.78441      -3.03842       0.62592
Nuclear contribution   :     -1.09955       3.40237      -1.06143
                        -----------------------------------------
Total Dipole Moment    :     -0.31514       0.36395      -0.43552
                        -----------------------------------------
Magnitude (a.u.)       :      0.64919
Magnitude (Debye)      :      1.65010

Rotational constants in cm-1:     0.060230     0.014007     0.013185
Rotational constants in MHz :  1805.644681   419.920746   395.270953

                             ****ORCA TERMINATED NORMALLY****
TOTAL RUN TIME: 0 days 0 hours 23 minutes 28 seconds 930 msec
