                         Program Version 4.2.0 -  RELEASE  -
|  1> # Test redundant internal optimization
|  2> #
|  3> ! RKS B3LYP  Opt TightSCF SmallPrint
|  4>
|  5> %basis
|  6>         Basis "6-31G"
|  7> end
|  8>
|  9> %geom
| 10> Constraints
| 11> { D 4  0  15  12  225.0   C } # D for Dihedral angle
| 12> { D 0  15  12  16  165.0   C } # D for Dihedral angle
| 13> { D 0  4  3  2   C } # D for Dihedral angle
| 14> { D 4  3  2  1   C } # D for Dihedral angle
| 15> { D 3  2  1  0   C } # D for Dihedral angle
| 16> { D 2  1  0  4   C } # D for Dihedral angle
| 17> { D 1  0  4  3   C } # D for Dihedral angle
| 18> { D 16  20  19  18   C } # D for Dihedral angle
| 19> { D 20  19  18  17   C } # D for Dihedral angle
| 20> { D 19  18  17  16   C } # D for Dihedral angle
| 21> { D 18  17  16  20   C } # D for Dihedral angle
| 22> { D 17  16  20  19   C } # D for Dihedral angle
| 23> { D 15  12  16  20   C } # D for Dihedral angle
| 24> end
| 25> end
| 26>
| 27>
| 28> #%pal
| 29> #nprocs 8
| 30> #end
| 31>
| 32> * xyz 0 1
| 33> C  -21.048   26.222   46.251
| 34> C  -20.361   27.558   45.944
| 35> C  -20.329   28.222   47.341
| 36> C  -20.110   27.022   48.296
| 37> O  -20.473   25.807   47.535
| 38> H  -20.833   25.428   45.533
| 39> H  -19.344   27.382   45.576
| 40> H  -20.898   28.157   45.201
| 41> H  -19.543   28.978   47.434
| 42> H  -21.289   28.710   47.548
| 43> H  -20.733   27.082   49.195
| 44> H  -19.064   26.913   48.597
| 45> C  -23.415   25.773   45.218
| 46> H  -23.319   26.403   44.325
| 47> H  -23.041   24.771   44.972
| 48> O  -22.586   26.394   46.375
| 49> C  -24.925   25.642   45.564
| 50> C  -25.572   27.018   45.756
| 51> C  -25.789   27.471   44.293
| 52> C  -26.124   26.147   43.561
| 53> O  -25.659   25.052   44.439
| 54> H  -25.040   24.965   46.412
| 55> H  -26.533   26.912   46.274
| 56> O  -24.685   28.002   46.567
| 57> H  -26.584   28.216   44.192
| 58> H  -24.866   27.910   43.895
| 59> H  -25.623   26.066   42.591
| 60> H  -27.199   26.010   43.417
| 61> H  -23.718   28.123   46.067
| 62> *
| 63>
| 64>                          ****END OF INPUT****
 Total Charge           Charge          ....    0
 Multiplicity           Mult            ....    1
 Number of Electrons    NEL             ....  102
FINAL SINGLE POINT ENERGY      -652.830144909432
FINAL SINGLE POINT ENERGY      -652.854481948982
FINAL SINGLE POINT ENERGY      -652.860721877749
FINAL SINGLE POINT ENERGY      -652.863177007841
FINAL SINGLE POINT ENERGY      -652.864686844131
FINAL SINGLE POINT ENERGY      -652.865624301291
FINAL SINGLE POINT ENERGY      -652.866031208315
FINAL SINGLE POINT ENERGY      -652.866126661464
FINAL SINGLE POINT ENERGY      -652.866142110797
                    ***********************HURRAY********************

CARTESIAN COORDINATES (ANGSTROEM)
---------------------------------
  C    -21.086624   26.186349   46.192068
  C    -20.397333   27.515438   45.891742
  C    -20.471274   28.231157   47.261594
  C    -20.308403   27.072183   48.267190
  O    -20.611142   25.832474   47.497532
  H    -20.843218   25.359865   45.518537
  H    -19.356446   27.326079   45.605092
  H    -20.886273   28.072259   45.088011
  H    -19.695402   28.993868   47.376486
  H    -21.444194   28.718792   47.379216
  H    -20.996378   27.131203   49.113663
  H    -19.284315   26.966060   48.635423
  C    -23.303082   25.741495   45.135889
  H    -23.174352   26.318580   44.210643
  H    -22.955498   24.716201   44.961419
  O    -22.536875   26.354483   46.224009
  C    -24.773512   25.714180   45.564545
  C    -25.416615   27.095067   45.777022
  C    -25.726553   27.529223   44.314677
  C    -26.097283   26.199573   43.626636
  O    -25.568559   25.108123   44.499313
  H    -24.874202   25.073520   46.444497
  H    -26.357727   26.959139   46.322641
  O    -24.622988   28.055578   46.501980
  H    -26.531617   28.268247   44.273501
  H    -24.830124   27.985516   43.881698
  H    -25.663083   26.090504   42.627987
  H    -27.178325   26.045706   43.559226
  H    -23.711602   27.695137   46.616763

 Multiplicity           Mult            ....    1
 Number of Electrons    NEL             ....  102
 Basis Dimension        Dim             ....  149

ORBITAL ENERGIES
----------------

  NO   OCC          E(Eh)            E(eV)
   0   2.0000     -19.164063      -521.4807
   1   2.0000     -19.149997      -521.0979
   2   2.0000     -19.140875      -520.8497
   3   2.0000     -19.113521      -520.1054
   4   2.0000     -10.293235      -280.0932
   5   2.0000     -10.241721      -278.6914
   6   2.0000     -10.234859      -278.5047
   7   2.0000     -10.232538      -278.4415
   8   2.0000     -10.230787      -278.3939
   9   2.0000     -10.227510      -278.3047
  10   2.0000     -10.195943      -277.4457
  11   2.0000     -10.194310      -277.4013
  12   2.0000     -10.180044      -277.0131
  13   2.0000      -1.066100       -29.0101
  14   2.0000      -1.026547       -27.9338
  15   2.0000      -1.009186       -27.4613
  16   2.0000      -0.992539       -27.0084
  17   2.0000      -0.796524       -21.6745
  18   2.0000      -0.774454       -21.0740
  19   2.0000      -0.768780       -20.9196
  20   2.0000      -0.736863       -20.0511
  21   2.0000      -0.680315       -18.5123
  22   2.0000      -0.608325       -16.5534
  23   2.0000      -0.603432       -16.4202
  24   2.0000      -0.594493       -16.1770
  25   2.0000      -0.582283       -15.8447
  26   2.0000      -0.529845       -14.4178
  27   2.0000      -0.522788       -14.2258
  28   2.0000      -0.501298       -13.6410
  29   2.0000      -0.488774       -13.3002
  30   2.0000      -0.475067       -12.9272
  31   2.0000      -0.459414       -12.5013
  32   2.0000      -0.446727       -12.1561
  33   2.0000      -0.437497       -11.9049
  34   2.0000      -0.427860       -11.6427
  35   2.0000      -0.420529       -11.4432
  36   2.0000      -0.407692       -11.0939
  37   2.0000      -0.388826       -10.5805
  38   2.0000      -0.382667       -10.4129
  39   2.0000      -0.369648       -10.0586
  40   2.0000      -0.364992        -9.9319
  41   2.0000      -0.363136        -9.8814
  42   2.0000      -0.348738        -9.4896
  43   2.0000      -0.342804        -9.3282
  44   2.0000      -0.323957        -8.8153
  45   2.0000      -0.321143        -8.7388
  46   2.0000      -0.289632        -7.8813
  47   2.0000      -0.277554        -7.5526
  48   2.0000      -0.262622        -7.1463
  49   2.0000      -0.249949        -6.8015
  50   2.0000      -0.243220        -6.6183
  51   0.0000       0.052961         1.4411
  52   0.0000       0.077357         2.1050
  53   0.0000       0.091843         2.4992
  54   0.0000       0.095850         2.6082
  55   0.0000       0.101154         2.7526

MULLIKEN ATOMIC CHARGES
-----------------------
   0 C :    0.303058
   1 C :   -0.262131
   2 C :   -0.309056
   3 C :   -0.007375
   4 O :   -0.498250
   5 H :    0.148426
   6 H :    0.150589
   7 H :    0.149082
   8 H :    0.149310
   9 H :    0.167277
  10 H :    0.159984
  11 H :    0.147241
  12 C :   -0.011205
  13 H :    0.136100
  14 H :    0.159171
  15 O :   -0.557371
  16 C :    0.048818
  17 C :    0.115219
  18 C :   -0.301166
  19 C :   -0.023177
  20 O :   -0.520284
  21 H :    0.167091
  22 H :    0.148277
  23 O :   -0.648219
  24 H :    0.154325
  25 H :    0.142302
  26 H :    0.141317
  27 H :    0.151167
  28 H :    0.399481
Sum of atomic charges:   -0.0000000

LOEWDIN ATOMIC CHARGES
----------------------
   0 C :    0.181007
   1 C :   -0.223932
   2 C :   -0.217683
   3 C :   -0.026430
   4 O :   -0.306194
   5 H :    0.104117
   6 H :    0.117043
   7 H :    0.118754
   8 H :    0.118331
   9 H :    0.119819
  10 H :    0.112126
  11 H :    0.105600
  12 C :   -0.041411
  13 H :    0.094386
  14 H :    0.111474
  15 O :   -0.343336
  16 C :    0.018612
  17 C :    0.041890
  18 C :   -0.236796
  19 C :   -0.033048
  20 O :   -0.323376
  21 H :    0.119306
  22 H :    0.105330
  23 O :   -0.439574
  24 H :    0.121965
  25 H :    0.109782
  26 H :    0.101400
  27 H :    0.106793
  28 H :    0.284045

  Mayer bond orders larger than 0.100000
B(  0-C ,  1-C ) :   0.9410 B(  0-C ,  4-O ) :   0.9481 B(  0-C ,  5-H ) :   0.9201
B(  0-C , 15-O ) :   0.7946 B(  1-C ,  2-C ) :   0.9527 B(  1-C ,  6-H ) :   0.9343
B(  1-C ,  7-H ) :   0.9373 B(  2-C ,  3-C ) :   0.9526 B(  2-C ,  8-H ) :   0.9444
B(  2-C ,  9-H ) :   0.9416 B(  3-C ,  4-O ) :   0.8307 B(  3-C , 10-H ) :   0.9337
B(  3-C , 11-H ) :   0.9394 B( 12-C , 13-H ) :   0.9204 B( 12-C , 14-H ) :   0.9203
B( 12-C , 15-O ) :   0.7904 B( 12-C , 16-C ) :   0.9077 B( 16-C , 17-C ) :   0.9166
B( 16-C , 20-O ) :   0.8557 B( 16-C , 21-H ) :   0.9275 B( 17-C , 18-C ) :   0.9015
B( 17-C , 22-H ) :   0.9280 B( 17-C , 23-O ) :   0.9365 B( 18-C , 19-C ) :   0.9391
B( 18-C , 24-H ) :   0.9443 B( 18-C , 25-H ) :   0.9436 B( 19-C , 20-O ) :   0.8320
B( 19-C , 26-H ) :   0.9344 B( 19-C , 27-H ) :   0.9384 B( 23-O , 28-H ) :   0.7115

FINAL SINGLE POINT ENERGY      -652.866144550642

DIPOLE MOMENT
-------------
                                X             Y             Z
Electronic contribution:     -1.51579      -4.20931       2.02306
Nuclear contribution   :      2.44080       4.76454      -2.78226
                        -----------------------------------------
Total Dipole Moment    :      0.92501       0.55523      -0.75920
                        -----------------------------------------
Magnitude (a.u.)       :      1.31921
Magnitude (Debye)      :      3.35316

Rotational constants in cm-1:     0.059710     0.013243     0.012348
Rotational constants in MHz :  1790.062214   397.022703   370.171149

                             ****ORCA TERMINATED NORMALLY****
TOTAL RUN TIME: 0 days 1 hours 11 minutes 42 seconds 820 msec
