                         Program Version 4.2.0 -  RELEASE  -
|  1> # Test redundant internal optimization
|  2> #
|  3> ! RKS B3LYP  Opt TightSCF SmallPrint
|  4>
|  5> %basis
|  6>         Basis "6-31G"
|  7> end
|  8>
|  9> %geom
| 10> Constraints
| 11> { D 4  0  15  12  225.0   C } # D for Dihedral angle
| 12> { D 0  15  12  16  60.0   C } # D for Dihedral angle
| 13> { D 0  4  3  2   C } # D for Dihedral angle
| 14> { D 4  3  2  1   C } # D for Dihedral angle
| 15> { D 3  2  1  0   C } # D for Dihedral angle
| 16> { D 2  1  0  4   C } # D for Dihedral angle
| 17> { D 1  0  4  3   C } # D for Dihedral angle
| 18> { D 16  20  19  18   C } # D for Dihedral angle
| 19> { D 20  19  18  17   C } # D for Dihedral angle
| 20> { D 19  18  17  16   C } # D for Dihedral angle
| 21> { D 18  17  16  20   C } # D for Dihedral angle
| 22> { D 17  16  20  19   C } # D for Dihedral angle
| 23> { D 15  12  16  20   C } # D for Dihedral angle
| 24> end
| 25> end
| 26>
| 27>
| 28> #%pal
| 29> #nprocs 8
| 30> #end
| 31>
| 32> * xyz 0 1
| 33> C  -21.048   26.222   46.251
| 34> C  -20.361   27.558   45.944
| 35> C  -20.329   28.222   47.341
| 36> C  -20.110   27.022   48.296
| 37> O  -20.473   25.807   47.535
| 38> H  -20.833   25.428   45.533
| 39> H  -19.344   27.382   45.576
| 40> H  -20.898   28.157   45.201
| 41> H  -19.543   28.978   47.434
| 42> H  -21.289   28.710   47.548
| 43> H  -20.733   27.082   49.195
| 44> H  -19.064   26.913   48.597
| 45> C  -23.415   25.773   45.218
| 46> H  -24.482   25.957   45.398
| 47> H  -23.144   26.235   44.260
| 48> O  -22.586   26.394   46.375
| 49> C  -23.201   24.240   45.081
| 50> C  -23.715   23.494   46.317
| 51> C  -25.239   23.460   46.052
| 52> C  -25.325   23.308   44.512
| 53> O  -24.006   23.707   43.976
| 54> H  -22.155   24.046   44.837
| 55> O  -23.132   22.054   46.350
| 56> H  -23.458   23.991   47.259
| 57> H  -25.744   22.645   46.580
| 58> H  -25.697   24.402   46.374
| 59> H  -26.099   23.944   44.071
| 60> H  -25.499   22.274   44.204
| 61> H  -23.377   21.535   45.416
| 62> *
| 63>
| 64>                          ****END OF INPUT****
 Total Charge           Charge          ....    0
 Multiplicity           Mult            ....    1
 Number of Electrons    NEL             ....  102
FINAL SINGLE POINT ENERGY      -652.835211127233
FINAL SINGLE POINT ENERGY      -652.856911724086
FINAL SINGLE POINT ENERGY      -652.860485233786
FINAL SINGLE POINT ENERGY      -652.861079504428
FINAL SINGLE POINT ENERGY      -652.861170395728
FINAL SINGLE POINT ENERGY      -652.861178255360
                    ***********************HURRAY********************

CARTESIAN COORDINATES (ANGSTROEM)
---------------------------------
  C    -21.027430   26.161697   46.202501
  C    -20.354649   27.504685   45.924117
  C    -20.438563   28.196397   47.305469
  C    -20.261348   27.022159   48.291572
  O    -20.546175   25.791759   47.506869
  H    -20.759485   25.356358   45.516435
  H    -19.310720   27.338096   45.632363
  H    -20.855553   28.065623   45.130812
  H    -19.676779   28.970728   47.436178
  H    -21.424774   28.654221   47.425815
  H    -20.950491   27.062617   49.138669
  H    -19.236119   26.925920   48.660976
  C    -23.295367   25.765211   45.212960
  H    -24.314774   26.056613   45.476643
  H    -23.059826   26.211183   44.236048
  O    -22.470937   26.342952   46.265294
  C    -23.181398   24.240561   45.084158
  C    -23.657147   23.444636   46.307090
  C    -25.194410   23.474377   46.119671
  C    -25.368814   23.408615   44.582184
  O    -24.059252   23.795189   43.993140
  H    -22.168764   23.940963   44.802479
  O    -23.139052   22.085473   46.268972
  H    -23.315867   23.867971   47.250844
  H    -25.661140   22.632728   46.637332
  H    -25.610934   24.400575   46.529703
  H    -26.139472   24.089807   44.209444
  H    -25.593189   22.398652   44.225918
  H    -23.226571   21.734234   45.357342

 Multiplicity           Mult            ....    1
 Number of Electrons    NEL             ....  102
 Basis Dimension        Dim             ....  149

ORBITAL ENERGIES
----------------

  NO   OCC          E(Eh)            E(eV)
   0   2.0000     -19.146980      -521.0158
   1   2.0000     -19.143404      -520.9185
   2   2.0000     -19.139075      -520.8007
   3   2.0000     -19.134072      -520.6646
   4   2.0000     -10.280006      -279.7332
   5   2.0000     -10.235023      -278.5091
   6   2.0000     -10.234501      -278.4949
   7   2.0000     -10.233493      -278.4675
   8   2.0000     -10.232556      -278.4420
   9   2.0000     -10.223713      -278.2014
  10   2.0000     -10.187161      -277.2068
  11   2.0000     -10.185110      -277.1509
  12   2.0000     -10.184615      -277.1375
  13   2.0000      -1.052418       -28.6377
  14   2.0000      -1.036173       -28.1957
  15   2.0000      -1.003744       -27.3133
  16   2.0000      -0.994373       -27.0583
  17   2.0000      -0.787127       -21.4188
  18   2.0000      -0.778105       -21.1733
  19   2.0000      -0.766174       -20.8487
  20   2.0000      -0.733664       -19.9640
  21   2.0000      -0.675585       -18.3836
  22   2.0000      -0.606743       -16.5103
  23   2.0000      -0.602092       -16.3837
  24   2.0000      -0.597773       -16.2662
  25   2.0000      -0.571564       -15.5531
  26   2.0000      -0.521993       -14.2041
  27   2.0000      -0.520728       -14.1697
  28   2.0000      -0.494740       -13.4626
  29   2.0000      -0.486889       -13.2489
  30   2.0000      -0.467099       -12.7104
  31   2.0000      -0.460851       -12.5404
  32   2.0000      -0.453737       -12.3468
  33   2.0000      -0.434462       -11.8223
  34   2.0000      -0.424343       -11.5469
  35   2.0000      -0.412811       -11.2332
  36   2.0000      -0.400988       -10.9114
  37   2.0000      -0.391871       -10.6634
  38   2.0000      -0.373550       -10.1648
  39   2.0000      -0.368011       -10.0141
  40   2.0000      -0.362716        -9.8700
  41   2.0000      -0.356023        -9.6879
  42   2.0000      -0.352140        -9.5822
  43   2.0000      -0.332829        -9.0567
  44   2.0000      -0.314337        -8.5535
  45   2.0000      -0.311522        -8.4769
  46   2.0000      -0.304105        -8.2751
  47   2.0000      -0.271015        -7.3747
  48   2.0000      -0.265064        -7.2128
  49   2.0000      -0.255826        -6.9614
  50   2.0000      -0.238806        -6.4982
  51   0.0000       0.064009         1.7418
  52   0.0000       0.075069         2.0427
  53   0.0000       0.092421         2.5149
  54   0.0000       0.097574         2.6551
  55   0.0000       0.101705         2.7675

MULLIKEN ATOMIC CHARGES
-----------------------
   0 C :    0.280320
   1 C :   -0.253163
   2 C :   -0.299716
   3 C :   -0.001646
   4 O :   -0.501489
   5 H :    0.145448
   6 H :    0.143388
   7 H :    0.145302
   8 H :    0.141285
   9 H :    0.162989
  10 H :    0.152444
  11 H :    0.142069
  12 C :   -0.010498
  13 H :    0.150903
  14 H :    0.141560
  15 O :   -0.519497
  16 C :    0.039800
  17 C :    0.092391
  18 C :   -0.299776
  19 C :   -0.030229
  20 O :   -0.530038
  21 H :    0.162009
  22 O :   -0.603337
  23 H :    0.183200
  24 H :    0.164598
  25 H :    0.147752
  26 H :    0.147294
  27 H :    0.145620
  28 H :    0.361018
Sum of atomic charges:   -0.0000000

LOEWDIN ATOMIC CHARGES
----------------------
   0 C :    0.174401
   1 C :   -0.222307
   2 C :   -0.216647
   3 C :   -0.025751
   4 O :   -0.310970
   5 H :    0.099819
   6 H :    0.112554
   7 H :    0.117216
   8 H :    0.113985
   9 H :    0.119642
  10 H :    0.108382
  11 H :    0.102597
  12 C :   -0.040640
  13 H :    0.113513
  14 H :    0.099771
  15 O :   -0.334121
  16 C :    0.001393
  17 C :    0.038478
  18 C :   -0.240638
  19 C :   -0.037921
  20 O :   -0.331635
  21 H :    0.111389
  22 O :   -0.414111
  23 H :    0.131168
  24 H :    0.127878
  25 H :    0.114932
  26 H :    0.104424
  27 H :    0.102855
  28 H :    0.280347

  Mayer bond orders larger than 0.100000
B(  0-C ,  1-C ) :   0.9379 B(  0-C ,  4-O ) :   0.9337 B(  0-C ,  5-H ) :   0.9146
B(  0-C , 15-O ) :   0.8289 B(  1-C ,  2-C ) :   0.9555 B(  1-C ,  6-H ) :   0.9357
B(  1-C ,  7-H ) :   0.9387 B(  2-C ,  3-C ) :   0.9548 B(  2-C ,  8-H ) :   0.9452
B(  2-C ,  9-H ) :   0.9435 B(  3-C ,  4-O ) :   0.8359 B(  3-C , 10-H ) :   0.9348
B(  3-C , 11-H ) :   0.9397 B( 12-C , 13-H ) :   0.9404 B( 12-C , 14-H ) :   0.9190
B( 12-C , 15-O ) :   0.8480 B( 12-C , 16-C ) :   0.8792 B( 16-C , 17-C ) :   0.9097
B( 16-C , 20-O ) :   0.8328 B( 16-C , 21-H ) :   0.9215 B( 17-C , 18-C ) :   0.9126
B( 17-C , 22-O ) :   0.8856 B( 17-C , 23-H ) :   0.9214 B( 18-C , 19-C ) :   0.9403
B( 18-C , 24-H ) :   0.9373 B( 18-C , 25-H ) :   0.9341 B( 19-C , 20-O ) :   0.8417
B( 19-C , 26-H ) :   0.9357 B( 19-C , 27-H ) :   0.9385 B( 22-O , 28-H ) :   0.7968

FINAL SINGLE POINT ENERGY      -652.861179995462

DIPOLE MOMENT
-------------
                                X             Y             Z
Electronic contribution:      0.26449      -4.15575      -0.79101
Nuclear contribution   :     -0.57736       5.06420       0.39577
                        -----------------------------------------
Total Dipole Moment    :     -0.31287       0.90845      -0.39524
                        -----------------------------------------
Magnitude (a.u.)       :      1.03893
Magnitude (Debye)      :      2.64075

Rotational constants in cm-1:     0.059821     0.012879     0.011854
Rotational constants in MHz :  1793.382509   386.100166   355.379916

                             ****ORCA TERMINATED NORMALLY****
TOTAL RUN TIME: 0 days 0 hours 15 minutes 26 seconds 579 msec
