                         Program Version 4.2.0 -  RELEASE  -
|  1> # Test redundant internal optimization
|  2> #
|  3> ! RKS B3LYP  Opt TightSCF SmallPrint
|  4>
|  5> %basis
|  6>         Basis "6-31G"
|  7> end
|  8>
|  9> %geom
| 10> Constraints
| 11> { D 4  0  15  12  240.0   C } # D for Dihedral angle
| 12> { D 0  15  12  16  105.0   C } # D for Dihedral angle
| 13> { D 0  4  3  2   C } # D for Dihedral angle
| 14> { D 4  3  2  1   C } # D for Dihedral angle
| 15> { D 3  2  1  0   C } # D for Dihedral angle
| 16> { D 2  1  0  4   C } # D for Dihedral angle
| 17> { D 1  0  4  3   C } # D for Dihedral angle
| 18> { D 16  20  19  18   C } # D for Dihedral angle
| 19> { D 20  19  18  17   C } # D for Dihedral angle
| 20> { D 19  18  17  16   C } # D for Dihedral angle
| 21> { D 18  17  16  20   C } # D for Dihedral angle
| 22> { D 17  16  20  19   C } # D for Dihedral angle
| 23> { D 15  12  16  20   C } # D for Dihedral angle
| 24> end
| 25> end
| 26>
| 27>
| 28> #%pal
| 29> #nprocs 8
| 30> #end
| 31>
| 32> * xyz 0 1
| 33> C  -21.048   26.222   46.251
| 34> C  -20.361   27.558   45.944
| 35> C  -20.329   28.222   47.341
| 36> C  -20.110   27.022   48.296
| 37> O  -20.473   25.807   47.535
| 38> H  -20.833   25.428   45.533
| 39> H  -19.344   27.382   45.576
| 40> H  -20.898   28.157   45.201
| 41> H  -19.543   28.978   47.434
| 42> H  -21.289   28.710   47.548
| 43> H  -20.733   27.082   49.195
| 44> H  -19.064   26.913   48.597
| 45> C  -23.430   25.483   45.442
| 46> H  -24.220   26.080   44.970
| 47> H  -22.801   25.058   44.649
| 48> O  -22.586   26.394   46.375
| 49> C  -24.097   24.302   46.200
| 50> C  -23.058   23.470   46.962
| 51> C  -22.820   24.343   48.217
| 52> C  -24.217   24.951   48.494
| 53> O  -24.995   24.805   47.245
| 54> H  -24.710   23.729   45.501
| 55> O  -23.663   22.096   47.357
| 56> H  -22.143   23.293   46.387
| 57> H  -22.439   23.768   49.068
| 58> H  -22.092   25.132   47.995
| 59> H  -24.167   26.011   48.765
| 60> H  -24.760   24.412   49.276
| 61> H  -24.581   22.248   47.934
| 62> *
| 63>
| 64>                          ****END OF INPUT****
 Total Charge           Charge          ....    0
 Multiplicity           Mult            ....    1
 Number of Electrons    NEL             ....  102
FINAL SINGLE POINT ENERGY      -652.827148602827
FINAL SINGLE POINT ENERGY      -652.850577780520
FINAL SINGLE POINT ENERGY      -652.860134461923
FINAL SINGLE POINT ENERGY      -652.862842816589
FINAL SINGLE POINT ENERGY      -652.863162343459
FINAL SINGLE POINT ENERGY      -652.863193653862
FINAL SINGLE POINT ENERGY      -652.863198353803
                    ***********************HURRAY********************

CARTESIAN COORDINATES (ANGSTROEM)
---------------------------------
  C    -20.980329   26.250688   46.230574
  C    -20.348669   27.593192   45.857894
  C    -20.366557   28.341306   47.213841
  C    -20.111430   27.211888   48.236266
  O    -20.416826   25.942682   47.523201
  H    -20.730716   25.417375   45.566380
  H    -19.319798   27.430556   45.515610
  H    -20.908507   28.106321   45.073535
  H    -19.612059   29.131500   47.270375
  H    -21.352296   28.788321   47.372118
  H    -20.751328   27.277464   49.119271
  H    -19.065504   27.147644   48.549478
  C    -23.264792   25.524221   45.521987
  H    -24.029918   26.171884   45.084142
  H    -22.680552   25.078390   44.701552
  O    -22.419148   26.412475   46.312911
  C    -23.989517   24.410544   46.283299
  C    -23.163241   23.349587   47.025893
  C    -22.903637   24.047956   48.386787
  C    -24.209523   24.845736   48.623436
  O    -24.883890   24.947614   47.307410
  H    -24.629612   23.912768   45.542091
  O    -23.928357   22.117345   47.160816
  H    -22.247528   23.057778   46.509587
  H    -22.715939   23.303700   49.166475
  H    -22.038677   24.708611   48.305727
  H    -24.019164   25.856000   48.995958
  H    -24.905278   24.339986   49.301928
  H    -24.811208   22.332468   47.529458

 Multiplicity           Mult            ....    1
 Number of Electrons    NEL             ....  102
 Basis Dimension        Dim             ....  149

ORBITAL ENERGIES
----------------

  NO   OCC          E(Eh)            E(eV)
   0   2.0000     -19.151234      -521.1316
   1   2.0000     -19.148210      -521.0493
   2   2.0000     -19.132686      -520.6268
   3   2.0000     -19.130079      -520.5559
   4   2.0000     -10.287827      -279.9460
   5   2.0000     -10.235386      -278.5190
   6   2.0000     -10.232166      -278.4314
   7   2.0000     -10.231618      -278.4165
   8   2.0000     -10.228902      -278.3426
   9   2.0000     -10.216796      -278.0132
  10   2.0000     -10.190608      -277.3005
  11   2.0000     -10.190378      -277.2943
  12   2.0000     -10.164987      -276.6034
  13   2.0000      -1.059356       -28.8265
  14   2.0000      -1.027746       -27.9664
  15   2.0000      -1.003031       -27.2939
  16   2.0000      -0.994618       -27.0649
  17   2.0000      -0.792760       -21.5721
  18   2.0000      -0.771885       -21.0041
  19   2.0000      -0.759314       -20.6620
  20   2.0000      -0.735880       -20.0243
  21   2.0000      -0.674084       -18.3427
  22   2.0000      -0.604968       -16.4620
  23   2.0000      -0.601194       -16.3593
  24   2.0000      -0.590297       -16.0628
  25   2.0000      -0.576440       -15.6857
  26   2.0000      -0.525035       -14.2869
  27   2.0000      -0.501857       -13.6562
  28   2.0000      -0.500562       -13.6210
  29   2.0000      -0.488725       -13.2989
  30   2.0000      -0.472909       -12.8685
  31   2.0000      -0.449548       -12.2328
  32   2.0000      -0.446872       -12.1600
  33   2.0000      -0.437212       -11.8971
  34   2.0000      -0.431793       -11.7497
  35   2.0000      -0.408073       -11.1042
  36   2.0000      -0.402140       -10.9428
  37   2.0000      -0.381828       -10.3901
  38   2.0000      -0.373641       -10.1673
  39   2.0000      -0.363535        -9.8923
  40   2.0000      -0.361765        -9.8441
  41   2.0000      -0.351660        -9.5692
  42   2.0000      -0.350162        -9.5284
  43   2.0000      -0.330204        -8.9853
  44   2.0000      -0.319326        -8.6893
  45   2.0000      -0.312095        -8.4925
  46   2.0000      -0.298529        -8.1234
  47   2.0000      -0.273817        -7.4509
  48   2.0000      -0.262217        -7.1353
  49   2.0000      -0.259512        -7.0617
  50   2.0000      -0.232110        -6.3160
  51   0.0000       0.066103         1.7988
  52   0.0000       0.081126         2.2075
  53   0.0000       0.088036         2.3956
  54   0.0000       0.106455         2.8968
  55   0.0000       0.111263         3.0276

MULLIKEN ATOMIC CHARGES
-----------------------
   0 C :    0.285757
   1 C :   -0.250818
   2 C :   -0.301716
   3 C :   -0.003458
   4 O :   -0.505516
   5 H :    0.142460
   6 H :    0.144153
   7 H :    0.152716
   8 H :    0.144638
   9 H :    0.167959
  10 H :    0.151315
  11 H :    0.146138
  12 C :   -0.014246
  13 H :    0.164476
  14 H :    0.118836
  15 O :   -0.515640
  16 C :    0.081385
  17 C :    0.068761
  18 C :   -0.319074
  19 C :   -0.023215
  20 O :   -0.527906
  21 H :    0.151088
  22 O :   -0.602550
  23 H :    0.145447
  24 H :    0.144528
  25 H :    0.209749
  26 H :    0.149414
  27 H :    0.133787
  28 H :    0.361530
Sum of atomic charges:   -0.0000000

LOEWDIN ATOMIC CHARGES
----------------------
   0 C :    0.173782
   1 C :   -0.218481
   2 C :   -0.216022
   3 C :   -0.026663
   4 O :   -0.315228
   5 H :    0.097653
   6 H :    0.113259
   7 H :    0.121625
   8 H :    0.115725
   9 H :    0.122129
  10 H :    0.107669
  11 H :    0.104563
  12 C :   -0.035685
  13 H :    0.119169
  14 H :    0.093872
  15 O :   -0.330245
  16 C :    0.005689
  17 C :    0.036339
  18 C :   -0.253936
  19 C :   -0.034126
  20 O :   -0.332266
  21 H :    0.114432
  22 O :   -0.417777
  23 H :    0.112495
  24 H :    0.117881
  25 H :    0.142271
  26 H :    0.106359
  27 H :    0.094385
  28 H :    0.281133

  Mayer bond orders larger than 0.100000
B(  0-C ,  1-C ) :   0.9433 B(  0-C ,  4-O ) :   0.9012 B(  0-C ,  5-H ) :   0.9166
B(  0-C , 15-O ) :   0.8483 B(  1-C ,  2-C ) :   0.9568 B(  1-C ,  6-H ) :   0.9362
B(  1-C ,  7-H ) :   0.9387 B(  2-C ,  3-C ) :   0.9547 B(  2-C ,  8-H ) :   0.9449
B(  2-C ,  9-H ) :   0.9426 B(  3-C ,  4-O ) :   0.8272 B(  3-C , 10-H ) :   0.9349
B(  3-C , 11-H ) :   0.9397 B( 12-C , 13-H ) :   0.9312 B( 12-C , 14-H ) :   0.9132
B( 12-C , 15-O ) :   0.8647 B( 12-C , 16-C ) :   0.8880 B( 16-C , 17-C ) :   0.9070
B( 16-C , 20-O ) :   0.8738 B( 16-C , 21-H ) :   0.9150 B( 17-C , 18-C ) :   0.9266
B( 17-C , 22-O ) :   0.8911 B( 17-C , 23-H ) :   0.9363 B( 18-C , 19-C ) :   0.9423
B( 18-C , 24-H ) :   0.9393 B( 18-C , 25-H ) :   0.8847 B( 19-C , 20-O ) :   0.8368
B( 19-C , 26-H ) :   0.9348 B( 19-C , 27-H ) :   0.9378 B( 22-O , 28-H ) :   0.7966

FINAL SINGLE POINT ENERGY      -652.863197578332

DIPOLE MOMENT
-------------
                                X             Y             Z
Electronic contribution:     -3.52256      -3.73693      -0.88219
Nuclear contribution   :      4.34669       4.75300       0.62437
                        -----------------------------------------
Total Dipole Moment    :      0.82413       1.01607      -0.25782
                        -----------------------------------------
Magnitude (a.u.)       :      1.33343
Magnitude (Debye)      :      3.38932

Rotational constants in cm-1:     0.052224     0.015457     0.014636
Rotational constants in MHz :  1565.649864   463.401924   438.779559

                             ****ORCA TERMINATED NORMALLY****
TOTAL RUN TIME: 0 days 0 hours 16 minutes 14 seconds 592 msec
