                         Program Version 4.2.0 -  RELEASE  -
|  1> # Test redundant internal optimization
|  2> #
|  3> ! RKS B3LYP  Opt TightSCF SmallPrint
|  4>
|  5> %basis
|  6>         Basis "6-31G"
|  7> end
|  8>
|  9> %geom
| 10> Constraints
| 11> { D 4  0  15  12  300.0   C } # D for Dihedral angle
| 12> { D 0  15  12  16  285.0   C } # D for Dihedral angle
| 13> { D 0  4  3  2   C } # D for Dihedral angle
| 14> { D 4  3  2  1   C } # D for Dihedral angle
| 15> { D 3  2  1  0   C } # D for Dihedral angle
| 16> { D 2  1  0  4   C } # D for Dihedral angle
| 17> { D 1  0  4  3   C } # D for Dihedral angle
| 18> { D 16  20  19  18   C } # D for Dihedral angle
| 19> { D 20  19  18  17   C } # D for Dihedral angle
| 20> { D 19  18  17  16   C } # D for Dihedral angle
| 21> { D 18  17  16  20   C } # D for Dihedral angle
| 22> { D 17  16  20  19   C } # D for Dihedral angle
| 23> { D 15  12  16  20   C } # D for Dihedral angle
| 24> end
| 25> end
| 26>
| 27>
| 28> #%pal
| 29> #nprocs 8
| 30> #end
| 31>
| 32> * xyz 0 1
| 33> C  -21.048   26.222   46.251
| 34> C  -20.361   27.558   45.944
| 35> C  -20.329   28.222   47.341
| 36> C  -20.110   27.022   48.296
| 37> O  -20.473   25.807   47.535
| 38> H  -20.833   25.428   45.533
| 39> H  -19.344   27.382   45.576
| 40> H  -20.898   28.157   45.201
| 41> H  -19.543   28.978   47.434
| 42> H  -21.289   28.710   47.548
| 43> H  -20.733   27.082   49.195
| 44> H  -19.064   26.913   48.597
| 45> C  -23.362   25.116   46.798
| 46> H  -22.840   24.637   47.635
| 47> H  -24.376   25.374   47.128
| 48> O  -22.586   26.394   46.375
| 49> C  -23.489   24.082   45.645
| 50> C  -24.356   22.889   46.061
| 51> C  -25.782   23.469   45.906
| 52> C  -25.649   24.407   44.680
| 53> O  -24.204   24.669   44.507
| 54> H  -22.491   23.814   45.292
| 55> H  -24.202   22.052   45.371
| 56> O  -24.062   22.394   47.504
| 57> H  -26.542   22.694   45.758
| 58> H  -26.056   24.040   46.801
| 59> H  -26.172   25.359   44.822
| 60> H  -26.005   23.941   43.757
| 61> H  -24.211   23.215   48.213
| 62> *
| 63>
| 64>                          ****END OF INPUT****
 Total Charge           Charge          ....    0
 Multiplicity           Mult            ....    1
 Number of Electrons    NEL             ....  102
FINAL SINGLE POINT ENERGY      -652.831360757527
FINAL SINGLE POINT ENERGY      -652.855862715799
FINAL SINGLE POINT ENERGY      -652.860761712403
FINAL SINGLE POINT ENERGY      -652.861619788068
FINAL SINGLE POINT ENERGY      -652.861764989845
FINAL SINGLE POINT ENERGY      -652.861780756238
FINAL SINGLE POINT ENERGY      -652.861782755526
                    ***********************HURRAY********************

CARTESIAN COORDINATES (ANGSTROEM)
---------------------------------
  C    -21.072811   26.158656   46.241790
  C    -20.450699   27.522071   45.939169
  C    -20.416496   28.169803   47.340989
  C    -20.128159   26.974837   48.276707
  O    -20.462020   25.755161   47.494073
  H    -20.848063   25.364517   45.525060
  H    -19.439379   27.377125   45.543138
  H    -21.041258   28.087479   45.215631
  H    -19.656557   28.953070   47.424784
  H    -21.393133   28.608324   47.564590
  H    -20.731554   26.987218   49.188057
  H    -19.071143   26.890664   48.546030
  C    -23.268814   25.201969   46.799044
  H    -22.776663   24.740399   47.664198
  H    -24.230758   25.622545   47.105802
  O    -22.495821   26.362201   46.370464
  C    -23.455010   24.155639   45.696829
  C    -24.320501   22.959089   46.129607
  C    -25.762991   23.517185   45.926612
  C    -25.605589   24.416248   44.680414
  O    -24.154318   24.693130   44.532521
  H    -22.477635   23.825010   45.333704
  H    -24.142035   22.121393   45.452007
  O    -24.046437   22.421387   47.443797
  H    -26.496224   22.718795   45.787040
  H    -26.060365   24.098310   46.809290
  H    -26.142103   25.366101   44.767444
  H    -25.929722   23.912855   43.764438
  H    -24.333742   23.045818   48.140772

 Multiplicity           Mult            ....    1
 Number of Electrons    NEL             ....  102
 Basis Dimension        Dim             ....  149

ORBITAL ENERGIES
----------------

  NO   OCC          E(Eh)            E(eV)
   0   2.0000     -19.148670      -521.0618
   1   2.0000     -19.140411      -520.8371
   2   2.0000     -19.138764      -520.7923
   3   2.0000     -19.135553      -520.7049
   4   2.0000     -10.273375      -279.5527
   5   2.0000     -10.244718      -278.7730
   6   2.0000     -10.229841      -278.3681
   7   2.0000     -10.229389      -278.3558
   8   2.0000     -10.225223      -278.2425
   9   2.0000     -10.223514      -278.1960
  10   2.0000     -10.194294      -277.4008
  11   2.0000     -10.182068      -277.0682
  12   2.0000     -10.180924      -277.0370
  13   2.0000      -1.051515       -28.6132
  14   2.0000      -1.032477       -28.0951
  15   2.0000      -1.014415       -27.6036
  16   2.0000      -0.989064       -26.9138
  17   2.0000      -0.786565       -21.4035
  18   2.0000      -0.780455       -21.2373
  19   2.0000      -0.762898       -20.7595
  20   2.0000      -0.730493       -19.8777
  21   2.0000      -0.677394       -18.4328
  22   2.0000      -0.610182       -16.6039
  23   2.0000      -0.601173       -16.3588
  24   2.0000      -0.594508       -16.1774
  25   2.0000      -0.563225       -15.3261
  26   2.0000      -0.530666       -14.4401
  27   2.0000      -0.508809       -13.8454
  28   2.0000      -0.496335       -13.5060
  29   2.0000      -0.488973       -13.3056
  30   2.0000      -0.467240       -12.7143
  31   2.0000      -0.452627       -12.3166
  32   2.0000      -0.440190       -11.9782
  33   2.0000      -0.432265       -11.7625
  34   2.0000      -0.426934       -11.6175
  35   2.0000      -0.418738       -11.3944
  36   2.0000      -0.402173       -10.9437
  37   2.0000      -0.399644       -10.8749
  38   2.0000      -0.376488       -10.2448
  39   2.0000      -0.367755       -10.0071
  40   2.0000      -0.354320        -9.6416
  41   2.0000      -0.353211        -9.6114
  42   2.0000      -0.343148        -9.3375
  43   2.0000      -0.333555        -9.0765
  44   2.0000      -0.326235        -8.8773
  45   2.0000      -0.312390        -8.5006
  46   2.0000      -0.293264        -7.9801
  47   2.0000      -0.272633        -7.4187
  48   2.0000      -0.268415        -7.3040
  49   2.0000      -0.252449        -6.8695
  50   2.0000      -0.234751        -6.3879
  51   0.0000       0.053286         1.4500
  52   0.0000       0.080457         2.1894
  53   0.0000       0.089266         2.4291
  54   0.0000       0.092862         2.5269
  55   0.0000       0.108027         2.9396

MULLIKEN ATOMIC CHARGES
-----------------------
   0 C :    0.280276
   1 C :   -0.260998
   2 C :   -0.299035
   3 C :   -0.004473
   4 O :   -0.515574
   5 H :    0.151436
   6 H :    0.144150
   7 H :    0.163435
   8 H :    0.140289
   9 H :    0.161798
  10 H :    0.143172
  11 H :    0.143290
  12 C :   -0.022412
  13 H :    0.153029
  14 H :    0.138187
  15 O :   -0.509490
  16 C :    0.074536
  17 C :    0.085378
  18 C :   -0.320429
  19 C :   -0.010253
  20 O :   -0.507278
  21 H :    0.158451
  22 H :    0.167542
  23 O :   -0.596906
  24 H :    0.159629
  25 H :    0.131352
  26 H :    0.147579
  27 H :    0.147216
  28 H :    0.356104
Sum of atomic charges:   -0.0000000

LOEWDIN ATOMIC CHARGES
----------------------
   0 C :    0.171101
   1 C :   -0.212779
   2 C :   -0.216584
   3 C :   -0.028441
   4 O :   -0.331795
   5 H :    0.097813
   6 H :    0.113638
   7 H :    0.127617
   8 H :    0.113004
   9 H :    0.118905
  10 H :    0.103236
  11 H :    0.103000
  12 C :   -0.056802
  13 H :    0.109025
  14 H :    0.106520
  15 O :   -0.314298
  16 C :    0.008156
  17 C :    0.035922
  18 C :   -0.241468
  19 C :   -0.029892
  20 O :   -0.318159
  21 H :    0.113459
  22 H :    0.119246
  23 O :   -0.404713
  24 H :    0.123384
  25 H :    0.103579
  26 H :    0.104397
  27 H :    0.105150
  28 H :    0.277780

  Mayer bond orders larger than 0.100000
B(  0-C ,  1-C ) :   0.9505 B(  0-C ,  4-O ) :   0.8921 B(  0-C ,  5-H ) :   0.9139
B(  0-C , 15-O ) :   0.8666 B(  1-C ,  2-C ) :   0.9553 B(  1-C ,  6-H ) :   0.9408
B(  1-C ,  7-H ) :   0.9348 B(  2-C ,  3-C ) :   0.9559 B(  2-C ,  8-H ) :   0.9453
B(  2-C ,  9-H ) :   0.9444 B(  3-C ,  4-O ) :   0.8371 B(  3-C , 10-H ) :   0.9364
B(  3-C , 11-H ) :   0.9406 B( 12-C , 13-H ) :   0.8982 B( 12-C , 14-H ) :   0.9409
B( 12-C , 15-O ) :   0.8593 B( 12-C , 16-C ) :   0.8885 B( 16-C , 17-C ) :   0.8729
B( 16-C , 20-O ) :   0.8673 B( 16-C , 21-H ) :   0.9276 B( 17-C , 18-C ) :   0.9207
B( 17-C , 22-H ) :   0.9328 B( 17-C , 23-O ) :   0.9026 B( 18-C , 19-C ) :   0.9393
B( 18-C , 24-H ) :   0.9416 B( 18-C , 25-H ) :   0.9423 B( 19-C , 20-O ) :   0.8478
B( 19-C , 26-H ) :   0.9311 B( 19-C , 27-H ) :   0.9384 B( 23-O , 28-H ) :   0.7966

FINAL SINGLE POINT ENERGY      -652.861782787337

DIPOLE MOMENT
-------------
                                X             Y             Z
Electronic contribution:      0.19193      -3.13368      -1.09059
Nuclear contribution   :     -0.71835       3.67270       1.46995
                        -----------------------------------------
Total Dipole Moment    :     -0.52642       0.53902       0.37936
                        -----------------------------------------
Magnitude (a.u.)       :      0.84355
Magnitude (Debye)      :      2.14413

Rotational constants in cm-1:     0.057545     0.013020     0.011536
Rotational constants in MHz :  1725.162508   390.317123   345.851509

                             ****ORCA TERMINATED NORMALLY****
TOTAL RUN TIME: 0 days 1 hours 4 minutes 26 seconds 104 msec
