                         Program Version 4.2.0 -  RELEASE  -
|  1> # Test redundant internal optimization
|  2> #
|  3> ! RKS B3LYP  Opt TightSCF SmallPrint
|  4>
|  5> %basis
|  6>         Basis "6-31G"
|  7> end
|  8>
|  9> %geom
| 10> Constraints
| 11> { D 4  0  15  12  180.0   C } # D for Dihedral angle
| 12> { D 0  15  12  16  180.0   C } # D for Dihedral angle
| 13> { D 0  4  3  2   C } # D for Dihedral angle
| 14> { D 4  3  2  1   C } # D for Dihedral angle
| 15> { D 3  2  1  0   C } # D for Dihedral angle
| 16> { D 2  1  0  4   C } # D for Dihedral angle
| 17> { D 1  0  4  3   C } # D for Dihedral angle
| 18> { D 16  20  19  18   C } # D for Dihedral angle
| 19> { D 20  19  18  17   C } # D for Dihedral angle
| 20> { D 19  18  17  16   C } # D for Dihedral angle
| 21> { D 18  17  16  20   C } # D for Dihedral angle
| 22> { D 17  16  20  19   C } # D for Dihedral angle
| 23> { D 15  12  16  20   C } # D for Dihedral angle
| 24> end
| 25> end
| 26>
| 27>
| 28> #%pal
| 29> #nprocs 8
| 30> #end
| 31>
| 32> * xyz 0 1
| 33> C  -21.048   26.222   46.251
| 34> C  -20.361   27.558   45.944
| 35> C  -20.329   28.222   47.341
| 36> C  -20.110   27.022   48.296
| 37> O  -20.473   25.807   47.535
| 38> H  -20.833   25.428   45.533
| 39> H  -19.344   27.382   45.576
| 40> H  -20.898   28.157   45.201
| 41> H  -19.543   28.978   47.434
| 42> H  -21.289   28.710   47.548
| 43> H  -20.733   27.082   49.195
| 44> H  -19.064   26.913   48.597
| 45> C  -23.309   26.834   45.072
| 46> H  -22.903   27.797   44.741
| 47> H  -23.142   26.099   44.274
| 48> O  -22.586   26.394   46.375
| 49> C  -24.843   26.988   45.260
| 50> C  -25.173   28.120   46.239
| 51> C  -25.001   29.370   45.343
| 52> C  -25.496   28.882   43.959
| 53> O  -25.474   27.404   44.002
| 54> H  -25.270   26.020   45.527
| 55> H  -26.210   28.031   46.582
| 56> O  -24.245   28.139   47.485
| 57> H  -25.565   30.234   45.708
| 58> H  -23.943   29.657   45.297
| 59> H  -24.857   29.227   43.139
| 60> H  -26.527   29.183   43.755
| 61> H  -23.201   28.228   47.165
| 62> *
| 63>
| 64>                          ****END OF INPUT****
 Total Charge           Charge          ....    0
 Multiplicity           Mult            ....    1
 Number of Electrons    NEL             ....  102
FINAL SINGLE POINT ENERGY      -652.825337901675
FINAL SINGLE POINT ENERGY      -652.850320508222
FINAL SINGLE POINT ENERGY      -652.857410128304
FINAL SINGLE POINT ENERGY      -652.860488173433
FINAL SINGLE POINT ENERGY      -652.862568225634
FINAL SINGLE POINT ENERGY      -652.864218887385
FINAL SINGLE POINT ENERGY      -652.865300037706
FINAL SINGLE POINT ENERGY      -652.865829132616
FINAL SINGLE POINT ENERGY      -652.865912627412
FINAL SINGLE POINT ENERGY      -652.865930453630
FINAL SINGLE POINT ENERGY      -652.865932691171
                    ***********************HURRAY********************

CARTESIAN COORDINATES (ANGSTROEM)
---------------------------------
  C    -21.089587   26.241098   46.191598
  C    -20.311555   27.521251   45.895019
  C    -20.395520   28.270188   47.248609
  C    -20.340632   27.124715   48.278477
  O    -20.687365   25.889572   47.516900
  H    -20.886906   25.391673   45.533399
  H    -19.275341   27.253754   45.657868
  H    -20.707659   28.102714   45.058725
  H    -19.581073   28.988435   47.379212
  H    -21.346036   28.808781   47.319930
  H    -21.056489   27.238935   49.095883
  H    -19.340507   26.961882   48.688956
  C    -23.203513   26.848900   44.985203
  H    -22.784132   27.780372   44.586338
  H    -23.079866   26.060563   44.231691
  O    -22.539135   26.470835   46.233247
  C    -24.691083   27.023762   45.310853
  C    -25.004599   28.153284   46.305994
  C    -24.940229   29.410330   45.389340
  C    -25.500303   28.892632   44.048051
  O    -25.414102   27.403628   44.099735
  H    -25.099265   26.063438   45.636551
  H    -26.029153   28.018853   46.673567
  O    -24.122145   28.256613   47.444518
  H    -25.517205   30.243817   45.797798
  H    -23.896495   29.731717   45.307831
  H    -24.939520   29.247097   43.177569
  H    -26.556950   29.137520   43.908822
  H    -23.433636   27.551642   47.372317

 Multiplicity           Mult            ....    1
 Number of Electrons    NEL             ....  102
 Basis Dimension        Dim             ....  149

ORBITAL ENERGIES
----------------

  NO   OCC          E(Eh)            E(eV)
   0   2.0000     -19.163981      -521.4784
   1   2.0000     -19.152107      -521.1553
   2   2.0000     -19.142723      -520.9000
   3   2.0000     -19.116111      -520.1758
   4   2.0000     -10.293940      -280.1123
   5   2.0000     -10.241379      -278.6821
   6   2.0000     -10.236822      -278.5581
   7   2.0000     -10.232970      -278.4533
   8   2.0000     -10.232579      -278.4426
   9   2.0000     -10.228950      -278.3439
  10   2.0000     -10.197964      -277.5007
  11   2.0000     -10.193287      -277.3734
  12   2.0000     -10.182184      -277.0713
  13   2.0000      -1.068252       -29.0686
  14   2.0000      -1.028514       -27.9873
  15   2.0000      -1.009614       -27.4730
  16   2.0000      -0.993680       -27.0394
  17   2.0000      -0.796075       -21.6623
  18   2.0000      -0.776376       -21.1263
  19   2.0000      -0.770358       -20.9625
  20   2.0000      -0.738501       -20.0956
  21   2.0000      -0.682473       -18.5710
  22   2.0000      -0.610017       -16.5994
  23   2.0000      -0.601565       -16.3694
  24   2.0000      -0.595816       -16.2130
  25   2.0000      -0.581624       -15.8268
  26   2.0000      -0.532240       -14.4830
  27   2.0000      -0.519590       -14.1388
  28   2.0000      -0.505256       -13.7487
  29   2.0000      -0.492214       -13.3938
  30   2.0000      -0.475939       -12.9510
  31   2.0000      -0.460114       -12.5203
  32   2.0000      -0.450556       -12.2602
  33   2.0000      -0.438315       -11.9271
  34   2.0000      -0.430428       -11.7126
  35   2.0000      -0.415610       -11.3093
  36   2.0000      -0.413271       -11.2457
  37   2.0000      -0.389303       -10.5935
  38   2.0000      -0.384801       -10.4710
  39   2.0000      -0.370256       -10.0752
  40   2.0000      -0.366994        -9.9864
  41   2.0000      -0.364585        -9.9209
  42   2.0000      -0.351569        -9.5667
  43   2.0000      -0.342845        -9.3293
  44   2.0000      -0.325167        -8.8482
  45   2.0000      -0.317566        -8.6414
  46   2.0000      -0.291467        -7.9312
  47   2.0000      -0.273204        -7.4343
  48   2.0000      -0.269703        -7.3390
  49   2.0000      -0.249490        -6.7890
  50   2.0000      -0.247301        -6.7294
  51   0.0000       0.055162         1.5010
  52   0.0000       0.068191         1.8556
  53   0.0000       0.091542         2.4910
  54   0.0000       0.096035         2.6132
  55   0.0000       0.106202         2.8899

MULLIKEN ATOMIC CHARGES
-----------------------
   0 C :    0.318320
   1 C :   -0.284177
   2 C :   -0.309949
   3 C :   -0.013519
   4 O :   -0.500158
   5 H :    0.151949
   6 H :    0.154461
   7 H :    0.145978
   8 H :    0.147842
   9 H :    0.169486
  10 H :    0.164678
  11 H :    0.149174
  12 C :   -0.013388
  13 H :    0.135029
  14 H :    0.155798
  15 O :   -0.555020
  16 C :    0.053875
  17 C :    0.122408
  18 C :   -0.302259
  19 C :   -0.016318
  20 O :   -0.523462
  21 H :    0.163410
  22 H :    0.145157
  23 O :   -0.647582
  24 H :    0.153304
  25 H :    0.142508
  26 H :    0.139563
  27 H :    0.149865
  28 H :    0.403027
Sum of atomic charges:   -0.0000000

LOEWDIN ATOMIC CHARGES
----------------------
   0 C :    0.185061
   1 C :   -0.231262
   2 C :   -0.221238
   3 C :   -0.027040
   4 O :   -0.299809
   5 H :    0.104456
   6 H :    0.119613
   7 H :    0.114795
   8 H :    0.118088
   9 H :    0.121323
  10 H :    0.113697
  11 H :    0.106808
  12 C :   -0.045185
  13 H :    0.093637
  14 H :    0.108809
  15 O :   -0.341722
  16 C :    0.021133
  17 C :    0.042622
  18 C :   -0.234062
  19 C :   -0.031777
  20 O :   -0.323497
  21 H :    0.117835
  22 H :    0.103428
  23 O :   -0.441421
  24 H :    0.122065
  25 H :    0.109498
  26 H :    0.100771
  27 H :    0.106647
  28 H :    0.286727

  Mayer bond orders larger than 0.100000
B(  0-C ,  1-C ) :   0.9322 B(  0-C ,  4-O ) :   0.9526 B(  0-C ,  5-H ) :   0.9226
B(  0-C , 15-O ) :   0.7815 B(  1-C ,  2-C ) :   0.9465 B(  1-C ,  6-H ) :   0.9332
B(  1-C ,  7-H ) :   0.9304 B(  2-C ,  3-C ) :   0.9529 B(  2-C ,  8-H ) :   0.9445
B(  2-C ,  9-H ) :   0.9313 B(  3-C ,  4-O ) :   0.8248 B(  3-C , 10-H ) :   0.9329
B(  3-C , 11-H ) :   0.9396 B( 12-C , 13-H ) :   0.9115 B( 12-C , 14-H ) :   0.9222
B( 12-C , 15-O ) :   0.7918 B( 12-C , 16-C ) :   0.9062 B( 15-O , 28-H ) :   0.1005
B( 16-C , 17-C ) :   0.9166 B( 16-C , 20-O ) :   0.8571 B( 16-C , 21-H ) :   0.9284
B( 17-C , 18-C ) :   0.9064 B( 17-C , 22-H ) :   0.9271 B( 17-C , 23-O ) :   0.9264
B( 18-C , 19-C ) :   0.9405 B( 18-C , 24-H ) :   0.9445 B( 18-C , 25-H ) :   0.9428
B( 19-C , 20-O ) :   0.8322 B( 19-C , 26-H ) :   0.9347 B( 19-C , 27-H ) :   0.9384
B( 23-O , 28-H ) :   0.7068

FINAL SINGLE POINT ENERGY      -652.865933057778

DIPOLE MOMENT
-------------
                                X             Y             Z
Electronic contribution:     -2.37577      -5.42676       1.05422
Nuclear contribution   :      3.33388       6.23936      -1.79716
                        -----------------------------------------
Total Dipole Moment    :      0.95811       0.81260      -0.74295
                        -----------------------------------------
Magnitude (a.u.)       :      1.45954
Magnitude (Debye)      :      3.70986

Rotational constants in cm-1:     0.054852     0.014843     0.013981
Rotational constants in MHz :  1644.427142   444.985479   419.143804

                             ****ORCA TERMINATED NORMALLY****
TOTAL RUN TIME: 0 days 0 hours 37 minutes 44 seconds 412 msec
