                         Program Version 4.2.0 -  RELEASE  -
|  1> # Test redundant internal optimization
|  2> #
|  3> ! RKS B3LYP  Opt TightSCF SmallPrint
|  4>
|  5> %basis
|  6>         Basis "6-31G"
|  7> end
|  8>
|  9> %geom
| 10> Constraints
| 11> { D 4  0  15  12  345.0   C } # D for Dihedral angle
| 12> { D 0  15  12  16  180.0   C } # D for Dihedral angle
| 13> { D 0  4  3  2   C } # D for Dihedral angle
| 14> { D 4  3  2  1   C } # D for Dihedral angle
| 15> { D 3  2  1  0   C } # D for Dihedral angle
| 16> { D 2  1  0  4   C } # D for Dihedral angle
| 17> { D 1  0  4  3   C } # D for Dihedral angle
| 18> { D 16  20  19  18   C } # D for Dihedral angle
| 19> { D 20  19  18  17   C } # D for Dihedral angle
| 20> { D 19  18  17  16   C } # D for Dihedral angle
| 21> { D 18  17  16  20   C } # D for Dihedral angle
| 22> { D 17  16  20  19   C } # D for Dihedral angle
| 23> { D 15  12  16  20   C } # D for Dihedral angle
| 24> end
| 25> end
| 26>
| 27>
| 28> #%pal
| 29> #nprocs 8
| 30> #end
| 31>
| 32> * xyz 0 1
| 33> C  -21.048   26.222   46.251
| 34> C  -20.361   27.558   45.944
| 35> C  -20.329   28.222   47.341
| 36> C  -20.110   27.022   48.296
| 37> O  -20.473   25.807   47.535
| 38> H  -20.833   25.428   45.533
| 39> H  -19.344   27.382   45.576
| 40> H  -20.898   28.157   45.201
| 41> H  -19.543   28.978   47.434
| 42> H  -21.289   28.710   47.548
| 43> H  -20.733   27.082   49.195
| 44> H  -19.064   26.913   48.597
| 45> C  -23.221   25.764   47.645
| 46> H  -23.015   24.687   47.656
| 47> H  -22.785   26.205   48.551
| 48> O  -22.586   26.394   46.375
| 49> C  -24.760   25.969   47.712
| 50> C  -25.469   25.235   46.568
| 51> C  -25.485   23.779   47.092
| 52> C  -25.671   23.957   48.620
| 53> O  -25.305   25.356   48.928
| 54> H  -24.976   27.037   47.768
| 55> O  -26.916   25.776   46.406
| 56> H  -24.954   25.336   45.607
| 57> H  -26.279   23.176   46.642
| 58> H  -24.528   23.291   46.873
| 59> H  -25.033   23.283   49.201
| 60> H  -26.709   23.819   48.933
| 61> H  -27.453   25.685   47.358
| 62> *
| 63>
| 64>                          ****END OF INPUT****
 Total Charge           Charge          ....    0
 Multiplicity           Mult            ....    1
 Number of Electrons    NEL             ....  102
FINAL SINGLE POINT ENERGY      -652.837573765674
FINAL SINGLE POINT ENERGY      -652.860568450867
FINAL SINGLE POINT ENERGY      -652.864374663348
FINAL SINGLE POINT ENERGY      -652.864975294314
FINAL SINGLE POINT ENERGY      -652.865066212646
FINAL SINGLE POINT ENERGY      -652.865082228382
                    ***********************HURRAY********************

CARTESIAN COORDINATES (ANGSTROEM)
---------------------------------
  C    -21.134789   26.171666   46.346661
  C    -20.596167   27.549685   45.964044
  C    -20.450449   28.225606   47.345595
  C    -20.028841   27.061450   48.268369
  O    -20.394859   25.814933   47.534556
  H    -20.944119   25.375340   45.621682
  H    -19.622767   27.433306   45.473662
  H    -21.272861   28.083052   45.292962
  H    -19.715960   29.036780   47.341300
  H    -21.414056   28.640143   47.657450
  H    -20.541653   27.063544   49.233924
  H    -18.948736   27.015951   48.434199
  C    -23.131486   25.673731   47.768204
  H    -22.903481   24.601881   47.827528
  H    -22.726548   26.150199   48.666340
  O    -22.574413   26.257622   46.554283
  C    -24.637492   25.916078   47.705422
  C    -25.359943   25.231084   46.536488
  C    -25.501944   23.780309   47.063423
  C    -25.727186   23.975406   48.583458
  O    -25.267795   25.350660   48.904348
  H    -24.837681   26.991118   47.708140
  O    -26.657490   25.846863   46.300823
  H    -24.817038   25.310137   45.596567
  H    -26.333914   23.270493   46.571247
  H    -24.585753   23.212860   46.866505
  H    -25.164119   23.262388   49.192867
  H    -26.783509   23.916249   48.863088
  H    -27.094951   26.011467   47.162866

 Multiplicity           Mult            ....    1
 Number of Electrons    NEL             ....  102
 Basis Dimension        Dim             ....  149

ORBITAL ENERGIES
----------------

  NO   OCC          E(Eh)            E(eV)
   0   2.0000     -19.151413      -521.1364
   1   2.0000     -19.142835      -520.9030
   2   2.0000     -19.142144      -520.8842
   3   2.0000     -19.131775      -520.6021
   4   2.0000     -10.281617      -279.7770
   5   2.0000     -10.233160      -278.4585
   6   2.0000     -10.232020      -278.4274
   7   2.0000     -10.229719      -278.3648
   8   2.0000     -10.228907      -278.3427
   9   2.0000     -10.227293      -278.2988
  10   2.0000     -10.191237      -277.3177
  11   2.0000     -10.187785      -277.2237
  12   2.0000     -10.184500      -277.1343
  13   2.0000      -1.057497       -28.7760
  14   2.0000      -1.032958       -28.1082
  15   2.0000      -1.001043       -27.2398
  16   2.0000      -0.994751       -27.0685
  17   2.0000      -0.793624       -21.5956
  18   2.0000      -0.776963       -21.1422
  19   2.0000      -0.767006       -20.8713
  20   2.0000      -0.732183       -19.9237
  21   2.0000      -0.671522       -18.2730
  22   2.0000      -0.604906       -16.4603
  23   2.0000      -0.600812       -16.3489
  24   2.0000      -0.590763       -16.0755
  25   2.0000      -0.576668       -15.6919
  26   2.0000      -0.522322       -14.2131
  27   2.0000      -0.514398       -13.9975
  28   2.0000      -0.499156       -13.5827
  29   2.0000      -0.491605       -13.3772
  30   2.0000      -0.472902       -12.8683
  31   2.0000      -0.455351       -12.3907
  32   2.0000      -0.446049       -12.1376
  33   2.0000      -0.437413       -11.9026
  34   2.0000      -0.420712       -11.4482
  35   2.0000      -0.414882       -11.2895
  36   2.0000      -0.401881       -10.9357
  37   2.0000      -0.389393       -10.5959
  38   2.0000      -0.375900       -10.2288
  39   2.0000      -0.364460        -9.9175
  40   2.0000      -0.362430        -9.8622
  41   2.0000      -0.354357        -9.6425
  42   2.0000      -0.351815        -9.5734
  43   2.0000      -0.343427        -9.3451
  44   2.0000      -0.323759        -8.8099
  45   2.0000      -0.309769        -8.4292
  46   2.0000      -0.300647        -8.1810
  47   2.0000      -0.269001        -7.3199
  48   2.0000      -0.263117        -7.1598
  49   2.0000      -0.253804        -6.9064
  50   2.0000      -0.245443        -6.6789
  51   0.0000       0.069019         1.8781
  52   0.0000       0.071233         1.9384
  53   0.0000       0.094457         2.5703
  54   0.0000       0.100967         2.7474
  55   0.0000       0.102907         2.8003

MULLIKEN ATOMIC CHARGES
-----------------------
   0 C :    0.304278
   1 C :   -0.258917
   2 C :   -0.303832
   3 C :   -0.019430
   4 O :   -0.512330
   5 H :    0.152195
   6 H :    0.145244
   7 H :    0.163051
   8 H :    0.147361
   9 H :    0.158277
  10 H :    0.149081
  11 H :    0.151787
  12 C :    0.013644
  13 H :    0.136010
  14 H :    0.146397
  15 O :   -0.549715
  16 C :    0.050103
  17 C :    0.092416
  18 C :   -0.302184
  19 C :   -0.029774
  20 O :   -0.528681
  21 H :    0.163210
  22 O :   -0.605512
  23 H :    0.174274
  24 H :    0.162310
  25 H :    0.146606
  26 H :    0.147957
  27 H :    0.144393
  28 H :    0.361783
Sum of atomic charges:   -0.0000000

LOEWDIN ATOMIC CHARGES
----------------------
   0 C :    0.181700
   1 C :   -0.217700
   2 C :   -0.218065
   3 C :   -0.032275
   4 O :   -0.320580
   5 H :    0.101348
   6 H :    0.114138
   7 H :    0.126989
   8 H :    0.117410
   9 H :    0.116737
  10 H :    0.104209
  11 H :    0.107380
  12 C :   -0.033617
  13 H :    0.097321
  14 H :    0.104161
  15 O :   -0.347255
  16 C :    0.016661
  17 C :    0.038572
  18 C :   -0.242254
  19 C :   -0.038075
  20 O :   -0.331965
  21 H :    0.116808
  22 O :   -0.416254
  23 H :    0.126769
  24 H :    0.126356
  25 H :    0.114382
  26 H :    0.104612
  27 H :    0.101756
  28 H :    0.280729

  Mayer bond orders larger than 0.100000
B(  0-C ,  1-C ) :   0.9402 B(  0-C ,  4-O ) :   0.9106 B(  0-C ,  5-H ) :   0.9264
B(  0-C , 15-O ) :   0.8330 B(  1-C ,  2-C ) :   0.9529 B(  1-C ,  6-H ) :   0.9361
B(  1-C ,  7-H ) :   0.9354 B(  2-C ,  3-C ) :   0.9542 B(  2-C ,  8-H ) :   0.9444
B(  2-C ,  9-H ) :   0.9452 B(  3-C ,  4-O ) :   0.8291 B(  3-C , 10-H ) :   0.9314
B(  3-C , 11-H ) :   0.9400 B( 12-C , 13-H ) :   0.9219 B( 12-C , 14-H ) :   0.9162
B( 12-C , 15-O ) :   0.8122 B( 12-C , 16-C ) :   0.9036 B( 16-C , 17-C ) :   0.9129
B( 16-C , 20-O ) :   0.8442 B( 16-C , 21-H ) :   0.9248 B( 17-C , 18-C ) :   0.9139
B( 17-C , 22-O ) :   0.8856 B( 17-C , 23-H ) :   0.9241 B( 18-C , 19-C ) :   0.9420
B( 18-C , 24-H ) :   0.9374 B( 18-C , 25-H ) :   0.9345 B( 19-C , 20-O ) :   0.8440
B( 19-C , 26-H ) :   0.9350 B( 19-C , 27-H ) :   0.9387 B( 22-O , 28-H ) :   0.7965

FINAL SINGLE POINT ENERGY      -652.865084186935

DIPOLE MOMENT
-------------
                                X             Y             Z
Electronic contribution:     -2.75372      -0.73588      -0.37322
Nuclear contribution   :      3.50094       0.78727       0.60385
                        -----------------------------------------
Total Dipole Moment    :      0.74722       0.05139       0.23063
                        -----------------------------------------
Magnitude (a.u.)       :      0.78369
Magnitude (Debye)      :      1.99199

Rotational constants in cm-1:     0.058478     0.012610     0.011882
Rotational constants in MHz :  1753.133429   378.041872   356.205209

                             ****ORCA TERMINATED NORMALLY****
TOTAL RUN TIME: 0 days 1 hours 43 minutes 53 seconds 83 msec
