                         Program Version 4.2.1 -  RELEASE  -
|  1> # Test redundant internal optimization
|  2> #
|  3> ! RKS B3LYP  Opt TightSCF SmallPrint
|  4>
|  5> %basis
|  6>         Basis "6-31G"
|  7> end
|  8>
|  9> %geom
| 10> Constraints
| 11> { D 4  0  19  14  300.0   C } # D for Dihedral angle
| 12> { D 0  19  14  12  0.0   C } # D for Dihedral angle
| 13> { D 0  4  3  2   C } # D for Dihedral angle
| 14> { D 4  3  2  1   C } # D for Dihedral angle
| 15> { D 3  2  1  0   C } # D for Dihedral angle
| 16> { D 2  1  0  4   C } # D for Dihedral angle
| 17> { D 1  0  4  3   C } # D for Dihedral angle
| 18> { D 14  15  16  17   C } # D for Dihedral angle
| 19> { D 15  16  17  12   C } # D for Dihedral angle
| 20> { D 16  17  12  14   C } # D for Dihedral angle
| 21> { D 17  12  14  15   C } # D for Dihedral angle
| 22> { D 12  14  15  16   C } # D for Dihedral angle
| 23> end
| 24> end
| 25>
| 26>
| 27> #%pal
| 28> #nprocs 8
| 29> #end
| 30>
| 31> * xyz 0 1
| 32> C  -21.048   26.222   46.251
| 33> C  -20.361   27.558   45.944
| 34> C  -20.329   28.222   47.341
| 35> C  -20.110   27.022   48.296
| 36> O  -20.473   25.807   47.535
| 37> H  -20.833   25.428   45.533
| 38> H  -19.344   27.382   45.576
| 39> H  -20.898   28.157   45.201
| 40> H  -19.543   28.978   47.434
| 41> H  -21.289   28.710   47.548
| 42> H  -20.733   27.082   49.195
| 43> H  -19.064   26.913   48.597
| 44> C  -22.178   24.037   46.952
| 45> H  -22.692   23.063   46.965
| 46> C  -23.171   25.189   46.758
| 47> C  -23.758   25.342   48.180
| 48> C  -22.549   25.024   49.096
| 49> O  -21.563   24.307   48.257
| 50> H  -21.371   24.006   46.219
| 51> O  -22.472   26.381   46.366
| 52> H  -23.936   24.974   46.004
| 53> H  -24.170   26.339   48.365
| 54> H  -24.563   24.613   48.337
| 55> H  -22.821   24.391   49.948
| 56> H  -22.058   25.928   49.469
| 57> *
| 58>
| 59>                          ****END OF INPUT****
 Total Charge           Charge          ....    0
 Multiplicity           Mult            ....    1
 Number of Electrons    NEL             ....   86
FINAL SINGLE POINT ENERGY      -538.358430103090
FINAL SINGLE POINT ENERGY      -538.421227188092
FINAL SINGLE POINT ENERGY      -538.425080602911
FINAL SINGLE POINT ENERGY      -538.425979994015
FINAL SINGLE POINT ENERGY      -538.426231431330
FINAL SINGLE POINT ENERGY      -538.426354373332
FINAL SINGLE POINT ENERGY      -538.426366871575
FINAL SINGLE POINT ENERGY      -538.426372167846
                    ***********************HURRAY********************

CARTESIAN COORDINATES (ANGSTROEM)
---------------------------------
  C    -20.821847   26.281405   46.221161
  C    -20.420362   27.723916   45.915327
  C    -20.351353   28.341587   47.331343
  C    -19.821697   27.175524   48.195045
  O    -20.057244   25.943228   47.397021
  H    -20.535928   25.544380   45.463821
  H    -19.435035   27.727055   45.435195
  H    -21.138356   28.222758   45.261410
  H    -19.701719   29.221031   47.375893
  H    -21.355173   28.635575   47.650785
  H    -20.336537   27.079569   49.154015
  H    -18.743168   27.230046   48.371095
  C    -22.352584   23.790631   47.084002
  H    -23.084429   22.975985   46.981785
  C    -23.046782   25.123714   46.807687
  C    -23.768101   25.378938   48.141092
  C    -22.792698   24.806978   49.198303
  O    -21.871737   23.904988   48.465938
  H    -21.483971   23.577221   46.459343
  O    -22.255111   26.286324   46.395484
  H    -23.777053   25.005239   45.996807
  H    -23.977113   26.442991   48.274521
  H    -24.718799   24.834511   48.146274
  H    -23.304659   24.239202   49.983195
  H    -22.175545   25.582206   49.660455

 Multiplicity           Mult            ....    1
 Number of Electrons    NEL             ....   86
 Basis Dimension        Dim             ....  127

ORBITAL ENERGIES
----------------

  NO   OCC          E(Eh)            E(eV)
   0   2.0000     -19.137777      -520.7654
   1   2.0000     -19.133557      -520.6506
   2   2.0000     -19.122114      -520.3392
   3   2.0000     -10.275349      -279.6065
   4   2.0000     -10.238095      -278.5927
   5   2.0000     -10.222160      -278.1591
   6   2.0000     -10.220823      -278.1227
   7   2.0000     -10.216864      -278.0150
   8   2.0000     -10.181878      -277.0630
   9   2.0000     -10.181602      -277.0555
  10   2.0000     -10.181226      -277.0452
  11   2.0000      -1.046233       -28.4694
  12   2.0000      -1.005730       -27.3673
  13   2.0000      -0.985398       -26.8140
  14   2.0000      -0.790268       -21.5043
  15   2.0000      -0.774172       -21.0663
  16   2.0000      -0.734615       -19.9899
  17   2.0000      -0.721251       -19.6262
  18   2.0000      -0.616895       -16.7866
  19   2.0000      -0.595342       -16.2001
  20   2.0000      -0.592494       -16.1226
  21   2.0000      -0.560922       -15.2635
  22   2.0000      -0.517596       -14.0845
  23   2.0000      -0.496193       -13.5021
  24   2.0000      -0.486386       -13.2352
  25   2.0000      -0.476201       -12.9581
  26   2.0000      -0.445604       -12.1255
  27   2.0000      -0.434339       -11.8190
  28   2.0000      -0.429620       -11.6905
  29   2.0000      -0.408493       -11.1157
  30   2.0000      -0.400385       -10.8950
  31   2.0000      -0.377139       -10.2625
  32   2.0000      -0.375302       -10.2125
  33   2.0000      -0.360357        -9.8058
  34   2.0000      -0.356732        -9.7072
  35   2.0000      -0.351564        -9.5666
  36   2.0000      -0.340052        -9.2533
  37   2.0000      -0.325400        -8.8546
  38   2.0000      -0.300540        -8.1781
  39   2.0000      -0.282846        -7.6966
  40   2.0000      -0.262374        -7.1396
  41   2.0000      -0.247593        -6.7373
  42   2.0000      -0.225293        -6.1305
  43   0.0000       0.073753         2.0069
  44   0.0000       0.092773         2.5245
  45   0.0000       0.101737         2.7684
  46   0.0000       0.114363         3.1120
  47   0.0000       0.116942         3.1822

MULLIKEN ATOMIC CHARGES
-----------------------
   0 C :    0.300634
   1 C :   -0.262531
   2 C :   -0.297533
   3 C :   -0.009587
   4 O :   -0.495055
   5 H :    0.140035
   6 H :    0.144625
   7 H :    0.156365
   8 H :    0.139134
   9 H :    0.155978
  10 H :    0.144582
  11 H :    0.145357
  12 C :   -0.024115
  13 H :    0.129034
  14 C :    0.106346
  15 C :   -0.300480
  16 C :    0.000197
  17 O :   -0.505015
  18 H :    0.162908
  19 O :   -0.546336
  20 H :    0.139326
  21 H :    0.158678
  22 H :    0.140569
  23 H :    0.132336
  24 H :    0.144548
Sum of atomic charges:   -0.0000000

LOEWDIN ATOMIC CHARGES
----------------------
   0 C :    0.176209
   1 C :   -0.213672
   2 C :   -0.216729
   3 C :   -0.028780
   4 O :   -0.314780
   5 H :    0.092441
   6 H :    0.113302
   7 H :    0.123593
   8 H :    0.112750
   9 H :    0.115827
  10 H :    0.101766
  11 H :    0.103785
  12 C :   -0.047701
  13 H :    0.096928
  14 C :    0.044668
  15 C :   -0.231059
  16 C :   -0.030218
  17 O :   -0.322394
  18 H :    0.118895
  19 O :   -0.335428
  20 H :    0.103349
  21 H :    0.125553
  22 H :    0.112491
  23 H :    0.097166
  24 H :    0.102037

  Mayer bond orders larger than 0.100000
B(  0-C ,  1-C ) :   0.9437 B(  0-C ,  4-O ) :   0.9157 B(  0-C ,  5-H ) :   0.9225
B(  0-C , 19-O ) :   0.8470 B(  1-C ,  2-C ) :   0.9588 B(  1-C ,  6-H ) :   0.9405
B(  1-C ,  7-H ) :   0.9364 B(  2-C ,  3-C ) :   0.9541 B(  2-C ,  8-H ) :   0.9450
B(  2-C ,  9-H ) :   0.9451 B(  3-C ,  4-O ) :   0.8434 B(  3-C , 10-H ) :   0.9303
B(  3-C , 11-H ) :   0.9398 B( 12-C , 13-H ) :   0.9090 B( 12-C , 14-C ) :   0.9270
B( 12-C , 17-O ) :   0.8704 B( 12-C , 18-H ) :   0.9279 B( 14-C , 15-C ) :   0.9379
B( 14-C , 19-O ) :   0.8455 B( 14-C , 20-H ) :   0.9322 B( 15-C , 16-C ) :   0.9493
B( 15-C , 21-H ) :   0.9377 B( 15-C , 22-H ) :   0.9389 B( 16-C , 17-O ) :   0.8638
B( 16-C , 23-H ) :   0.9332 B( 16-C , 24-H ) :   0.9313

FINAL SINGLE POINT ENERGY      -538.426373919027

DIPOLE MOMENT
-------------
                                X             Y             Z
Electronic contribution:      0.87830      -3.13161      -1.04243
Nuclear contribution   :     -1.40413       3.81552       0.75418
                        -----------------------------------------
Total Dipole Moment    :     -0.52583       0.68390      -0.28825
                        -----------------------------------------
Magnitude (a.u.)       :      0.90957
Magnitude (Debye)      :      2.31193

Rotational constants in cm-1:     0.066810     0.027027     0.025134
Rotational constants in MHz :  2002.899167   810.244646   753.495540

                             ****ORCA TERMINATED NORMALLY****
TOTAL RUN TIME: 0 days 0 hours 10 minutes 14 seconds 801 msec
