                         Program Version 4.2.1 -  RELEASE  -
|  1> # Test redundant internal optimization
|  2> #
|  3> ! RKS B3LYP  Opt TightSCF SmallPrint
|  4>
|  5> %basis
|  6>         Basis "6-31G"
|  7> end
|  8>
|  9> %geom
| 10> Constraints
| 11> { D 4  0  19  14  345.0   C } # D for Dihedral angle
| 12> { D 0  19  14  12  180.0   C } # D for Dihedral angle
| 13> { D 0  4  3  2   C } # D for Dihedral angle
| 14> { D 4  3  2  1   C } # D for Dihedral angle
| 15> { D 3  2  1  0   C } # D for Dihedral angle
| 16> { D 2  1  0  4   C } # D for Dihedral angle
| 17> { D 1  0  4  3   C } # D for Dihedral angle
| 18> { D 14  15  16  17   C } # D for Dihedral angle
| 19> { D 15  16  17  12   C } # D for Dihedral angle
| 20> { D 16  17  12  14   C } # D for Dihedral angle
| 21> { D 17  12  14  15   C } # D for Dihedral angle
| 22> { D 12  14  15  16   C } # D for Dihedral angle
| 23> end
| 24> end
| 25>
| 26>
| 27> #%pal
| 28> #nprocs 8
| 29> #end
| 30>
| 31> * xyz 0 1
| 32> C  -21.048   26.222   46.251
| 33> C  -20.361   27.558   45.944
| 34> C  -20.329   28.222   47.341
| 35> C  -20.110   27.022   48.296
| 36> O  -20.473   25.807   47.535
| 37> H  -20.833   25.428   45.533
| 38> H  -19.344   27.382   45.576
| 39> H  -20.898   28.157   45.201
| 40> H  -19.543   28.978   47.434
| 41> H  -21.289   28.710   47.548
| 42> H  -20.733   27.082   49.195
| 43> H  -19.064   26.913   48.597
| 44> C  -24.556   26.019   47.570
| 45> H  -24.973   25.844   48.574
| 46> C  -23.040   25.792   47.547
| 47> C  -22.954   24.249   47.484
| 48> C  -24.176   23.864   46.612
| 49> O  -25.083   25.032   46.619
| 50> H  -24.872   27.002   47.217
| 51> O  -22.472   26.381   46.366
| 52> H  -22.530   26.211   48.421
| 53> H  -22.010   23.893   47.060
| 54> H  -23.049   23.824   48.491
| 55> H  -24.712   22.991   47.002
| 56> H  -23.902   23.675   45.570
| 57> *
| 58>
| 59>                          ****END OF INPUT****
 Total Charge           Charge          ....    0
 Multiplicity           Mult            ....    1
 Number of Electrons    NEL             ....   86
FINAL SINGLE POINT ENERGY      -538.427472843013
FINAL SINGLE POINT ENERGY      -538.432227936955
FINAL SINGLE POINT ENERGY      -538.432814514014
FINAL SINGLE POINT ENERGY      -538.432933816597
FINAL SINGLE POINT ENERGY      -538.432945804539
FINAL SINGLE POINT ENERGY      -538.432950131873
                    ***********************HURRAY********************

CARTESIAN COORDINATES (ANGSTROEM)
---------------------------------
  C    -21.001181   26.234923   46.276780
  C    -20.427970   27.616399   45.958520
  C    -20.314926   28.242478   47.367095
  C    -19.941612   27.039325   48.261255
  O    -20.303210   25.824873   47.476631
  H    -20.791454   25.464850   45.529502
  H    -19.441587   27.500672   45.494850
  H    -21.076470   28.181779   45.286205
  H    -19.567423   29.040256   47.414674
  H    -21.281425   28.662275   47.662947
  H    -20.484150   27.019702   49.210770
  H    -18.868148   26.971887   48.459821
  C    -24.572798   26.021639   47.469925
  H    -25.076389   25.892019   48.439618
  C    -23.077672   25.735864   47.601115
  C    -23.051712   24.196442   47.573488
  C    -24.192753   23.836437   46.594642
  O    -25.046547   25.041103   46.492034
  H    -24.782114   27.014564   47.070018
  O    -22.443105   26.341787   46.433995
  H    -22.643886   26.140400   48.521199
  H    -22.077384   23.806358   47.273669
  H    -23.264083   23.820228   48.581820
  H    -24.799281   22.994078   46.945804
  H    -23.826719   23.617662   45.587623

 Multiplicity           Mult            ....    1
 Number of Electrons    NEL             ....   86
 Basis Dimension        Dim             ....  127

ORBITAL ENERGIES
----------------

  NO   OCC          E(Eh)            E(eV)
   0   2.0000     -19.151102      -521.1280
   1   2.0000     -19.137333      -520.7533
   2   2.0000     -19.121938      -520.3344
   3   2.0000     -10.279618      -279.7226
   4   2.0000     -10.235981      -278.5352
   5   2.0000     -10.233865      -278.4776
   6   2.0000     -10.217000      -278.0187
   7   2.0000     -10.214565      -277.9524
   8   2.0000     -10.191444      -277.3233
   9   2.0000     -10.186781      -277.1964
  10   2.0000     -10.177571      -276.9458
  11   2.0000      -1.056104       -28.7381
  12   2.0000      -1.010415       -27.4948
  13   2.0000      -0.986567       -26.8459
  14   2.0000      -0.794322       -21.6146
  15   2.0000      -0.775267       -21.0961
  16   2.0000      -0.741215       -20.1695
  17   2.0000      -0.719531       -19.5794
  18   2.0000      -0.613662       -16.6986
  19   2.0000      -0.603348       -16.4179
  20   2.0000      -0.592074       -16.1111
  21   2.0000      -0.561859       -15.2890
  22   2.0000      -0.526098       -14.3159
  23   2.0000      -0.497671       -13.5423
  24   2.0000      -0.488589       -13.2952
  25   2.0000      -0.479767       -13.0551
  26   2.0000      -0.452827       -12.3221
  27   2.0000      -0.441399       -12.0111
  28   2.0000      -0.420869       -11.4524
  29   2.0000      -0.412151       -11.2152
  30   2.0000      -0.408353       -11.1119
  31   2.0000      -0.385416       -10.4877
  32   2.0000      -0.370137       -10.0719
  33   2.0000      -0.361381        -9.8337
  34   2.0000      -0.361227        -9.8295
  35   2.0000      -0.357807        -9.7364
  36   2.0000      -0.345601        -9.4043
  37   2.0000      -0.331398        -9.0178
  38   2.0000      -0.307489        -8.3672
  39   2.0000      -0.291153        -7.9227
  40   2.0000      -0.264251        -7.1906
  41   2.0000      -0.252750        -6.8777
  42   2.0000      -0.228029        -6.2050
  43   0.0000       0.069153         1.8818
  44   0.0000       0.095902         2.6096
  45   0.0000       0.102730         2.7954
  46   0.0000       0.104612         2.8466
  47   0.0000       0.118494         3.2244

MULLIKEN ATOMIC CHARGES
-----------------------
   0 C :    0.300401
   1 C :   -0.257159
   2 C :   -0.303105
   3 C :   -0.017341
   4 O :   -0.516787
   5 H :    0.152122
   6 H :    0.144067
   7 H :    0.164405
   8 H :    0.146870
   9 H :    0.155857
  10 H :    0.144165
  11 H :    0.150734
  12 C :    0.002947
  13 H :    0.122492
  14 C :    0.086087
  15 C :   -0.293341
  16 C :    0.001841
  17 O :   -0.521361
  18 H :    0.161246
  19 O :   -0.533829
  20 H :    0.128290
  21 H :    0.167612
  22 H :    0.134756
  23 H :    0.132850
  24 H :    0.146182
Sum of atomic charges:    0.0000000

LOEWDIN ATOMIC CHARGES
----------------------
   0 C :    0.179655
   1 C :   -0.216161
   2 C :   -0.218129
   3 C :   -0.032360
   4 O :   -0.324838
   5 H :    0.100486
   6 H :    0.113535
   7 H :    0.127900
   8 H :    0.117026
   9 H :    0.115566
  10 H :    0.101188
  11 H :    0.106817
  12 C :   -0.033585
  13 H :    0.090011
  14 C :    0.042656
  15 C :   -0.233659
  16 C :   -0.029437
  17 O :   -0.330630
  18 H :    0.120172
  19 O :   -0.333213
  20 H :    0.096472
  21 H :    0.127566
  22 H :    0.111410
  23 H :    0.097201
  24 H :    0.104351

  Mayer bond orders larger than 0.100000
B(  0-C ,  1-C ) :   0.9404 B(  0-C ,  4-O ) :   0.8953 B(  0-C ,  5-H ) :   0.9258
B(  0-C , 19-O ) :   0.8460 B(  1-C ,  2-C ) :   0.9526 B(  1-C ,  6-H ) :   0.9363
B(  1-C ,  7-H ) :   0.9352 B(  2-C ,  3-C ) :   0.9538 B(  2-C ,  8-H ) :   0.9445
B(  2-C ,  9-H ) :   0.9455 B(  3-C ,  4-O ) :   0.8316 B(  3-C , 10-H ) :   0.9318
B(  3-C , 11-H ) :   0.9401 B( 12-C , 13-H ) :   0.9164 B( 12-C , 14-C ) :   0.9346
B( 12-C , 17-O ) :   0.8711 B( 12-C , 18-H ) :   0.9312 B( 14-C , 15-C ) :   0.9309
B( 14-C , 19-O ) :   0.8249 B( 14-C , 20-H ) :   0.9198 B( 15-C , 16-C ) :   0.9416
B( 15-C , 21-H ) :   0.9348 B( 15-C , 22-H ) :   0.9387 B( 16-C , 17-O ) :   0.8572
B( 16-C , 23-H ) :   0.9337 B( 16-C , 24-H ) :   0.9375

FINAL SINGLE POINT ENERGY      -538.432950130492

DIPOLE MOMENT
-------------
                                X             Y             Z
Electronic contribution:     -1.95589      -1.45735      -1.91452
Nuclear contribution   :      2.96066       1.93680       2.65520
                        -----------------------------------------
Total Dipole Moment    :      1.00477       0.47945       0.74068
                        -----------------------------------------
Magnitude (a.u.)       :      1.33718
Magnitude (Debye)      :      3.39884

Rotational constants in cm-1:     0.083947     0.021600     0.020654
Rotational constants in MHz :  2516.676337   647.543035   619.203483

                             ****ORCA TERMINATED NORMALLY****
TOTAL RUN TIME: 0 days 0 hours 8 minutes 11 seconds 590 msec
