                         Program Version 4.2.0 -  RELEASE  -
|  1> # Test redundant internal optimization
|  2> #
|  3> ! RKS B3LYP  Opt TightSCF SmallPrint
|  4>
|  5> %basis
|  6>         Basis "6-31G"
|  7> end
|  8>
|  9> %geom
| 10> Constraints
| 11> { D 4  0  15  12  330.0   C } # D for Dihedral angle
| 12> { D 0  15  12  16  135.0   C } # D for Dihedral angle
| 13> { D 0  4  3  2   C } # D for Dihedral angle
| 14> { D 4  3  2  1   C } # D for Dihedral angle
| 15> { D 3  2  1  0   C } # D for Dihedral angle
| 16> { D 2  1  0  4   C } # D for Dihedral angle
| 17> { D 1  0  4  3   C } # D for Dihedral angle
| 18> { D 16  20  19  18   C } # D for Dihedral angle
| 19> { D 20  19  18  17   C } # D for Dihedral angle
| 20> { D 19  18  17  16   C } # D for Dihedral angle
| 21> { D 18  17  16  20   C } # D for Dihedral angle
| 22> { D 17  16  20  19   C } # D for Dihedral angle
| 23> { D 15  12  16  20   C } # D for Dihedral angle
| 24> end
| 25> end
| 26>
| 27>
| 28> #%pal
| 29> #nprocs 8
| 30> #end
| 31>
| 32> * xyz 0 1
| 33> C  -21.048   26.222   46.251
| 34> C  -20.361   27.558   45.944
| 35> C  -20.329   28.222   47.341
| 36> C  -20.110   27.022   48.296
| 37> O  -20.473   25.807   47.535
| 38> H  -20.833   25.428   45.533
| 39> H  -19.344   27.382   45.576
| 40> H  -20.898   28.157   45.201
| 41> H  -19.543   28.978   47.434
| 42> H  -21.289   28.710   47.548
| 43> H  -20.733   27.082   49.195
| 44> H  -19.064   26.913   48.597
| 45> C  -23.271   25.476   47.424
| 46> H  -23.796   24.663   46.906
| 47> H  -22.522   25.030   48.091
| 48> O  -22.586   26.394   46.375
| 49> C  -24.298   26.236   48.308
| 50> C  -23.654   27.445   48.996
| 51> C  -23.638   28.485   47.851
| 52> C  -24.944   28.177   47.077
| 53> O  -25.359   26.815   47.478
| 54> H  -24.775   25.529   48.990
| 55> O  -24.551   27.932   50.166
| 56> H  -22.655   27.234   49.392
| 57> H  -23.602   29.517   48.214
| 58> H  -22.763   28.326   47.209
| 59> H  -24.806   28.206   45.991
| 60> H  -25.760   28.854   47.348
| 61> H  -25.558   28.150   49.793
| 62> *
| 63>
| 64>                          ****END OF INPUT****
 Total Charge           Charge          ....    0
 Multiplicity           Mult            ....    1
 Number of Electrons    NEL             ....  102
FINAL SINGLE POINT ENERGY      -652.826476607937
FINAL SINGLE POINT ENERGY      -652.849212323556
FINAL SINGLE POINT ENERGY      -652.856511412954
FINAL SINGLE POINT ENERGY      -652.859433728491
FINAL SINGLE POINT ENERGY      -652.859849431248
FINAL SINGLE POINT ENERGY      -652.859923223521
FINAL SINGLE POINT ENERGY      -652.859926545433
                    ***********************HURRAY********************

CARTESIAN COORDINATES (ANGSTROEM)
---------------------------------
  C    -21.046767   26.152274   46.359073
  C    -20.316492   27.415071   45.896467
  C    -20.155986   28.194823   47.224906
  C    -19.934608   27.072569   48.264678
  O    -20.419206   25.820678   47.615355
  H    -20.849876   25.284307   45.719116
  H    -19.342709   27.125488   45.489193
  H    -20.875158   27.964165   45.135286
  H    -19.310799   28.890387   47.194817
  H    -21.052371   28.774843   47.447681
  H    -20.484593   27.227224   49.196731
  H    -18.878686   26.908902   48.495208
  C    -23.214109   25.535194   47.401103
  H    -23.723257   24.722756   46.868257
  H    -22.493606   25.101377   48.102404
  O    -22.496588   26.326389   46.394564
  C    -24.275226   26.300614   48.191121
  C    -23.822764   27.495058   49.042893
  C    -23.834889   28.649074   48.005946
  C    -25.039345   28.283040   47.100399
  O    -25.325150   26.854094   47.335822
  H    -24.761122   25.556147   48.835363
  O    -24.757652   27.731578   50.132800
  H    -22.855064   27.349033   49.524449
  H    -23.940685   29.620073   48.496394
  H    -22.919986   28.625442   47.417463
  H    -24.817945   28.427710   46.039484
  H    -25.946669   28.842078   47.354133
  H    -25.671690   27.699612   49.778899

 Multiplicity           Mult            ....    1
 Number of Electrons    NEL             ....  102
 Basis Dimension        Dim             ....  149

ORBITAL ENERGIES
----------------

  NO   OCC          E(Eh)            E(eV)
   0   2.0000     -19.156533      -521.2758
   1   2.0000     -19.146412      -521.0004
   2   2.0000     -19.136396      -520.7278
   3   2.0000     -19.135479      -520.7029
   4   2.0000     -10.283340      -279.8239
   5   2.0000     -10.238422      -278.6016
   6   2.0000     -10.237541      -278.5777
   7   2.0000     -10.232424      -278.4384
   8   2.0000     -10.224503      -278.2229
   9   2.0000     -10.223045      -278.1832
  10   2.0000     -10.195908      -277.4448
  11   2.0000     -10.193772      -277.3866
  12   2.0000     -10.180067      -277.0137
  13   2.0000      -1.058798       -28.8114
  14   2.0000      -1.033401       -28.1203
  15   2.0000      -1.004075       -27.3223
  16   2.0000      -0.995334       -27.0844
  17   2.0000      -0.797044       -21.6887
  18   2.0000      -0.777365       -21.1532
  19   2.0000      -0.765386       -20.8272
  20   2.0000      -0.737953       -20.0807
  21   2.0000      -0.673818       -18.3355
  22   2.0000      -0.611138       -16.6299
  23   2.0000      -0.599299       -16.3078
  24   2.0000      -0.598033       -16.2733
  25   2.0000      -0.572445       -15.5770
  26   2.0000      -0.522790       -14.2258
  27   2.0000      -0.511926       -13.9302
  28   2.0000      -0.503580       -13.7031
  29   2.0000      -0.491707       -13.3800
  30   2.0000      -0.470531       -12.8038
  31   2.0000      -0.462603       -12.5881
  32   2.0000      -0.450905       -12.2698
  33   2.0000      -0.435568       -11.8524
  34   2.0000      -0.421822       -11.4784
  35   2.0000      -0.416091       -11.3224
  36   2.0000      -0.406359       -11.0576
  37   2.0000      -0.387555       -10.5459
  38   2.0000      -0.379048       -10.3144
  39   2.0000      -0.369713       -10.0604
  40   2.0000      -0.366344        -9.9687
  41   2.0000      -0.357129        -9.7180
  42   2.0000      -0.351683        -9.5698
  43   2.0000      -0.343673        -9.3518
  44   2.0000      -0.325431        -8.8554
  45   2.0000      -0.304747        -8.2926
  46   2.0000      -0.302232        -8.2242
  47   2.0000      -0.272428        -7.4131
  48   2.0000      -0.266488        -7.2515
  49   2.0000      -0.261482        -7.1153
  50   2.0000      -0.237342        -6.4584
  51   0.0000       0.060029         1.6335
  52   0.0000       0.075291         2.0488
  53   0.0000       0.089538         2.4365
  54   0.0000       0.100142         2.7250
  55   0.0000       0.103113         2.8059

MULLIKEN ATOMIC CHARGES
-----------------------
   0 C :    0.305625
   1 C :   -0.267664
   2 C :   -0.312206
   3 C :   -0.019328
   4 O :   -0.513926
   5 H :    0.151623
   6 H :    0.151899
   7 H :    0.160466
   8 H :    0.148248
   9 H :    0.158194
  10 H :    0.150313
  11 H :    0.153842
  12 C :   -0.013240
  13 H :    0.149223
  14 H :    0.164618
  15 O :   -0.534161
  16 C :    0.067929
  17 C :    0.070601
  18 C :   -0.296262
  19 C :   -0.020118
  20 O :   -0.524800
  21 H :    0.155528
  22 O :   -0.605451
  23 H :    0.147615
  24 H :    0.147166
  25 H :    0.168663
  26 H :    0.155253
  27 H :    0.136121
  28 H :    0.364231
Sum of atomic charges:   -0.0000000

LOEWDIN ATOMIC CHARGES
----------------------
   0 C :    0.177825
   1 C :   -0.213847
   2 C :   -0.220630
   3 C :   -0.031333
   4 O :   -0.320435
   5 H :    0.096091
   6 H :    0.118849
   7 H :    0.126266
   8 H :    0.117657
   9 H :    0.114241
  10 H :    0.103263
  11 H :    0.108535
  12 C :   -0.045259
  13 H :    0.108373
  14 H :    0.117797
  15 O :   -0.340268
  16 C :    0.011690
  17 C :    0.037910
  18 C :   -0.242618
  19 C :   -0.032953
  20 O :   -0.328819
  21 H :    0.116502
  22 O :   -0.417305
  23 H :    0.111404
  24 H :    0.119179
  25 H :    0.120101
  26 H :    0.109138
  27 H :    0.095950
  28 H :    0.282691

  Mayer bond orders larger than 0.100000
B(  0-C ,  1-C ) :   0.9387 B(  0-C ,  4-O ) :   0.8963 B(  0-C ,  5-H ) :   0.9255
B(  0-C , 15-O ) :   0.8588 B(  1-C ,  2-C ) :   0.9566 B(  1-C ,  6-H ) :   0.9372
B(  1-C ,  7-H ) :   0.9354 B(  2-C ,  3-C ) :   0.9547 B(  2-C ,  8-H ) :   0.9437
B(  2-C ,  9-H ) :   0.9273 B(  3-C ,  4-O ) :   0.8293 B(  3-C , 10-H ) :   0.9280
B(  3-C , 11-H ) :   0.9395 B( 12-C , 13-H ) :   0.9253 B( 12-C , 14-H ) :   0.8967
B( 12-C , 15-O ) :   0.8388 B( 12-C , 16-C ) :   0.9089 B( 16-C , 17-C ) :   0.9066
B( 16-C , 20-O ) :   0.8645 B( 16-C , 21-H ) :   0.9187 B( 17-C , 18-C ) :   0.9246
B( 17-C , 22-O ) :   0.8872 B( 17-C , 23-H ) :   0.9310 B( 18-C , 19-C ) :   0.9399
B( 18-C , 24-H ) :   0.9390 B( 18-C , 25-H ) :   0.8987 B( 19-C , 20-O ) :   0.8435
B( 19-C , 26-H ) :   0.9332 B( 19-C , 27-H ) :   0.9373 B( 22-O , 28-H ) :   0.7949

FINAL SINGLE POINT ENERGY      -652.859924299308

DIPOLE MOMENT
-------------
                                X             Y             Z
Electronic contribution:     -3.83792      -4.15820       0.58945
Nuclear contribution   :      4.74979       4.83461      -0.92035
                        -----------------------------------------
Total Dipole Moment    :      0.91188       0.67641      -0.33090
                        -----------------------------------------
Magnitude (a.u.)       :      1.18260
Magnitude (Debye)      :      3.00593

Rotational constants in cm-1:     0.044788     0.017306     0.016409
Rotational constants in MHz :  1342.706421   518.818106   491.928299

                             ****ORCA TERMINATED NORMALLY****
TOTAL RUN TIME: 0 days 0 hours 30 minutes 26 seconds 867 msec
