                         Program Version 4.2.0 -  RELEASE  -
|  1> # Test redundant internal optimization
|  2> #
|  3> ! RKS B3LYP  Opt TightSCF SmallPrint
|  4>
|  5> %basis
|  6>         Basis "6-31G"
|  7> end
|  8>
|  9> %geom
| 10> Constraints
| 11> { D 4  0  15  12  270.0   C } # D for Dihedral angle
| 12> { D 0  15  12  16  330.0   C } # D for Dihedral angle
| 13> { D 0  4  3  2   C } # D for Dihedral angle
| 14> { D 4  3  2  1   C } # D for Dihedral angle
| 15> { D 3  2  1  0   C } # D for Dihedral angle
| 16> { D 2  1  0  4   C } # D for Dihedral angle
| 17> { D 1  0  4  3   C } # D for Dihedral angle
| 18> { D 16  20  19  18   C } # D for Dihedral angle
| 19> { D 20  19  18  17   C } # D for Dihedral angle
| 20> { D 19  18  17  16   C } # D for Dihedral angle
| 21> { D 18  17  16  20   C } # D for Dihedral angle
| 22> { D 17  16  20  19   C } # D for Dihedral angle
| 23> { D 15  12  16  20   C } # D for Dihedral angle
| 24> end
| 25> end
| 26>
| 27>
| 28> #%pal
| 29> #nprocs 8
| 30> #end
| 31>
| 32> * xyz 0 1
| 33> C  -21.048   26.222   46.251
| 34> C  -20.361   27.558   45.944
| 35> C  -20.329   28.222   47.341
| 36> C  -20.110   27.022   48.296
| 37> O  -20.473   25.807   47.535
| 38> H  -20.833   25.428   45.533
| 39> H  -19.344   27.382   45.576
| 40> H  -20.898   28.157   45.201
| 41> H  -19.543   28.978   47.434
| 42> H  -21.289   28.710   47.548
| 43> H  -20.733   27.082   49.195
| 44> H  -19.064   26.913   48.597
| 45> C  -23.420   25.119   46.072
| 46> H  -23.571   24.556   47.002
| 47> H  -24.405   25.390   45.671
| 48> O  -22.586   26.394   46.375
| 49> C  -22.731   24.182   45.041
| 50> C  -23.631   22.995   44.680
| 51> C  -24.611   23.640   43.671
| 52> C  -23.721   24.664   42.922
| 53> O  -22.529   24.882   43.768
| 54> H  -21.744   23.903   45.414
| 55> H  -23.042   22.208   44.197
| 56> O  -24.353   22.380   45.910
| 57> H  -25.067   22.910   42.995
| 58> H  -25.421   24.151   44.206
| 59> H  -24.228   25.622   42.763
| 60> H  -23.369   24.284   41.959
| 61> H  -24.951   23.149   46.410
| 62> *
| 63>
| 64>                          ****END OF INPUT****
 Total Charge           Charge          ....    0
 Multiplicity           Mult            ....    1
 Number of Electrons    NEL             ....  102
FINAL SINGLE POINT ENERGY      -652.825440230481
FINAL SINGLE POINT ENERGY      -652.850110092392
FINAL SINGLE POINT ENERGY      -652.855008751338
FINAL SINGLE POINT ENERGY      -652.856898023934
FINAL SINGLE POINT ENERGY      -652.857111542963
FINAL SINGLE POINT ENERGY      -652.857164150579
FINAL SINGLE POINT ENERGY      -652.857168238284
FINAL SINGLE POINT ENERGY      -652.857168695585
                    ***********************HURRAY********************

CARTESIAN COORDINATES (ANGSTROEM)
---------------------------------
  C    -20.930422   26.201103   46.208447
  C    -20.396956   27.616308   45.976723
  C    -20.456251   28.216275   47.402562
  C    -20.114239   27.005529   48.301069
  O    -20.333675   25.800660   47.466519
  H    -20.630589   25.468828   45.461130
  H    -19.362677   27.557890   45.618312
  H    -20.997876   28.162917   45.248130
  H    -19.757852   29.047196   47.541262
  H    -21.469263   28.574486   47.607037
  H    -20.747365   26.941080   49.190097
  H    -19.063331   26.988784   48.606573
  C    -23.229820   25.174185   46.038286
  H    -23.420083   24.643209   46.982018
  H    -24.164428   25.628152   45.694296
  O    -22.364116   26.315163   46.310750
  C    -22.720696   24.152199   45.021706
  C    -23.733225   23.023877   44.750488
  C    -24.686467   23.690848   43.708980
  C    -23.722068   24.577892   42.889179
  O    -22.492961   24.742953   43.705656
  H    -21.763796   23.738109   45.348008
  H    -23.211035   22.178922   44.296726
  O    -24.386602   22.463315   45.911014
  H    -25.208105   22.950768   43.096985
  H    -25.441161   24.291299   44.232693
  H    -24.134580   25.566285   42.665995
  H    -23.419414   24.102688   41.951693
  H    -25.045946   23.089081   46.274665

 Multiplicity           Mult            ....    1
 Number of Electrons    NEL             ....  102
 Basis Dimension        Dim             ....  149

ORBITAL ENERGIES
----------------

  NO   OCC          E(Eh)            E(eV)
   0   2.0000     -19.153293      -521.1876
   1   2.0000     -19.143810      -520.9296
   2   2.0000     -19.135646      -520.7074
   3   2.0000     -19.128286      -520.5071
   4   2.0000     -10.267693      -279.3981
   5   2.0000     -10.249855      -278.9127
   6   2.0000     -10.235854      -278.5317
   7   2.0000     -10.235538      -278.5231
   8   2.0000     -10.230000      -278.3724
   9   2.0000     -10.216146      -277.9955
  10   2.0000     -10.199413      -277.5401
  11   2.0000     -10.176089      -276.9055
  12   2.0000     -10.174310      -276.8570
  13   2.0000      -1.045072       -28.4379
  14   2.0000      -1.036564       -28.2063
  15   2.0000      -1.020660       -27.7736
  16   2.0000      -0.984388       -26.7866
  17   2.0000      -0.787643       -21.4328
  18   2.0000      -0.778960       -21.1966
  19   2.0000      -0.765278       -20.8243
  20   2.0000      -0.729081       -19.8393
  21   2.0000      -0.679283       -18.4842
  22   2.0000      -0.616440       -16.7742
  23   2.0000      -0.604300       -16.4438
  24   2.0000      -0.588566       -16.0157
  25   2.0000      -0.559190       -15.2163
  26   2.0000      -0.535914       -14.5830
  27   2.0000      -0.512230       -13.9385
  28   2.0000      -0.495290       -13.4775
  29   2.0000      -0.479089       -13.0367
  30   2.0000      -0.469123       -12.7655
  31   2.0000      -0.453638       -12.3441
  32   2.0000      -0.437039       -11.8924
  33   2.0000      -0.435457       -11.8494
  34   2.0000      -0.431552       -11.7431
  35   2.0000      -0.422120       -11.4865
  36   2.0000      -0.405569       -11.0361
  37   2.0000      -0.394187       -10.7264
  38   2.0000      -0.383580       -10.4377
  39   2.0000      -0.366623        -9.9763
  40   2.0000      -0.356710        -9.7066
  41   2.0000      -0.346633        -9.4324
  42   2.0000      -0.339003        -9.2247
  43   2.0000      -0.334158        -9.0929
  44   2.0000      -0.321707        -8.7541
  45   2.0000      -0.312985        -8.5168
  46   2.0000      -0.294873        -8.0239
  47   2.0000      -0.275695        -7.5020
  48   2.0000      -0.264446        -7.1960
  49   2.0000      -0.243324        -6.6212
  50   2.0000      -0.238219        -6.4823
  51   0.0000       0.048910         1.3309
  52   0.0000       0.075955         2.0669
  53   0.0000       0.086673         2.3585
  54   0.0000       0.095662         2.6031
  55   0.0000       0.102005         2.7757

MULLIKEN ATOMIC CHARGES
-----------------------
   0 C :    0.273253
   1 C :   -0.251869
   2 C :   -0.297515
   3 C :    0.000634
   4 O :   -0.513037
   5 H :    0.167323
   6 H :    0.141230
   7 H :    0.154746
   8 H :    0.135806
   9 H :    0.159606
  10 H :    0.143679
  11 H :    0.138112
  12 C :    0.020654
  13 H :    0.140203
  14 H :    0.136108
  15 O :   -0.530268
  16 C :    0.047150
  17 C :    0.087393
  18 C :   -0.319901
  19 C :   -0.009808
  20 O :   -0.519945
  21 H :    0.172173
  22 H :    0.168954
  23 O :   -0.596332
  24 H :    0.159843
  25 H :    0.133810
  26 H :    0.148613
  27 H :    0.151671
  28 H :    0.357712
Sum of atomic charges:   -0.0000000

LOEWDIN ATOMIC CHARGES
----------------------
   0 C :    0.171183
   1 C :   -0.213357
   2 C :   -0.216805
   3 C :   -0.027416
   4 O :   -0.332138
   5 H :    0.108096
   6 H :    0.111730
   7 H :    0.123197
   8 H :    0.110781
   9 H :    0.117811
  10 H :    0.103389
  11 H :    0.100158
  12 C :   -0.044364
  13 H :    0.102799
  14 H :    0.104058
  15 O :   -0.322214
  16 C :    0.001826
  17 C :    0.039418
  18 C :   -0.240236
  19 C :   -0.028393
  20 O :   -0.325819
  21 H :    0.119281
  22 H :    0.119974
  23 O :   -0.403180
  24 H :    0.123849
  25 H :    0.104616
  26 H :    0.105258
  27 H :    0.107355
  28 H :    0.279145

  Mayer bond orders larger than 0.100000
B(  0-C ,  1-C ) :   0.9477 B(  0-C ,  4-O ) :   0.9032 B(  0-C ,  5-H ) :   0.9054
B(  0-C , 15-O ) :   0.8566 B(  1-C ,  2-C ) :   0.9571 B(  1-C ,  6-H ) :   0.9413
B(  1-C ,  7-H ) :   0.9374 B(  2-C ,  3-C ) :   0.9547 B(  2-C ,  8-H ) :   0.9459
B(  2-C ,  9-H ) :   0.9446 B(  3-C ,  4-O ) :   0.8425 B(  3-C , 10-H ) :   0.9360
B(  3-C , 11-H ) :   0.9405 B( 12-C , 13-H ) :   0.9035 B( 12-C , 14-H ) :   0.9354
B( 12-C , 15-O ) :   0.8530 B( 12-C , 16-C ) :   0.8997 B( 16-C , 17-C ) :   0.8703
B( 16-C , 20-O ) :   0.8455 B( 16-C , 21-H ) :   0.9221 B( 17-C , 18-C ) :   0.9201
B( 17-C , 22-H ) :   0.9334 B( 17-C , 23-O ) :   0.9048 B( 18-C , 19-C ) :   0.9410
B( 18-C , 24-H ) :   0.9419 B( 18-C , 25-H ) :   0.9413 B( 19-C , 20-O ) :   0.8413
B( 19-C , 26-H ) :   0.9315 B( 19-C , 27-H ) :   0.9377 B( 23-O , 28-H ) :   0.7963

FINAL SINGLE POINT ENERGY      -652.857168577616

DIPOLE MOMENT
-------------
                                X             Y             Z
Electronic contribution:      0.27908      -3.55272       0.42333
Nuclear contribution   :     -1.09447       4.03571      -0.97497
                        -----------------------------------------
Total Dipole Moment    :     -0.81539       0.48298      -0.55164
                        -----------------------------------------
Magnitude (a.u.)       :      1.09656
Magnitude (Debye)      :      2.78723

Rotational constants in cm-1:     0.059000     0.013018     0.011673
Rotational constants in MHz :  1768.778926   390.266493   349.954649

                             ****ORCA TERMINATED NORMALLY****
TOTAL RUN TIME: 0 days 0 hours 25 minutes 31 seconds 302 msec
