                         Program Version 4.2.0 -  RELEASE  -
|  1> # Test redundant internal optimization
|  2> #
|  3> ! RKS B3LYP  Opt TightSCF SmallPrint
|  4>
|  5> %basis
|  6>         Basis "6-31G"
|  7> end
|  8>
|  9> %geom
| 10> Constraints
| 11> { D 4  0  15  12  180.0   C } # D for Dihedral angle
| 12> { D 0  15  12  16  75.0   C } # D for Dihedral angle
| 13> { D 0  4  3  2   C } # D for Dihedral angle
| 14> { D 4  3  2  1   C } # D for Dihedral angle
| 15> { D 3  2  1  0   C } # D for Dihedral angle
| 16> { D 2  1  0  4   C } # D for Dihedral angle
| 17> { D 1  0  4  3   C } # D for Dihedral angle
| 18> { D 16  20  19  18   C } # D for Dihedral angle
| 19> { D 20  19  18  17   C } # D for Dihedral angle
| 20> { D 19  18  17  16   C } # D for Dihedral angle
| 21> { D 18  17  16  20   C } # D for Dihedral angle
| 22> { D 17  16  20  19   C } # D for Dihedral angle
| 23> { D 15  12  16  20   C } # D for Dihedral angle
| 24> end
| 25> end
| 26>
| 27>
| 28> #%pal
| 29> #nprocs 8
| 30> #end
| 31>
| 32> * xyz 0 1
| 33> C  -21.048   26.222   46.251
| 34> C  -20.361   27.558   45.944
| 35> C  -20.329   28.222   47.341
| 36> C  -20.110   27.022   48.296
| 37> O  -20.473   25.807   47.535
| 38> H  -20.833   25.428   45.533
| 39> H  -19.344   27.382   45.576
| 40> H  -20.898   28.157   45.201
| 41> H  -19.543   28.978   47.434
| 42> H  -21.289   28.710   47.548
| 43> H  -20.733   27.082   49.195
| 44> H  -19.064   26.913   48.597
| 45> C  -23.309   26.834   45.072
| 46> H  -24.316   27.191   45.320
| 47> H  -22.763   27.654   44.589
| 48> O  -22.586   26.394   46.375
| 49> C  -23.440   25.680   44.040
| 50> C  -24.051   26.176   42.725
| 51> C  -22.835   26.851   42.048
| 52> C  -21.648   25.956   42.485
| 53> O  -22.114   25.183   43.656
| 54> H  -23.974   24.846   44.500
| 55> H  -24.404   25.327   42.129
| 56> O  -25.241   27.153   42.936
| 57> H  -22.934   26.911   40.959
| 58> H  -22.709   27.871   42.429
| 59> H  -20.765   26.539   42.769
| 60> H  -21.364   25.234   41.714
| 61> H  -24.912   28.013   43.530
| 62> *
| 63>
| 64>                          ****END OF INPUT****
 Total Charge           Charge          ....    0
 Multiplicity           Mult            ....    1
 Number of Electrons    NEL             ....  102
FINAL SINGLE POINT ENERGY      -652.827096359936
FINAL SINGLE POINT ENERGY      -652.850161736756
FINAL SINGLE POINT ENERGY      -652.855185307870
FINAL SINGLE POINT ENERGY      -652.855953389911
FINAL SINGLE POINT ENERGY      -652.856069934300
FINAL SINGLE POINT ENERGY      -652.856092985549
FINAL SINGLE POINT ENERGY      -652.856095533316
                    ***********************HURRAY********************

CARTESIAN COORDINATES (ANGSTROEM)
---------------------------------
  C    -20.976541   26.246636   46.212787
  C    -20.245202   27.571606   46.003423
  C    -20.351277   28.224848   47.405110
  C    -20.251880   27.010462   48.351977
  O    -20.554957   25.822335   47.514895
  H    -20.748125   25.454214   45.502364
  H    -19.199878   27.361868   45.747552
  H    -20.667333   28.194513   45.209857
  H    -19.563090   28.962036   47.585976
  H    -21.320988   28.719997   47.511931
  H    -20.966557   27.048453   49.177981
  H    -19.243408   26.863993   48.750581
  C    -23.159790   26.864423   45.122451
  H    -24.145408   27.158552   45.495863
  H    -22.682417   27.750221   44.673373
  O    -22.432580   26.431697   46.297836
  C    -23.339101   25.757345   44.079051
  C    -24.082497   26.195694   42.804056
  C    -22.932045   26.831484   41.966315
  C    -21.716690   25.947929   42.326430
  O    -22.064870   25.232672   43.584019
  H    -23.829358   24.911719   44.569710
  H    -24.485084   25.317248   42.296057
  O    -25.230105   27.050900   43.018464
  H    -23.153170   26.833563   40.895443
  H    -22.780641   27.872137   42.281947
  H    -20.800871   26.526078   42.486190
  H    -21.521427   25.182517   41.570313
  H    -24.944712   27.948858   43.285050

 Multiplicity           Mult            ....    1
 Number of Electrons    NEL             ....  102
 Basis Dimension        Dim             ....  149

ORBITAL ENERGIES
----------------

  NO   OCC          E(Eh)            E(eV)
   0   2.0000     -19.154864      -521.2304
   1   2.0000     -19.148834      -521.0663
   2   2.0000     -19.133816      -520.6576
   3   2.0000     -19.132410      -520.6194
   4   2.0000     -10.266298      -279.3602
   5   2.0000     -10.250685      -278.9353
   6   2.0000     -10.239339      -278.6266
   7   2.0000     -10.233675      -278.4725
   8   2.0000     -10.232592      -278.4430
   9   2.0000     -10.219166      -278.0776
  10   2.0000     -10.202407      -277.6216
  11   2.0000     -10.184130      -277.1243
  12   2.0000     -10.183503      -277.1072
  13   2.0000      -1.046721       -28.4827
  14   2.0000      -1.038252       -28.2523
  15   2.0000      -1.022787       -27.8314
  16   2.0000      -0.985679       -26.8217
  17   2.0000      -0.789333       -21.4788
  18   2.0000      -0.781956       -21.2781
  19   2.0000      -0.769188       -20.9307
  20   2.0000      -0.729265       -19.8443
  21   2.0000      -0.683937       -18.6109
  22   2.0000      -0.618510       -16.8305
  23   2.0000      -0.600391       -16.3375
  24   2.0000      -0.592025       -16.1098
  25   2.0000      -0.567681       -15.4474
  26   2.0000      -0.534474       -14.5438
  27   2.0000      -0.510562       -13.8931
  28   2.0000      -0.499986       -13.6053
  29   2.0000      -0.487585       -13.2679
  30   2.0000      -0.471219       -12.8225
  31   2.0000      -0.457673       -12.4539
  32   2.0000      -0.446734       -12.1562
  33   2.0000      -0.439769       -11.9667
  34   2.0000      -0.430137       -11.7046
  35   2.0000      -0.422464       -11.4958
  36   2.0000      -0.403304       -10.9745
  37   2.0000      -0.399589       -10.8734
  38   2.0000      -0.386487       -10.5168
  39   2.0000      -0.372209       -10.1283
  40   2.0000      -0.360728        -9.8159
  41   2.0000      -0.351085        -9.5535
  42   2.0000      -0.350312        -9.5325
  43   2.0000      -0.335538        -9.1305
  44   2.0000      -0.322581        -8.7779
  45   2.0000      -0.306035        -8.3276
  46   2.0000      -0.296867        -8.0781
  47   2.0000      -0.277079        -7.5397
  48   2.0000      -0.269387        -7.3304
  49   2.0000      -0.250768        -6.8237
  50   2.0000      -0.233518        -6.3544
  51   0.0000       0.044404         1.2083
  52   0.0000       0.061063         1.6616
  53   0.0000       0.084921         2.3108
  54   0.0000       0.096815         2.6345
  55   0.0000       0.099332         2.7030

MULLIKEN ATOMIC CHARGES
-----------------------
   0 C :    0.293132
   1 C :   -0.285992
   2 C :   -0.296377
   3 C :    0.001283
   4 O :   -0.501087
   5 H :    0.185862
   6 H :    0.147674
   7 H :    0.133385
   8 H :    0.138771
   9 H :    0.154358
  10 H :    0.152320
  11 H :    0.139097
  12 C :   -0.028401
  13 H :    0.158837
  14 H :    0.101780
  15 O :   -0.511296
  16 C :    0.091593
  17 C :    0.083957
  18 C :   -0.325379
  19 C :   -0.013980
  20 O :   -0.516577
  21 H :    0.170622
  22 H :    0.171641
  23 O :   -0.596793
  24 H :    0.163003
  25 H :    0.133463
  26 H :    0.142090
  27 H :    0.156419
  28 H :    0.356594
Sum of atomic charges:   -0.0000000

LOEWDIN ATOMIC CHARGES
----------------------
   0 C :    0.177125
   1 C :   -0.232913
   2 C :   -0.217557
   3 C :   -0.025758
   4 O :   -0.301577
   5 H :    0.118000
   6 H :    0.115742
   7 H :    0.107278
   8 H :    0.112309
   9 H :    0.114784
  10 H :    0.108396
  11 H :    0.101044
  12 C :   -0.052465
  13 H :    0.119169
  14 H :    0.077826
  15 O :   -0.328730
  16 C :    0.008758
  17 C :    0.036354
  18 C :   -0.242647
  19 C :   -0.031455
  20 O :   -0.321052
  21 H :    0.122350
  22 H :    0.121422
  23 O :   -0.404693
  24 H :    0.124881
  25 H :    0.104223
  26 H :    0.101339
  27 H :    0.109562
  28 H :    0.278284

  Mayer bond orders larger than 0.100000
B(  0-C ,  1-C ) :   0.9306 B(  0-C ,  4-O ) :   0.9255 B(  0-C ,  5-H ) :   0.9025
B(  0-C , 15-O ) :   0.8143 B(  1-C ,  2-C ) :   0.9493 B(  1-C ,  6-H ) :   0.9351
B(  1-C ,  7-H ) :   0.9327 B(  2-C ,  3-C ) :   0.9567 B(  2-C ,  8-H ) :   0.9455
B(  2-C ,  9-H ) :   0.9458 B(  3-C ,  4-O ) :   0.8402 B(  3-C , 10-H ) :   0.9346
B(  3-C , 11-H ) :   0.9400 B( 12-C , 13-H ) :   0.9222 B( 12-C , 14-H ) :   0.9125
B( 12-C , 15-O ) :   0.8830 B( 12-C , 16-C ) :   0.8898 B( 16-C , 17-C ) :   0.8682
B( 16-C , 20-O ) :   0.8494 B( 16-C , 21-H ) :   0.9279 B( 17-C , 18-C ) :   0.9230
B( 17-C , 22-H ) :   0.9316 B( 17-C , 23-O ) :   0.9026 B( 18-C , 19-C ) :   0.9406
B( 18-C , 24-H ) :   0.9406 B( 18-C , 25-H ) :   0.9401 B( 19-C , 20-O ) :   0.8426
B( 19-C , 26-H ) :   0.9312 B( 19-C , 27-H ) :   0.9370 B( 23-O , 28-H ) :   0.7975

FINAL SINGLE POINT ENERGY      -652.856095481599

DIPOLE MOMENT
-------------
                                X             Y             Z
Electronic contribution:     -3.09795      -5.16355       1.28342
Nuclear contribution   :      3.65124       6.73430      -2.36321
                        -----------------------------------------
Total Dipole Moment    :      0.55330       1.57075      -1.07980
                        -----------------------------------------
Magnitude (a.u.)       :      1.98478
Magnitude (Debye)      :      5.04491

Rotational constants in cm-1:     0.056773     0.013540     0.012820
Rotational constants in MHz :  1702.005074   405.932628   384.330265

                             ****ORCA TERMINATED NORMALLY****
TOTAL RUN TIME: 0 days 0 hours 21 minutes 49 seconds 913 msec
