                         Program Version 4.2.0 -  RELEASE  -
|  1> # Test redundant internal optimization
|  2> #
|  3> ! RKS B3LYP  Opt TightSCF SmallPrint
|  4>
|  5> %basis
|  6>         Basis "6-31G"
|  7> end
|  8>
|  9> %geom
| 10> Constraints
| 11> { D 4  0  15  12  180.0   C } # D for Dihedral angle
| 12> { D 0  15  12  16  15.0   C } # D for Dihedral angle
| 13> { D 0  4  3  2   C } # D for Dihedral angle
| 14> { D 4  3  2  1   C } # D for Dihedral angle
| 15> { D 3  2  1  0   C } # D for Dihedral angle
| 16> { D 2  1  0  4   C } # D for Dihedral angle
| 17> { D 1  0  4  3   C } # D for Dihedral angle
| 18> { D 16  20  19  18   C } # D for Dihedral angle
| 19> { D 20  19  18  17   C } # D for Dihedral angle
| 20> { D 19  18  17  16   C } # D for Dihedral angle
| 21> { D 18  17  16  20   C } # D for Dihedral angle
| 22> { D 17  16  20  19   C } # D for Dihedral angle
| 23> { D 15  12  16  20   C } # D for Dihedral angle
| 24> end
| 25> end
| 26>
| 27>
| 28> #%pal
| 29> #nprocs 8
| 30> #end
| 31>
| 32> * xyz 0 1
| 33> C  -21.048   26.222   46.251
| 34> C  -20.361   27.558   45.944
| 35> C  -20.329   28.222   47.341
| 36> C  -20.110   27.022   48.296
| 37> O  -20.473   25.807   47.535
| 38> H  -20.833   25.428   45.533
| 39> H  -19.344   27.382   45.576
| 40> H  -20.898   28.157   45.201
| 41> H  -19.543   28.978   47.434
| 42> H  -21.289   28.710   47.548
| 43> H  -20.733   27.082   49.195
| 44> H  -19.064   26.913   48.597
| 45> C  -23.309   26.834   45.072
| 46> H  -24.217   26.232   44.941
| 47> H  -23.602   27.889   45.134
| 48> O  -22.586   26.394   46.375
| 49> C  -22.423   26.662   43.807
| 50> C  -22.104   25.186   43.547
| 51> C  -23.413   24.694   42.885
| 52> C  -23.873   25.923   42.060
| 53> O  -23.152   27.091   42.609
| 54> H  -21.546   27.306   43.895
| 55> O  -20.911   25.065   42.559
| 56> H  -21.853   24.632   44.458
| 57> H  -23.266   23.805   42.264
| 58> H  -24.153   24.446   43.655
| 59> H  -24.951   26.098   42.136
| 60> H  -23.601   25.842   41.005
| 61> H  -21.139   25.613   41.637
| 62> *
| 63>
| 64>                          ****END OF INPUT****
 Total Charge           Charge          ....    0
 Multiplicity           Mult            ....    1
 Number of Electrons    NEL             ....  102
FINAL SINGLE POINT ENERGY      -652.816870740479
FINAL SINGLE POINT ENERGY      -652.841143196559
FINAL SINGLE POINT ENERGY      -652.848671881543
FINAL SINGLE POINT ENERGY      -652.850468189794
FINAL SINGLE POINT ENERGY      -652.850752168419
FINAL SINGLE POINT ENERGY      -652.850805311118
FINAL SINGLE POINT ENERGY      -652.850808896617
                    ***********************HURRAY********************

CARTESIAN COORDINATES (ANGSTROEM)
---------------------------------
  C    -20.929578   26.217881   46.316552
  C    -20.124420   27.492601   46.062449
  C    -20.319672   28.270248   47.391374
  C    -20.354553   27.139001   48.439646
  O    -20.638145   25.894235   47.682103
  H    -20.641061   25.354171   45.715210
  H    -19.070390   27.226970   45.916898
  H    -20.454034   28.063932   45.192484
  H    -19.516187   28.989090   47.576828
  H    -21.271543   28.808420   47.370921
  H    -21.134993   27.272854   49.192926
  H    -19.391163   26.988585   48.936409
  C    -23.085556   26.807321   45.033278
  H    -24.003923   26.213239   45.054372
  H    -23.373235   27.863273   45.102424
  O    -22.369254   26.447856   46.259156
  C    -22.396386   26.624504   43.669476
  C    -22.057729   25.177994   43.273416
  C    -23.445623   24.639312   42.824612
  C    -24.101880   25.879173   42.164831
  O    -23.348955   27.064004   42.643605
  H    -21.519120   27.266802   43.570474
  O    -21.084037   25.155213   42.194092
  H    -21.617269   24.581967   44.070270
  H    -23.326620   23.800334   42.134446
  H    -24.017875   24.294742   43.692024
  H    -25.155777   25.996544   42.434308
  H    -24.020435   25.867572   41.073084
  H    -21.354587   25.795163   41.502331

 Multiplicity           Mult            ....    1
 Number of Electrons    NEL             ....  102
 Basis Dimension        Dim             ....  149

ORBITAL ENERGIES
----------------

  NO   OCC          E(Eh)            E(eV)
   0   2.0000     -19.153631      -521.1968
   1   2.0000     -19.145237      -520.9684
   2   2.0000     -19.139065      -520.8004
   3   2.0000     -19.136730      -520.7369
   4   2.0000     -10.280926      -279.7582
   5   2.0000     -10.247934      -278.8605
   6   2.0000     -10.243521      -278.7404
   7   2.0000     -10.238965      -278.6164
   8   2.0000     -10.232514      -278.4409
   9   2.0000     -10.223739      -278.2021
  10   2.0000     -10.195461      -277.4326
  11   2.0000     -10.187534      -277.2169
  12   2.0000     -10.186542      -277.1899
  13   2.0000      -1.051172       -28.6038
  14   2.0000      -1.044767       -28.4295
  15   2.0000      -1.014258       -27.5994
  16   2.0000      -0.988180       -26.8898
  17   2.0000      -0.786752       -21.4086
  18   2.0000      -0.785019       -21.3615
  19   2.0000      -0.771866       -21.0035
  20   2.0000      -0.737845       -20.0778
  21   2.0000      -0.680186       -18.5088
  22   2.0000      -0.611780       -16.6474
  23   2.0000      -0.606913       -16.5150
  24   2.0000      -0.599478       -16.3126
  25   2.0000      -0.577195       -15.7063
  26   2.0000      -0.531038       -14.4503
  27   2.0000      -0.513658       -13.9773
  28   2.0000      -0.503086       -13.6897
  29   2.0000      -0.484807       -13.1923
  30   2.0000      -0.479072       -13.0362
  31   2.0000      -0.462825       -12.5941
  32   2.0000      -0.448760       -12.2114
  33   2.0000      -0.441098       -12.0029
  34   2.0000      -0.426300       -11.6002
  35   2.0000      -0.419949       -11.4274
  36   2.0000      -0.404046       -10.9947
  37   2.0000      -0.400327       -10.8935
  38   2.0000      -0.380448       -10.3525
  39   2.0000      -0.376175       -10.2363
  40   2.0000      -0.365523        -9.9464
  41   2.0000      -0.357465        -9.7271
  42   2.0000      -0.353502        -9.6193
  43   2.0000      -0.338298        -9.2056
  44   2.0000      -0.316659        -8.6167
  45   2.0000      -0.313070        -8.5191
  46   2.0000      -0.303845        -8.2680
  47   2.0000      -0.277682        -7.5561
  48   2.0000      -0.257180        -6.9982
  49   2.0000      -0.254247        -6.9184
  50   2.0000      -0.246479        -6.7070
  51   0.0000       0.057216         1.5569
  52   0.0000       0.071740         1.9521
  53   0.0000       0.083636         2.2759
  54   0.0000       0.087825         2.3899
  55   0.0000       0.097150         2.6436

MULLIKEN ATOMIC CHARGES
-----------------------
   0 C :    0.299416
   1 C :   -0.282054
   2 C :   -0.297897
   3 C :   -0.000863
   4 O :   -0.501022
   5 H :    0.148918
   6 H :    0.150564
   7 H :    0.145264
   8 H :    0.142450
   9 H :    0.159568
  10 H :    0.154559
  11 H :    0.142796
  12 C :    0.011185
  13 H :    0.146077
  14 H :    0.150811
  15 O :   -0.528808
  16 C :    0.017932
  17 C :    0.080512
  18 C :   -0.308400
  19 C :   -0.035597
  20 O :   -0.524001
  21 H :    0.164656
  22 O :   -0.600611
  23 H :    0.170875
  24 H :    0.166723
  25 H :    0.157795
  26 H :    0.153274
  27 H :    0.151500
  28 H :    0.364374
Sum of atomic charges:   -0.0000000

LOEWDIN ATOMIC CHARGES
----------------------
   0 C :    0.182174
   1 C :   -0.232741
   2 C :   -0.216162
   3 C :   -0.025213
   4 O :   -0.300912
   5 H :    0.097360
   6 H :    0.117428
   7 H :    0.112422
   8 H :    0.114661
   9 H :    0.117286
  10 H :    0.109505
  11 H :    0.102661
  12 C :   -0.041597
  13 H :    0.109231
  14 H :    0.107699
  15 O :   -0.342837
  16 C :    0.000341
  17 C :    0.033324
  18 C :   -0.242373
  19 C :   -0.039920
  20 O :   -0.325397
  21 H :    0.112036
  22 O :   -0.413216
  23 H :    0.120420
  24 H :    0.128819
  25 H :    0.119976
  26 H :    0.107384
  27 H :    0.104537
  28 H :    0.283103

  Mayer bond orders larger than 0.100000
B(  0-C ,  1-C ) :   0.9279 B(  0-C ,  4-O ) :   0.9342 B(  0-C ,  5-H ) :   0.9089
B(  0-C , 15-O ) :   0.8311 B(  1-C ,  2-C ) :   0.9484 B(  1-C ,  6-H ) :   0.9335
B(  1-C ,  7-H ) :   0.9287 B(  2-C ,  3-C ) :   0.9548 B(  2-C ,  8-H ) :   0.9447
B(  2-C ,  9-H ) :   0.9453 B(  3-C ,  4-O ) :   0.8337 B(  3-C , 10-H ) :   0.9349
B(  3-C , 11-H ) :   0.9396 B( 12-C , 13-H ) :   0.9306 B( 12-C , 14-H ) :   0.9188
B( 12-C , 15-O ) :   0.8414 B( 12-C , 16-C ) :   0.8888 B( 16-C , 17-C ) :   0.8987
B( 16-C , 20-O ) :   0.8302 B( 16-C , 21-H ) :   0.9155 B( 17-C , 18-C ) :   0.9113
B( 17-C , 22-O ) :   0.8938 B( 17-C , 23-H ) :   0.9208 B( 18-C , 19-C ) :   0.9426
B( 18-C , 24-H ) :   0.9365 B( 18-C , 25-H ) :   0.9319 B( 19-C , 20-O ) :   0.8380
B( 19-C , 26-H ) :   0.9343 B( 19-C , 27-H ) :   0.9367 B( 22-O , 28-H ) :   0.7950

FINAL SINGLE POINT ENERGY      -652.850809812313

DIPOLE MOMENT
-------------
                                X             Y             Z
Electronic contribution:     -0.18101      -1.87714      -0.63977
Nuclear contribution   :     -0.01978       2.39290       0.12129
                        -----------------------------------------
Total Dipole Moment    :     -0.20079       0.51576      -0.51848
                        -----------------------------------------
Magnitude (a.u.)       :      0.75838
Magnitude (Debye)      :      1.92766

Rotational constants in cm-1:     0.059373     0.013172     0.012768
Rotational constants in MHz :  1779.952578   394.887864   382.761376

                             ****ORCA TERMINATED NORMALLY****
TOTAL RUN TIME: 0 days 1 hours 6 minutes 51 seconds 990 msec
