                         Program Version 4.2.0 -  RELEASE  -
|  1> # Test redundant internal optimization
|  2> #
|  3> ! RKS B3LYP  Opt TightSCF SmallPrint
|  4>
|  5> %basis
|  6>         Basis "6-31G"
|  7> end
|  8>
|  9> %geom
| 10> Constraints
| 11> { D 4  0  15  12  315.0   C } # D for Dihedral angle
| 12> { D 0  15  12  16  240.0   C } # D for Dihedral angle
| 13> { D 0  4  3  2   C } # D for Dihedral angle
| 14> { D 4  3  2  1   C } # D for Dihedral angle
| 15> { D 3  2  1  0   C } # D for Dihedral angle
| 16> { D 2  1  0  4   C } # D for Dihedral angle
| 17> { D 1  0  4  3   C } # D for Dihedral angle
| 18> { D 16  20  19  18   C } # D for Dihedral angle
| 19> { D 20  19  18  17   C } # D for Dihedral angle
| 20> { D 19  18  17  16   C } # D for Dihedral angle
| 21> { D 18  17  16  20   C } # D for Dihedral angle
| 22> { D 17  16  20  19   C } # D for Dihedral angle
| 23> { D 15  12  16  20   C } # D for Dihedral angle
| 24> end
| 25> end
| 26>
| 27>
| 28> #%pal
| 29> #nprocs 8
| 30> #end
| 31>
| 32> * xyz 0 1
| 33> C  -21.048   26.222   46.251
| 34> C  -20.361   27.558   45.944
| 35> C  -20.329   28.222   47.341
| 36> C  -20.110   27.022   48.296
| 37> O  -20.473   25.807   47.535
| 38> H  -20.833   25.428   45.533
| 39> H  -19.344   27.382   45.576
| 40> H  -20.898   28.157   45.201
| 41> H  -19.543   28.978   47.434
| 42> H  -21.289   28.710   47.548
| 43> H  -20.733   27.082   49.195
| 44> H  -19.064   26.913   48.597
| 45> C  -23.319   25.255   47.135
| 46> H  -22.584   24.510   47.466
| 47> H  -23.829   25.651   48.022
| 48> O  -22.586   26.394   46.375
| 49> C  -24.382   24.536   46.259
| 50> C  -25.164   23.498   47.073
| 51> C  -26.171   24.392   47.835
| 52> C  -26.489   25.513   46.814
| 53> O  -25.404   25.487   45.810
| 54> H  -23.899   24.138   45.364
| 55> H  -25.689   22.810   46.401
| 56> O  -24.263   22.662   48.022
| 57> H  -27.068   23.848   48.150
| 58> H  -25.700   24.809   48.733
| 59> H  -26.525   26.505   47.279
| 60> H  -27.428   25.338   46.280
| 61> H  -23.727   23.330   48.706
| 62> *
| 63>
| 64>                          ****END OF INPUT****
 Total Charge           Charge          ....    0
 Multiplicity           Mult            ....    1
 Number of Electrons    NEL             ....  102
FINAL SINGLE POINT ENERGY      -652.830751157353
FINAL SINGLE POINT ENERGY      -652.854544221573
FINAL SINGLE POINT ENERGY      -652.858966710598
FINAL SINGLE POINT ENERGY      -652.859757093492
FINAL SINGLE POINT ENERGY      -652.859884905596
FINAL SINGLE POINT ENERGY      -652.859906372501
FINAL SINGLE POINT ENERGY      -652.859909114523
                    ***********************HURRAY********************

CARTESIAN COORDINATES (ANGSTROEM)
---------------------------------
  C    -21.088189   26.154521   46.284134
  C    -20.499722   27.521253   45.935344
  C    -20.421314   28.191874   47.323491
  C    -20.078463   27.019042   48.268109
  O    -20.424282   25.779945   47.517133
  H    -20.875426   25.345268   45.578410
  H    -19.502855   27.384809   45.501219
  H    -21.127879   28.066926   45.228375
  H    -19.671826   28.988495   47.364582
  H    -21.395489   28.619479   47.577205
  H    -20.647103   27.037054   49.201655
  H    -19.011062   26.953320   48.498145
  C    -23.210668   25.293657   47.206374
  H    -22.496053   24.549730   47.574036
  H    -23.667027   25.794531   48.069216
  O    -22.516717   26.325001   46.440915
  C    -24.273000   24.621470   46.338994
  C    -25.091266   23.549792   47.081143
  C    -26.165577   24.414432   47.807342
  C    -26.430708   25.548753   46.793127
  O    -25.280341   25.561626   45.855404
  H    -23.788298   24.218525   45.444589
  H    -25.566159   22.888827   46.352897
  O    -24.333296   22.659903   47.934792
  H    -27.062987   23.839718   48.050470
  H    -25.749411   24.803277   48.746033
  H    -26.516373   26.532030   47.266075
  H    -27.328942   25.367364   46.195157
  H    -24.031572   23.126379   48.740635

 Multiplicity           Mult            ....    1
 Number of Electrons    NEL             ....  102
 Basis Dimension        Dim             ....  149

ORBITAL ENERGIES
----------------

  NO   OCC          E(Eh)            E(eV)
   0   2.0000     -19.147631      -521.0335
   1   2.0000     -19.143787      -520.9289
   2   2.0000     -19.137936      -520.7697
   3   2.0000     -19.133221      -520.6414
   4   2.0000     -10.275781      -279.6182
   5   2.0000     -10.242532      -278.7135
   6   2.0000     -10.227368      -278.3008
   7   2.0000     -10.227361      -278.3006
   8   2.0000     -10.226575      -278.2793
   9   2.0000     -10.223692      -278.2008
  10   2.0000     -10.192888      -277.3626
  11   2.0000     -10.184712      -277.1401
  12   2.0000     -10.182727      -277.0861
  13   2.0000      -1.052420       -28.6378
  14   2.0000      -1.031005       -28.0551
  15   2.0000      -1.012634       -27.5552
  16   2.0000      -0.989196       -26.9174
  17   2.0000      -0.788576       -21.4582
  18   2.0000      -0.779363       -21.2075
  19   2.0000      -0.763645       -20.7798
  20   2.0000      -0.729959       -19.8632
  21   2.0000      -0.676585       -18.4108
  22   2.0000      -0.608776       -16.5656
  23   2.0000      -0.599724       -16.3193
  24   2.0000      -0.591975       -16.1085
  25   2.0000      -0.567955       -15.4548
  26   2.0000      -0.528499       -14.3812
  27   2.0000      -0.506961       -13.7951
  28   2.0000      -0.496406       -13.5079
  29   2.0000      -0.493368       -13.4252
  30   2.0000      -0.467832       -12.7303
  31   2.0000      -0.450239       -12.2516
  32   2.0000      -0.446937       -12.1618
  33   2.0000      -0.428704       -11.6656
  34   2.0000      -0.424739       -11.5577
  35   2.0000      -0.413758       -11.2589
  36   2.0000      -0.406581       -11.0636
  37   2.0000      -0.399484       -10.8705
  38   2.0000      -0.375177       -10.2091
  39   2.0000      -0.365593        -9.9483
  40   2.0000      -0.356536        -9.7018
  41   2.0000      -0.351675        -9.5696
  42   2.0000      -0.345440        -9.3999
  43   2.0000      -0.337781        -9.1915
  44   2.0000      -0.323760        -8.8100
  45   2.0000      -0.311505        -8.4765
  46   2.0000      -0.294852        -8.0233
  47   2.0000      -0.268795        -7.3143
  48   2.0000      -0.265241        -7.2176
  49   2.0000      -0.256059        -6.9677
  50   2.0000      -0.233638        -6.3576
  51   0.0000       0.053576         1.4579
  52   0.0000       0.078718         2.1420
  53   0.0000       0.090726         2.4688
  54   0.0000       0.096041         2.6134
  55   0.0000       0.107686         2.9303

MULLIKEN ATOMIC CHARGES
-----------------------
   0 C :    0.283363
   1 C :   -0.260270
   2 C :   -0.299900
   3 C :   -0.008292
   4 O :   -0.515486
   5 H :    0.147797
   6 H :    0.143700
   7 H :    0.166168
   8 H :    0.142051
   9 H :    0.162286
  10 H :    0.141613
  11 H :    0.146159
  12 C :   -0.025689
  13 H :    0.160724
  14 H :    0.127936
  15 O :   -0.513813
  16 C :    0.098375
  17 C :    0.085581
  18 C :   -0.323092
  19 C :   -0.003501
  20 O :   -0.507304
  21 H :    0.151934
  22 H :    0.166883
  23 O :   -0.600579
  24 H :    0.156412
  25 H :    0.131132
  26 H :    0.142178
  27 H :    0.146712
  28 H :    0.356923
Sum of atomic charges:   -0.0000000

LOEWDIN ATOMIC CHARGES
----------------------
   0 C :    0.173933
   1 C :   -0.213899
   2 C :   -0.216677
   3 C :   -0.029634
   4 O :   -0.330883
   5 H :    0.097024
   6 H :    0.113519
   7 H :    0.128895
   8 H :    0.114162
   9 H :    0.119259
  10 H :    0.102333
  11 H :    0.104420
  12 C :   -0.055261
  13 H :    0.115536
  14 H :    0.096996
  15 O :   -0.321076
  16 C :    0.016137
  17 C :    0.034045
  18 C :   -0.241073
  19 C :   -0.028860
  20 O :   -0.315726
  21 H :    0.114502
  22 H :    0.119162
  23 O :   -0.407291
  24 H :    0.121963
  25 H :    0.103072
  26 H :    0.102236
  27 H :    0.104879
  28 H :    0.278308

  Mayer bond orders larger than 0.100000
B(  0-C ,  1-C ) :   0.9486 B(  0-C ,  4-O ) :   0.8928 B(  0-C ,  5-H ) :   0.9203
B(  0-C , 15-O ) :   0.8675 B(  1-C ,  2-C ) :   0.9543 B(  1-C ,  6-H ) :   0.9393
B(  1-C ,  7-H ) :   0.9344 B(  2-C ,  3-C ) :   0.9564 B(  2-C ,  8-H ) :   0.9449
B(  2-C ,  9-H ) :   0.9443 B(  3-C ,  4-O ) :   0.8341 B(  3-C , 10-H ) :   0.9365
B(  3-C , 11-H ) :   0.9405 B( 12-C , 13-H ) :   0.8987 B( 12-C , 14-H ) :   0.9341
B( 12-C , 15-O ) :   0.8374 B( 12-C , 16-C ) :   0.8997 B( 16-C , 17-C ) :   0.8719
B( 16-C , 20-O ) :   0.8661 B( 16-C , 21-H ) :   0.9331 B( 17-C , 18-C ) :   0.9201
B( 17-C , 22-H ) :   0.9335 B( 17-C , 23-O ) :   0.8985 B( 18-C , 19-C ) :   0.9385
B( 18-C , 24-H ) :   0.9423 B( 18-C , 25-H ) :   0.9422 B( 19-C , 20-O ) :   0.8518
B( 19-C , 26-H ) :   0.9321 B( 19-C , 27-H ) :   0.9379 B( 23-O , 28-H ) :   0.7971

FINAL SINGLE POINT ENERGY      -652.859909383626

DIPOLE MOMENT
-------------
                                X             Y             Z
Electronic contribution:     -0.59413      -3.51653      -2.32971
Nuclear contribution   :      0.57527       4.14168       3.18788
                        -----------------------------------------
Total Dipole Moment    :     -0.01886       0.62515       0.85816
                        -----------------------------------------
Magnitude (a.u.)       :      1.06189
Magnitude (Debye)      :      2.69911

Rotational constants in cm-1:     0.054038     0.012818     0.011629
Rotational constants in MHz :  1620.028218   384.283407   348.642484

                             ****ORCA TERMINATED NORMALLY****
TOTAL RUN TIME: 0 days 2 hours 17 minutes 40 seconds 694 msec
