                         Program Version 4.2.0 -  RELEASE  -
|  1> # Test redundant internal optimization
|  2> #
|  3> ! RKS B3LYP  Opt TightSCF SmallPrint
|  4>
|  5> %basis
|  6>         Basis "6-31G"
|  7> end
|  8>
|  9> %geom
| 10> Constraints
| 11> { D 4  0  15  12  195.0   C } # D for Dihedral angle
| 12> { D 0  15  12  16  270.0   C } # D for Dihedral angle
| 13> { D 0  4  3  2   C } # D for Dihedral angle
| 14> { D 4  3  2  1   C } # D for Dihedral angle
| 15> { D 3  2  1  0   C } # D for Dihedral angle
| 16> { D 2  1  0  4   C } # D for Dihedral angle
| 17> { D 1  0  4  3   C } # D for Dihedral angle
| 18> { D 16  20  19  18   C } # D for Dihedral angle
| 19> { D 20  19  18  17   C } # D for Dihedral angle
| 20> { D 19  18  17  16   C } # D for Dihedral angle
| 21> { D 18  17  16  20   C } # D for Dihedral angle
| 22> { D 17  16  20  19   C } # D for Dihedral angle
| 23> { D 15  12  16  20   C } # D for Dihedral angle
| 24> end
| 25> end
| 26>
| 27>
| 28> #%pal
| 29> #nprocs 8
| 30> #end
| 31>
| 32> * xyz 0 1
| 33> C  -21.048   26.222   46.251
| 34> C  -20.361   27.558   45.944
| 35> C  -20.329   28.222   47.341
| 36> C  -20.110   27.022   48.296
| 37> O  -20.473   25.807   47.535
| 38> H  -20.833   25.428   45.533
| 39> H  -19.344   27.382   45.576
| 40> H  -20.898   28.157   45.201
| 41> H  -19.543   28.978   47.434
| 42> H  -21.289   28.710   47.548
| 43> H  -20.733   27.082   49.195
| 44> H  -19.064   26.913   48.597
| 45> C  -23.353   26.472   45.026
| 46> H  -22.820   25.880   44.272
| 47> H  -24.364   26.059   45.135
| 48> O  -22.586   26.394   46.375
| 49> C  -23.490   27.927   44.497
| 50> C  -24.349   27.978   43.229
| 51> C  -25.779   27.892   43.815
| 52> C  -25.663   28.679   45.143
| 53> O  -24.221   28.756   45.462
| 54> H  -22.496   28.363   44.388
| 55> H  -24.201   28.933   42.712
| 56> O  -24.036   26.828   42.233
| 57> H  -26.538   28.311   43.146
| 58> H  -26.044   26.846   44.008
| 59> H  -26.187   28.187   45.970
| 60> H  -26.028   29.706   45.054
| 61> H  -24.180   25.862   42.728
| 62> *
| 63>
| 64>                          ****END OF INPUT****
 Total Charge           Charge          ....    0
 Multiplicity           Mult            ....    1
 Number of Electrons    NEL             ....  102
FINAL SINGLE POINT ENERGY      -652.822788278214
FINAL SINGLE POINT ENERGY      -652.846111420389
FINAL SINGLE POINT ENERGY      -652.851267079635
FINAL SINGLE POINT ENERGY      -652.852192199309
FINAL SINGLE POINT ENERGY      -652.852394358430
FINAL SINGLE POINT ENERGY      -652.852423737356
FINAL SINGLE POINT ENERGY      -652.852428648236
                    ***********************HURRAY********************

CARTESIAN COORDINATES (ANGSTROEM)
---------------------------------
  C    -21.015721   26.243982   46.178602
  C    -20.291084   27.566550   45.933444
  C    -20.370080   28.241986   47.326644
  C    -20.249510   27.043582   48.289890
  O    -20.567240   25.841265   47.478342
  H    -20.775249   25.442746   45.469805
  H    -19.248939   27.348937   45.667383
  H    -20.723592   28.175200   45.139362
  H    -19.580947   28.984159   47.478614
  H    -21.341580   28.732481   47.437515
  H    -20.950428   27.090738   49.126790
  H    -19.233773   26.903386   48.671812
  C    -23.247021   26.463768   45.059266
  H    -22.783337   25.848230   44.271252
  H    -24.209293   26.013983   45.327247
  O    -22.464830   26.386422   46.279093
  C    -23.463090   27.878099   44.511278
  C    -24.353063   27.907203   43.256097
  C    -25.785121   27.858761   43.875282
  C    -25.619083   28.680858   45.173029
  O    -24.163385   28.741532   45.457396
  H    -22.502627   28.359085   44.320267
  H    -24.200982   28.851219   42.727802
  O    -24.073370   26.886425   42.267597
  H    -26.539462   28.273404   43.201501
  H    -26.058419   26.817367   44.090006
  H    -26.130613   28.233052   46.030516
  H    -25.964783   29.712194   45.055944
  H    -24.453377   26.027387   42.542222

 Multiplicity           Mult            ....    1
 Number of Electrons    NEL             ....  102
 Basis Dimension        Dim             ....  149

ORBITAL ENERGIES
----------------

  NO   OCC          E(Eh)            E(eV)
   0   2.0000     -19.154414      -521.2181
   1   2.0000     -19.140408      -520.8370
   2   2.0000     -19.135184      -520.6948
   3   2.0000     -19.134787      -520.6840
   4   2.0000     -10.276105      -279.6270
   5   2.0000     -10.249764      -278.9102
   6   2.0000     -10.233680      -278.4726
   7   2.0000     -10.233565      -278.4695
   8   2.0000     -10.231940      -278.4252
   9   2.0000     -10.218757      -278.0665
  10   2.0000     -10.199930      -277.5542
  11   2.0000     -10.182040      -277.0674
  12   2.0000     -10.178954      -276.9834
  13   2.0000      -1.048938       -28.5431
  14   2.0000      -1.037476       -28.2311
  15   2.0000      -1.019258       -27.7354
  16   2.0000      -0.988102       -26.8876
  17   2.0000      -0.786490       -21.4015
  18   2.0000      -0.780094       -21.2274
  19   2.0000      -0.768585       -20.9143
  20   2.0000      -0.731153       -19.8957
  21   2.0000      -0.681649       -18.5486
  22   2.0000      -0.615871       -16.7587
  23   2.0000      -0.596180       -16.2229
  24   2.0000      -0.593653       -16.1541
  25   2.0000      -0.575599       -15.6628
  26   2.0000      -0.527262       -14.3475
  27   2.0000      -0.513211       -13.9652
  28   2.0000      -0.496631       -13.5140
  29   2.0000      -0.492166       -13.3925
  30   2.0000      -0.465701       -12.6724
  31   2.0000      -0.453392       -12.3374
  32   2.0000      -0.445195       -12.1144
  33   2.0000      -0.440021       -11.9736
  34   2.0000      -0.431137       -11.7318
  35   2.0000      -0.420206       -11.4344
  36   2.0000      -0.409716       -11.1489
  37   2.0000      -0.400678       -10.9030
  38   2.0000      -0.378903       -10.3105
  39   2.0000      -0.371805       -10.1173
  40   2.0000      -0.359413        -9.7801
  41   2.0000      -0.350505        -9.5377
  42   2.0000      -0.346490        -9.4285
  43   2.0000      -0.332255        -9.0411
  44   2.0000      -0.320618        -8.7245
  45   2.0000      -0.306310        -8.3351
  46   2.0000      -0.295503        -8.0411
  47   2.0000      -0.275435        -7.4950
  48   2.0000      -0.262985        -7.1562
  49   2.0000      -0.253098        -6.8871
  50   2.0000      -0.234420        -6.3789
  51   0.0000       0.049088         1.3358
  52   0.0000       0.076278         2.0756
  53   0.0000       0.080206         2.1825
  54   0.0000       0.091252         2.4831
  55   0.0000       0.102968         2.8019

MULLIKEN ATOMIC CHARGES
-----------------------
   0 C :    0.296366
   1 C :   -0.273933
   2 C :   -0.303922
   3 C :    0.000404
   4 O :   -0.501965
   5 H :    0.135818
   6 H :    0.143297
   7 H :    0.144910
   8 H :    0.138849
   9 H :    0.179066
  10 H :    0.155083
  11 H :    0.138551
  12 C :   -0.028470
  13 H :    0.124646
  14 H :    0.145263
  15 O :   -0.495942
  16 C :    0.086834
  17 C :    0.083681
  18 C :   -0.328219
  19 C :   -0.010106
  20 O :   -0.507468
  21 H :    0.154800
  22 H :    0.167578
  23 O :   -0.600786
  24 H :    0.160147
  25 H :    0.136232
  26 H :    0.150178
  27 H :    0.150926
  28 H :    0.358182
Sum of atomic charges:   -0.0000000

LOEWDIN ATOMIC CHARGES
----------------------
   0 C :    0.181888
   1 C :   -0.230937
   2 C :   -0.218053
   3 C :   -0.024505
   4 O :   -0.303330
   5 H :    0.094086
   6 H :    0.113347
   7 H :    0.112711
   8 H :    0.113115
   9 H :    0.126863
  10 H :    0.109910
  11 H :    0.100559
  12 C :   -0.051606
  13 H :    0.095056
  14 H :    0.108007
  15 O :   -0.321869
  16 C :    0.007943
  17 C :    0.034409
  18 C :   -0.242299
  19 C :   -0.029037
  20 O :   -0.317529
  21 H :    0.109825
  22 H :    0.118964
  23 O :   -0.408107
  24 H :    0.123628
  25 H :    0.105191
  26 H :    0.106044
  27 H :    0.106665
  28 H :    0.279065

  Mayer bond orders larger than 0.100000
B(  0-C ,  1-C ) :   0.9290 B(  0-C ,  4-O ) :   0.9388 B(  0-C ,  5-H ) :   0.9180
B(  0-C , 15-O ) :   0.8394 B(  1-C ,  2-C ) :   0.9528 B(  1-C ,  6-H ) :   0.9328
B(  1-C ,  7-H ) :   0.9246 B(  2-C ,  3-C ) :   0.9554 B(  2-C ,  8-H ) :   0.9450
B(  2-C ,  9-H ) :   0.9381 B(  3-C ,  4-O ) :   0.8329 B(  3-C , 10-H ) :   0.9347
B(  3-C , 11-H ) :   0.9400 B( 12-C , 13-H ) :   0.9028 B( 12-C , 14-H ) :   0.9376
B( 12-C , 15-O ) :   0.8768 B( 12-C , 16-C ) :   0.8800 B( 16-C , 17-C ) :   0.8681
B( 16-C , 20-O ) :   0.8707 B( 16-C , 21-H ) :   0.9203 B( 17-C , 18-C ) :   0.9246
B( 17-C , 22-H ) :   0.9324 B( 17-C , 23-O ) :   0.8967 B( 18-C , 19-C ) :   0.9401
B( 18-C , 24-H ) :   0.9411 B( 18-C , 25-H ) :   0.9402 B( 19-C , 20-O ) :   0.8455
B( 19-C , 26-H ) :   0.9309 B( 19-C , 27-H ) :   0.9372 B( 23-O , 28-H ) :   0.7976

FINAL SINGLE POINT ENERGY      -652.852429133278

DIPOLE MOMENT
-------------
                                X             Y             Z
Electronic contribution:      0.03583      -2.65353       0.05924
Nuclear contribution   :     -0.60019       3.04268      -0.68067
                        -----------------------------------------
Total Dipole Moment    :     -0.56437       0.38915      -0.62144
                        -----------------------------------------
Magnitude (a.u.)       :      0.92527
Magnitude (Debye)      :      2.35186

Rotational constants in cm-1:     0.055054     0.013344     0.012356
Rotational constants in MHz :  1650.491358   400.031464   370.433170

                             ****ORCA TERMINATED NORMALLY****
TOTAL RUN TIME: 0 days 1 hours 24 minutes 16 seconds 265 msec
