                         Program Version 4.2.0 -  RELEASE  -
|  1> # Test redundant internal optimization
|  2> #
|  3> ! RKS B3LYP  Opt TightSCF SmallPrint
|  4>
|  5> %basis
|  6>         Basis "6-31G"
|  7> end
|  8>
|  9> %geom
| 10> Constraints
| 11> { D 4  0  15  12  135.0   C } # D for Dihedral angle
| 12> { D 0  15  12  16  225.0   C } # D for Dihedral angle
| 13> { D 0  4  3  2   C } # D for Dihedral angle
| 14> { D 4  3  2  1   C } # D for Dihedral angle
| 15> { D 3  2  1  0   C } # D for Dihedral angle
| 16> { D 2  1  0  4   C } # D for Dihedral angle
| 17> { D 1  0  4  3   C } # D for Dihedral angle
| 18> { D 16  20  19  18   C } # D for Dihedral angle
| 19> { D 20  19  18  17   C } # D for Dihedral angle
| 20> { D 19  18  17  16   C } # D for Dihedral angle
| 21> { D 18  17  16  20   C } # D for Dihedral angle
| 22> { D 17  16  20  19   C } # D for Dihedral angle
| 23> { D 15  12  16  20   C } # D for Dihedral angle
| 24> end
| 25> end
| 26>
| 27>
| 28> #%pal
| 29> #nprocs 8
| 30> #end
| 31>
| 32> * xyz 0 1
| 33> C  -21.048   26.222   46.251
| 34> C  -20.361   27.558   45.944
| 35> C  -20.329   28.222   47.341
| 36> C  -20.110   27.022   48.296
| 37> O  -20.473   25.807   47.535
| 38> H  -20.833   25.428   45.533
| 39> H  -19.344   27.382   45.576
| 40> H  -20.898   28.157   45.201
| 41> H  -19.543   28.978   47.434
| 42> H  -21.289   28.710   47.548
| 43> H  -20.733   27.082   49.195
| 44> H  -19.064   26.913   48.597
| 45> C  -23.162   27.680   45.721
| 46> H  -22.341   28.375   45.504
| 47> H  -23.664   27.437   44.775
| 48> O  -22.586   26.394   46.375
| 49> C  -24.191   28.407   46.630
| 50> C  -25.327   27.467   47.049
| 51> C  -24.660   26.659   48.188
| 52> C  -23.736   27.702   48.865
| 53> O  -23.566   28.805   47.895
| 54> H  -24.521   29.322   46.134
| 55> H  -26.173   28.047   47.431
| 56> O  -25.833   26.566   45.889
| 57> H  -25.386   26.229   48.885
| 58> H  -24.070   25.834   47.769
| 59> H  -22.753   27.291   49.118
| 60> H  -24.183   28.132   49.766
| 61> H  -25.001   25.976   45.491
| 62> *
| 63>
| 64>                          ****END OF INPUT****
 Total Charge           Charge          ....    0
 Multiplicity           Mult            ....    1
 Number of Electrons    NEL             ....  102
FINAL SINGLE POINT ENERGY      -652.820882444336
FINAL SINGLE POINT ENERGY      -652.845213681361
FINAL SINGLE POINT ENERGY      -652.855424352291
FINAL SINGLE POINT ENERGY      -652.857597991836
FINAL SINGLE POINT ENERGY      -652.858007428633
FINAL SINGLE POINT ENERGY      -652.858074658020
FINAL SINGLE POINT ENERGY      -652.858083810751
                    ***********************HURRAY********************

CARTESIAN COORDINATES (ANGSTROEM)
---------------------------------
  C    -21.073384   26.348428   46.199908
  C    -20.187230   27.560811   45.905095
  C    -20.122854   28.258744   47.290191
  C    -20.126748   27.066145   48.270413
  O    -20.632366   25.904340   47.493620
  H    -20.920949   25.503574   45.524314
  H    -19.199320   27.183632   45.618210
  H    -20.535809   28.210615   45.099755
  H    -19.232515   28.884831   47.399390
  H    -21.010484   28.880326   47.447221
  H    -20.773439   27.226450   49.135889
  H    -19.124938   26.794148   48.615294
  C    -23.167671   27.752130   45.688708
  H    -22.444990   28.539916   45.462058
  H    -23.673923   27.473615   44.754823
  O    -22.516942   26.578749   46.251826
  C    -24.200324   28.328920   46.654311
  C    -25.352291   27.382383   47.036331
  C    -24.732982   26.593214   48.230204
  C    -23.857696   27.654037   48.926050
  O    -23.647697   28.749583   47.935535
  H    -24.590722   29.238360   46.180112
  H    -26.223555   27.961645   47.349116
  O    -25.820970   26.550203   45.949051
  H    -25.500001   26.178830   48.890857
  H    -24.111661   25.784525   47.837691
  H    -22.887736   27.256742   49.228429
  H    -24.350929   28.108660   49.790328
  H    -25.157874   25.850446   45.771270

 Multiplicity           Mult            ....    1
 Number of Electrons    NEL             ....  102
 Basis Dimension        Dim             ....  149

ORBITAL ENERGIES
----------------

  NO   OCC          E(Eh)            E(eV)
   0   2.0000     -19.145255      -520.9689
   1   2.0000     -19.143348      -520.9170
   2   2.0000     -19.138563      -520.7868
   3   2.0000     -19.137079      -520.7464
   4   2.0000     -10.285420      -279.8805
   5   2.0000     -10.234728      -278.5011
   6   2.0000     -10.233556      -278.4692
   7   2.0000     -10.230152      -278.3766
   8   2.0000     -10.227311      -278.2993
   9   2.0000     -10.221788      -278.1490
  10   2.0000     -10.195013      -277.4204
  11   2.0000     -10.187587      -277.2183
  12   2.0000     -10.176165      -276.9075
  13   2.0000      -1.053936       -28.6790
  14   2.0000      -1.026738       -27.9390
  15   2.0000      -1.008937       -27.4546
  16   2.0000      -0.994429       -27.0598
  17   2.0000      -0.789893       -21.4941
  18   2.0000      -0.774073       -21.0636
  19   2.0000      -0.765778       -20.8379
  20   2.0000      -0.735356       -20.0101
  21   2.0000      -0.681410       -18.5421
  22   2.0000      -0.605133       -16.4665
  23   2.0000      -0.601526       -16.3683
  24   2.0000      -0.597036       -16.2462
  25   2.0000      -0.562804       -15.3147
  26   2.0000      -0.530469       -14.4348
  27   2.0000      -0.507795       -13.8178
  28   2.0000      -0.498077       -13.5534
  29   2.0000      -0.494324       -13.4512
  30   2.0000      -0.467521       -12.7219
  31   2.0000      -0.459001       -12.4900
  32   2.0000      -0.446316       -12.1449
  33   2.0000      -0.433545       -11.7974
  34   2.0000      -0.420765       -11.4496
  35   2.0000      -0.415215       -11.2986
  36   2.0000      -0.402983       -10.9657
  37   2.0000      -0.396012       -10.7760
  38   2.0000      -0.384608       -10.4657
  39   2.0000      -0.367875       -10.0104
  40   2.0000      -0.360399        -9.8070
  41   2.0000      -0.353012        -9.6060
  42   2.0000      -0.351159        -9.5555
  43   2.0000      -0.324635        -8.8338
  44   2.0000      -0.317062        -8.6277
  45   2.0000      -0.308707        -8.4003
  46   2.0000      -0.296453        -8.0669
  47   2.0000      -0.273977        -7.4553
  48   2.0000      -0.260922        -7.1001
  49   2.0000      -0.256208        -6.9718
  50   2.0000      -0.239166        -6.5080
  51   0.0000       0.067453         1.8355
  52   0.0000       0.078869         2.1461
  53   0.0000       0.094629         2.5750
  54   0.0000       0.098679         2.6852
  55   0.0000       0.102042         2.7767

MULLIKEN ATOMIC CHARGES
-----------------------
   0 C :    0.328557
   1 C :   -0.307678
   2 C :   -0.316483
   3 C :   -0.007611
   4 O :   -0.501466
   5 H :    0.153133
   6 H :    0.155477
   7 H :    0.146782
   8 H :    0.142691
   9 H :    0.186731
  10 H :    0.148840
  11 H :    0.144195
  12 C :   -0.027051
  13 H :    0.142968
  14 H :    0.144750
  15 O :   -0.549526
  16 C :    0.102181
  17 C :    0.089689
  18 C :   -0.313251
  19 C :   -0.016017
  20 O :   -0.525255
  21 H :    0.144841
  22 H :    0.158625
  23 O :   -0.608375
  24 H :    0.143474
  25 H :    0.179247
  26 H :    0.153720
  27 H :    0.140300
  28 H :    0.366512
Sum of atomic charges:   -0.0000000

LOEWDIN ATOMIC CHARGES
----------------------
   0 C :    0.186579
   1 C :   -0.232533
   2 C :   -0.224880
   3 C :   -0.027462
   4 O :   -0.311582
   5 H :    0.102554
   6 H :    0.121806
   7 H :    0.115054
   8 H :    0.115369
   9 H :    0.127389
  10 H :    0.102818
  11 H :    0.103252
  12 C :   -0.047814
  13 H :    0.104541
  14 H :    0.103732
  15 O :   -0.347133
  16 C :    0.015366
  17 C :    0.037984
  18 C :   -0.241920
  19 C :   -0.025659
  20 O :   -0.326965
  21 H :    0.111906
  22 H :    0.114625
  23 O :   -0.411308
  24 H :    0.115186
  25 H :    0.128958
  26 H :    0.105347
  27 H :    0.100489
  28 H :    0.284301

  Mayer bond orders larger than 0.100000
B(  0-C ,  1-C ) :   0.9353 B(  0-C ,  4-O ) :   0.9286 B(  0-C ,  5-H ) :   0.9301
B(  0-C , 15-O ) :   0.8361 B(  1-C ,  2-C ) :   0.9492 B(  1-C ,  6-H ) :   0.9329
B(  1-C ,  7-H ) :   0.9263 B(  2-C ,  3-C ) :   0.9535 B(  2-C ,  8-H ) :   0.9451
B(  2-C ,  9-H ) :   0.9231 B(  3-C ,  4-O ) :   0.8370 B(  3-C , 10-H ) :   0.9236
B(  3-C , 11-H ) :   0.9403 B( 12-C , 13-H ) :   0.9107 B( 12-C , 14-H ) :   0.9100
B( 12-C , 15-O ) :   0.8401 B( 12-C , 16-C ) :   0.9016 B( 16-C , 17-C ) :   0.8884
B( 16-C , 20-O ) :   0.8745 B( 16-C , 21-H ) :   0.9266 B( 17-C , 18-C ) :   0.9340
B( 17-C , 22-H ) :   0.9367 B( 17-C , 23-O ) :   0.9021 B( 18-C , 19-C ) :   0.9474
B( 18-C , 24-H ) :   0.9411 B( 18-C , 25-H ) :   0.9226 B( 19-C , 20-O ) :   0.8336
B( 19-C , 26-H ) :   0.9188 B( 19-C , 27-H ) :   0.9385 B( 23-O , 28-H ) :   0.7914

FINAL SINGLE POINT ENERGY      -652.858084396462

DIPOLE MOMENT
-------------
                                X             Y             Z
Electronic contribution:     -2.97752      -2.12924      -1.29951
Nuclear contribution   :      3.84758       2.54911       1.11806
                        -----------------------------------------
Total Dipole Moment    :      0.87006       0.41987      -0.18146
                        -----------------------------------------
Magnitude (a.u.)       :      0.98296
Magnitude (Debye)      :      2.49849

Rotational constants in cm-1:     0.046554     0.018402     0.016940
Rotational constants in MHz :  1395.641486   551.668192   507.848273

                             ****ORCA TERMINATED NORMALLY****
TOTAL RUN TIME: 0 days 0 hours 44 minutes 8 seconds 866 msec
