                         Program Version 4.2.0 -  RELEASE  -
|  1> # Test redundant internal optimization
|  2> #
|  3> ! RKS B3LYP  Opt TightSCF SmallPrint
|  4>
|  5> %basis
|  6>         Basis "6-31G"
|  7> end
|  8>
|  9> %geom
| 10> Constraints
| 11> { D 4  0  15  12  180.0   C } # D for Dihedral angle
| 12> { D 0  15  12  16  210.0   C } # D for Dihedral angle
| 13> { D 0  4  3  2   C } # D for Dihedral angle
| 14> { D 4  3  2  1   C } # D for Dihedral angle
| 15> { D 3  2  1  0   C } # D for Dihedral angle
| 16> { D 2  1  0  4   C } # D for Dihedral angle
| 17> { D 1  0  4  3   C } # D for Dihedral angle
| 18> { D 16  20  19  18   C } # D for Dihedral angle
| 19> { D 20  19  18  17   C } # D for Dihedral angle
| 20> { D 19  18  17  16   C } # D for Dihedral angle
| 21> { D 18  17  16  20   C } # D for Dihedral angle
| 22> { D 17  16  20  19   C } # D for Dihedral angle
| 23> { D 15  12  16  20   C } # D for Dihedral angle
| 24> end
| 25> end
| 26>
| 27>
| 28> #%pal
| 29> #nprocs 8
| 30> #end
| 31>
| 32> * xyz 0 1
| 33> C  -21.048   26.222   46.251
| 34> C  -20.361   27.558   45.944
| 35> C  -20.329   28.222   47.341
| 36> C  -20.110   27.022   48.296
| 37> O  -20.473   25.807   47.535
| 38> H  -20.833   25.428   45.533
| 39> H  -19.344   27.382   45.576
| 40> H  -20.898   28.157   45.201
| 41> H  -19.543   28.978   47.434
| 42> H  -21.289   28.710   47.548
| 43> H  -20.733   27.082   49.195
| 44> H  -19.064   26.913   48.597
| 45> C  -23.309   26.834   45.072
| 46> H  -22.622   27.435   44.463
| 47> H  -23.610   25.956   44.485
| 48> O  -22.586   26.394   46.375
| 49> C  -24.584   27.678   45.348
| 50> C  -25.555   26.934   46.273
| 51> C  -24.911   27.171   47.659
| 52> C  -24.324   28.600   47.535
| 53> O  -24.241   28.896   46.089
| 54> H  -25.017   27.992   44.397
| 55> H  -26.547   27.395   46.224
| 56> O  -25.696   25.427   45.925
| 57> H  -25.628   27.085   48.482
| 58> H  -24.112   26.440   47.834
| 59> H  -23.326   28.684   47.977
| 60> H  -24.974   29.358   47.982
| 61> H  -24.713   24.945   45.967
| 62> *
| 63>
| 64>                          ****END OF INPUT****
 Total Charge           Charge          ....    0
 Multiplicity           Mult            ....    1
 Number of Electrons    NEL             ....  102
FINAL SINGLE POINT ENERGY      -652.831932359150
FINAL SINGLE POINT ENERGY      -652.854960548943
FINAL SINGLE POINT ENERGY      -652.859644282299
FINAL SINGLE POINT ENERGY      -652.861549191171
FINAL SINGLE POINT ENERGY      -652.861726663150
FINAL SINGLE POINT ENERGY      -652.861757078445
                    ***********************HURRAY********************

CARTESIAN COORDINATES (ANGSTROEM)
---------------------------------
  C    -21.045326   26.250555   46.151140
  C    -20.305584   27.560903   45.890419
  C    -20.352153   28.238621   47.281834
  C    -20.233875   27.044017   48.249213
  O    -20.583199   25.841535   47.444481
  H    -20.820231   25.440956   45.449110
  H    -19.275146   27.327537   45.598297
  H    -20.748874   28.181103   45.108089
  H    -19.547279   28.966908   47.418925
  H    -21.308593   28.754412   47.399850
  H    -20.917677   27.103757   49.099827
  H    -19.214516   26.888482   48.613482
  C    -23.210647   26.831881   45.056395
  H    -22.571229   27.457372   44.422507
  H    -23.516862   25.951861   44.473023
  O    -22.494677   26.414793   46.254646
  C    -24.449422   27.642040   45.423848
  C    -25.487705   26.901319   46.286307
  C    -24.944853   27.150754   47.726020
  C    -24.357448   28.573486   47.626763
  O    -24.168809   28.856884   46.177687
  H    -24.896566   27.970190   44.477121
  H    -26.473960   27.349758   46.148129
  O    -25.655979   25.504736   45.945441
  H    -25.732362   27.070487   48.481314
  H    -24.159440   26.421515   47.939134
  H    -23.394920   28.667535   48.135701
  H    -25.040872   29.339069   48.007075
  H    -24.871798   25.002533   46.252222

 Multiplicity           Mult            ....    1
 Number of Electrons    NEL             ....  102
 Basis Dimension        Dim             ....  149

ORBITAL ENERGIES
----------------

  NO   OCC          E(Eh)            E(eV)
   0   2.0000     -19.148436      -521.0554
   1   2.0000     -19.146065      -520.9909
   2   2.0000     -19.137288      -520.7521
   3   2.0000     -19.137150      -520.7483
   4   2.0000     -10.285888      -279.8932
   5   2.0000     -10.235518      -278.5226
   6   2.0000     -10.233193      -278.4593
   7   2.0000     -10.231424      -278.4112
   8   2.0000     -10.229636      -278.3626
   9   2.0000     -10.223731      -278.2019
  10   2.0000     -10.191158      -277.3155
  11   2.0000     -10.189070      -277.2587
  12   2.0000     -10.177921      -276.9553
  13   2.0000      -1.058949       -28.8155
  14   2.0000      -1.027295       -27.9541
  15   2.0000      -1.009122       -27.4596
  16   2.0000      -0.997323       -27.1385
  17   2.0000      -0.790444       -21.5091
  18   2.0000      -0.773691       -21.0532
  19   2.0000      -0.766229       -20.8502
  20   2.0000      -0.735372       -20.0105
  21   2.0000      -0.680178       -18.5086
  22   2.0000      -0.605784       -16.4842
  23   2.0000      -0.601583       -16.3699
  24   2.0000      -0.596086       -16.2203
  25   2.0000      -0.568995       -15.4831
  26   2.0000      -0.530712       -14.4414
  27   2.0000      -0.507166       -13.8007
  28   2.0000      -0.498336       -13.5604
  29   2.0000      -0.491409       -13.3719
  30   2.0000      -0.474174       -12.9029
  31   2.0000      -0.459806       -12.5120
  32   2.0000      -0.447850       -12.1866
  33   2.0000      -0.433789       -11.8040
  34   2.0000      -0.423724       -11.5301
  35   2.0000      -0.411197       -11.1892
  36   2.0000      -0.403433       -10.9780
  37   2.0000      -0.400863       -10.9080
  38   2.0000      -0.379717       -10.3326
  39   2.0000      -0.372425       -10.1342
  40   2.0000      -0.358752        -9.7621
  41   2.0000      -0.355252        -9.6669
  42   2.0000      -0.352200        -9.5839
  43   2.0000      -0.326167        -8.8755
  44   2.0000      -0.317746        -8.6463
  45   2.0000      -0.310270        -8.4429
  46   2.0000      -0.303224        -8.2511
  47   2.0000      -0.267174        -7.2702
  48   2.0000      -0.264059        -7.1854
  49   2.0000      -0.258823        -7.0429
  50   2.0000      -0.241074        -6.5599
  51   0.0000       0.066048         1.7973
  52   0.0000       0.076839         2.0909
  53   0.0000       0.094298         2.5660
  54   0.0000       0.096575         2.6279
  55   0.0000       0.102347         2.7850

MULLIKEN ATOMIC CHARGES
-----------------------
   0 C :    0.308996
   1 C :   -0.281311
   2 C :   -0.311211
   3 C :   -0.003631
   4 O :   -0.504118
   5 H :    0.143847
   6 H :    0.149360
   7 H :    0.155916
   8 H :    0.144596
   9 H :    0.178707
  10 H :    0.149174
  11 H :    0.144940
  12 C :   -0.031173
  13 H :    0.139700
  14 H :    0.142984
  15 O :   -0.532529
  16 C :    0.098118
  17 C :    0.091545
  18 C :   -0.322928
  19 C :   -0.004201
  20 O :   -0.526125
  21 H :    0.147007
  22 H :    0.159885
  23 O :   -0.608887
  24 H :    0.145351
  25 H :    0.179967
  26 H :    0.135370
  27 H :    0.142746
  28 H :    0.367907
Sum of atomic charges:   -0.0000000

LOEWDIN ATOMIC CHARGES
----------------------
   0 C :    0.183093
   1 C :   -0.230227
   2 C :   -0.218065
   3 C :   -0.025836
   4 O :   -0.304694
   5 H :    0.097563
   6 H :    0.117005
   7 H :    0.119564
   8 H :    0.116065
   9 H :    0.122598
  10 H :    0.106403
  11 H :    0.104369
  12 C :   -0.052256
  13 H :    0.101618
  14 H :    0.102198
  15 O :   -0.345101
  16 C :    0.018998
  17 C :    0.038512
  18 C :   -0.245107
  19 C :   -0.024366
  20 O :   -0.326488
  21 H :    0.113273
  22 H :    0.115089
  23 O :   -0.411545
  24 H :    0.115710
  25 H :    0.128420
  26 H :    0.097427
  27 H :    0.100877
  28 H :    0.284903

  Mayer bond orders larger than 0.100000
B(  0-C ,  1-C ) :   0.9323 B(  0-C ,  4-O ) :   0.9405 B(  0-C ,  5-H ) :   0.9224
B(  0-C , 15-O ) :   0.8202 B(  1-C ,  2-C ) :   0.9497 B(  1-C ,  6-H ) :   0.9331
B(  1-C ,  7-H ) :   0.9269 B(  2-C ,  3-C ) :   0.9567 B(  2-C ,  8-H ) :   0.9443
B(  2-C ,  9-H ) :   0.9306 B(  3-C ,  4-O ) :   0.8325 B(  3-C , 10-H ) :   0.9343
B(  3-C , 11-H ) :   0.9392 B( 12-C , 13-H ) :   0.9150 B( 12-C , 14-H ) :   0.9054
B( 12-C , 15-O ) :   0.8347 B( 12-C , 16-C ) :   0.9089 B( 16-C , 17-C ) :   0.8883
B( 16-C , 20-O ) :   0.8774 B( 16-C , 21-H ) :   0.9275 B( 17-C , 18-C ) :   0.9329
B( 17-C , 22-H ) :   0.9370 B( 17-C , 23-O ) :   0.9027 B( 18-C , 19-C ) :   0.9475
B( 18-C , 24-H ) :   0.9406 B( 18-C , 25-H ) :   0.9236 B( 19-C , 20-O ) :   0.8399
B( 19-C , 26-H ) :   0.9237 B( 19-C , 27-H ) :   0.9381 B( 23-O , 28-H ) :   0.7903

FINAL SINGLE POINT ENERGY      -652.861758324728

DIPOLE MOMENT
-------------
                                X             Y             Z
Electronic contribution:     -2.53022      -3.17004      -1.64509
Nuclear contribution   :      3.35452       3.73227       1.67165
                        -----------------------------------------
Total Dipole Moment    :      0.82430       0.56224       0.02656
                        -----------------------------------------
Magnitude (a.u.)       :      0.99814
Magnitude (Debye)      :      2.53707

Rotational constants in cm-1:     0.045215     0.017422     0.016312
Rotational constants in MHz :  1355.505958   522.284704   489.006985

                             ****ORCA TERMINATED NORMALLY****
TOTAL RUN TIME: 0 days 0 hours 32 minutes 54 seconds 26 msec
