                         Program Version 4.2.0 -  RELEASE  -
|  1> # Test redundant internal optimization
|  2> #
|  3> ! RKS B3LYP  Opt TightSCF SmallPrint
|  4>
|  5> %basis
|  6>         Basis "6-31G"
|  7> end
|  8>
|  9> %geom
| 10> Constraints
| 11> { D 4  0  15  12  225.0   C } # D for Dihedral angle
| 12> { D 0  15  12  16  255.0   C } # D for Dihedral angle
| 13> { D 0  4  3  2   C } # D for Dihedral angle
| 14> { D 4  3  2  1   C } # D for Dihedral angle
| 15> { D 3  2  1  0   C } # D for Dihedral angle
| 16> { D 2  1  0  4   C } # D for Dihedral angle
| 17> { D 1  0  4  3   C } # D for Dihedral angle
| 18> { D 16  20  19  18   C } # D for Dihedral angle
| 19> { D 20  19  18  17   C } # D for Dihedral angle
| 20> { D 19  18  17  16   C } # D for Dihedral angle
| 21> { D 18  17  16  20   C } # D for Dihedral angle
| 22> { D 17  16  20  19   C } # D for Dihedral angle
| 23> { D 15  12  16  20   C } # D for Dihedral angle
| 24> end
| 25> end
| 26>
| 27>
| 28> #%pal
| 29> #nprocs 8
| 30> #end
| 31>
| 32> * xyz 0 1
| 33> C  -21.048   26.222   46.251
| 34> C  -20.361   27.558   45.944
| 35> C  -20.329   28.222   47.341
| 36> C  -20.110   27.022   48.296
| 37> O  -20.473   25.807   47.535
| 38> H  -20.833   25.428   45.533
| 39> H  -19.344   27.382   45.576
| 40> H  -20.898   28.157   45.201
| 41> H  -19.543   28.978   47.434
| 42> H  -21.289   28.710   47.548
| 43> H  -20.733   27.082   49.195
| 44> H  -19.064   26.913   48.597
| 45> C  -23.415   25.773   45.218
| 46> H  -22.782   25.080   44.650
| 47> H  -24.269   25.209   45.617
| 48> O  -22.586   26.394   46.375
| 49> C  -23.972   26.842   44.237
| 50> C  -24.878   26.206   43.177
| 51> C  -26.197   26.019   43.964
| 52> C  -26.229   27.256   44.896
| 53> O  -24.848   27.781   44.945
| 54> H  -23.141   27.422   43.831
| 55> O  -25.082   27.188   41.991
| 56> H  -24.483   25.264   42.781
| 57> H  -27.076   25.964   43.313
| 58> H  -26.157   25.094   44.552
| 59> H  -26.555   27.007   45.912
| 60> H  -26.865   28.056   44.506
| 61> H  -25.479   28.139   42.364
| 62> *
| 63>
| 64>                          ****END OF INPUT****
 Total Charge           Charge          ....    0
 Multiplicity           Mult            ....    1
 Number of Electrons    NEL             ....  102
FINAL SINGLE POINT ENERGY      -652.831266238594
FINAL SINGLE POINT ENERGY      -652.853761653203
FINAL SINGLE POINT ENERGY      -652.857545121864
FINAL SINGLE POINT ENERGY      -652.858223183845
FINAL SINGLE POINT ENERGY      -652.858300618058
FINAL SINGLE POINT ENERGY      -652.858308670224
FINAL SINGLE POINT ENERGY      -652.858310489758
                    ***********************HURRAY********************

CARTESIAN COORDINATES (ANGSTROEM)
---------------------------------
  C    -21.066733   26.199916   46.158742
  C    -20.443155   27.566709   45.880857
  C    -20.479670   28.226188   47.280795
  C    -20.225323   27.034790   48.228833
  O    -20.514840   25.815815   47.429388
  H    -20.816680   25.411218   45.440823
  H    -19.409216   27.433491   45.539236
  H    -20.993531   28.133897   45.126432
  H    -19.733746   29.018428   47.393616
  H    -21.472107   28.651777   47.455846
  H    -20.875338   27.036869   49.106939
  H    -19.181599   26.958567   48.548249
  C    -23.335511   25.735157   45.244742
  H    -22.754700   25.011312   44.650765
  H    -24.136611   25.192173   45.758588
  O    -22.510161   26.319673   46.282098
  C    -23.924554   26.799501   44.315357
  C    -24.850766   26.227946   43.232146
  C    -26.187131   26.077334   44.007044
  C    -26.171705   27.291978   44.968372
  O    -24.765224   27.755626   45.038539
  H    -23.112904   27.381368   43.866813
  O    -24.975268   27.152393   42.116163
  H    -24.498347   25.293689   42.792712
  H    -27.034619   26.086543   43.317224
  H    -26.201575   25.131215   44.559269
  H    -26.513412   27.039660   45.976305
  H    -26.769932   28.130172   44.596552
  H    -25.084642   28.061595   42.467553

 Multiplicity           Mult            ....    1
 Number of Electrons    NEL             ....  102
 Basis Dimension        Dim             ....  149

ORBITAL ENERGIES
----------------

  NO   OCC          E(Eh)            E(eV)
   0   2.0000     -19.142900      -520.9048
   1   2.0000     -19.142166      -520.8848
   2   2.0000     -19.138381      -520.7818
   3   2.0000     -19.136043      -520.7182
   4   2.0000     -10.278268      -279.6859
   5   2.0000     -10.246340      -278.8171
   6   2.0000     -10.236468      -278.5485
   7   2.0000     -10.235973      -278.5350
   8   2.0000     -10.232296      -278.4349
   9   2.0000     -10.220554      -278.1154
  10   2.0000     -10.192613      -277.3551
  11   2.0000     -10.182154      -277.0705
  12   2.0000     -10.180708      -277.0312
  13   2.0000      -1.050753       -28.5924
  14   2.0000      -1.038581       -28.2612
  15   2.0000      -1.009050       -27.4577
  16   2.0000      -0.991962       -26.9927
  17   2.0000      -0.788487       -21.4558
  18   2.0000      -0.781113       -21.2552
  19   2.0000      -0.768472       -20.9112
  20   2.0000      -0.730891       -19.8886
  21   2.0000      -0.675617       -18.3845
  22   2.0000      -0.607763       -16.5381
  23   2.0000      -0.598786       -16.2938
  24   2.0000      -0.594560       -16.1788
  25   2.0000      -0.581724       -15.8295
  26   2.0000      -0.525972       -14.3124
  27   2.0000      -0.513996       -13.9865
  28   2.0000      -0.495750       -13.4900
  29   2.0000      -0.489274       -13.3138
  30   2.0000      -0.473073       -12.8730
  31   2.0000      -0.456727       -12.4282
  32   2.0000      -0.451643       -12.2898
  33   2.0000      -0.445911       -12.1339
  34   2.0000      -0.426569       -11.6075
  35   2.0000      -0.412298       -11.2192
  36   2.0000      -0.398344       -10.8395
  37   2.0000      -0.395315       -10.7571
  38   2.0000      -0.375638       -10.2216
  39   2.0000      -0.367527       -10.0009
  40   2.0000      -0.363412        -9.8890
  41   2.0000      -0.353517        -9.6197
  42   2.0000      -0.348827        -9.4921
  43   2.0000      -0.333793        -9.0830
  44   2.0000      -0.313035        -8.5181
  45   2.0000      -0.310592        -8.4516
  46   2.0000      -0.302069        -8.2197
  47   2.0000      -0.274295        -7.4640
  48   2.0000      -0.265904        -7.2356
  49   2.0000      -0.254466        -6.9244
  50   2.0000      -0.235868        -6.4183
  51   0.0000       0.063812         1.7364
  52   0.0000       0.079977         2.1763
  53   0.0000       0.086553         2.3552
  54   0.0000       0.088049         2.3959
  55   0.0000       0.101800         2.7701

MULLIKEN ATOMIC CHARGES
-----------------------
   0 C :    0.281899
   1 C :   -0.256193
   2 C :   -0.301347
   3 C :   -0.000837
   4 O :   -0.501885
   5 H :    0.136467
   6 H :    0.140409
   7 H :    0.147918
   8 H :    0.139602
   9 H :    0.171766
  10 H :    0.153226
  11 H :    0.139272
  12 C :   -0.004095
  13 H :    0.119599
  14 H :    0.149521
  15 O :   -0.499775
  16 C :    0.065180
  17 C :    0.077669
  18 C :   -0.292177
  19 C :   -0.032813
  20 O :   -0.510131
  21 H :    0.156483
  22 O :   -0.601521
  23 H :    0.149437
  24 H :    0.163678
  25 H :    0.142737
  26 H :    0.153875
  27 H :    0.146713
  28 H :    0.365323
Sum of atomic charges:   -0.0000000

LOEWDIN ATOMIC CHARGES
----------------------
   0 C :    0.176799
   1 C :   -0.224687
   2 C :   -0.216686
   3 C :   -0.025637
   4 O :   -0.311447
   5 H :    0.095136
   6 H :    0.111233
   7 H :    0.116542
   8 H :    0.113328
   9 H :    0.124089
  10 H :    0.108842
  11 H :    0.100992
  12 C :   -0.037127
  13 H :    0.094318
  14 H :    0.108872
  15 O :   -0.320472
  16 C :    0.006663
  17 C :    0.034383
  18 C :   -0.239654
  19 C :   -0.038727
  20 O :   -0.322350
  21 H :    0.111792
  22 O :   -0.414383
  23 H :    0.114154
  24 H :    0.127316
  25 H :    0.112653
  26 H :    0.107950
  27 H :    0.102594
  28 H :    0.283513

  Mayer bond orders larger than 0.100000
B(  0-C ,  1-C ) :   0.9374 B(  0-C ,  4-O ) :   0.9362 B(  0-C ,  5-H ) :   0.9162
B(  0-C , 15-O ) :   0.8424 B(  1-C ,  2-C ) :   0.9565 B(  1-C ,  6-H ) :   0.9352
B(  1-C ,  7-H ) :   0.9352 B(  2-C ,  3-C ) :   0.9549 B(  2-C ,  8-H ) :   0.9451
B(  2-C ,  9-H ) :   0.9413 B(  3-C ,  4-O ) :   0.8358 B(  3-C , 10-H ) :   0.9348
B(  3-C , 11-H ) :   0.9398 B( 12-C , 13-H ) :   0.9117 B( 12-C , 14-H ) :   0.9339
B( 12-C , 15-O ) :   0.8640 B( 12-C , 16-C ) :   0.8802 B( 16-C , 17-C ) :   0.8968
B( 16-C , 20-O ) :   0.8686 B( 16-C , 21-H ) :   0.9251 B( 17-C , 18-C ) :   0.9108
B( 17-C , 22-O ) :   0.8927 B( 17-C , 23-H ) :   0.9337 B( 18-C , 19-C ) :   0.9396
B( 18-C , 24-H ) :   0.9375 B( 18-C , 25-H ) :   0.9346 B( 19-C , 20-O ) :   0.8476
B( 19-C , 26-H ) :   0.9334 B( 19-C , 27-H ) :   0.9374 B( 22-O , 28-H ) :   0.7939

FINAL SINGLE POINT ENERGY      -652.858310595875

DIPOLE MOMENT
-------------
                                X             Y             Z
Electronic contribution:     -0.34786      -1.10254      -0.62565
Nuclear contribution   :      0.16087       1.24201       0.40858
                        -----------------------------------------
Total Dipole Moment    :     -0.18699       0.13946      -0.21707
                        -----------------------------------------
Magnitude (a.u.)       :      0.31865
Magnitude (Debye)      :      0.80993

Rotational constants in cm-1:     0.063198     0.011557     0.011443
Rotational constants in MHz :  1894.637767   346.458263   343.048601

                             ****ORCA TERMINATED NORMALLY****
TOTAL RUN TIME: 0 days 0 hours 21 minutes 33 seconds 450 msec
