                         Program Version 4.2.0 -  RELEASE  -
|  1> # Test redundant internal optimization
|  2> #
|  3> ! RKS B3LYP  Opt TightSCF SmallPrint
|  4>
|  5> %basis
|  6>         Basis "6-31G"
|  7> end
|  8>
|  9> %geom
| 10> Constraints
| 11> { D 4  0  15  12  240.0   C } # D for Dihedral angle
| 12> { D 0  15  12  16  195.0   C } # D for Dihedral angle
| 13> { D 0  4  3  2   C } # D for Dihedral angle
| 14> { D 4  3  2  1   C } # D for Dihedral angle
| 15> { D 3  2  1  0   C } # D for Dihedral angle
| 16> { D 2  1  0  4   C } # D for Dihedral angle
| 17> { D 1  0  4  3   C } # D for Dihedral angle
| 18> { D 16  20  19  18   C } # D for Dihedral angle
| 19> { D 20  19  18  17   C } # D for Dihedral angle
| 20> { D 19  18  17  16   C } # D for Dihedral angle
| 21> { D 18  17  16  20   C } # D for Dihedral angle
| 22> { D 17  16  20  19   C } # D for Dihedral angle
| 23> { D 15  12  16  20   C } # D for Dihedral angle
| 24> end
| 25> end
| 26>
| 27>
| 28> #%pal
| 29> #nprocs 8
| 30> #end
| 31>
| 32> * xyz 0 1
| 33> C  -21.048   26.222   46.251
| 34> C  -20.361   27.558   45.944
| 35> C  -20.329   28.222   47.341
| 36> C  -20.110   27.022   48.296
| 37> O  -20.473   25.807   47.535
| 38> H  -20.833   25.428   45.533
| 39> H  -19.344   27.382   45.576
| 40> H  -20.898   28.157   45.201
| 41> H  -19.543   28.978   47.434
| 42> H  -21.289   28.710   47.548
| 43> H  -20.733   27.082   49.195
| 44> H  -19.064   26.913   48.597
| 45> C  -23.430   25.483   45.442
| 46> H  -22.991   25.488   44.437
| 47> H  -23.428   24.449   45.811
| 48> O  -22.586   26.394   46.375
| 49> C  -24.910   25.943   45.331
| 50> C  -25.738   24.958   44.499
| 51> C  -26.004   23.829   45.522
| 52> C  -26.154   24.595   46.860
| 53> O  -25.551   25.928   46.650
| 54> H  -24.938   26.974   44.973
| 55> O  -27.070   25.623   44.056
| 56> H  -25.214   24.605   43.603
| 57> H  -26.892   23.236   45.279
| 58> H  -25.147   23.146   45.562
| 59> H  -25.641   24.095   47.689
| 60> H  -27.201   24.754   47.135
| 61> H  -27.612   25.984   44.937
| 62> *
| 63>
| 64>                          ****END OF INPUT****
 Total Charge           Charge          ....    0
 Multiplicity           Mult            ....    1
 Number of Electrons    NEL             ....  102
FINAL SINGLE POINT ENERGY      -652.831371634250
FINAL SINGLE POINT ENERGY      -652.854737940416
FINAL SINGLE POINT ENERGY      -652.858529626859
FINAL SINGLE POINT ENERGY      -652.859220636605
FINAL SINGLE POINT ENERGY      -652.859319539824
FINAL SINGLE POINT ENERGY      -652.859329095947
                    ***********************HURRAY********************

CARTESIAN COORDINATES (ANGSTROEM)
---------------------------------
  C    -21.072064   26.158535   46.179714
  C    -20.507051   27.552558   45.909182
  C    -20.566196   28.199192   47.313804
  C    -20.258682   27.012612   48.253273
  O    -20.498600   25.787450   47.449108
  H    -20.789170   25.384282   45.460408
  H    -19.469999   27.466516   45.562677
  H    -21.087076   28.095801   45.159666
  H    -19.853703   29.021149   47.430136
  H    -21.574384   28.581795   47.497595
  H    -20.905177   26.984395   49.133544
  H    -19.211529   26.979387   48.569217
  C    -23.288176   25.375317   45.426778
  H    -22.892158   25.389303   44.398507
  H    -23.233440   24.343547   45.802088
  O    -22.516843   26.254593   46.282798
  C    -24.728034   25.879459   45.404047
  C    -25.676198   25.011393   44.564475
  C    -26.040895   23.882377   45.564475
  C    -26.078913   24.621188   46.925378
  O    -25.338649   25.891646   46.734605
  H    -24.726402   26.917341   45.058914
  O    -26.846712   25.771955   44.158066
  H    -25.238406   24.641488   43.636230
  H    -26.996866   23.425324   45.297592
  H    -25.271352   23.102131   45.554549
  H    -25.605563   24.051600   47.730395
  H    -27.096058   24.882631   47.233297
  H    -27.163704   26.300036   44.921483

 Multiplicity           Mult            ....    1
 Number of Electrons    NEL             ....  102
 Basis Dimension        Dim             ....  149

ORBITAL ENERGIES
----------------

  NO   OCC          E(Eh)            E(eV)
   0   2.0000     -19.140026      -520.8266
   1   2.0000     -19.139787      -520.8201
   2   2.0000     -19.138323      -520.7802
   3   2.0000     -19.134712      -520.6820
   4   2.0000     -10.277020      -279.6519
   5   2.0000     -10.244224      -278.7595
   6   2.0000     -10.235231      -278.5148
   7   2.0000     -10.234996      -278.5084
   8   2.0000     -10.229245      -278.3519
   9   2.0000     -10.219982      -278.0998
  10   2.0000     -10.190260      -277.2911
  11   2.0000     -10.182235      -277.0727
  12   2.0000     -10.180930      -277.0372
  13   2.0000      -1.049985       -28.5716
  14   2.0000      -1.036155       -28.1952
  15   2.0000      -1.006664       -27.3927
  16   2.0000      -0.991489       -26.9798
  17   2.0000      -0.788383       -21.4530
  18   2.0000      -0.780431       -21.2366
  19   2.0000      -0.767379       -20.8814
  20   2.0000      -0.728129       -19.8134
  21   2.0000      -0.673793       -18.3348
  22   2.0000      -0.605359       -16.4726
  23   2.0000      -0.594325       -16.1724
  24   2.0000      -0.590839       -16.0775
  25   2.0000      -0.585229       -15.9249
  26   2.0000      -0.526492       -14.3266
  27   2.0000      -0.511483       -13.9181
  28   2.0000      -0.493897       -13.4396
  29   2.0000      -0.485703       -13.2167
  30   2.0000      -0.475499       -12.9390
  31   2.0000      -0.458450       -12.4751
  32   2.0000      -0.451835       -12.2951
  33   2.0000      -0.435660       -11.8549
  34   2.0000      -0.429935       -11.6991
  35   2.0000      -0.405243       -11.0272
  36   2.0000      -0.398182       -10.8351
  37   2.0000      -0.394160       -10.7256
  38   2.0000      -0.373631       -10.1670
  39   2.0000      -0.372051       -10.1240
  40   2.0000      -0.359252        -9.7757
  41   2.0000      -0.353012        -9.6060
  42   2.0000      -0.347838        -9.4652
  43   2.0000      -0.330739        -8.9999
  44   2.0000      -0.313848        -8.5402
  45   2.0000      -0.308861        -8.4045
  46   2.0000      -0.301891        -8.2149
  47   2.0000      -0.272275        -7.4090
  48   2.0000      -0.261515        -7.1162
  49   2.0000      -0.250168        -6.8074
  50   2.0000      -0.238928        -6.5016
  51   0.0000       0.065934         1.7942
  52   0.0000       0.081413         2.2154
  53   0.0000       0.088965         2.4209
  54   0.0000       0.099236         2.7004
  55   0.0000       0.102460         2.7881

MULLIKEN ATOMIC CHARGES
-----------------------
   0 C :    0.281615
   1 C :   -0.251305
   2 C :   -0.300401
   3 C :    0.000039
   4 O :   -0.502804
   5 H :    0.136837
   6 H :    0.140532
   7 H :    0.144880
   8 H :    0.139004
   9 H :    0.168442
  10 H :    0.154196
  11 H :    0.138595
  12 C :    0.002477
  13 H :    0.124059
  14 H :    0.136050
  15 O :   -0.506499
  16 C :    0.070768
  17 C :    0.075133
  18 C :   -0.294635
  19 C :   -0.029052
  20 O :   -0.508149
  21 H :    0.163921
  22 O :   -0.602030
  23 H :    0.147969
  24 H :    0.161364
  25 H :    0.145276
  26 H :    0.152863
  27 H :    0.144917
  28 H :    0.365936
Sum of atomic charges:   -0.0000000

LOEWDIN ATOMIC CHARGES
----------------------
   0 C :    0.175088
   1 C :   -0.220781
   2 C :   -0.216404
   3 C :   -0.025829
   4 O :   -0.317168
   5 H :    0.097453
   6 H :    0.111114
   7 H :    0.117577
   8 H :    0.112918
   9 H :    0.122371
  10 H :    0.109304
  11 H :    0.100641
  12 C :   -0.039524
  13 H :    0.092209
  14 H :    0.096840
  15 O :   -0.323861
  16 C :    0.018861
  17 C :    0.035343
  18 C :   -0.241348
  19 C :   -0.037740
  20 O :   -0.318627
  21 H :    0.118989
  22 O :   -0.414239
  23 H :    0.113800
  24 H :    0.126336
  25 H :    0.113119
  26 H :    0.107666
  27 H :    0.101910
  28 H :    0.283981

  Mayer bond orders larger than 0.100000
B(  0-C ,  1-C ) :   0.9415 B(  0-C ,  4-O ) :   0.9319 B(  0-C ,  5-H ) :   0.9196
B(  0-C , 15-O ) :   0.8437 B(  1-C ,  2-C ) :   0.9576 B(  1-C ,  6-H ) :   0.9371
B(  1-C ,  7-H ) :   0.9387 B(  2-C ,  3-C ) :   0.9548 B(  2-C ,  8-H ) :   0.9452
B(  2-C ,  9-H ) :   0.9423 B(  3-C ,  4-O ) :   0.8369 B(  3-C , 10-H ) :   0.9344
B(  3-C , 11-H ) :   0.9399 B( 12-C , 13-H ) :   0.9106 B( 12-C , 14-H ) :   0.9148
B( 12-C , 15-O ) :   0.8457 B( 12-C , 16-C ) :   0.9021 B( 16-C , 17-C ) :   0.8988
B( 16-C , 20-O ) :   0.8707 B( 16-C , 21-H ) :   0.9245 B( 17-C , 18-C ) :   0.9119
B( 17-C , 22-O ) :   0.8942 B( 17-C , 23-H ) :   0.9335 B( 18-C , 19-C ) :   0.9391
B( 18-C , 24-H ) :   0.9378 B( 18-C , 25-H ) :   0.9337 B( 19-C , 20-O ) :   0.8501
B( 19-C , 26-H ) :   0.9335 B( 19-C , 27-H ) :   0.9377 B( 22-O , 28-H ) :   0.7933

FINAL SINGLE POINT ENERGY      -652.859330855492

DIPOLE MOMENT
-------------
                                X             Y             Z
Electronic contribution:     -2.21428      -0.42599      -0.13101
Nuclear contribution   :      2.55130       0.29677      -0.17522
                        -----------------------------------------
Total Dipole Moment    :      0.33701      -0.12922      -0.30623
                        -----------------------------------------
Magnitude (a.u.)       :      0.47334
Magnitude (Debye)      :      1.20314

Rotational constants in cm-1:     0.064428     0.011261     0.010818
Rotational constants in MHz :  1931.500781   337.584746   324.322058

                             ****ORCA TERMINATED NORMALLY****
TOTAL RUN TIME: 0 days 1 hours 3 minutes 56 seconds 595 msec
