                         Program Version 4.2.0 -  RELEASE  -
|  1> # Test redundant internal optimization
|  2> #
|  3> ! RKS B3LYP  Opt TightSCF SmallPrint
|  4>
|  5> %basis
|  6>         Basis "6-31G"
|  7> end
|  8>
|  9> %geom
| 10> Constraints
| 11> { D 4  0  15  12  195.0   C } # D for Dihedral angle
| 12> { D 0  15  12  16  285.0   C } # D for Dihedral angle
| 13> { D 0  4  3  2   C } # D for Dihedral angle
| 14> { D 4  3  2  1   C } # D for Dihedral angle
| 15> { D 3  2  1  0   C } # D for Dihedral angle
| 16> { D 2  1  0  4   C } # D for Dihedral angle
| 17> { D 1  0  4  3   C } # D for Dihedral angle
| 18> { D 16  20  19  18   C } # D for Dihedral angle
| 19> { D 20  19  18  17   C } # D for Dihedral angle
| 20> { D 19  18  17  16   C } # D for Dihedral angle
| 21> { D 18  17  16  20   C } # D for Dihedral angle
| 22> { D 17  16  20  19   C } # D for Dihedral angle
| 23> { D 15  12  16  20   C } # D for Dihedral angle
| 24> end
| 25> end
| 26>
| 27>
| 28> #%pal
| 29> #nprocs 8
| 30> #end
| 31>
| 32> * xyz 0 1
| 33> C  -21.048   26.222   46.251
| 34> C  -20.361   27.558   45.944
| 35> C  -20.329   28.222   47.341
| 36> C  -20.110   27.022   48.296
| 37> O  -20.473   25.807   47.535
| 38> H  -20.833   25.428   45.533
| 39> H  -19.344   27.382   45.576
| 40> H  -20.898   28.157   45.201
| 41> H  -19.543   28.978   47.434
| 42> H  -21.289   28.710   47.548
| 43> H  -20.733   27.082   49.195
| 44> H  -19.064   26.913   48.597
| 45> C  -23.353   26.472   45.026
| 46> H  -22.987   25.684   44.356
| 47> H  -24.427   26.315   45.186
| 48> O  -22.586   26.394   46.375
| 49> C  -23.176   27.841   44.313
| 50> C  -24.036   27.925   43.048
| 51> C  -25.432   28.238   43.637
| 52> C  -25.106   29.140   44.854
| 53> O  -23.675   28.929   45.162
| 54> H  -22.112   28.025   44.150
| 55> H  -23.692   28.748   42.412
| 56> O  -24.016   26.618   42.209
| 57> H  -26.096   28.730   42.919
| 58> H  -25.919   27.311   43.964
| 59> H  -25.704   28.887   45.736
| 60> H  -25.234   30.203   44.631
| 61> H  -24.358   25.779   42.825
| 62> *
| 63>
| 64>                          ****END OF INPUT****
 Total Charge           Charge          ....    0
 Multiplicity           Mult            ....    1
 Number of Electrons    NEL             ....  102
FINAL SINGLE POINT ENERGY      -652.819587028628
FINAL SINGLE POINT ENERGY      -652.844160777061
FINAL SINGLE POINT ENERGY      -652.849393257820
FINAL SINGLE POINT ENERGY      -652.851454544335
FINAL SINGLE POINT ENERGY      -652.851744099964
FINAL SINGLE POINT ENERGY      -652.851819438215
FINAL SINGLE POINT ENERGY      -652.851825041896
FINAL SINGLE POINT ENERGY      -652.851826529380
                    ***********************HURRAY********************

CARTESIAN COORDINATES (ANGSTROEM)
---------------------------------
  C    -20.978553   26.246012   46.174720
  C    -20.235162   27.564637   45.961396
  C    -20.342856   28.228016   47.360068
  C    -20.257724   27.017616   48.312074
  O    -20.565835   25.827161   47.481925
  H    -20.730950   25.447531   45.465170
  H    -19.188911   27.337929   45.719772
  H    -20.640594   28.194750   45.171628
  H    -19.550411   28.960453   47.539002
  H    -21.312258   28.727102   47.445867
  H    -20.978150   27.062498   49.132719
  H    -19.253006   26.864421   48.717832
  C    -23.221360   26.502282   45.044859
  H    -22.934916   25.697888   44.346450
  H    -24.240331   26.309548   45.394802
  O    -22.427147   26.402626   46.254286
  C    -23.170157   27.829268   44.280339
  C    -24.107736   27.844170   43.059693
  C    -25.483725   28.189100   43.713174
  C    -25.081739   29.152189   44.852230
  O    -23.628246   28.956530   45.086986
  H    -22.147149   28.058440   43.980952
  H    -23.801313   28.644463   42.382313
  O    -24.093873   26.650713   42.241552
  H    -26.177257   28.639965   42.998569
  H    -25.947051   27.273326   44.103486
  H    -25.620865   28.960232   45.785092
  H    -25.220721   30.201390   44.574513
  H    -24.596001   25.929744   42.672530

 Multiplicity           Mult            ....    1
 Number of Electrons    NEL             ....  102
 Basis Dimension        Dim             ....  149

ORBITAL ENERGIES
----------------

  NO   OCC          E(Eh)            E(eV)
   0   2.0000     -19.154843      -521.2298
   1   2.0000     -19.143045      -520.9087
   2   2.0000     -19.134866      -520.6862
   3   2.0000     -19.133728      -520.6552
   4   2.0000     -10.275621      -279.6139
   5   2.0000     -10.250697      -278.9356
   6   2.0000     -10.235381      -278.5189
   7   2.0000     -10.235018      -278.5090
   8   2.0000     -10.232354      -278.4365
   9   2.0000     -10.217743      -278.0389
  10   2.0000     -10.200542      -277.5709
  11   2.0000     -10.180023      -277.0125
  12   2.0000     -10.177239      -276.9368
  13   2.0000      -1.048381       -28.5279
  14   2.0000      -1.038400       -28.2563
  15   2.0000      -1.020709       -27.7749
  16   2.0000      -0.987104       -26.8605
  17   2.0000      -0.787586       -21.4313
  18   2.0000      -0.778327       -21.1793
  19   2.0000      -0.769544       -20.9403
  20   2.0000      -0.731452       -19.9038
  21   2.0000      -0.681914       -18.5558
  22   2.0000      -0.616848       -16.7853
  23   2.0000      -0.598671       -16.2907
  24   2.0000      -0.592624       -16.1261
  25   2.0000      -0.573231       -15.5984
  26   2.0000      -0.528787       -14.3890
  27   2.0000      -0.514223       -13.9927
  28   2.0000      -0.494303       -13.4507
  29   2.0000      -0.491330       -13.3698
  30   2.0000      -0.465879       -12.6772
  31   2.0000      -0.452456       -12.3119
  32   2.0000      -0.446559       -12.1515
  33   2.0000      -0.439780       -11.9670
  34   2.0000      -0.432065       -11.7571
  35   2.0000      -0.419733       -11.4215
  36   2.0000      -0.410342       -11.1660
  37   2.0000      -0.401526       -10.9261
  38   2.0000      -0.380789       -10.3618
  39   2.0000      -0.369940       -10.0666
  40   2.0000      -0.361061        -9.8250
  41   2.0000      -0.348125        -9.4730
  42   2.0000      -0.344365        -9.3707
  43   2.0000      -0.334156        -9.0928
  44   2.0000      -0.321312        -8.7433
  45   2.0000      -0.305784        -8.3208
  46   2.0000      -0.293820        -7.9953
  47   2.0000      -0.276470        -7.5231
  48   2.0000      -0.264037        -7.1848
  49   2.0000      -0.251865        -6.8536
  50   2.0000      -0.235284        -6.4024
  51   0.0000       0.048959         1.3322
  52   0.0000       0.074046         2.0149
  53   0.0000       0.080638         2.1943
  54   0.0000       0.092084         2.5057
  55   0.0000       0.104458         2.8424

MULLIKEN ATOMIC CHARGES
-----------------------
   0 C :    0.295306
   1 C :   -0.273925
   2 C :   -0.303079
   3 C :    0.000306
   4 O :   -0.501687
   5 H :    0.135110
   6 H :    0.141820
   7 H :    0.153735
   8 H :    0.137917
   9 H :    0.178887
  10 H :    0.153295
  11 H :    0.137980
  12 C :   -0.016948
  13 H :    0.123026
  14 H :    0.144941
  15 O :   -0.501567
  16 C :    0.081924
  17 C :    0.082400
  18 C :   -0.326176
  19 C :   -0.009806
  20 O :   -0.511863
  21 H :    0.152127
  22 H :    0.168071
  23 O :   -0.598941
  24 H :    0.160897
  25 H :    0.135776
  26 H :    0.150749
  27 H :    0.150894
  28 H :    0.358828
Sum of atomic charges:   -0.0000000

LOEWDIN ATOMIC CHARGES
----------------------
   0 C :    0.182512
   1 C :   -0.231276
   2 C :   -0.217302
   3 C :   -0.025229
   4 O :   -0.303668
   5 H :    0.094273
   6 H :    0.112660
   7 H :    0.117117
   8 H :    0.112777
   9 H :    0.126933
  10 H :    0.108837
  11 H :    0.100237
  12 C :   -0.050128
  13 H :    0.093329
  14 H :    0.109404
  15 O :   -0.323471
  16 C :    0.004284
  17 C :    0.035488
  18 C :   -0.241671
  19 C :   -0.028522
  20 O :   -0.320516
  21 H :    0.109690
  22 H :    0.119137
  23 O :   -0.406612
  24 H :    0.124029
  25 H :    0.105176
  26 H :    0.106293
  27 H :    0.106786
  28 H :    0.279436

  Mayer bond orders larger than 0.100000
B(  0-C ,  1-C ) :   0.9301 B(  0-C ,  4-O ) :   0.9382 B(  0-C ,  5-H ) :   0.9182
B(  0-C , 15-O ) :   0.8369 B(  1-C ,  2-C ) :   0.9521 B(  1-C ,  6-H ) :   0.9331
B(  1-C ,  7-H ) :   0.9223 B(  2-C ,  3-C ) :   0.9553 B(  2-C ,  8-H ) :   0.9450
B(  2-C ,  9-H ) :   0.9375 B(  3-C ,  4-O ) :   0.8326 B(  3-C , 10-H ) :   0.9351
B(  3-C , 11-H ) :   0.9400 B( 12-C , 13-H ) :   0.9022 B( 12-C , 14-H ) :   0.9394
B( 12-C , 15-O ) :   0.8798 B( 12-C , 16-C ) :   0.8788 B( 16-C , 17-C ) :   0.8664
B( 16-C , 20-O ) :   0.8678 B( 16-C , 21-H ) :   0.9204 B( 17-C , 18-C ) :   0.9234
B( 17-C , 22-H ) :   0.9324 B( 17-C , 23-O ) :   0.9012 B( 18-C , 19-C ) :   0.9374
B( 18-C , 24-H ) :   0.9414 B( 18-C , 25-H ) :   0.9402 B( 19-C , 20-O ) :   0.8446
B( 19-C , 26-H ) :   0.9311 B( 19-C , 27-H ) :   0.9379 B( 23-O , 28-H ) :   0.7965

FINAL SINGLE POINT ENERGY      -652.851826559524

DIPOLE MOMENT
-------------
                                X             Y             Z
Electronic contribution:      0.10338      -3.09527      -0.22035
Nuclear contribution   :     -0.73647       3.68702      -0.30591
                        -----------------------------------------
Total Dipole Moment    :     -0.63309       0.59175      -0.52626
                        -----------------------------------------
Magnitude (a.u.)       :      1.01387
Magnitude (Debye)      :      2.57704

Rotational constants in cm-1:     0.055342     0.013630     0.012434
Rotational constants in MHz :  1659.096609   408.604018   372.775178

                             ****ORCA TERMINATED NORMALLY****
TOTAL RUN TIME: 0 days 1 hours 59 minutes 4 seconds 208 msec
