                         Program Version 4.2.0 -  RELEASE  -
|  1> # Test redundant internal optimization
|  2> #
|  3> ! RKS B3LYP  Opt TightSCF SmallPrint
|  4>
|  5> %basis
|  6>         Basis "6-31G"
|  7> end
|  8>
|  9> %geom
| 10> Constraints
| 11> { D 4  0  15  12  60.0   C } # D for Dihedral angle
| 12> { D 0  15  12  16  180.0   C } # D for Dihedral angle
| 13> { D 0  4  3  2   C } # D for Dihedral angle
| 14> { D 4  3  2  1   C } # D for Dihedral angle
| 15> { D 3  2  1  0   C } # D for Dihedral angle
| 16> { D 2  1  0  4   C } # D for Dihedral angle
| 17> { D 1  0  4  3   C } # D for Dihedral angle
| 18> { D 16  20  19  18   C } # D for Dihedral angle
| 19> { D 20  19  18  17   C } # D for Dihedral angle
| 20> { D 19  18  17  16   C } # D for Dihedral angle
| 21> { D 18  17  16  20   C } # D for Dihedral angle
| 22> { D 17  16  20  19   C } # D for Dihedral angle
| 23> { D 15  12  16  20   C } # D for Dihedral angle
| 24> end
| 25> end
| 26>
| 27>
| 28> #%pal
| 29> #nprocs 8
| 30> #end
| 31>
| 32> * xyz 0 1
| 33> C  -21.048   26.222   46.251
| 34> C  -20.361   27.558   45.944
| 35> C  -20.329   28.222   47.341
| 36> C  -20.110   27.022   48.296
| 37> O  -20.473   25.807   47.535
| 38> H  -20.833   25.428   45.533
| 39> H  -19.344   27.382   45.576
| 40> H  -20.898   28.157   45.201
| 41> H  -19.543   28.978   47.434
| 42> H  -21.289   28.710   47.548
| 43> H  -20.733   27.082   49.195
| 44> H  -19.064   26.913   48.597
| 45> C  -23.051   27.452   47.413
| 46> H  -22.677   27.172   48.406
| 47> H  -22.647   28.441   47.161
| 48> O  -22.586   26.394   46.375
| 49> C  -24.597   27.578   47.491
| 50> C  -25.236   26.282   48.004
| 51> C  -24.996   26.396   49.529
| 52> C  -25.134   27.917   49.793
| 53> O  -24.980   28.587   48.484
| 54> H  -24.978   27.918   46.526
| 55> H  -26.309   26.278   47.782
| 56> O  -24.604   25.004   47.389
| 57> H  -25.705   25.805   50.116
| 58> H  -23.985   26.051   49.777
| 59> H  -24.370   28.294   50.481
| 60> H  -26.120   28.185   50.180
| 61> H  -23.529   24.987   47.600
| 62> *
| 63>
| 64>                          ****END OF INPUT****
 Total Charge           Charge          ....    0
 Multiplicity           Mult            ....    1
 Number of Electrons    NEL             ....  102
FINAL SINGLE POINT ENERGY      -652.810812028056
FINAL SINGLE POINT ENERGY      -652.839839704739
FINAL SINGLE POINT ENERGY      -652.855678102649
FINAL SINGLE POINT ENERGY      -652.859675001614
FINAL SINGLE POINT ENERGY      -652.861358805667
FINAL SINGLE POINT ENERGY      -652.862377368274
FINAL SINGLE POINT ENERGY      -652.862809757078
FINAL SINGLE POINT ENERGY      -652.862911684131
FINAL SINGLE POINT ENERGY      -652.862933257404
FINAL SINGLE POINT ENERGY      -652.862935405997
                    ***********************HURRAY********************

CARTESIAN COORDINATES (ANGSTROEM)
---------------------------------
  C    -21.162582   26.332682   46.452079
  C    -20.345192   27.511472   45.907449
  C    -19.956915   28.267839   47.211576
  C    -19.757451   27.112716   48.223745
  O    -20.444052   25.931941   47.636100
  H    -21.164831   25.467828   45.787643
  H    -19.455199   27.115281   45.408240
  H    -20.905498   28.124353   45.196519
  H    -19.043160   28.857814   47.089213
  H    -20.748748   28.951085   47.526185
  H    -20.186257   27.318219   49.208592
  H    -18.705977   26.836511   48.341632
  C    -23.083970   27.552029   47.597006
  H    -22.712988   27.330719   48.604524
  H    -22.766011   28.558528   47.308753
  O    -22.582763   26.548738   46.652926
  C    -24.615691   27.501744   47.546772
  C    -25.251497   26.178191   48.006990
  C    -25.170525   26.311250   49.556666
  C    -25.395655   27.818902   49.789996
  O    -25.135840   28.495591   48.483127
  H    -24.952264   27.792462   46.548423
  H    -26.303756   26.177953   47.701124
  O    -24.660013   24.973541   47.489928
  H    -25.917680   25.688469   50.055067
  H    -24.181837   25.981407   49.892114
  H    -24.728293   28.247863   50.543941
  H    -26.428972   28.054753   50.059685
  H    -23.765383   25.182120   47.131984

 Multiplicity           Mult            ....    1
 Number of Electrons    NEL             ....  102
 Basis Dimension        Dim             ....  149

ORBITAL ENERGIES
----------------

  NO   OCC          E(Eh)            E(eV)
   0   2.0000     -19.166907      -521.5581
   1   2.0000     -19.155504      -521.2478
   2   2.0000     -19.140822      -520.8482
   3   2.0000     -19.110448      -520.0217
   4   2.0000     -10.292738      -280.0796
   5   2.0000     -10.240480      -278.6576
   6   2.0000     -10.240028      -278.6453
   7   2.0000     -10.234329      -278.4902
   8   2.0000     -10.228496      -278.3315
   9   2.0000     -10.226389      -278.2742
  10   2.0000     -10.202064      -277.6123
  11   2.0000     -10.200931      -277.5815
  12   2.0000     -10.177125      -276.9337
  13   2.0000      -1.067728       -29.0543
  14   2.0000      -1.026289       -27.9267
  15   2.0000      -1.010913       -27.5084
  16   2.0000      -0.990990       -26.9662
  17   2.0000      -0.799036       -21.7429
  18   2.0000      -0.780128       -21.2283
  19   2.0000      -0.767631       -20.8883
  20   2.0000      -0.738561       -20.0973
  21   2.0000      -0.683445       -18.5975
  22   2.0000      -0.614701       -16.7269
  23   2.0000      -0.602548       -16.3962
  24   2.0000      -0.595479       -16.2038
  25   2.0000      -0.578303       -15.7364
  26   2.0000      -0.529263       -14.4020
  27   2.0000      -0.517329       -14.0773
  28   2.0000      -0.512310       -13.9407
  29   2.0000      -0.486434       -13.2365
  30   2.0000      -0.476226       -12.9588
  31   2.0000      -0.466151       -12.6846
  32   2.0000      -0.442949       -12.0533
  33   2.0000      -0.432814       -11.7775
  34   2.0000      -0.428016       -11.6469
  35   2.0000      -0.423179       -11.5153
  36   2.0000      -0.412322       -11.2199
  37   2.0000      -0.392523       -10.6811
  38   2.0000      -0.387648       -10.5484
  39   2.0000      -0.371022       -10.0960
  40   2.0000      -0.367770       -10.0075
  41   2.0000      -0.361099        -9.8260
  42   2.0000      -0.348215        -9.4754
  43   2.0000      -0.339171        -9.2293
  44   2.0000      -0.328641        -8.9428
  45   2.0000      -0.321413        -8.7461
  46   2.0000      -0.295319        -8.0360
  47   2.0000      -0.275051        -7.4845
  48   2.0000      -0.266868        -7.2619
  49   2.0000      -0.250375        -6.8131
  50   2.0000      -0.239597        -6.5198
  51   0.0000       0.055599         1.5129
  52   0.0000       0.068796         1.8720
  53   0.0000       0.086699         2.3592
  54   0.0000       0.096152         2.6164
  55   0.0000       0.101384         2.7588

MULLIKEN ATOMIC CHARGES
-----------------------
   0 C :    0.306441
   1 C :   -0.275184
   2 C :   -0.316811
   3 C :   -0.014602
   4 O :   -0.504068
   5 H :    0.172332
   6 H :    0.160740
   7 H :    0.156243
   8 H :    0.151277
   9 H :    0.152673
  10 H :    0.147887
  11 H :    0.154568
  12 C :   -0.019445
  13 H :    0.149081
  14 H :    0.155598
  15 O :   -0.557709
  16 C :    0.057720
  17 C :    0.118728
  18 C :   -0.301851
  19 C :   -0.019537
  20 O :   -0.525578
  21 H :    0.158730
  22 H :    0.146741
  23 O :   -0.636228
  24 H :    0.153549
  25 H :    0.146942
  26 H :    0.139827
  27 H :    0.146910
  28 H :    0.395023
Sum of atomic charges:   -0.0000000

LOEWDIN ATOMIC CHARGES
----------------------
   0 C :    0.175827
   1 C :   -0.225657
   2 C :   -0.223582
   3 C :   -0.032654
   4 O :   -0.317794
   5 H :    0.116502
   6 H :    0.124636
   7 H :    0.122570
   8 H :    0.118803
   9 H :    0.111742
  10 H :    0.103924
  11 H :    0.108300
  12 C :   -0.048672
  13 H :    0.102847
  14 H :    0.106749
  15 O :   -0.328179
  16 C :    0.021630
  17 C :    0.042311
  18 C :   -0.237552
  19 C :   -0.032341
  20 O :   -0.326106
  21 H :    0.115622
  22 H :    0.105472
  23 O :   -0.432032
  24 H :    0.122200
  25 H :    0.112040
  26 H :    0.100444
  27 H :    0.105580
  28 H :    0.287369

  Mayer bond orders larger than 0.100000
B(  0-C ,  1-C ) :   0.9248 B(  0-C ,  4-O ) :   0.9176 B(  0-C ,  5-H ) :   0.9345
B(  0-C , 15-O ) :   0.8483 B(  1-C ,  2-C ) :   0.9554 B(  1-C ,  6-H ) :   0.9343
B(  1-C ,  7-H ) :   0.9356 B(  2-C ,  3-C ) :   0.9474 B(  2-C ,  8-H ) :   0.9443
B(  2-C ,  9-H ) :   0.9381 B(  3-C ,  4-O ) :   0.8364 B(  3-C , 10-H ) :   0.9330
B(  3-C , 11-H ) :   0.9386 B( 12-C , 13-H ) :   0.9175 B( 12-C , 14-H ) :   0.9131
B( 12-C , 15-O ) :   0.7857 B( 12-C , 16-C ) :   0.9066 B( 16-C , 17-C ) :   0.9131
B( 16-C , 20-O ) :   0.8552 B( 16-C , 21-H ) :   0.9297 B( 17-C , 18-C ) :   0.8985
B( 17-C , 22-H ) :   0.9306 B( 17-C , 23-O ) :   0.9412 B( 18-C , 19-C ) :   0.9386
B( 18-C , 24-H ) :   0.9442 B( 18-C , 25-H ) :   0.9434 B( 19-C , 20-O ) :   0.8310
B( 19-C , 26-H ) :   0.9347 B( 19-C , 27-H ) :   0.9394 B( 23-O , 28-H ) :   0.7242

FINAL SINGLE POINT ENERGY      -652.862936545848

DIPOLE MOMENT
-------------
                                X             Y             Z
Electronic contribution:     -2.81730      -3.10871      -2.32955
Nuclear contribution   :      4.04104       4.22999       2.47389
                        -----------------------------------------
Total Dipole Moment    :      1.22374       1.12128       0.14435
                        -----------------------------------------
Magnitude (a.u.)       :      1.66602
Magnitude (Debye)      :      4.23469

Rotational constants in cm-1:     0.048697     0.014953     0.013837
Rotational constants in MHz :  1459.907971   448.273052   414.834532

                             ****ORCA TERMINATED NORMALLY****
TOTAL RUN TIME: 0 days 0 hours 49 minutes 15 seconds 726 msec
