                         Program Version 4.2.0 -  RELEASE  -
|  1> # Test redundant internal optimization
|  2> #
|  3> ! RKS B3LYP  Opt TightSCF SmallPrint
|  4>
|  5> %basis
|  6>         Basis "6-31G"
|  7> end
|  8>
|  9> %geom
| 10> Constraints
| 11> { D 4  0  15  12  30.0   C } # D for Dihedral angle
| 12> { D 0  15  12  16  105.0   C } # D for Dihedral angle
| 13> { D 0  4  3  2   C } # D for Dihedral angle
| 14> { D 4  3  2  1   C } # D for Dihedral angle
| 15> { D 3  2  1  0   C } # D for Dihedral angle
| 16> { D 2  1  0  4   C } # D for Dihedral angle
| 17> { D 1  0  4  3   C } # D for Dihedral angle
| 18> { D 16  20  19  18   C } # D for Dihedral angle
| 19> { D 20  19  18  17   C } # D for Dihedral angle
| 20> { D 19  18  17  16   C } # D for Dihedral angle
| 21> { D 18  17  16  20   C } # D for Dihedral angle
| 22> { D 17  16  20  19   C } # D for Dihedral angle
| 23> { D 15  12  16  20   C } # D for Dihedral angle
| 24> end
| 25> end
| 26>
| 27>
| 28> #%pal
| 29> #nprocs 8
| 30> #end
| 31>
| 32> * xyz 0 1
| 33> C  -21.048   26.222   46.251
| 34> C  -20.361   27.558   45.944
| 35> C  -20.329   28.222   47.341
| 36> C  -20.110   27.022   48.296
| 37> O  -20.473   25.807   47.535
| 38> H  -20.833   25.428   45.533
| 39> H  -19.344   27.382   45.576
| 40> H  -20.898   28.157   45.201
| 41> H  -19.543   28.978   47.434
| 42> H  -21.289   28.710   47.548
| 43> H  -20.733   27.082   49.195
| 44> H  -19.064   26.913   48.597
| 45> C  -23.091   26.824   47.779
| 46> H  -23.956   26.209   48.057
| 47> H  -22.307   26.673   48.533
| 48> O  -22.586   26.394   46.375
| 49> C  -23.517   28.318   47.833
| 50> C  -24.727   28.584   46.931
| 51> C  -25.891   28.061   47.806
| 52> C  -25.441   28.423   49.244
| 53> O  -23.984   28.669   49.178
| 54> H  -22.648   28.945   47.623
| 55> O  -24.874   30.109   46.676
| 56> H  -24.662   28.078   45.962
| 57> H  -26.854   28.512   47.545
| 58> H  -25.988   26.975   47.692
| 59> H  -25.637   27.617   49.959
| 60> H  -25.907   29.341   49.609
| 61> H  -24.942   30.639   47.634
| 62> *
| 63>
| 64>                          ****END OF INPUT****
 Total Charge           Charge          ....    0
 Multiplicity           Mult            ....    1
 Number of Electrons    NEL             ....  102
FINAL SINGLE POINT ENERGY      -652.818092105108
FINAL SINGLE POINT ENERGY      -652.843159739656
FINAL SINGLE POINT ENERGY      -652.856577837887
FINAL SINGLE POINT ENERGY      -652.858595844042
FINAL SINGLE POINT ENERGY      -652.858940820650
FINAL SINGLE POINT ENERGY      -652.859000943384
FINAL SINGLE POINT ENERGY      -652.858994610585
                    ***********************HURRAY********************

CARTESIAN COORDINATES (ANGSTROEM)
---------------------------------
  C    -21.157769   26.315930   46.410791
  C    -20.402845   27.564278   45.938827
  C    -20.043472   28.253033   47.285583
  C    -19.780941   27.050078   48.223180
  O    -20.413700   25.875076   47.564501
  H    -21.108502   25.499968   45.686517
  H    -19.497182   27.244851   45.411984
  H    -21.001919   28.190466   45.273841
  H    -19.166298   28.901911   47.200623
  H    -20.871897   28.867728   47.644815
  H    -20.210886   27.174150   49.221138
  H    -18.716653   26.816214   48.318382
  C    -23.164680   26.822553   47.904319
  H    -24.013742   26.146863   48.050487
  H    -22.454169   26.639871   48.715708
  O    -22.590481   26.465683   46.614777
  C    -23.634351   28.279159   47.936827
  C    -24.762465   28.614891   46.951232
  C    -26.005985   28.079794   47.705883
  C    -25.670332   28.364893   49.191432
  O    -24.202143   28.580346   49.257388
  H    -22.794540   28.962464   47.794122
  O    -24.839741   30.049826   46.721222
  H    -24.616163   28.164988   45.970237
  H    -26.911682   28.589265   47.368363
  H    -26.128434   27.007101   47.522971
  H    -25.937139   27.537409   49.855894
  H    -26.146646   29.277751   49.562870
  H    -24.792242   30.515460   47.583083

 Multiplicity           Mult            ....    1
 Number of Electrons    NEL             ....  102
 Basis Dimension        Dim             ....  149

ORBITAL ENERGIES
----------------

  NO   OCC          E(Eh)            E(eV)
   0   2.0000     -19.150304      -521.1063
   1   2.0000     -19.146424      -521.0007
   2   2.0000     -19.142271      -520.8877
   3   2.0000     -19.136948      -520.7428
   4   2.0000     -10.280469      -279.7458
   5   2.0000     -10.236901      -278.5602
   6   2.0000     -10.233281      -278.4617
   7   2.0000     -10.233187      -278.4592
   8   2.0000     -10.232674      -278.4452
   9   2.0000     -10.229380      -278.3556
  10   2.0000     -10.193771      -277.3866
  11   2.0000     -10.188713      -277.2490
  12   2.0000     -10.188521      -277.2437
  13   2.0000      -1.054548       -28.6957
  14   2.0000      -1.036990       -28.2179
  15   2.0000      -1.005781       -27.3687
  16   2.0000      -0.995782       -27.0966
  17   2.0000      -0.790706       -21.5162
  18   2.0000      -0.781839       -21.2749
  19   2.0000      -0.770482       -20.9659
  20   2.0000      -0.735177       -20.0052
  21   2.0000      -0.676360       -18.4047
  22   2.0000      -0.606133       -16.4937
  23   2.0000      -0.605066       -16.4647
  24   2.0000      -0.601070       -16.3559
  25   2.0000      -0.574463       -15.6319
  26   2.0000      -0.528070       -14.3695
  27   2.0000      -0.506771       -13.7899
  28   2.0000      -0.501339       -13.6421
  29   2.0000      -0.495322       -13.4784
  30   2.0000      -0.474077       -12.9003
  31   2.0000      -0.459796       -12.5117
  32   2.0000      -0.451964       -12.2986
  33   2.0000      -0.436161       -11.8686
  34   2.0000      -0.427138       -11.6230
  35   2.0000      -0.417794       -11.3688
  36   2.0000      -0.404814       -11.0156
  37   2.0000      -0.393178       -10.6989
  38   2.0000      -0.380704       -10.3595
  39   2.0000      -0.368322       -10.0225
  40   2.0000      -0.362004        -9.8506
  41   2.0000      -0.356846        -9.7103
  42   2.0000      -0.349723        -9.5164
  43   2.0000      -0.336590        -9.1591
  44   2.0000      -0.323963        -8.8155
  45   2.0000      -0.313809        -8.5392
  46   2.0000      -0.303200        -8.2505
  47   2.0000      -0.275706        -7.5023
  48   2.0000      -0.266331        -7.2472
  49   2.0000      -0.261039        -7.1032
  50   2.0000      -0.238427        -6.4879
  51   0.0000       0.063651         1.7320
  52   0.0000       0.068594         1.8666
  53   0.0000       0.085476         2.3259
  54   0.0000       0.097960         2.6656
  55   0.0000       0.099642         2.7114

MULLIKEN ATOMIC CHARGES
-----------------------
   0 C :    0.306463
   1 C :   -0.265573
   2 C :   -0.321879
   3 C :   -0.022170
   4 O :   -0.509030
   5 H :    0.163770
   6 H :    0.151048
   7 H :    0.158936
   8 H :    0.150227
   9 H :    0.157950
  10 H :    0.150934
  11 H :    0.152719
  12 C :   -0.023860
  13 H :    0.146767
  14 H :    0.164063
  15 O :   -0.535782
  16 C :    0.046951
  17 C :    0.090787
  18 C :   -0.299653
  19 C :   -0.033243
  20 O :   -0.527237
  21 H :    0.159708
  22 O :   -0.604702
  23 H :    0.174585
  24 H :    0.160276
  25 H :    0.150740
  26 H :    0.150413
  27 H :    0.145771
  28 H :    0.361020
Sum of atomic charges:   -0.0000000

LOEWDIN ATOMIC CHARGES
----------------------
   0 C :    0.181865
   1 C :   -0.226483
   2 C :   -0.223968
   3 C :   -0.034369
   4 O :   -0.316572
   5 H :    0.110023
   6 H :    0.118769
   7 H :    0.124466
   8 H :    0.118911
   9 H :    0.111384
  10 H :    0.104482
  11 H :    0.107167
  12 C :   -0.040657
  13 H :    0.107519
  14 H :    0.115140
  15 O :   -0.336139
  16 C :    0.004508
  17 C :    0.037148
  18 C :   -0.240990
  19 C :   -0.038811
  20 O :   -0.332942
  21 H :    0.107639
  22 O :   -0.416183
  23 H :    0.127030
  24 H :    0.126259
  25 H :    0.116676
  26 H :    0.105540
  27 H :    0.102058
  28 H :    0.280531

  Mayer bond orders larger than 0.100000
B(  0-C ,  1-C ) :   0.9165 B(  0-C ,  4-O ) :   0.9117 B(  0-C ,  5-H ) :   0.9351
B(  0-C , 15-O ) :   0.8652 B(  1-C ,  2-C ) :   0.9556 B(  1-C ,  6-H ) :   0.9336
B(  1-C ,  7-H ) :   0.9356 B(  2-C ,  3-C ) :   0.9496 B(  2-C ,  8-H ) :   0.9440
B(  2-C ,  9-H ) :   0.9267 B(  3-C ,  4-O ) :   0.8322 B(  3-C , 10-H ) :   0.9310
B(  3-C , 11-H ) :   0.9398 B( 12-C , 13-H ) :   0.9367 B( 12-C , 14-H ) :   0.9121
B( 12-C , 15-O ) :   0.8337 B( 12-C , 16-C ) :   0.8813 B( 16-C , 17-C ) :   0.9102
B( 16-C , 20-O ) :   0.8416 B( 16-C , 21-H ) :   0.9071 B( 17-C , 18-C ) :   0.9155
B( 17-C , 22-O ) :   0.8876 B( 17-C , 23-H ) :   0.9246 B( 18-C , 19-C ) :   0.9404
B( 18-C , 24-H ) :   0.9381 B( 18-C , 25-H ) :   0.9337 B( 19-C , 20-O ) :   0.8420
B( 19-C , 26-H ) :   0.9349 B( 19-C , 27-H ) :   0.9380 B( 22-O , 28-H ) :   0.7972

FINAL SINGLE POINT ENERGY      -652.858992514243

DIPOLE MOMENT
-------------
                                X             Y             Z
Electronic contribution:     -0.76986      -1.44657      -0.46480
Nuclear contribution   :      0.88657       1.74412       0.76656
                        -----------------------------------------
Total Dipole Moment    :      0.11671       0.29756       0.30177
                        -----------------------------------------
Magnitude (a.u.)       :      0.43957
Magnitude (Debye)      :      1.11731

Rotational constants in cm-1:     0.051257     0.014467     0.014006
Rotational constants in MHz :  1536.643205   433.711297   419.889241

                             ****ORCA TERMINATED NORMALLY****
TOTAL RUN TIME: 0 days 0 hours 24 minutes 52 seconds 133 msec
