                         Program Version 4.2.0 -  RELEASE  -
|  1> # Test redundant internal optimization
|  2> #
|  3> ! RKS B3LYP  Opt TightSCF SmallPrint
|  4>
|  5> %basis
|  6>         Basis "6-31G"
|  7> end
|  8>
|  9> %geom
| 10> Constraints
| 11> { D 4  0  15  12  180.0   C } # D for Dihedral angle
| 12> { D 0  15  12  16  105.0   C } # D for Dihedral angle
| 13> { D 0  4  3  2   C } # D for Dihedral angle
| 14> { D 4  3  2  1   C } # D for Dihedral angle
| 15> { D 3  2  1  0   C } # D for Dihedral angle
| 16> { D 2  1  0  4   C } # D for Dihedral angle
| 17> { D 1  0  4  3   C } # D for Dihedral angle
| 18> { D 16  20  19  18   C } # D for Dihedral angle
| 19> { D 20  19  18  17   C } # D for Dihedral angle
| 20> { D 19  18  17  16   C } # D for Dihedral angle
| 21> { D 18  17  16  20   C } # D for Dihedral angle
| 22> { D 17  16  20  19   C } # D for Dihedral angle
| 23> { D 15  12  16  20   C } # D for Dihedral angle
| 24> end
| 25> end
| 26>
| 27>
| 28> #%pal
| 29> #nprocs 8
| 30> #end
| 31>
| 32> * xyz 0 1
| 33> C  -21.048   26.222   46.251
| 34> C  -20.361   27.558   45.944
| 35> C  -20.329   28.222   47.341
| 36> C  -20.110   27.022   48.296
| 37> O  -20.473   25.807   47.535
| 38> H  -20.833   25.428   45.533
| 39> H  -19.344   27.382   45.576
| 40> H  -20.898   28.157   45.201
| 41> H  -19.543   28.978   47.434
| 42> H  -21.289   28.710   47.548
| 43> H  -20.733   27.082   49.195
| 44> H  -19.064   26.913   48.597
| 45> C  -23.309   26.834   45.072
| 46> H  -24.019   27.637   45.305
| 47> H  -22.584   27.217   44.342
| 48> O  -22.586   26.394   46.375
| 49> C  -24.090   25.672   44.397
| 50> C  -24.692   26.111   43.058
| 51> C  -23.463   26.035   42.121
| 52> C  -22.677   24.819   42.671
| 53> O  -23.178   24.580   44.042
| 54> H  -24.813   25.267   45.108
| 55> O  -25.787   25.104   42.610
| 56> H  -25.137   27.111   43.094
| 57> H  -23.739   25.911   41.069
| 58> H  -22.867   26.951   42.206
| 59> H  -21.597   25.001   42.711
| 60> H  -22.861   23.907   42.097
| 61> H  -25.362   24.094   42.567
| 62> *
| 63>
| 64>                          ****END OF INPUT****
 Total Charge           Charge          ....    0
 Multiplicity           Mult            ....    1
 Number of Electrons    NEL             ....  102
FINAL SINGLE POINT ENERGY      -652.830378945748
FINAL SINGLE POINT ENERGY      -652.853300637556
FINAL SINGLE POINT ENERGY      -652.857384517727
FINAL SINGLE POINT ENERGY      -652.858136328564
FINAL SINGLE POINT ENERGY      -652.858239828842
FINAL SINGLE POINT ENERGY      -652.858249527685
FINAL SINGLE POINT ENERGY      -652.858251989199
                    ***********************HURRAY********************

CARTESIAN COORDINATES (ANGSTROEM)
---------------------------------
  C    -21.036698   26.254217   46.149075
  C    -20.298280   27.578576   45.961849
  C    -20.389959   28.203659   47.377727
  C    -20.291658   26.969522   48.298132
  O    -20.608728   25.800898   47.438136
  H    -20.808735   25.468114   45.426195
  H    -19.255690   27.367779   45.695328
  H    -20.720942   28.222742   45.185814
  H    -19.595538   28.931767   47.566628
  H    -21.355601   28.702911   47.501438
  H    -21.000723   26.993250   49.129229
  H    -19.281618   26.807075   48.686033
  C    -23.177395   26.893386   45.037041
  H    -23.890300   27.663713   45.354753
  H    -22.480704   27.348502   44.319348
  O    -22.486839   26.433278   46.227837
  C    -23.930907   25.728259   44.395913
  C    -24.679326   26.064904   43.097728
  C    -23.541488   25.977144   42.047406
  C    -22.654908   24.825487   42.583721
  O    -23.010435   24.648584   44.014063
  H    -24.603697   25.300385   45.145001
  O    -25.729410   25.095249   42.835874
  H    -25.177958   27.035423   43.112299
  H    -23.949281   25.774427   41.054225
  H    -22.988249   26.922085   42.005399
  H    -21.584629   25.041816   42.505061
  H    -22.854078   23.873768   42.081483
  H    -25.402228   24.199081   43.063266

 Multiplicity           Mult            ....    1
 Number of Electrons    NEL             ....  102
 Basis Dimension        Dim             ....  149

ORBITAL ENERGIES
----------------

  NO   OCC          E(Eh)            E(eV)
   0   2.0000     -19.146565      -521.0045
   1   2.0000     -19.141054      -520.8546
   2   2.0000     -19.136434      -520.7288
   3   2.0000     -19.135536      -520.7044
   4   2.0000     -10.273957      -279.5686
   5   2.0000     -10.246177      -278.8126
   6   2.0000     -10.235273      -278.5159
   7   2.0000     -10.235168      -278.5131
   8   2.0000     -10.234417      -278.4926
   9   2.0000     -10.222204      -278.1603
  10   2.0000     -10.193920      -277.3907
  11   2.0000     -10.187547      -277.2172
  12   2.0000     -10.186220      -277.1811
  13   2.0000      -1.050368       -28.5820
  14   2.0000      -1.038489       -28.2587
  15   2.0000      -1.009322       -27.4651
  16   2.0000      -0.989054       -26.9135
  17   2.0000      -0.788169       -21.4472
  18   2.0000      -0.784409       -21.3448
  19   2.0000      -0.769545       -20.9404
  20   2.0000      -0.730722       -19.8840
  21   2.0000      -0.678550       -18.4643
  22   2.0000      -0.607487       -16.5306
  23   2.0000      -0.602593       -16.3974
  24   2.0000      -0.593731       -16.1562
  25   2.0000      -0.577791       -15.7225
  26   2.0000      -0.529476       -14.4078
  27   2.0000      -0.505403       -13.7527
  28   2.0000      -0.501439       -13.6448
  29   2.0000      -0.490940       -13.3592
  30   2.0000      -0.478300       -13.0152
  31   2.0000      -0.459357       -12.4997
  32   2.0000      -0.450605       -12.2616
  33   2.0000      -0.447917       -12.1884
  34   2.0000      -0.424677       -11.5560
  35   2.0000      -0.408947       -11.1280
  36   2.0000      -0.399975       -10.8839
  37   2.0000      -0.397908       -10.8276
  38   2.0000      -0.376814       -10.2536
  39   2.0000      -0.373842       -10.1727
  40   2.0000      -0.367565       -10.0020
  41   2.0000      -0.354795        -9.6545
  42   2.0000      -0.351030        -9.5520
  43   2.0000      -0.335274        -9.1233
  44   2.0000      -0.311075        -8.4648
  45   2.0000      -0.309913        -8.4332
  46   2.0000      -0.298502        -8.1227
  47   2.0000      -0.274590        -7.4720
  48   2.0000      -0.265979        -7.2377
  49   2.0000      -0.254042        -6.9128
  50   2.0000      -0.236950        -6.4477
  51   0.0000       0.059405         1.6165
  52   0.0000       0.079403         2.1607
  53   0.0000       0.086059         2.3418
  54   0.0000       0.098423         2.6782
  55   0.0000       0.103615         2.8195

MULLIKEN ATOMIC CHARGES
-----------------------
   0 C :    0.302672
   1 C :   -0.283275
   2 C :   -0.298094
   3 C :    0.000463
   4 O :   -0.499610
   5 H :    0.162456
   6 H :    0.147528
   7 H :    0.138499
   8 H :    0.141123
   9 H :    0.156800
  10 H :    0.154490
  11 H :    0.140527
  12 C :   -0.027540
  13 H :    0.146736
  14 H :    0.118394
  15 O :   -0.502379
  16 C :    0.071248
  17 C :    0.079441
  18 C :   -0.289299
  19 C :   -0.036324
  20 O :   -0.512706
  21 H :    0.173949
  22 O :   -0.602448
  23 H :    0.150442
  24 H :    0.164817
  25 H :    0.138832
  26 H :    0.145012
  27 H :    0.150518
  28 H :    0.367729
Sum of atomic charges:   -0.0000000

LOEWDIN ATOMIC CHARGES
----------------------
   0 C :    0.182666
   1 C :   -0.234650
   2 C :   -0.217109
   3 C :   -0.025350
   4 O :   -0.299429
   5 H :    0.107540
   6 H :    0.115508
   7 H :    0.110262
   8 H :    0.113657
   9 H :    0.116054
  10 H :    0.109565
  11 H :    0.101836
  12 C :   -0.046325
  13 H :    0.110205
  14 H :    0.090321
  15 O :   -0.328276
  16 C :    0.010141
  17 C :    0.034971
  18 C :   -0.240047
  19 C :   -0.040770
  20 O :   -0.324803
  21 H :    0.122871
  22 O :   -0.414032
  23 H :    0.114899
  24 H :    0.127967
  25 H :    0.110117
  26 H :    0.102367
  27 H :    0.104807
  28 H :    0.285038

  Mayer bond orders larger than 0.100000
B(  0-C ,  1-C ) :   0.9280 B(  0-C ,  4-O ) :   0.9364 B(  0-C ,  5-H ) :   0.9142
B(  0-C , 15-O ) :   0.8236 B(  1-C ,  2-C ) :   0.9494 B(  1-C ,  6-H ) :   0.9340
B(  1-C ,  7-H ) :   0.9311 B(  2-C ,  3-C ) :   0.9566 B(  2-C ,  8-H ) :   0.9451
B(  2-C ,  9-H ) :   0.9453 B(  3-C ,  4-O ) :   0.8373 B(  3-C , 10-H ) :   0.9343
B(  3-C , 11-H ) :   0.9398 B( 12-C , 13-H ) :   0.9259 B( 12-C , 14-H ) :   0.9159
B( 12-C , 15-O ) :   0.8677 B( 12-C , 16-C ) :   0.8860 B( 16-C , 17-C ) :   0.8955
B( 16-C , 20-O ) :   0.8572 B( 16-C , 21-H ) :   0.9237 B( 17-C , 18-C ) :   0.9077
B( 17-C , 22-O ) :   0.8929 B( 17-C , 23-H ) :   0.9337 B( 18-C , 19-C ) :   0.9405
B( 18-C , 24-H ) :   0.9370 B( 18-C , 25-H ) :   0.9348 B( 19-C , 20-O ) :   0.8497
B( 19-C , 26-H ) :   0.9341 B( 19-C , 27-H ) :   0.9376 B( 22-O , 28-H ) :   0.7930

FINAL SINGLE POINT ENERGY      -652.858252168060

DIPOLE MOMENT
-------------
                                X             Y             Z
Electronic contribution:     -3.48609      -5.23563       1.59250
Nuclear contribution   :      4.25064       6.51442      -2.46322
                        -----------------------------------------
Total Dipole Moment    :      0.76455       1.27878      -0.87071
                        -----------------------------------------
Magnitude (a.u.)       :      1.72568
Magnitude (Debye)      :      4.38633

Rotational constants in cm-1:     0.068674     0.011884     0.011773
Rotational constants in MHz :  2058.790937   356.280205   352.940777

                             ****ORCA TERMINATED NORMALLY****
TOTAL RUN TIME: 0 days 0 hours 25 minutes 15 seconds 43 msec
