                         Program Version 4.2.0 -  RELEASE  -
|  1> # Test redundant internal optimization
|  2> #
|  3> ! RKS B3LYP  Opt TightSCF SmallPrint
|  4>
|  5> %basis
|  6>         Basis "6-31G"
|  7> end
|  8>
|  9> %geom
| 10> Constraints
| 11> { D 4  0  15  12  240.0   C } # D for Dihedral angle
| 12> { D 0  15  12  16  225.0   C } # D for Dihedral angle
| 13> { D 0  4  3  2   C } # D for Dihedral angle
| 14> { D 4  3  2  1   C } # D for Dihedral angle
| 15> { D 3  2  1  0   C } # D for Dihedral angle
| 16> { D 2  1  0  4   C } # D for Dihedral angle
| 17> { D 1  0  4  3   C } # D for Dihedral angle
| 18> { D 16  20  19  18   C } # D for Dihedral angle
| 19> { D 20  19  18  17   C } # D for Dihedral angle
| 20> { D 19  18  17  16   C } # D for Dihedral angle
| 21> { D 18  17  16  20   C } # D for Dihedral angle
| 22> { D 17  16  20  19   C } # D for Dihedral angle
| 23> { D 15  12  16  20   C } # D for Dihedral angle
| 24> end
| 25> end
| 26>
| 27>
| 28> #%pal
| 29> #nprocs 8
| 30> #end
| 31>
| 32> * xyz 0 1
| 33> C  -21.048   26.222   46.251
| 34> C  -20.361   27.558   45.944
| 35> C  -20.329   28.222   47.341
| 36> C  -20.110   27.022   48.296
| 37> O  -20.473   25.807   47.535
| 38> H  -20.833   25.428   45.533
| 39> H  -19.344   27.382   45.576
| 40> H  -20.898   28.157   45.201
| 41> H  -19.543   28.978   47.434
| 42> H  -21.289   28.710   47.548
| 43> H  -20.733   27.082   49.195
| 44> H  -19.064   26.913   48.597
| 45> C  -23.430   25.483   45.442
| 46> H  -22.779   25.054   44.670
| 47> H  -23.875   24.657   46.012
| 48> O  -22.586   26.394   46.375
| 49> C  -24.585   26.248   44.739
| 50> C  -25.464   25.298   43.919
| 51> C  -26.349   24.663   45.018
| 52> C  -26.556   25.827   46.019
| 53> O  -25.500   26.821   45.732
| 54> H  -24.167   27.082   44.170
| 55> H  -26.077   25.867   43.211
| 56> O  -24.647   24.245   43.121
| 57> H  -27.295   24.273   44.630
| 58> H  -25.816   23.832   45.497
| 59> H  -26.469   25.503   47.063
| 60> H  -27.517   26.329   45.883
| 61> H  -24.026   23.661   43.809
| 62> *
| 63>
| 64>                          ****END OF INPUT****
 Total Charge           Charge          ....    0
 Multiplicity           Mult            ....    1
 Number of Electrons    NEL             ....  102
FINAL SINGLE POINT ENERGY      -652.826598431330
FINAL SINGLE POINT ENERGY      -652.849796232189
FINAL SINGLE POINT ENERGY      -652.854271951187
FINAL SINGLE POINT ENERGY      -652.855097058609
FINAL SINGLE POINT ENERGY      -652.855245695881
FINAL SINGLE POINT ENERGY      -652.855278717880
FINAL SINGLE POINT ENERGY      -652.855284278778
FINAL SINGLE POINT ENERGY      -652.855285330564
                    ***********************HURRAY********************

CARTESIAN COORDINATES (ANGSTROEM)
---------------------------------
  C    -21.030220   26.163237   46.205457
  C    -20.464235   27.552742   45.913390
  C    -20.524815   28.222227   47.307747
  C    -20.218869   27.050221   48.265863
  O    -20.458284   25.812799   47.481260
  H    -20.746870   25.378444   45.497171
  H    -19.426666   27.459560   45.570142
  H    -21.043232   28.083817   45.154844
  H    -19.812036   29.045569   47.412295
  H    -21.533323   28.607946   47.482778
  H    -20.865922   27.036136   49.146255
  H    -19.172118   27.021924   48.583811
  C    -23.277583   25.379650   45.476224
  H    -22.669354   24.938752   44.672903
  H    -23.668947   24.566293   46.103670
  O    -22.473795   26.257496   46.304563
  C    -24.411952   26.180201   44.839162
  C    -25.354448   25.328651   43.972769
  C    -26.323655   24.736682   45.040469
  C    -26.446923   25.888810   46.062262
  O    -25.296972   26.796527   45.821701
  H    -23.969981   27.008395   44.277479
  H    -25.897651   25.977305   43.282310
  O    -24.702780   24.351156   43.124424
  H    -27.284726   24.443045   44.610984
  H    -25.869385   23.846044   45.494168
  H    -26.417252   25.543047   47.099937
  H    -27.356396   26.478591   45.912834
  H    -24.444609   23.562733   43.644129

 Multiplicity           Mult            ....    1
 Number of Electrons    NEL             ....  102
 Basis Dimension        Dim             ....  149

ORBITAL ENERGIES
----------------

  NO   OCC          E(Eh)            E(eV)
   0   2.0000     -19.151923      -521.1503
   1   2.0000     -19.136716      -520.7365
   2   2.0000     -19.136689      -520.7358
   3   2.0000     -19.133462      -520.6480
   4   2.0000     -10.275989      -279.6239
   5   2.0000     -10.246433      -278.8196
   6   2.0000     -10.231815      -278.4218
   7   2.0000     -10.230541      -278.3872
   8   2.0000     -10.230137      -278.3762
   9   2.0000     -10.218787      -278.0673
  10   2.0000     -10.196841      -277.4702
  11   2.0000     -10.179701      -277.0037
  12   2.0000     -10.178791      -276.9790
  13   2.0000      -1.047983       -28.5171
  14   2.0000      -1.034673       -28.1549
  15   2.0000      -1.016036       -27.6477
  16   2.0000      -0.989949       -26.9379
  17   2.0000      -0.785013       -21.3613
  18   2.0000      -0.780421       -21.2363
  19   2.0000      -0.766369       -20.8540
  20   2.0000      -0.727644       -19.8002
  21   2.0000      -0.679408       -18.4876
  22   2.0000      -0.613081       -16.6828
  23   2.0000      -0.592616       -16.1259
  24   2.0000      -0.589291       -16.0354
  25   2.0000      -0.578325       -15.7370
  26   2.0000      -0.529410       -14.4060
  27   2.0000      -0.511653       -13.9228
  28   2.0000      -0.496843       -13.5198
  29   2.0000      -0.487107       -13.2548
  30   2.0000      -0.466050       -12.6819
  31   2.0000      -0.455091       -12.3837
  32   2.0000      -0.443430       -12.0663
  33   2.0000      -0.436343       -11.8735
  34   2.0000      -0.427434       -11.6311
  35   2.0000      -0.418277       -11.3819
  36   2.0000      -0.406023       -11.0484
  37   2.0000      -0.395758       -10.7691
  38   2.0000      -0.377267       -10.2660
  39   2.0000      -0.367255        -9.9935
  40   2.0000      -0.355951        -9.6859
  41   2.0000      -0.350931        -9.5493
  42   2.0000      -0.344872        -9.3844
  43   2.0000      -0.329478        -8.9655
  44   2.0000      -0.317785        -8.6474
  45   2.0000      -0.311326        -8.4716
  46   2.0000      -0.300006        -8.1636
  47   2.0000      -0.273000        -7.4287
  48   2.0000      -0.261498        -7.1157
  49   2.0000      -0.250304        -6.8111
  50   2.0000      -0.234099        -6.3702
  51   0.0000       0.048343         1.3155
  52   0.0000       0.077855         2.1185
  53   0.0000       0.086831         2.3628
  54   0.0000       0.091545         2.4911
  55   0.0000       0.101904         2.7729

MULLIKEN ATOMIC CHARGES
-----------------------
   0 C :    0.278252
   1 C :   -0.250145
   2 C :   -0.300663
   3 C :   -0.000137
   4 O :   -0.504181
   5 H :    0.136265
   6 H :    0.139797
   7 H :    0.146666
   8 H :    0.138243
   9 H :    0.170964
  10 H :    0.151619
  11 H :    0.138212
  12 C :   -0.010062
  13 H :    0.128265
  14 H :    0.131997
  15 O :   -0.505026
  16 C :    0.100627
  17 C :    0.086207
  18 C :   -0.324588
  19 C :   -0.007516
  20 O :   -0.504897
  21 H :    0.152980
  22 H :    0.167170
  23 O :   -0.602719
  24 H :    0.156752
  25 H :    0.132670
  26 H :    0.148273
  27 H :    0.148404
  28 H :    0.356571
Sum of atomic charges:   -0.0000000

LOEWDIN ATOMIC CHARGES
----------------------
   0 C :    0.175057
   1 C :   -0.220851
   2 C :   -0.216622
   3 C :   -0.026164
   4 O :   -0.318443
   5 H :    0.095884
   6 H :    0.110893
   7 H :    0.118177
   8 H :    0.112566
   9 H :    0.123615
  10 H :    0.107908
  11 H :    0.100356
  12 C :   -0.045185
  13 H :    0.097766
  14 H :    0.095186
  15 O :   -0.319716
  16 C :    0.018412
  17 C :    0.034083
  18 C :   -0.240513
  19 C :   -0.028991
  20 O :   -0.313336
  21 H :    0.114675
  22 H :    0.119383
  23 O :   -0.409198
  24 H :    0.122338
  25 H :    0.103681
  26 H :    0.105207
  27 H :    0.105566
  28 H :    0.278267

  Mayer bond orders larger than 0.100000
B(  0-C ,  1-C ) :   0.9416 B(  0-C ,  4-O ) :   0.9305 B(  0-C ,  5-H ) :   0.9176
B(  0-C , 15-O ) :   0.8502 B(  1-C ,  2-C ) :   0.9582 B(  1-C ,  6-H ) :   0.9371
B(  1-C ,  7-H ) :   0.9380 B(  2-C ,  3-C ) :   0.9546 B(  2-C ,  8-H ) :   0.9453
B(  2-C ,  9-H ) :   0.9417 B(  3-C ,  4-O ) :   0.8375 B(  3-C , 10-H ) :   0.9349
B(  3-C , 11-H ) :   0.9400 B( 12-C , 13-H ) :   0.9035 B( 12-C , 14-H ) :   0.9239
B( 12-C , 15-O ) :   0.8541 B( 12-C , 16-C ) :   0.9008 B( 16-C , 17-C ) :   0.8709
B( 16-C , 20-O ) :   0.8727 B( 16-C , 21-H ) :   0.9317 B( 17-C , 18-C ) :   0.9245
B( 17-C , 22-H ) :   0.9332 B( 17-C , 23-O ) :   0.8926 B( 18-C , 19-C ) :   0.9386
B( 18-C , 24-H ) :   0.9417 B( 18-C , 25-H ) :   0.9408 B( 19-C , 20-O ) :   0.8508
B( 19-C , 26-H ) :   0.9313 B( 19-C , 27-H ) :   0.9377 B( 23-O , 28-H ) :   0.7984

FINAL SINGLE POINT ENERGY      -652.855285613871

DIPOLE MOMENT
-------------
                                X             Y             Z
Electronic contribution:     -0.55021      -1.46045      -0.89750
Nuclear contribution   :      0.32421       1.15406       0.72557
                        -----------------------------------------
Total Dipole Moment    :     -0.22600      -0.30639      -0.17192
                        -----------------------------------------
Magnitude (a.u.)       :      0.41774
Magnitude (Debye)      :      1.06181

Rotational constants in cm-1:     0.057236     0.011921     0.011129
Rotational constants in MHz :  1715.900313   357.382809   333.652542

                             ****ORCA TERMINATED NORMALLY****
TOTAL RUN TIME: 0 days 1 hours 32 minutes 45 seconds 416 msec
