                         Program Version 4.2.0 -  RELEASE  -
|  1> # Test redundant internal optimization
|  2> #
|  3> ! RKS B3LYP  Opt TightSCF SmallPrint
|  4>
|  5> %basis
|  6>         Basis "6-31G"
|  7> end
|  8>
|  9> %geom
| 10> Constraints
| 11> { D 4  0  15  12  0.0   C } # D for Dihedral angle
| 12> { D 0  15  12  16  285.0   C } # D for Dihedral angle
| 13> { D 0  4  3  2   C } # D for Dihedral angle
| 14> { D 4  3  2  1   C } # D for Dihedral angle
| 15> { D 3  2  1  0   C } # D for Dihedral angle
| 16> { D 2  1  0  4   C } # D for Dihedral angle
| 17> { D 1  0  4  3   C } # D for Dihedral angle
| 18> { D 16  20  19  18   C } # D for Dihedral angle
| 19> { D 20  19  18  17   C } # D for Dihedral angle
| 20> { D 19  18  17  16   C } # D for Dihedral angle
| 21> { D 18  17  16  20   C } # D for Dihedral angle
| 22> { D 17  16  20  19   C } # D for Dihedral angle
| 23> { D 15  12  16  20   C } # D for Dihedral angle
| 24> end
| 25> end
| 26>
| 27>
| 28> #%pal
| 29> #nprocs 8
| 30> #end
| 31>
| 32> * xyz 0 1
| 33> C  -21.048   26.222   46.251
| 34> C  -20.361   27.558   45.944
| 35> C  -20.329   28.222   47.341
| 36> C  -20.110   27.022   48.296
| 37> O  -20.473   25.807   47.535
| 38> H  -20.833   25.428   45.533
| 39> H  -19.344   27.382   45.576
| 40> H  -20.898   28.157   45.201
| 41> H  -19.543   28.978   47.434
| 42> H  -21.289   28.710   47.548
| 43> H  -20.733   27.082   49.195
| 44> H  -19.064   26.913   48.597
| 45> C  -23.172   26.101   47.783
| 46> H  -22.548   26.588   48.543
| 47> H  -24.190   26.502   47.867
| 48> O  -22.586   26.394   46.375
| 49> C  -23.235   24.581   48.103
| 50> C  -23.923   24.324   49.448
| 51> C  -25.416   24.463   49.069
| 52> C  -25.470   23.883   47.633
| 53> O  -24.081   23.887   47.127
| 54> H  -22.233   24.156   48.019
| 55> O  -23.614   22.883   49.938
| 56> H  -23.616   25.028   50.230
| 57> H  -26.081   23.932   49.758
| 58> H  -25.708   25.520   49.069
| 59> H  -26.098   24.480   46.963
| 60> H  -25.817   22.846   47.615
| 61> H  -23.913   22.161   49.170
| 62> *
| 63>
| 64>                          ****END OF INPUT****
 Total Charge           Charge          ....    0
 Multiplicity           Mult            ....    1
 Number of Electrons    NEL             ....  102
FINAL SINGLE POINT ENERGY      -652.830411735448
FINAL SINGLE POINT ENERGY      -652.853215003671
FINAL SINGLE POINT ENERGY      -652.858038658487
FINAL SINGLE POINT ENERGY      -652.858870116801
FINAL SINGLE POINT ENERGY      -652.859004952164
FINAL SINGLE POINT ENERGY      -652.859024082429
FINAL SINGLE POINT ENERGY      -652.859027078933
                    ***********************HURRAY********************

CARTESIAN COORDINATES (ANGSTROEM)
---------------------------------
  C    -21.099866   26.214742   46.341747
  C    -20.454628   27.553090   45.976218
  C    -20.281280   28.211056   47.366080
  C    -19.961010   27.010886   48.286101
  O    -20.405022   25.799744   47.540377
  H    -20.946484   25.420345   45.608494
  H    -19.483474   27.368690   45.502686
  H    -21.080436   28.135114   45.296789
  H    -19.488393   28.965063   47.381197
  H    -21.215713   28.696398   47.667695
  H    -20.481947   27.046120   49.247273
  H    -18.889179   26.887984   48.466026
  C    -23.164739   26.104694   47.778907
  H    -22.634275   26.614389   48.594157
  H    -24.157029   26.552915   47.678198
  O    -22.541382   26.366423   46.494652
  C    -23.275155   24.611771   48.110043
  C    -23.993622   24.336581   49.439444
  C    -25.485001   24.430478   49.019460
  C    -25.478941   23.845455   47.584415
  O    -24.074717   23.890362   47.115943
  H    -22.276897   24.168511   48.097698
  O    -23.664421   23.013533   49.946682
  H    -23.727416   25.027202   50.241155
  H    -26.115541   23.864994   49.709718
  H    -25.817179   25.474821   49.025005
  H    -26.105239   24.415800   46.891484
  H    -25.795593   22.797979   47.558710
  H    -23.631418   22.384862   49.194646

 Multiplicity           Mult            ....    1
 Number of Electrons    NEL             ....  102
 Basis Dimension        Dim             ....  149

ORBITAL ENERGIES
----------------

  NO   OCC          E(Eh)            E(eV)
   0   2.0000     -19.152366      -521.1624
   1   2.0000     -19.136285      -520.7248
   2   2.0000     -19.135210      -520.6955
   3   2.0000     -19.134350      -520.6721
   4   2.0000     -10.277620      -279.6683
   5   2.0000     -10.238565      -278.6055
   6   2.0000     -10.234581      -278.4971
   7   2.0000     -10.230474      -278.3853
   8   2.0000     -10.225856      -278.2597
   9   2.0000     -10.224461      -278.2217
  10   2.0000     -10.192778      -277.3596
  11   2.0000     -10.186124      -277.1785
  12   2.0000     -10.185997      -277.1751
  13   2.0000      -1.055296       -28.7161
  14   2.0000      -1.031116       -28.0581
  15   2.0000      -1.001853       -27.2618
  16   2.0000      -0.990814       -26.9614
  17   2.0000      -0.792406       -21.5625
  18   2.0000      -0.779511       -21.2116
  19   2.0000      -0.763987       -20.7891
  20   2.0000      -0.734882       -19.9972
  21   2.0000      -0.671898       -18.2833
  22   2.0000      -0.604853       -16.4589
  23   2.0000      -0.601929       -16.3793
  24   2.0000      -0.598343       -16.2817
  25   2.0000      -0.569474       -15.4962
  26   2.0000      -0.520129       -14.1534
  27   2.0000      -0.513524       -13.9737
  28   2.0000      -0.499288       -13.5863
  29   2.0000      -0.488804       -13.3010
  30   2.0000      -0.471385       -12.8271
  31   2.0000      -0.460697       -12.5362
  32   2.0000      -0.446753       -12.1568
  33   2.0000      -0.440265       -11.9802
  34   2.0000      -0.419077       -11.4037
  35   2.0000      -0.412321       -11.2198
  36   2.0000      -0.397441       -10.8149
  37   2.0000      -0.388937       -10.5835
  38   2.0000      -0.375709       -10.2235
  39   2.0000      -0.368552       -10.0288
  40   2.0000      -0.361986        -9.8501
  41   2.0000      -0.357883        -9.7385
  42   2.0000      -0.352634        -9.5957
  43   2.0000      -0.333447        -9.0736
  44   2.0000      -0.324891        -8.8407
  45   2.0000      -0.311921        -8.4878
  46   2.0000      -0.298161        -8.1134
  47   2.0000      -0.266621        -7.2551
  48   2.0000      -0.263907        -7.1813
  49   2.0000      -0.258450        -7.0328
  50   2.0000      -0.230828        -6.2812
  51   0.0000       0.065764         1.7895
  52   0.0000       0.077186         2.1004
  53   0.0000       0.088647         2.4122
  54   0.0000       0.096717         2.6318
  55   0.0000       0.104621         2.8469

MULLIKEN ATOMIC CHARGES
-----------------------
   0 C :    0.297675
   1 C :   -0.255028
   2 C :   -0.308899
   3 C :   -0.019039
   4 O :   -0.515752
   5 H :    0.164865
   6 H :    0.144984
   7 H :    0.162055
   8 H :    0.148733
   9 H :    0.153932
  10 H :    0.144402
  11 H :    0.153098
  12 C :   -0.003745
  13 H :    0.122703
  14 H :    0.149257
  15 O :   -0.523973
  16 C :    0.052616
  17 C :    0.075685
  18 C :   -0.295857
  19 C :   -0.028371
  20 O :   -0.513387
  21 H :    0.189076
  22 O :   -0.602250
  23 H :    0.146738
  24 H :    0.162625
  25 H :    0.139300
  26 H :    0.148551
  27 H :    0.144364
  28 H :    0.365641
Sum of atomic charges:   -0.0000000

LOEWDIN ATOMIC CHARGES
----------------------
   0 C :    0.181273
   1 C :   -0.218771
   2 C :   -0.220227
   3 C :   -0.033741
   4 O :   -0.321382
   5 H :    0.108952
   6 H :    0.114076
   7 H :    0.126584
   8 H :    0.118016
   9 H :    0.113802
  10 H :    0.100536
  11 H :    0.108008
  12 C :   -0.038522
  13 H :    0.093157
  14 H :    0.111830
  15 O :   -0.327153
  16 C :    0.001613
  17 C :    0.034844
  18 C :   -0.241594
  19 C :   -0.038613
  20 O :   -0.324596
  21 H :    0.127624
  22 O :   -0.415160
  23 H :    0.112260
  24 H :    0.126465
  25 H :    0.110257
  26 H :    0.104972
  27 H :    0.101777
  28 H :    0.283714

  Mayer bond orders larger than 0.100000
B(  0-C ,  1-C ) :   0.9320 B(  0-C ,  4-O ) :   0.8961 B(  0-C ,  5-H ) :   0.9281
B(  0-C , 15-O ) :   0.8480 B(  1-C ,  2-C ) :   0.9516 B(  1-C ,  6-H ) :   0.9356
B(  1-C ,  7-H ) :   0.9361 B(  2-C ,  3-C ) :   0.9527 B(  2-C ,  8-H ) :   0.9447
B(  2-C ,  9-H ) :   0.9454 B(  3-C ,  4-O ) :   0.8298 B(  3-C , 10-H ) :   0.9300
B(  3-C , 11-H ) :   0.9396 B( 12-C , 13-H ) :   0.9083 B( 12-C , 14-H ) :   0.9391
B( 12-C , 15-O ) :   0.8599 B( 12-C , 16-C ) :   0.8760 B( 16-C , 17-C ) :   0.9001
B( 16-C , 20-O ) :   0.8541 B( 16-C , 21-H ) :   0.9123 B( 17-C , 18-C ) :   0.9084
B( 17-C , 22-O ) :   0.8936 B( 17-C , 23-H ) :   0.9336 B( 18-C , 19-C ) :   0.9425
B( 18-C , 24-H ) :   0.9375 B( 18-C , 25-H ) :   0.9352 B( 19-C , 20-O ) :   0.8526
B( 19-C , 26-H ) :   0.9337 B( 19-C , 27-H ) :   0.9382 B( 22-O , 28-H ) :   0.7937

FINAL SINGLE POINT ENERGY      -652.859027539775

DIPOLE MOMENT
-------------
                                X             Y             Z
Electronic contribution:      0.04808      -4.83686      -1.38457
Nuclear contribution   :     -0.04745       5.99061       1.58272
                        -----------------------------------------
Total Dipole Moment    :      0.00063       1.15375       0.19815
                        -----------------------------------------
Magnitude (a.u.)       :      1.17064
Magnitude (Debye)      :      2.97553

Rotational constants in cm-1:     0.057844     0.013832     0.012686
Rotational constants in MHz :  1734.124048   414.663787   380.306955

                             ****ORCA TERMINATED NORMALLY****
TOTAL RUN TIME: 0 days 0 hours 25 minutes 29 seconds 815 msec
