                         Program Version 4.2.1 -  RELEASE  -
|  1> # Test redundant internal optimization
|  2> #
|  3> ! RKS B3LYP  Opt TightSCF SmallPrint
|  4>
|  5> %basis
|  6>         Basis "6-31G"
|  7> end
|  8>
|  9> %geom
| 10> Constraints
| 11> { D 4  0  19  14  105.0   C } # D for Dihedral angle
| 12> { D 0  19  14  12  150.0   C } # D for Dihedral angle
| 13> { D 0  4  3  2   C } # D for Dihedral angle
| 14> { D 4  3  2  1   C } # D for Dihedral angle
| 15> { D 3  2  1  0   C } # D for Dihedral angle
| 16> { D 2  1  0  4   C } # D for Dihedral angle
| 17> { D 1  0  4  3   C } # D for Dihedral angle
| 18> { D 14  15  16  17   C } # D for Dihedral angle
| 19> { D 15  16  17  12   C } # D for Dihedral angle
| 20> { D 16  17  12  14   C } # D for Dihedral angle
| 21> { D 17  12  14  15   C } # D for Dihedral angle
| 22> { D 12  14  15  16   C } # D for Dihedral angle
| 23> end
| 24> end
| 25>
| 26>
| 27> #%pal
| 28> #nprocs 8
| 29> #end
| 30>
| 31> * xyz 0 1
| 32> C  -21.048   26.222   46.251
| 33> C  -20.361   27.558   45.944
| 34> C  -20.329   28.222   47.341
| 35> C  -20.110   27.022   48.296
| 36> O  -20.473   25.807   47.535
| 37> H  -20.833   25.428   45.533
| 38> H  -19.344   27.382   45.576
| 39> H  -20.898   28.157   45.201
| 40> H  -19.543   28.978   47.434
| 41> H  -21.289   28.710   47.548
| 42> H  -20.733   27.082   49.195
| 43> H  -19.064   26.913   48.597
| 44> C  -24.316   27.864   45.797
| 45> H  -24.559   28.910   45.549
| 46> C  -22.914   27.747   46.406
| 47> C  -23.167   28.197   47.864
| 48> C  -24.586   27.651   48.161
| 49> O  -25.209   27.367   46.849
| 50> H  -24.481   27.240   44.917
| 51> O  -22.472   26.381   46.366
| 52> H  -22.170   28.366   45.894
| 53> H  -22.417   27.813   48.563
| 54> H  -23.154   29.292   47.929
| 55> H  -25.208   28.369   48.706
| 56> H  -24.563   26.708   48.717
| 57> *
| 58>
| 59>                          ****END OF INPUT****
 Total Charge           Charge          ....    0
 Multiplicity           Mult            ....    1
 Number of Electrons    NEL             ....   86
FINAL SINGLE POINT ENERGY      -538.386313229950
FINAL SINGLE POINT ENERGY      -538.420890461224
FINAL SINGLE POINT ENERGY      -538.423286495810
FINAL SINGLE POINT ENERGY      -538.423674120624
FINAL SINGLE POINT ENERGY      -538.423690661483
FINAL SINGLE POINT ENERGY      -538.423694725332
                    ***********************HURRAY********************

CARTESIAN COORDINATES (ANGSTROEM)
---------------------------------
  C    -21.074853   26.344918   46.324895
  C    -20.149116   27.503545   45.931918
  C    -19.901129   28.200040   47.299678
  C    -19.877932   27.003827   48.284969
  O    -20.526222   25.876037   47.578468
  H    -21.008866   25.486490   45.654570
  H    -19.218284   27.076991   45.545186
  H    -20.561305   28.167012   45.166838
  H    -18.961339   28.760608   47.314503
  H    -20.708173   28.898717   47.539031
  H    -20.419706   27.204770   49.214839
  H    -18.860860   26.684920   48.530485
  C    -24.467375   27.831459   45.786020
  H    -24.841028   28.836121   45.536231
  C    -23.095853   27.919622   46.457533
  C    -23.479618   28.295552   47.903923
  C    -24.807287   27.533433   48.128133
  O    -25.317347   27.184137   46.784739
  H    -24.461021   27.201139   44.896459
  O    -22.498362   26.591522   46.395883
  H    -22.453355   28.665858   45.979110
  H    -22.708645   28.005858   48.622159
  H    -23.629193   29.380174   47.974967
  H    -25.555931   28.139002   48.651860
  H    -24.658201   26.594247   48.666605

 Multiplicity           Mult            ....    1
 Number of Electrons    NEL             ....   86
 Basis Dimension        Dim             ....  127

ORBITAL ENERGIES
----------------

  NO   OCC          E(Eh)            E(eV)
   0   2.0000     -19.140535      -520.8404
   1   2.0000     -19.139716      -520.8181
   2   2.0000     -19.125170      -520.4223
   3   2.0000     -10.280633      -279.7502
   4   2.0000     -10.243934      -278.7516
   5   2.0000     -10.230627      -278.3895
   6   2.0000     -10.220902      -278.1249
   7   2.0000     -10.218470      -278.0587
   8   2.0000     -10.197676      -277.4929
   9   2.0000     -10.197504      -277.4882
  10   2.0000     -10.187543      -277.2171
  11   2.0000      -1.051116       -28.6023
  12   2.0000      -1.013543       -27.5799
  13   2.0000      -0.990296       -26.9473
  14   2.0000      -0.793166       -21.5832
  15   2.0000      -0.786663       -21.4062
  16   2.0000      -0.742128       -20.1943
  17   2.0000      -0.724769       -19.7220
  18   2.0000      -0.623464       -16.9653
  19   2.0000      -0.606901       -16.5146
  20   2.0000      -0.597884       -16.2693
  21   2.0000      -0.564146       -15.3512
  22   2.0000      -0.526550       -14.3281
  23   2.0000      -0.508313       -13.8319
  24   2.0000      -0.488523       -13.2934
  25   2.0000      -0.481251       -13.0955
  26   2.0000      -0.452692       -12.3184
  27   2.0000      -0.447511       -12.1774
  28   2.0000      -0.427777       -11.6404
  29   2.0000      -0.423226       -11.5166
  30   2.0000      -0.408491       -11.1156
  31   2.0000      -0.388081       -10.5602
  32   2.0000      -0.379492       -10.3265
  33   2.0000      -0.369029       -10.0418
  34   2.0000      -0.365340        -9.9414
  35   2.0000      -0.360116        -9.7993
  36   2.0000      -0.353017        -9.6061
  37   2.0000      -0.317346        -8.6354
  38   2.0000      -0.301864        -8.2141
  39   2.0000      -0.289375        -7.8743
  40   2.0000      -0.268945        -7.3184
  41   2.0000      -0.253777        -6.9056
  42   2.0000      -0.230009        -6.2589
  43   0.0000       0.065257         1.7757
  44   0.0000       0.088599         2.4109
  45   0.0000       0.091419         2.4876
  46   0.0000       0.109200         2.9715
  47   0.0000       0.115056         3.1308

MULLIKEN ATOMIC CHARGES
-----------------------
   0 C :    0.313574
   1 C :   -0.303039
   2 C :   -0.313048
   3 C :   -0.007743
   4 O :   -0.496856
   5 H :    0.164940
   6 H :    0.159826
   7 H :    0.148444
   8 H :    0.147195
   9 H :    0.151367
  10 H :    0.143375
  11 H :    0.146909
  12 C :    0.015415
  13 H :    0.118928
  14 C :    0.056275
  15 C :   -0.296225
  16 C :    0.000367
  17 O :   -0.516810
  18 H :    0.164591
  19 O :   -0.516068
  20 H :    0.127691
  21 H :    0.158106
  22 H :    0.136778
  23 H :    0.133678
  24 H :    0.162331
Sum of atomic charges:    0.0000000

LOEWDIN ATOMIC CHARGES
----------------------
   0 C :    0.178150
   1 C :   -0.231936
   2 C :   -0.223579
   3 C :   -0.032706
   4 O :   -0.317474
   5 H :    0.111335
   6 H :    0.124775
   7 H :    0.115316
   8 H :    0.116657
   9 H :    0.109596
  10 H :    0.100586
  11 H :    0.104920
  12 C :   -0.034133
  13 H :    0.088763
  14 C :    0.035694
  15 C :   -0.237684
  16 C :   -0.027473
  17 O :   -0.326281
  18 H :    0.121978
  19 O :   -0.314908
  20 H :    0.096028
  21 H :    0.122251
  22 H :    0.109871
  23 H :    0.097462
  24 H :    0.112792

  Mayer bond orders larger than 0.100000
B(  0-C ,  1-C ) :   0.9265 B(  0-C ,  4-O ) :   0.9041 B(  0-C ,  5-H ) :   0.9343
B(  0-C , 19-O ) :   0.8953 B(  1-C ,  2-C ) :   0.9516 B(  1-C ,  6-H ) :   0.9340
B(  1-C ,  7-H ) :   0.9297 B(  2-C ,  3-C ) :   0.9482 B(  2-C ,  8-H ) :   0.9455
B(  2-C ,  9-H ) :   0.9392 B(  3-C ,  4-O ) :   0.8514 B(  3-C , 10-H ) :   0.9300
B(  3-C , 11-H ) :   0.9384 B( 12-C , 13-H ) :   0.9140 B( 12-C , 14-C ) :   0.9334
B( 12-C , 17-O ) :   0.8764 B( 12-C , 18-H ) :   0.9308 B( 14-C , 15-C ) :   0.9344
B( 14-C , 19-O ) :   0.8364 B( 14-C , 20-H ) :   0.9098 B( 15-C , 16-C ) :   0.9454
B( 15-C , 21-H ) :   0.9343 B( 15-C , 22-H ) :   0.9366 B( 16-C , 17-O ) :   0.8560
B( 16-C , 23-H ) :   0.9331 B( 16-C , 24-H ) :   0.9342

FINAL SINGLE POINT ENERGY      -538.423694202924

DIPOLE MOMENT
-------------
                                X             Y             Z
Electronic contribution:     -2.69841      -4.98770      -1.37491
Nuclear contribution   :      3.90119       6.62524       1.30474
                        -----------------------------------------
Total Dipole Moment    :      1.20278       1.63755      -0.07017
                        -----------------------------------------
Magnitude (a.u.)       :      2.03302
Magnitude (Debye)      :      5.16753

Rotational constants in cm-1:     0.075550     0.022694     0.021646
Rotational constants in MHz :  2264.931143   680.341738   648.936495

                             ****ORCA TERMINATED NORMALLY****
TOTAL RUN TIME: 0 days 0 hours 7 minutes 45 seconds 212 msec
