                         Program Version 4.2.0 -  RELEASE  -
|  1> # Test redundant internal optimization
|  2> #
|  3> ! RKS B3LYP  Opt TightSCF SmallPrint
|  4>
|  5> %basis
|  6>         Basis "6-31G"
|  7> end
|  8>
|  9> %geom
| 10> Constraints
| 11> { D 4  0  15  12  60.0   C } # D for Dihedral angle
| 12> { D 0  15  12  16  180.0   C } # D for Dihedral angle
| 13> { D 0  4  3  2   C } # D for Dihedral angle
| 14> { D 4  3  2  1   C } # D for Dihedral angle
| 15> { D 3  2  1  0   C } # D for Dihedral angle
| 16> { D 2  1  0  4   C } # D for Dihedral angle
| 17> { D 1  0  4  3   C } # D for Dihedral angle
| 18> { D 16  20  19  18   C } # D for Dihedral angle
| 19> { D 20  19  18  17   C } # D for Dihedral angle
| 20> { D 19  18  17  16   C } # D for Dihedral angle
| 21> { D 18  17  16  20   C } # D for Dihedral angle
| 22> { D 17  16  20  19   C } # D for Dihedral angle
| 23> { D 15  12  16  20   C } # D for Dihedral angle
| 24> end
| 25> end
| 26>
| 27>
| 28> #%pal
| 29> #nprocs 8
| 30> #end
| 31>
| 32> * xyz 0 1
| 33> C  -21.048   26.222   46.251
| 34> C  -20.361   27.558   45.944
| 35> C  -20.329   28.222   47.341
| 36> C  -20.110   27.022   48.296
| 37> O  -20.473   25.807   47.535
| 38> H  -20.833   25.428   45.533
| 39> H  -19.344   27.382   45.576
| 40> H  -20.898   28.157   45.201
| 41> H  -19.543   28.978   47.434
| 42> H  -21.289   28.710   47.548
| 43> H  -20.733   27.082   49.195
| 44> H  -19.064   26.913   48.597
| 45> C  -23.051   27.452   47.413
| 46> H  -22.677   27.172   48.406
| 47> H  -22.647   28.441   47.161
| 48> O  -22.586   26.394   46.375
| 49> C  -24.597   27.578   47.491
| 50> C  -25.202   27.879   46.115
| 51> C  -25.195   26.479   45.456
| 52> C  -25.487   25.529   46.645
| 53> O  -25.197   26.296   47.877
| 54> H  -24.859   28.299   48.267
| 55> H  -26.227   28.248   46.227
| 56> O  -24.389   28.927   45.307
| 57> H  -25.934   26.382   44.655
| 58> H  -24.207   26.269   45.028
| 59> H  -24.862   24.630   46.627
| 60> H  -26.538   25.230   46.692
| 61> H  -23.358   28.578   45.183
| 62> *
| 63>
| 64>                          ****END OF INPUT****
 Total Charge           Charge          ....    0
 Multiplicity           Mult            ....    1
 Number of Electrons    NEL             ....  102
FINAL SINGLE POINT ENERGY      -652.811725943029
FINAL SINGLE POINT ENERGY      -652.839859449620
FINAL SINGLE POINT ENERGY      -652.854635205597
FINAL SINGLE POINT ENERGY      -652.857603280580
FINAL SINGLE POINT ENERGY      -652.858080021363
FINAL SINGLE POINT ENERGY      -652.858150070914
FINAL SINGLE POINT ENERGY      -652.858160741003
FINAL SINGLE POINT ENERGY      -652.858159017151
                    ***********************HURRAY********************

CARTESIAN COORDINATES (ANGSTROEM)
---------------------------------
  C    -21.158434   26.339211   46.457942
  C    -20.325867   27.542505   45.991058
  C    -20.013366   28.265552   47.335715
  C    -19.854440   27.080295   48.321352
  O    -20.495315   25.912444   47.666996
  H    -21.104985   25.493103   45.771024
  H    -19.405719   27.172119   45.527969
  H    -20.851652   28.173570   45.268830
  H    -19.100922   28.867322   47.277997
  H    -20.828781   28.930587   47.628611
  H    -20.335173   27.253671   49.288360
  H    -18.806619   26.813517   48.486204
  C    -23.143673   27.484304   47.525576
  H    -22.833861   27.216526   48.542050
  H    -22.810603   28.505061   47.298567
  O    -22.587229   26.522625   46.581719
  C    -24.668221   27.473932   47.450324
  C    -25.263487   27.838196   46.079316
  C    -25.253655   26.461060   45.346088
  C    -25.556351   25.469855   46.491005
  O    -25.271744   26.187456   47.760943
  H    -25.016457   28.168953   48.224459
  H    -26.281191   28.213625   46.204800
  O    -24.555258   28.894261   45.381764
  H    -25.994716   26.418285   44.542097
  H    -24.257688   26.284137   44.934971
  H    -24.930297   24.575235   46.450084
  H    -26.609793   25.176290   46.524501
  H    -23.722502   28.530302   45.015678

 Multiplicity           Mult            ....    1
 Number of Electrons    NEL             ....  102
 Basis Dimension        Dim             ....  149

ORBITAL ENERGIES
----------------

  NO   OCC          E(Eh)            E(eV)
   0   2.0000     -19.152464      -521.1650
   1   2.0000     -19.148476      -521.0565
   2   2.0000     -19.141490      -520.8664
   3   2.0000     -19.130800      -520.5755
   4   2.0000     -10.285822      -279.8914
   5   2.0000     -10.236228      -278.5419
   6   2.0000     -10.234800      -278.5031
   7   2.0000     -10.231726      -278.4194
   8   2.0000     -10.230083      -278.3747
   9   2.0000     -10.218078      -278.0481
  10   2.0000     -10.198737      -277.5217
  11   2.0000     -10.198552      -277.5167
  12   2.0000     -10.178098      -276.9601
  13   2.0000      -1.059340       -28.8261
  14   2.0000      -1.026890       -27.9431
  15   2.0000      -1.009378       -27.4666
  16   2.0000      -1.000062       -27.2131
  17   2.0000      -0.794889       -21.6300
  18   2.0000      -0.777180       -21.1482
  19   2.0000      -0.765681       -20.8352
  20   2.0000      -0.736356       -20.0373
  21   2.0000      -0.680866       -18.5273
  22   2.0000      -0.610623       -16.6159
  23   2.0000      -0.604060       -16.4373
  24   2.0000      -0.600412       -16.3381
  25   2.0000      -0.563285       -15.3278
  26   2.0000      -0.525268       -14.2933
  27   2.0000      -0.515236       -14.0203
  28   2.0000      -0.503909       -13.7121
  29   2.0000      -0.489717       -13.3259
  30   2.0000      -0.474715       -12.9177
  31   2.0000      -0.458128       -12.4663
  32   2.0000      -0.441616       -12.0170
  33   2.0000      -0.433368       -11.7925
  34   2.0000      -0.425380       -11.5752
  35   2.0000      -0.419429       -11.4132
  36   2.0000      -0.403312       -10.9747
  37   2.0000      -0.397880       -10.8269
  38   2.0000      -0.386519       -10.5177
  39   2.0000      -0.372480       -10.1357
  40   2.0000      -0.367824       -10.0090
  41   2.0000      -0.360353        -9.8057
  42   2.0000      -0.346145        -9.4191
  43   2.0000      -0.325093        -8.8462
  44   2.0000      -0.322642        -8.7795
  45   2.0000      -0.311112        -8.4658
  46   2.0000      -0.306575        -8.3423
  47   2.0000      -0.272044        -7.4027
  48   2.0000      -0.262134        -7.1330
  49   2.0000      -0.258981        -7.0472
  50   2.0000      -0.236944        -6.4476
  51   0.0000       0.049190         1.3385
  52   0.0000       0.077706         2.1145
  53   0.0000       0.090076         2.4511
  54   0.0000       0.095933         2.6105
  55   0.0000       0.098259         2.6738

MULLIKEN ATOMIC CHARGES
-----------------------
   0 C :    0.305990
   1 C :   -0.278799
   2 C :   -0.313808
   3 C :   -0.013219
   4 O :   -0.502245
   5 H :    0.164375
   6 H :    0.158719
   7 H :    0.141629
   8 H :    0.149066
   9 H :    0.151359
  10 H :    0.148929
  11 H :    0.150803
  12 C :   -0.017019
  13 H :    0.158181
  14 H :    0.133160
  15 O :   -0.534933
  16 C :    0.088493
  17 C :    0.080460
  18 C :   -0.313097
  19 C :    0.002646
  20 O :   -0.518548
  21 H :    0.149382
  22 H :    0.162670
  23 O :   -0.607462
  24 H :    0.143627
  25 H :    0.161133
  26 H :    0.151751
  27 H :    0.137877
  28 H :    0.358883
Sum of atomic charges:   -0.0000000

LOEWDIN ATOMIC CHARGES
----------------------
   0 C :    0.174474
   1 C :   -0.229576
   2 C :   -0.223602
   3 C :   -0.032892
   4 O :   -0.316296
   5 H :    0.112637
   6 H :    0.123381
   7 H :    0.113853
   8 H :    0.117481
   9 H :    0.110687
  10 H :    0.104374
  11 H :    0.106350
  12 C :   -0.050469
  13 H :    0.111868
  14 H :    0.095611
  15 O :   -0.326124
  16 C :    0.020489
  17 C :    0.036400
  18 C :   -0.243133
  19 C :   -0.022904
  20 O :   -0.320499
  21 H :    0.114063
  22 H :    0.116340
  23 O :   -0.413148
  24 H :    0.114473
  25 H :    0.120143
  26 H :    0.108597
  27 H :    0.099730
  28 H :    0.277693

  Mayer bond orders larger than 0.100000
B(  0-C ,  1-C ) :   0.9171 B(  0-C ,  4-O ) :   0.9104 B(  0-C ,  5-H ) :   0.9369
B(  0-C , 15-O ) :   0.8841 B(  1-C ,  2-C ) :   0.9553 B(  1-C ,  6-H ) :   0.9345
B(  1-C ,  7-H ) :   0.9373 B(  2-C ,  3-C ) :   0.9471 B(  2-C ,  8-H ) :   0.9448
B(  2-C ,  9-H ) :   0.9385 B(  3-C ,  4-O ) :   0.8412 B(  3-C , 10-H ) :   0.9324
B(  3-C , 11-H ) :   0.9388 B( 12-C , 13-H ) :   0.9185 B( 12-C , 14-H ) :   0.8915
B( 12-C , 15-O ) :   0.8245 B( 12-C , 16-C ) :   0.9140 B( 16-C , 17-C ) :   0.8871
B( 16-C , 20-O ) :   0.8865 B( 16-C , 21-H ) :   0.9291 B( 17-C , 18-C ) :   0.9350
B( 17-C , 22-H ) :   0.9355 B( 17-C , 23-O ) :   0.8949 B( 18-C , 19-C ) :   0.9474
B( 18-C , 24-H ) :   0.9408 B( 18-C , 25-H ) :   0.9272 B( 19-C , 20-O ) :   0.8375
B( 19-C , 26-H ) :   0.9318 B( 19-C , 27-H ) :   0.9381 B( 23-O , 28-H ) :   0.7935

FINAL SINGLE POINT ENERGY      -652.858156943644

DIPOLE MOMENT
-------------
                                X             Y             Z
Electronic contribution:     -2.87409      -2.35682       1.08688
Nuclear contribution   :      3.83757       2.94532      -1.60376
                        -----------------------------------------
Total Dipole Moment    :      0.96348       0.58850      -0.51688
                        -----------------------------------------
Magnitude (a.u.)       :      1.24169
Magnitude (Debye)      :      3.15611

Rotational constants in cm-1:     0.049601     0.015764     0.014394
Rotational constants in MHz :  1487.007546   472.587145   431.523168

                             ****ORCA TERMINATED NORMALLY****
TOTAL RUN TIME: 0 days 1 hours 25 minutes 18 seconds 744 msec
