                         Program Version 4.2.0 -  RELEASE  -
|  1> # Test redundant internal optimization
|  2> #
|  3> ! RKS B3LYP  Opt TightSCF SmallPrint
|  4>
|  5> %basis
|  6>         Basis "6-31G"
|  7> end
|  8>
|  9> %geom
| 10> Constraints
| 11> { D 4  0  15  12  330.0   C } # D for Dihedral angle
| 12> { D 0  15  12  16  285.0   C } # D for Dihedral angle
| 13> { D 0  4  3  2   C } # D for Dihedral angle
| 14> { D 4  3  2  1   C } # D for Dihedral angle
| 15> { D 3  2  1  0   C } # D for Dihedral angle
| 16> { D 2  1  0  4   C } # D for Dihedral angle
| 17> { D 1  0  4  3   C } # D for Dihedral angle
| 18> { D 16  20  19  18   C } # D for Dihedral angle
| 19> { D 20  19  18  17   C } # D for Dihedral angle
| 20> { D 19  18  17  16   C } # D for Dihedral angle
| 21> { D 18  17  16  20   C } # D for Dihedral angle
| 22> { D 17  16  20  19   C } # D for Dihedral angle
| 23> { D 15  12  16  20   C } # D for Dihedral angle
| 24> end
| 25> end
| 26>
| 27>
| 28> #%pal
| 29> #nprocs 8
| 30> #end
| 31>
| 32> * xyz 0 1
| 33> C  -21.048   26.222   46.251
| 34> C  -20.361   27.558   45.944
| 35> C  -20.329   28.222   47.341
| 36> C  -20.110   27.022   48.296
| 37> O  -20.473   25.807   47.535
| 38> H  -20.833   25.428   45.533
| 39> H  -19.344   27.382   45.576
| 40> H  -20.898   28.157   45.201
| 41> H  -19.543   28.978   47.434
| 42> H  -21.289   28.710   47.548
| 43> H  -20.733   27.082   49.195
| 44> H  -19.064   26.913   48.597
| 45> C  -23.271   25.476   47.424
| 46> H  -22.687   25.488   48.353
| 47> H  -24.282   25.838   47.650
| 48> O  -22.586   26.394   46.375
| 49> C  -23.393   24.003   46.944
| 50> C  -24.175   23.152   47.951
| 51> C  -25.636   23.542   47.625
| 52> C  -25.609   23.751   46.090
| 53> O  -24.190   23.929   45.715
| 54> H  -22.399   23.621   46.705
| 55> H  -24.006   22.087   47.757
| 56> O  -23.789   23.447   49.427
| 57> H  -26.358   22.777   47.929
| 58> H  -25.900   24.475   48.136
| 59> H  -26.176   24.635   45.777
| 60> H  -25.980   22.879   45.543
| 61> H  -23.951   24.507   49.647
| 62> *
| 63>
| 64>                          ****END OF INPUT****
 Total Charge           Charge          ....    0
 Multiplicity           Mult            ....    1
 Number of Electrons    NEL             ....  102
FINAL SINGLE POINT ENERGY      -652.829794698973
FINAL SINGLE POINT ENERGY      -652.853252036975
FINAL SINGLE POINT ENERGY      -652.857955035029
FINAL SINGLE POINT ENERGY      -652.858786932405
FINAL SINGLE POINT ENERGY      -652.858930334382
FINAL SINGLE POINT ENERGY      -652.858952049099
FINAL SINGLE POINT ENERGY      -652.858953243900
                    ***********************HURRAY********************

CARTESIAN COORDINATES (ANGSTROEM)
---------------------------------
  C    -21.067067   26.176067   46.285805
  C    -20.452163   27.536284   45.957392
  C    -20.374060   28.191220   47.354002
  C    -20.059603   27.002025   48.287816
  O    -20.421217   25.777921   47.518062
  H    -20.860112   25.379177   45.566479
  H    -19.453918   27.387450   45.530439
  H    -21.063814   28.100568   45.250456
  H    -19.611023   28.973803   47.410544
  H    -21.342071   28.635179   47.604976
  H    -20.635347   27.017070   49.217367
  H    -18.995715   26.914071   48.525373
  C    -23.199672   25.539728   47.400607
  H    -22.658855   25.560580   48.353236
  H    -24.167281   26.038582   47.510550
  O    -22.503562   26.352842   46.414086
  C    -23.375963   24.081819   46.966992
  C    -24.162939   23.232243   47.981123
  C    -25.638777   23.578617   47.614647
  C    -25.573596   23.749158   46.080688
  O    -24.145784   23.955109   45.732085
  H    -22.393219   23.649333   46.760057
  H    -23.965175   22.174225   47.796123
  O    -23.817027   23.424227   49.373573
  H    -26.336657   22.798229   47.929205
  H    -25.930127   24.513753   48.111147
  H    -26.155544   24.603948   45.720901
  H    -25.905592   22.850995   45.550907
  H    -24.147123   24.287774   49.694365

 Multiplicity           Mult            ....    1
 Number of Electrons    NEL             ....  102
 Basis Dimension        Dim             ....  149

ORBITAL ENERGIES
----------------

  NO   OCC          E(Eh)            E(eV)
   0   2.0000     -19.146973      -521.0156
   1   2.0000     -19.145332      -520.9710
   2   2.0000     -19.136261      -520.7241
   3   2.0000     -19.132952      -520.6341
   4   2.0000     -10.273943      -279.5682
   5   2.0000     -10.242020      -278.6995
   6   2.0000     -10.228549      -278.3330
   7   2.0000     -10.227479      -278.3039
   8   2.0000     -10.224838      -278.2320
   9   2.0000     -10.223994      -278.2090
  10   2.0000     -10.193076      -277.3677
  11   2.0000     -10.186228      -277.1814
  12   2.0000     -10.182696      -277.0853
  13   2.0000      -1.052136       -28.6301
  14   2.0000      -1.030251       -28.0345
  15   2.0000      -1.012073       -27.5399
  16   2.0000      -0.988362       -26.8947
  17   2.0000      -0.788691       -21.4614
  18   2.0000      -0.778865       -21.1940
  19   2.0000      -0.762148       -20.7391
  20   2.0000      -0.731917       -19.9165
  21   2.0000      -0.675904       -18.3923
  22   2.0000      -0.608312       -16.5530
  23   2.0000      -0.600571       -16.3424
  24   2.0000      -0.597287       -16.2530
  25   2.0000      -0.561219       -15.2715
  26   2.0000      -0.525761       -14.3067
  27   2.0000      -0.508756       -13.8440
  28   2.0000      -0.497887       -13.5482
  29   2.0000      -0.491498       -13.3743
  30   2.0000      -0.467046       -12.7090
  31   2.0000      -0.455326       -12.3900
  32   2.0000      -0.437771       -11.9123
  33   2.0000      -0.431433       -11.7399
  34   2.0000      -0.423780       -11.5316
  35   2.0000      -0.415317       -11.3013
  36   2.0000      -0.406328       -11.0567
  37   2.0000      -0.396963       -10.8019
  38   2.0000      -0.375272       -10.2117
  39   2.0000      -0.368871       -10.0375
  40   2.0000      -0.357383        -9.7249
  41   2.0000      -0.352638        -9.5958
  42   2.0000      -0.346484        -9.4283
  43   2.0000      -0.330488        -8.9930
  44   2.0000      -0.327485        -8.9113
  45   2.0000      -0.311127        -8.4662
  46   2.0000      -0.296344        -8.0639
  47   2.0000      -0.268177        -7.2975
  48   2.0000      -0.263044        -7.1578
  49   2.0000      -0.258712        -7.0399
  50   2.0000      -0.229944        -6.2571
  51   0.0000       0.053809         1.4642
  52   0.0000       0.078832         2.1451
  53   0.0000       0.087763         2.3882
  54   0.0000       0.092692         2.5223
  55   0.0000       0.106666         2.9025

MULLIKEN ATOMIC CHARGES
-----------------------
   0 C :    0.289356
   1 C :   -0.258861
   2 C :   -0.300771
   3 C :   -0.012223
   4 O :   -0.515445
   5 H :    0.158718
   6 H :    0.143946
   7 H :    0.163048
   8 H :    0.143573
   9 H :    0.157202
  10 H :    0.141957
  11 H :    0.148955
  12 C :   -0.024482
  13 H :    0.147197
  14 H :    0.138762
  15 O :   -0.519284
  16 C :    0.081192
  17 C :    0.083210
  18 C :   -0.322531
  19 C :   -0.010177
  20 O :   -0.507970
  21 H :    0.168266
  22 H :    0.167563
  23 O :   -0.597756
  24 H :    0.157711
  25 H :    0.130513
  26 H :    0.145220
  27 H :    0.148686
  28 H :    0.354427
Sum of atomic charges:   -0.0000000

LOEWDIN ATOMIC CHARGES
----------------------
   0 C :    0.175902
   1 C :   -0.214216
   2 C :   -0.217747
   3 C :   -0.030305
   4 O :   -0.325652
   5 H :    0.102147
   6 H :    0.113388
   7 H :    0.127331
   8 H :    0.115029
   9 H :    0.116572
  10 H :    0.101404
  11 H :    0.106030
  12 C :   -0.054985
  13 H :    0.105632
  14 H :    0.105351
  15 O :   -0.323637
  16 C :    0.009346
  17 C :    0.035339
  18 C :   -0.241931
  19 C :   -0.030353
  20 O :   -0.317942
  21 H :    0.119268
  22 H :    0.119384
  23 O :   -0.406047
  24 H :    0.122503
  25 H :    0.102889
  26 H :    0.103254
  27 H :    0.105480
  28 H :    0.276565

  Mayer bond orders larger than 0.100000
B(  0-C ,  1-C ) :   0.9448 B(  0-C ,  4-O ) :   0.8946 B(  0-C ,  5-H ) :   0.9205
B(  0-C , 15-O ) :   0.8506 B(  1-C ,  2-C ) :   0.9532 B(  1-C ,  6-H ) :   0.9383
B(  1-C ,  7-H ) :   0.9352 B(  2-C ,  3-C ) :   0.9549 B(  2-C ,  8-H ) :   0.9450
B(  2-C ,  9-H ) :   0.9452 B(  3-C ,  4-O ) :   0.8329 B(  3-C , 10-H ) :   0.9345
B(  3-C , 11-H ) :   0.9408 B( 12-C , 13-H ) :   0.8975 B( 12-C , 14-H ) :   0.9393
B( 12-C , 15-O ) :   0.8627 B( 12-C , 16-C ) :   0.8852 B( 16-C , 17-C ) :   0.8730
B( 16-C , 20-O ) :   0.8640 B( 16-C , 21-H ) :   0.9276 B( 17-C , 18-C ) :   0.9234
B( 17-C , 22-H ) :   0.9327 B( 17-C , 23-O ) :   0.8992 B( 18-C , 19-C ) :   0.9390
B( 18-C , 24-H ) :   0.9417 B( 18-C , 25-H ) :   0.9419 B( 19-C , 20-O ) :   0.8505
B( 19-C , 26-H ) :   0.9313 B( 19-C , 27-H ) :   0.9377 B( 23-O , 28-H ) :   0.7983

FINAL SINGLE POINT ENERGY      -652.858952539034

DIPOLE MOMENT
-------------
                                X             Y             Z
Electronic contribution:      0.22201      -3.46847      -1.18891
Nuclear contribution   :     -0.63155       4.30826       1.67869
                        -----------------------------------------
Total Dipole Moment    :     -0.40954       0.83980       0.48978
                        -----------------------------------------
Magnitude (a.u.)       :      1.05493
Magnitude (Debye)      :      2.68141

Rotational constants in cm-1:     0.055484     0.013882     0.012201
Rotational constants in MHz :  1663.380573   416.167090   365.788869

                             ****ORCA TERMINATED NORMALLY****
TOTAL RUN TIME: 0 days 0 hours 22 minutes 14 seconds 843 msec
