                         Program Version 4.2.0 -  RELEASE  -
|  1> # Test redundant internal optimization
|  2> #
|  3> ! RKS B3LYP  Opt TightSCF SmallPrint
|  4>
|  5> %basis
|  6>         Basis "6-31G"
|  7> end
|  8>
|  9> %geom
| 10> Constraints
| 11> { D 4  0  15  12  30.0   C } # D for Dihedral angle
| 12> { D 0  15  12  16  135.0   C } # D for Dihedral angle
| 13> { D 0  4  3  2   C } # D for Dihedral angle
| 14> { D 4  3  2  1   C } # D for Dihedral angle
| 15> { D 3  2  1  0   C } # D for Dihedral angle
| 16> { D 2  1  0  4   C } # D for Dihedral angle
| 17> { D 1  0  4  3   C } # D for Dihedral angle
| 18> { D 16  20  19  18   C } # D for Dihedral angle
| 19> { D 20  19  18  17   C } # D for Dihedral angle
| 20> { D 19  18  17  16   C } # D for Dihedral angle
| 21> { D 18  17  16  20   C } # D for Dihedral angle
| 22> { D 17  16  20  19   C } # D for Dihedral angle
| 23> { D 15  12  16  20   C } # D for Dihedral angle
| 24> end
| 25> end
| 26>
| 27>
| 28> #%pal
| 29> #nprocs 8
| 30> #end
| 31>
| 32> * xyz 0 1
| 33> C  -21.048   26.222   46.251
| 34> C  -20.361   27.558   45.944
| 35> C  -20.329   28.222   47.341
| 36> C  -20.110   27.022   48.296
| 37> O  -20.473   25.807   47.535
| 38> H  -20.833   25.428   45.533
| 39> H  -19.344   27.382   45.576
| 40> H  -20.898   28.157   45.201
| 41> H  -19.543   28.978   47.434
| 42> H  -21.289   28.710   47.548
| 43> H  -20.733   27.082   49.195
| 44> H  -19.064   26.913   48.597
| 45> C  -23.091   26.824   47.779
| 46> H  -23.540   25.959   48.283
| 47> H  -22.256   27.184   48.394
| 48> O  -22.586   26.394   46.375
| 49> C  -24.154   27.956   47.715
| 50> C  -24.543   28.434   49.118
| 51> C  -23.355   29.359   49.476
| 52> C  -22.988   30.002   48.115
| 53> O  -23.593   29.149   47.070
| 54> H  -24.993   27.625   47.101
| 55> H  -25.478   29.005   49.076
| 56> O  -24.727   27.270   50.130
| 57> H  -23.612   30.105   50.234
| 58> H  -22.518   28.764   49.860
| 59> H  -21.905   30.053   47.954
| 60> H  -23.411   31.004   47.999
| 61> H  -23.803   26.685   50.191
| 62> *
| 63>
| 64>                          ****END OF INPUT****
 Total Charge           Charge          ....    0
 Multiplicity           Mult            ....    1
 Number of Electrons    NEL             ....  102
FINAL SINGLE POINT ENERGY      -652.806536363074
FINAL SINGLE POINT ENERGY      -652.833525877161
FINAL SINGLE POINT ENERGY      -652.848796329547
FINAL SINGLE POINT ENERGY      -652.851090971506
FINAL SINGLE POINT ENERGY      -652.851521559713
FINAL SINGLE POINT ENERGY      -652.851633375109
FINAL SINGLE POINT ENERGY      -652.851642535348
FINAL SINGLE POINT ENERGY      -652.851642649570
                    ***********************HURRAY********************

CARTESIAN COORDINATES (ANGSTROEM)
---------------------------------
  C    -21.118927   26.274281   46.317373
  C    -20.363990   27.534757   45.883439
  C    -19.942604   28.140241   47.246965
  C    -19.661704   26.886881   48.109873
  O    -20.335677   25.756475   47.419123
  H    -21.123190   25.494184   45.553333
  H    -19.489336   27.242535   45.291549
  H    -20.996864   28.204560   45.298212
  H    -19.066282   28.791135   47.170704
  H    -20.769218   28.727847   47.652006
  H    -20.048129   26.962941   49.131704
  H    -18.597019   26.637381   48.154065
  C    -23.038317   26.803755   47.905568
  H    -23.541364   25.920043   48.317814
  H    -22.232768   27.085737   48.592672
  O    -22.523800   26.474403   46.590443
  C    -24.060451   27.929327   47.747148
  C    -24.723130   28.411286   49.049315
  C    -23.690591   29.457945   49.564803
  C    -23.159353   30.088703   48.259740
  O    -23.505538   29.148156   47.159085
  H    -24.806303   27.582528   47.025216
  H    -25.671051   28.898480   48.811971
  O    -25.075938   27.376716   49.997374
  H    -24.143558   30.189523   50.239059
  H    -22.891260   28.942718   50.115436
  H    -22.077248   30.250516   48.273362
  H    -23.650899   31.038184   48.029049
  H    -24.273492   27.001760   50.414599

 Multiplicity           Mult            ....    1
 Number of Electrons    NEL             ....  102
 Basis Dimension        Dim             ....  149

ORBITAL ENERGIES
----------------

  NO   OCC          E(Eh)            E(eV)
   0   2.0000     -19.151980      -521.1519
   1   2.0000     -19.146468      -521.0019
   2   2.0000     -19.143717      -520.9270
   3   2.0000     -19.134630      -520.6797
   4   2.0000     -10.275890      -279.6212
   5   2.0000     -10.248026      -278.8630
   6   2.0000     -10.235821      -278.5308
   7   2.0000     -10.232794      -278.4485
   8   2.0000     -10.232065      -278.4286
   9   2.0000     -10.230802      -278.3943
  10   2.0000     -10.199865      -277.5524
  11   2.0000     -10.189800      -277.2786
  12   2.0000     -10.180514      -277.0259
  13   2.0000      -1.051296       -28.6072
  14   2.0000      -1.036079       -28.1932
  15   2.0000      -1.018901       -27.7257
  16   2.0000      -0.991703       -26.9856
  17   2.0000      -0.788082       -21.4448
  18   2.0000      -0.785498       -21.3745
  19   2.0000      -0.773018       -21.0349
  20   2.0000      -0.734011       -19.9734
  21   2.0000      -0.682929       -18.5834
  22   2.0000      -0.615422       -16.7465
  23   2.0000      -0.602870       -16.4049
  24   2.0000      -0.595827       -16.2133
  25   2.0000      -0.573817       -15.6143
  26   2.0000      -0.529212       -14.4006
  27   2.0000      -0.513767       -13.9803
  28   2.0000      -0.503496       -13.7008
  29   2.0000      -0.491821       -13.3831
  30   2.0000      -0.469006       -12.7623
  31   2.0000      -0.460715       -12.5367
  32   2.0000      -0.449281       -12.2256
  33   2.0000      -0.439045       -11.9470
  34   2.0000      -0.430939       -11.7264
  35   2.0000      -0.416256       -11.3269
  36   2.0000      -0.408041       -11.1034
  37   2.0000      -0.401703       -10.9309
  38   2.0000      -0.383771       -10.4429
  39   2.0000      -0.371927       -10.1206
  40   2.0000      -0.359958        -9.7950
  41   2.0000      -0.356067        -9.6891
  42   2.0000      -0.343961        -9.3597
  43   2.0000      -0.338473        -9.2103
  44   2.0000      -0.321833        -8.7575
  45   2.0000      -0.317287        -8.6338
  46   2.0000      -0.307049        -8.3552
  47   2.0000      -0.273411        -7.4399
  48   2.0000      -0.261968        -7.1285
  49   2.0000      -0.256015        -6.9665
  50   2.0000      -0.236759        -6.4425
  51   0.0000       0.044126         1.2007
  52   0.0000       0.057917         1.5760
  53   0.0000       0.084917         2.3107
  54   0.0000       0.090063         2.4507
  55   0.0000       0.102556         2.7907

MULLIKEN ATOMIC CHARGES
-----------------------
   0 C :    0.298690
   1 C :   -0.256935
   2 C :   -0.329442
   3 C :   -0.017794
   4 O :   -0.509927
   5 H :    0.163058
   6 H :    0.143167
   7 H :    0.172375
   8 H :    0.144111
   9 H :    0.167220
  10 H :    0.133408
  11 H :    0.150605
  12 C :   -0.007460
  13 H :    0.147865
  14 H :    0.120764
  15 O :   -0.527661
  16 C :    0.095266
  17 C :    0.081317
  18 C :   -0.321501
  19 C :   -0.017007
  20 O :   -0.510347
  21 H :    0.169858
  22 H :    0.170741
  23 O :   -0.596806
  24 H :    0.160737
  25 H :    0.130103
  26 H :    0.137153
  27 H :    0.152241
  28 H :    0.356202
Sum of atomic charges:   -0.0000000

LOEWDIN ATOMIC CHARGES
----------------------
   0 C :    0.183377
   1 C :   -0.224313
   2 C :   -0.225525
   3 C :   -0.036418
   4 O :   -0.321468
   5 H :    0.110417
   6 H :    0.113930
   7 H :    0.131868
   8 H :    0.116259
   9 H :    0.114778
  10 H :    0.094357
  11 H :    0.106002
  12 C :   -0.042623
  13 H :    0.107729
  14 H :    0.091411
  15 O :   -0.323987
  16 C :    0.015831
  17 C :    0.035055
  18 C :   -0.241916
  19 C :   -0.033728
  20 O :   -0.317215
  21 H :    0.121609
  22 H :    0.120957
  23 O :   -0.404754
  24 H :    0.124151
  25 H :    0.102256
  26 H :    0.096396
  27 H :    0.107321
  28 H :    0.278242

  Mayer bond orders larger than 0.100000
B(  0-C ,  1-C ) :   0.9176 B(  0-C ,  4-O ) :   0.9060 B(  0-C ,  5-H ) :   0.9347
B(  0-C , 15-O ) :   0.8742 B(  1-C ,  2-C ) :   0.9567 B(  1-C ,  6-H ) :   0.9347
B(  1-C ,  7-H ) :   0.9317 B(  2-C ,  3-C ) :   0.9491 B(  2-C ,  8-H ) :   0.9456
B(  2-C ,  9-H ) :   0.9261 B(  3-C ,  4-O ) :   0.8399 B(  3-C , 10-H ) :   0.9304
B(  3-C , 11-H ) :   0.9386 B( 12-C , 13-H ) :   0.9139 B( 12-C , 14-H ) :   0.9148
B( 12-C , 15-O ) :   0.8385 B( 12-C , 16-C ) :   0.9016 B( 16-C , 17-C ) :   0.8713
B( 16-C , 20-O ) :   0.8601 B( 16-C , 21-H ) :   0.9271 B( 17-C , 18-C ) :   0.9200
B( 17-C , 22-H ) :   0.9325 B( 17-C , 23-O ) :   0.9008 B( 18-C , 19-C ) :   0.9419
B( 18-C , 24-H ) :   0.9417 B( 18-C , 25-H ) :   0.9412 B( 19-C , 20-O ) :   0.8513
B( 19-C , 26-H ) :   0.9203 B( 19-C , 27-H ) :   0.9381 B( 23-O , 28-H ) :   0.7982

FINAL SINGLE POINT ENERGY      -652.851641085877

DIPOLE MOMENT
-------------
                                X             Y             Z
Electronic contribution:     -3.94320      -4.33017      -2.11308
Nuclear contribution   :      4.86684       5.39425       2.95893
                        -----------------------------------------
Total Dipole Moment    :      0.92364       1.06408       0.84585
                        -----------------------------------------
Magnitude (a.u.)       :      1.64343
Magnitude (Debye)      :      4.17726

Rotational constants in cm-1:     0.044706     0.016692     0.015447
Rotational constants in MHz :  1340.251217   500.421048   463.087187

                             ****ORCA TERMINATED NORMALLY****
TOTAL RUN TIME: 0 days 0 hours 23 minutes 55 seconds 199 msec
