                         Program Version 4.2.0 -  RELEASE  -
|  1> # Test redundant internal optimization
|  2> #
|  3> ! RKS B3LYP  Opt TightSCF SmallPrint
|  4>
|  5> %basis
|  6>         Basis "6-31G"
|  7> end
|  8>
|  9> %geom
| 10> Constraints
| 11> { D 4  0  15  12  300.0   C } # D for Dihedral angle
| 12> { D 0  15  12  16  210.0   C } # D for Dihedral angle
| 13> { D 0  4  3  2   C } # D for Dihedral angle
| 14> { D 4  3  2  1   C } # D for Dihedral angle
| 15> { D 3  2  1  0   C } # D for Dihedral angle
| 16> { D 2  1  0  4   C } # D for Dihedral angle
| 17> { D 1  0  4  3   C } # D for Dihedral angle
| 18> { D 16  20  19  18   C } # D for Dihedral angle
| 19> { D 20  19  18  17   C } # D for Dihedral angle
| 20> { D 19  18  17  16   C } # D for Dihedral angle
| 21> { D 18  17  16  20   C } # D for Dihedral angle
| 22> { D 17  16  20  19   C } # D for Dihedral angle
| 23> { D 15  12  16  20   C } # D for Dihedral angle
| 24> end
| 25> end
| 26>
| 27>
| 28> #%pal
| 29> #nprocs 8
| 30> #end
| 31>
| 32> * xyz 0 1
| 33> C  -21.048   26.222   46.251
| 34> C  -20.361   27.558   45.944
| 35> C  -20.329   28.222   47.341
| 36> C  -20.110   27.022   48.296
| 37> O  -20.473   25.807   47.535
| 38> H  -20.833   25.428   45.533
| 39> H  -19.344   27.382   45.576
| 40> H  -20.898   28.157   45.201
| 41> H  -19.543   28.978   47.434
| 42> H  -21.289   28.710   47.548
| 43> H  -20.733   27.082   49.195
| 44> H  -19.064   26.913   48.597
| 45> C  -23.362   25.116   46.798
| 46> H  -22.821   24.230   46.442
| 47> H  -23.436   25.056   47.891
| 48> O  -22.586   26.394   46.375
| 49> C  -24.805   25.072   46.223
| 50> C  -24.792   24.981   44.693
| 51> C  -24.491   23.479   44.471
| 52> C  -25.233   22.795   45.646
| 53> O  -25.489   23.848   46.652
| 54> H  -25.374   25.913   46.621
| 55> H  -25.778   25.241   44.293
| 56> O  -23.736   25.911   44.035
| 57> H  -24.832   23.118   43.495
| 58> H  -23.412   23.298   44.536
| 59> H  -24.643   21.995   46.106
| 60> H  -26.204   22.390   45.348
| 61> H  -22.740   25.667   44.422
| 62> *
| 63>
| 64>                          ****END OF INPUT****
 Total Charge           Charge          ....    0
 Multiplicity           Mult            ....    1
 Number of Electrons    NEL             ....  102
FINAL SINGLE POINT ENERGY      -652.829511206105
FINAL SINGLE POINT ENERGY      -652.856233436998
FINAL SINGLE POINT ENERGY      -652.862945969856
FINAL SINGLE POINT ENERGY      -652.865808060386
FINAL SINGLE POINT ENERGY      -652.867355473926
FINAL SINGLE POINT ENERGY      -652.868595064345
FINAL SINGLE POINT ENERGY      -652.869476589736
FINAL SINGLE POINT ENERGY      -652.869948179783
FINAL SINGLE POINT ENERGY      -652.870071162660
FINAL SINGLE POINT ENERGY      -652.870094411301
FINAL SINGLE POINT ENERGY      -652.870099730864
                    ***********************HURRAY********************

CARTESIAN COORDINATES (ANGSTROEM)
---------------------------------
  C    -21.052387   26.101388   46.280962
  C    -20.437562   27.454315   45.928636
  C    -20.448838   28.172130   47.296294
  C    -20.173856   27.029930   48.297222
  O    -20.475681   25.770056   47.560195
  H    -20.823432   25.268256   45.609323
  H    -19.414252   27.295955   45.570918
  H    -21.000356   27.986375   45.158274
  H    -19.699551   28.967168   47.358528
  H    -21.434709   28.611873   47.472029
  H    -20.804402   27.073906   49.188381
  H    -19.124542   26.966876   48.598128
  C    -23.237505   25.091439   46.831882
  H    -22.687042   24.184204   46.550615
  H    -23.318473   25.116141   47.920954
  O    -22.493352   26.277084   46.364712
  C    -24.631497   25.106276   46.196212
  C    -24.666309   24.997385   44.662733
  C    -24.457524   23.469557   44.450057
  C    -25.202251   22.845713   45.648891
  O    -25.370250   23.932794   46.656772
  H    -25.180299   25.983335   46.552881
  H    -25.667852   25.280722   44.316933
  O    -23.696915   25.796441   43.953551
  H    -24.849112   23.133554   43.486615
  H    -23.383705   23.256285   44.469851
  H    -24.658243   22.017574   46.113073
  H    -26.208463   22.505298   45.389197
  H    -23.160641   26.292970   44.614182

 Multiplicity           Mult            ....    1
 Number of Electrons    NEL             ....  102
 Basis Dimension        Dim             ....  149

ORBITAL ENERGIES
----------------

  NO   OCC          E(Eh)            E(eV)
   0   2.0000     -19.166148      -521.5374
   1   2.0000     -19.152035      -521.1534
   2   2.0000     -19.140596      -520.8421
   3   2.0000     -19.117125      -520.2034
   4   2.0000     -10.291327      -280.0412
   5   2.0000     -10.234695      -278.5002
   6   2.0000     -10.234404      -278.4923
   7   2.0000     -10.233752      -278.4746
   8   2.0000     -10.231332      -278.4087
   9   2.0000     -10.226416      -278.2749
  10   2.0000     -10.195181      -277.4250
  11   2.0000     -10.192909      -277.3631
  12   2.0000     -10.180079      -277.0140
  13   2.0000      -1.068118       -29.0650
  14   2.0000      -1.026498       -27.9324
  15   2.0000      -1.007719       -27.4214
  16   2.0000      -0.995135       -27.0790
  17   2.0000      -0.798180       -21.7196
  18   2.0000      -0.773209       -21.0401
  19   2.0000      -0.767879       -20.8950
  20   2.0000      -0.735913       -20.0252
  21   2.0000      -0.677490       -18.4354
  22   2.0000      -0.608713       -16.5639
  23   2.0000      -0.600130       -16.3304
  24   2.0000      -0.594146       -16.1675
  25   2.0000      -0.580049       -15.7839
  26   2.0000      -0.529821       -14.4172
  27   2.0000      -0.520340       -14.1592
  28   2.0000      -0.500903       -13.6303
  29   2.0000      -0.488980       -13.3058
  30   2.0000      -0.473486       -12.8842
  31   2.0000      -0.458668       -12.4810
  32   2.0000      -0.441129       -12.0037
  33   2.0000      -0.435492       -11.8503
  34   2.0000      -0.429232       -11.6800
  35   2.0000      -0.416470       -11.3327
  36   2.0000      -0.411017       -11.1843
  37   2.0000      -0.388936       -10.5835
  38   2.0000      -0.380066       -10.3421
  39   2.0000      -0.367100        -9.9893
  40   2.0000      -0.366380        -9.9697
  41   2.0000      -0.358125        -9.7451
  42   2.0000      -0.354599        -9.6491
  43   2.0000      -0.341332        -9.2881
  44   2.0000      -0.332399        -9.0450
  45   2.0000      -0.312528        -8.5043
  46   2.0000      -0.295856        -8.0506
  47   2.0000      -0.277748        -7.5579
  48   2.0000      -0.268021        -7.2932
  49   2.0000      -0.248253        -6.7553
  50   2.0000      -0.245415        -6.6781
  51   0.0000       0.058330         1.5872
  52   0.0000       0.079083         2.1520
  53   0.0000       0.090170         2.4536
  54   0.0000       0.097763         2.6603
  55   0.0000       0.107564         2.9270

MULLIKEN ATOMIC CHARGES
-----------------------
   0 C :    0.284989
   1 C :   -0.267699
   2 C :   -0.299577
   3 C :   -0.007469
   4 O :   -0.511150
   5 H :    0.158141
   6 H :    0.153446
   7 H :    0.160837
   8 H :    0.146566
   9 H :    0.164727
  10 H :    0.152153
  11 H :    0.148571
  12 C :   -0.003892
  13 H :    0.142962
  14 H :    0.173036
  15 O :   -0.554714
  16 C :    0.040973
  17 C :    0.125981
  18 C :   -0.295604
  19 C :   -0.020586
  20 O :   -0.520264
  21 H :    0.159303
  22 H :    0.141323
  23 O :   -0.647397
  24 H :    0.148733
  25 H :    0.144971
  26 H :    0.143367
  27 H :    0.149739
  28 H :    0.388534
Sum of atomic charges:   -0.0000000

LOEWDIN ATOMIC CHARGES
----------------------
   0 C :    0.171633
   1 C :   -0.214699
   2 C :   -0.215727
   3 C :   -0.027060
   4 O :   -0.323139
   5 H :    0.102601
   6 H :    0.118903
   7 H :    0.124739
   8 H :    0.116457
   9 H :    0.120341
  10 H :    0.108175
  11 H :    0.106132
  12 C :   -0.041960
  13 H :    0.103750
  14 H :    0.119447
  15 O :   -0.338968
  16 C :    0.015272
  17 C :    0.042252
  18 C :   -0.232380
  19 C :   -0.032078
  20 O :   -0.322304
  21 H :    0.114611
  22 H :    0.101460
  23 O :   -0.439337
  24 H :    0.120504
  25 H :    0.110919
  26 H :    0.102596
  27 H :    0.106204
  28 H :    0.281656

  Mayer bond orders larger than 0.100000
B(  0-C ,  1-C ) :   0.9506 B(  0-C ,  4-O ) :   0.9151 B(  0-C ,  5-H ) :   0.9168
B(  0-C , 15-O ) :   0.8100 B(  1-C ,  2-C ) :   0.9530 B(  1-C ,  6-H ) :   0.9381
B(  1-C ,  7-H ) :   0.9353 B(  2-C ,  3-C ) :   0.9554 B(  2-C ,  8-H ) :   0.9445
B(  2-C ,  9-H ) :   0.9440 B(  3-C ,  4-O ) :   0.8293 B(  3-C , 10-H ) :   0.9354
B(  3-C , 11-H ) :   0.9401 B( 12-C , 13-H ) :   0.9197 B( 12-C , 14-H ) :   0.9267
B( 12-C , 15-O ) :   0.7770 B( 12-C , 16-C ) :   0.9054 B( 16-C , 17-C ) :   0.9140
B( 16-C , 20-O ) :   0.8576 B( 16-C , 21-H ) :   0.9283 B( 17-C , 18-C ) :   0.9076
B( 17-C , 22-H ) :   0.9279 B( 17-C , 23-O ) :   0.9225 B( 18-C , 19-C ) :   0.9398
B( 18-C , 24-H ) :   0.9456 B( 18-C , 25-H ) :   0.9429 B( 19-C , 20-O ) :   0.8328
B( 19-C , 26-H ) :   0.9340 B( 19-C , 27-H ) :   0.9381 B( 23-O , 28-H ) :   0.7240

FINAL SINGLE POINT ENERGY      -652.870100010658

DIPOLE MOMENT
-------------
                                X             Y             Z
Electronic contribution:     -2.34222      -0.86493       0.42736
Nuclear contribution   :      3.10318       1.20839      -0.17739
                        -----------------------------------------
Total Dipole Moment    :      0.76096       0.34346       0.24997
                        -----------------------------------------
Magnitude (a.u.)       :      0.87150
Magnitude (Debye)      :      2.21518

Rotational constants in cm-1:     0.059277     0.013520     0.012293
Rotational constants in MHz :  1777.076812   405.306206   368.548521

                             ****ORCA TERMINATED NORMALLY****
TOTAL RUN TIME: 0 days 0 hours 29 minutes 7 seconds 320 msec
