                         Program Version 4.2.1 -  RELEASE  -
|  1> # Test redundant internal optimization
|  2> #
|  3> ! RKS B3LYP  Opt TightSCF SmallPrint
|  4>
|  5> %basis
|  6>         Basis "6-31G"
|  7> end
|  8>
|  9> %geom
| 10> Constraints
| 11> { D 4  0  19  14  135.0   C } # D for Dihedral angle
| 12> { D 0  19  14  12  180.0   C } # D for Dihedral angle
| 13> { D 0  4  3  2   C } # D for Dihedral angle
| 14> { D 4  3  2  1   C } # D for Dihedral angle
| 15> { D 3  2  1  0   C } # D for Dihedral angle
| 16> { D 2  1  0  4   C } # D for Dihedral angle
| 17> { D 1  0  4  3   C } # D for Dihedral angle
| 18> { D 14  15  16  17   C } # D for Dihedral angle
| 19> { D 15  16  17  12   C } # D for Dihedral angle
| 20> { D 16  17  12  14   C } # D for Dihedral angle
| 21> { D 17  12  14  15   C } # D for Dihedral angle
| 22> { D 12  14  15  16   C } # D for Dihedral angle
| 23> end
| 24> end
| 25>
| 26>
| 27> #%pal
| 28> #nprocs 8
| 29> #end
| 30>
| 31> * xyz 0 1
| 32> C  -21.048   26.222   46.251
| 33> C  -20.361   27.558   45.944
| 34> C  -20.329   28.222   47.341
| 35> C  -20.110   27.022   48.296
| 36> O  -20.473   25.807   47.535
| 37> H  -20.833   25.428   45.533
| 38> H  -19.344   27.382   45.576
| 39> H  -20.898   28.157   45.201
| 40> H  -19.543   28.978   47.434
| 41> H  -21.289   28.710   47.548
| 42> H  -20.733   27.082   49.195
| 43> H  -19.064   26.913   48.597
| 44> C  -24.507   27.645   45.935
| 45> H  -24.959   28.375   45.245
| 46> C  -22.986   27.575   45.755
| 47> C  -22.520   28.830   46.530
| 48> C  -23.524   28.910   47.707
| 49> O  -24.686   28.077   47.326
| 50> H  -25.020   26.688   45.830
| 51> O  -22.472   26.381   46.366
| 52> H  -22.677   27.586   44.704
| 53> H  -21.482   28.758   46.871
| 54> H  -22.601   29.719   45.893
| 55> H  -23.864   29.933   47.901
| 56> H  -23.117   28.491   48.633
| 57> *
| 58>
| 59>                          ****END OF INPUT****
 Total Charge           Charge          ....    0
 Multiplicity           Mult            ....    1
 Number of Electrons    NEL             ....   86
FINAL SINGLE POINT ENERGY      -538.208278366741
FINAL SINGLE POINT ENERGY      -538.269409713934
FINAL SINGLE POINT ENERGY      -538.309623646559
FINAL SINGLE POINT ENERGY      -538.338112208645
FINAL SINGLE POINT ENERGY      -538.359266650315
FINAL SINGLE POINT ENERGY      -538.374925415295
FINAL SINGLE POINT ENERGY      -538.386034706710
FINAL SINGLE POINT ENERGY      -538.393665039201
FINAL SINGLE POINT ENERGY      -538.398772041727
FINAL SINGLE POINT ENERGY      -538.401952552141
FINAL SINGLE POINT ENERGY      -538.412000848348
FINAL SINGLE POINT ENERGY      -538.412402795619
FINAL SINGLE POINT ENERGY      -538.412623702015
FINAL SINGLE POINT ENERGY      -538.412771849179
FINAL SINGLE POINT ENERGY      -538.412848651395
FINAL SINGLE POINT ENERGY      -538.412955057974
FINAL SINGLE POINT ENERGY      -538.413013022088
FINAL SINGLE POINT ENERGY      -538.413039505093
FINAL SINGLE POINT ENERGY      -538.413041010164
                    ***********************HURRAY********************

CARTESIAN COORDINATES (ANGSTROEM)
---------------------------------
  C    -21.012819   26.326578   46.265036
  C    -19.979120   27.427870   45.990713
  C    -19.810479   28.082480   47.397543
  C    -19.959677   26.861407   48.340271
  O    -20.613601   25.803193   47.541053
  H    -20.905433   25.483040   45.576155
  H    -19.045212   26.948817   45.681879
  H    -20.277810   28.137136   45.212678
  H    -18.834337   28.566131   47.506715
  H    -20.574630   28.829177   47.604444
  H    -20.573435   27.073314   49.220500
  H    -18.995027   26.460998   48.664708
  C    -24.602689   27.503476   45.977901
  H    -25.249952   28.075662   45.297245
  C    -23.128885   27.805577   45.713624
  C    -22.955646   29.149327   46.439970
  C    -23.882912   29.019519   47.671395
  O    -24.819062   27.914226   47.370656
  H    -24.822800   26.439309   45.906895
  O    -22.434763   26.625540   46.232659
  H    -22.912083   27.905241   44.640298
  H    -21.930718   29.405661   46.687554
  H    -23.329629   29.930130   45.764421
  H    -24.452049   29.935532   47.865118
  H    -23.337234   28.739661   48.577568

 Multiplicity           Mult            ....    1
 Number of Electrons    NEL             ....   86
 Basis Dimension        Dim             ....  127

ORBITAL ENERGIES
----------------

  NO   OCC          E(Eh)            E(eV)
   0   2.0000     -19.139258      -520.8057
   1   2.0000     -19.134860      -520.6860
   2   2.0000     -19.127301      -520.4803
   3   2.0000     -10.280315      -279.7416
   4   2.0000     -10.246273      -278.8153
   5   2.0000     -10.227422      -278.3023
   6   2.0000     -10.223077      -278.1841
   7   2.0000     -10.219132      -278.0767
   8   2.0000     -10.196916      -277.4722
   9   2.0000     -10.194976      -277.4194
  10   2.0000     -10.191161      -277.3156
  11   2.0000      -1.047637       -28.5077
  12   2.0000      -1.013418       -27.5765
  13   2.0000      -0.986119       -26.8337
  14   2.0000      -0.790726       -21.5167
  15   2.0000      -0.789553       -21.4848
  16   2.0000      -0.746017       -20.3002
  17   2.0000      -0.723289       -19.6817
  18   2.0000      -0.622704       -16.9446
  19   2.0000      -0.603942       -16.4341
  20   2.0000      -0.601803       -16.3759
  21   2.0000      -0.565653       -15.3922
  22   2.0000      -0.513143       -13.9633
  23   2.0000      -0.506415       -13.7802
  24   2.0000      -0.498678       -13.5697
  25   2.0000      -0.487232       -13.2582
  26   2.0000      -0.454726       -12.3737
  27   2.0000      -0.442956       -12.0534
  28   2.0000      -0.425309       -11.5732
  29   2.0000      -0.419956       -11.4276
  30   2.0000      -0.414438       -11.2774
  31   2.0000      -0.389102       -10.5880
  32   2.0000      -0.375530       -10.2187
  33   2.0000      -0.369910       -10.0658
  34   2.0000      -0.366302        -9.9676
  35   2.0000      -0.358834        -9.7644
  36   2.0000      -0.353725        -9.6253
  37   2.0000      -0.313729        -8.5370
  38   2.0000      -0.302319        -8.2265
  39   2.0000      -0.284086        -7.7304
  40   2.0000      -0.261422        -7.1136
  41   2.0000      -0.253466        -6.8972
  42   2.0000      -0.231813        -6.3079
  43   0.0000       0.067421         1.8346
  44   0.0000       0.082587         2.2473
  45   0.0000       0.091212         2.4820
  46   0.0000       0.107376         2.9218
  47   0.0000       0.112992         3.0747

MULLIKEN ATOMIC CHARGES
-----------------------
   0 C :    0.329842
   1 C :   -0.299546
   2 C :   -0.311267
   3 C :   -0.005579
   4 O :   -0.493433
   5 H :    0.153505
   6 H :    0.158250
   7 H :    0.142156
   8 H :    0.144604
   9 H :    0.153741
  10 H :    0.151443
  11 H :    0.145432
  12 C :    0.006087
  13 H :    0.122202
  14 C :    0.091445
  15 C :   -0.322791
  16 C :    0.011739
  17 O :   -0.516546
  18 H :    0.176985
  19 O :   -0.536461
  20 H :    0.125939
  21 H :    0.147654
  22 H :    0.144135
  23 H :    0.134513
  24 H :    0.145953
Sum of atomic charges:    0.0000000

LOEWDIN ATOMIC CHARGES
----------------------
   0 C :    0.185521
   1 C :   -0.231416
   2 C :   -0.222802
   3 C :   -0.029462
   4 O :   -0.306185
   5 H :    0.101551
   6 H :    0.124429
   7 H :    0.113125
   8 H :    0.115391
   9 H :    0.109730
  10 H :    0.106275
  11 H :    0.103654
  12 C :   -0.031074
  13 H :    0.089618
  14 C :    0.046643
  15 C :   -0.244499
  16 C :   -0.026285
  17 O :   -0.326158
  18 H :    0.128483
  19 O :   -0.334991
  20 H :    0.092769
  21 H :    0.117913
  22 H :    0.115992
  23 H :    0.098178
  24 H :    0.103600

  Mayer bond orders larger than 0.100000
B(  0-C ,  1-C ) :   0.9234 B(  0-C ,  4-O ) :   0.9225 B(  0-C ,  5-H ) :   0.9319
B(  0-C , 19-O ) :   0.8681 B(  1-C ,  2-C ) :   0.9552 B(  1-C ,  6-H ) :   0.9328
B(  1-C ,  7-H ) :   0.9332 B(  2-C ,  3-C ) :   0.9478 B(  2-C ,  8-H ) :   0.9457
B(  2-C ,  9-H ) :   0.9244 B(  3-C ,  4-O ) :   0.8443 B(  3-C , 10-H ) :   0.9332
B(  3-C , 11-H ) :   0.9391 B( 12-C , 13-H ) :   0.9156 B( 12-C , 14-C ) :   0.9309
B( 12-C , 17-O ) :   0.8700 B( 12-C , 18-H ) :   0.9282 B( 14-C , 15-C ) :   0.9270
B( 14-C , 19-O ) :   0.8399 B( 14-C , 20-H ) :   0.9220 B( 15-C , 16-C ) :   0.9460
B( 15-C , 21-H ) :   0.9181 B( 15-C , 22-H ) :   0.9321 B( 16-C , 17-O ) :   0.8642
B( 16-C , 23-H ) :   0.9323 B( 16-C , 24-H ) :   0.9356

FINAL SINGLE POINT ENERGY      -538.413039281834

DIPOLE MOMENT
-------------
                                X             Y             Z
Electronic contribution:     -3.01050      -5.12586       0.38791
Nuclear contribution   :      4.15046       6.58499      -1.22612
                        -----------------------------------------
Total Dipole Moment    :      1.13996       1.45912      -0.83822
                        -----------------------------------------
Magnitude (a.u.)       :      2.03252
Magnitude (Debye)      :      5.16626

Rotational constants in cm-1:     0.067420     0.024074     0.022866
Rotational constants in MHz :  2021.192135   721.708612   685.493241

                             ****ORCA TERMINATED NORMALLY****
TOTAL RUN TIME: 0 days 0 hours 49 minutes 35 seconds 888 msec
