                         Program Version 4.2.0 -  RELEASE  -
|  1> # Test redundant internal optimization
|  2> #
|  3> ! RKS B3LYP  Opt TightSCF SmallPrint
|  4>
|  5> %basis
|  6>         Basis "6-31G"
|  7> end
|  8>
|  9> %geom
| 10> Constraints
| 11> { D 4  0  15  12  15.0   C } # D for Dihedral angle
| 12> { D 0  15  12  16  195.0   C } # D for Dihedral angle
| 13> { D 0  4  3  2   C } # D for Dihedral angle
| 14> { D 4  3  2  1   C } # D for Dihedral angle
| 15> { D 3  2  1  0   C } # D for Dihedral angle
| 16> { D 2  1  0  4   C } # D for Dihedral angle
| 17> { D 1  0  4  3   C } # D for Dihedral angle
| 18> { D 16  20  19  18   C } # D for Dihedral angle
| 19> { D 20  19  18  17   C } # D for Dihedral angle
| 20> { D 19  18  17  16   C } # D for Dihedral angle
| 21> { D 18  17  16  20   C } # D for Dihedral angle
| 22> { D 17  16  20  19   C } # D for Dihedral angle
| 23> { D 15  12  16  20   C } # D for Dihedral angle
| 24> end
| 25> end
| 26>
| 27>
| 28> #%pal
| 29> #nprocs 8
| 30> #end
| 31>
| 32> * xyz 0 1
| 33> C  -21.048   26.222   46.251
| 34> C  -20.361   27.558   45.944
| 35> C  -20.329   28.222   47.341
| 36> C  -20.110   27.022   48.296
| 37> O  -20.473   25.807   47.535
| 38> H  -20.833   25.428   45.533
| 39> H  -19.344   27.382   45.576
| 40> H  -20.898   28.157   45.201
| 41> H  -19.543   28.978   47.434
| 42> H  -21.289   28.710   47.548
| 43> H  -20.733   27.082   49.195
| 44> H  -19.064   26.913   48.597
| 45> C  -23.128   26.462   47.829
| 46> H  -22.647   25.681   48.432
| 47> H  -22.895   27.435   48.280
| 48> O  -22.586   26.394   46.375
| 49> C  -24.667   26.261   47.907
| 50> C  -25.181   26.449   49.338
| 51> C  -25.222   27.991   49.457
| 52> C  -25.630   28.442   48.032
| 53> O  -25.359   27.298   47.135
| 54> H  -24.925   25.300   47.456
| 55> H  -26.188   26.027   49.436
| 56> O  -24.268   25.787   50.406
| 57> H  -25.923   28.340   50.222
| 58> H  -24.227   28.375   49.714
| 59> H  -25.057   29.311   47.687
| 60> H  -26.697   28.668   47.955
| 61> H  -23.254   26.195   50.330
| 62> *
| 63>
| 64>                          ****END OF INPUT****
 Total Charge           Charge          ....    0
 Multiplicity           Mult            ....    1
 Number of Electrons    NEL             ....  102
FINAL SINGLE POINT ENERGY      -652.823381399328
FINAL SINGLE POINT ENERGY      -652.847165844118
FINAL SINGLE POINT ENERGY      -652.852429953661
FINAL SINGLE POINT ENERGY      -652.853132238163
FINAL SINGLE POINT ENERGY      -652.853254697663
FINAL SINGLE POINT ENERGY      -652.853286798412
FINAL SINGLE POINT ENERGY      -652.853289725027
                    ***********************HURRAY********************

CARTESIAN COORDINATES (ANGSTROEM)
---------------------------------
  C    -21.133190   26.255891   46.350894
  C    -20.447493   27.554616   45.918658
  C    -20.141920   28.222568   47.282806
  C    -19.819384   27.017240   48.195667
  O    -20.375808   25.823019   47.504486
  H    -21.070845   25.450675   45.616635
  H    -19.521766   27.314284   45.382815
  H    -21.089530   28.158540   45.274232
  H    -19.309238   28.930674   47.228900
  H    -21.022516   28.766268   47.640588
  H    -20.270198   27.091252   49.189920
  H    -18.744950   26.842610   48.303146
  C    -23.039649   26.513619   47.958670
  H    -22.592903   25.716898   48.564717
  H    -22.781801   27.486099   48.407344
  O    -22.556465   26.441573   46.593988
  C    -24.553700   26.328376   47.909936
  C    -25.238492   26.417788   49.284044
  C    -25.403626   27.957975   49.460873
  C    -25.679902   28.435538   48.018448
  O    -25.227614   27.348877   47.113369
  H    -24.756891   25.378274   47.407270
  H    -26.215925   25.934187   49.231534
  O    -24.560421   25.744200   50.371265
  H    -26.208353   28.209675   50.156754
  H    -24.470931   28.382850   49.854621
  H    -25.147811   29.357598   47.764010
  H    -26.747569   28.584765   47.830556
  H    -23.750107   26.231070   50.625855

 Multiplicity           Mult            ....    1
 Number of Electrons    NEL             ....  102
 Basis Dimension        Dim             ....  149

ORBITAL ENERGIES
----------------

  NO   OCC          E(Eh)            E(eV)
   0   2.0000     -19.150932      -521.1234
   1   2.0000     -19.149014      -521.0712
   2   2.0000     -19.135258      -520.6968
   3   2.0000     -19.133751      -520.6558
   4   2.0000     -10.277591      -279.6675
   5   2.0000     -10.243382      -278.7366
   6   2.0000     -10.235488      -278.5218
   7   2.0000     -10.228376      -278.3283
   8   2.0000     -10.227806      -278.3127
   9   2.0000     -10.227396      -278.3016
  10   2.0000     -10.194275      -277.4003
  11   2.0000     -10.194161      -277.3972
  12   2.0000     -10.185455      -277.1603
  13   2.0000      -1.054979       -28.7074
  14   2.0000      -1.032265       -28.0894
  15   2.0000      -1.013853       -27.5883
  16   2.0000      -0.991549       -26.9814
  17   2.0000      -0.791458       -21.5367
  18   2.0000      -0.781084       -21.2544
  19   2.0000      -0.769527       -20.9399
  20   2.0000      -0.733530       -19.9604
  21   2.0000      -0.678913       -18.4742
  22   2.0000      -0.609843       -16.5947
  23   2.0000      -0.605881       -16.4869
  24   2.0000      -0.594611       -16.1802
  25   2.0000      -0.570706       -15.5297
  26   2.0000      -0.528001       -14.3676
  27   2.0000      -0.507843       -13.8191
  28   2.0000      -0.500244       -13.6123
  29   2.0000      -0.498041       -13.5524
  30   2.0000      -0.470935       -12.8148
  31   2.0000      -0.459069       -12.4919
  32   2.0000      -0.448541       -12.2054
  33   2.0000      -0.429593       -11.6898
  34   2.0000      -0.424867       -11.5612
  35   2.0000      -0.416411       -11.3311
  36   2.0000      -0.410817       -11.1789
  37   2.0000      -0.399498       -10.8709
  38   2.0000      -0.377885       -10.2828
  39   2.0000      -0.372826       -10.1451
  40   2.0000      -0.361951        -9.8492
  41   2.0000      -0.354629        -9.6500
  42   2.0000      -0.347694        -9.4612
  43   2.0000      -0.339074        -9.2267
  44   2.0000      -0.324546        -8.8314
  45   2.0000      -0.312374        -8.5001
  46   2.0000      -0.306154        -8.3309
  47   2.0000      -0.269853        -7.3431
  48   2.0000      -0.263930        -7.1819
  49   2.0000      -0.247340        -6.7305
  50   2.0000      -0.237672        -6.4674
  51   0.0000       0.046516         1.2658
  52   0.0000       0.068899         1.8748
  53   0.0000       0.087414         2.3787
  54   0.0000       0.092710         2.5228
  55   0.0000       0.105646         2.8748

MULLIKEN ATOMIC CHARGES
-----------------------
   0 C :    0.294407
   1 C :   -0.254717
   2 C :   -0.314379
   3 C :   -0.014392
   4 O :   -0.510226
   5 H :    0.162931
   6 H :    0.144822
   7 H :    0.164665
   8 H :    0.148254
   9 H :    0.153613
  10 H :    0.134426
  11 H :    0.153548
  12 C :   -0.005686
  13 H :    0.159215
  14 H :    0.102560
  15 O :   -0.525226
  16 C :    0.092260
  17 C :    0.080280
  18 C :   -0.319843
  19 C :   -0.008144
  20 O :   -0.504243
  21 H :    0.165224
  22 H :    0.169714
  23 O :   -0.598388
  24 H :    0.158066
  25 H :    0.128504
  26 H :    0.140637
  27 H :    0.147565
  28 H :    0.354552
Sum of atomic charges:   -0.0000000

LOEWDIN ATOMIC CHARGES
----------------------
   0 C :    0.180944
   1 C :   -0.222776
   2 C :   -0.221497
   3 C :   -0.033624
   4 O :   -0.318474
   5 H :    0.110215
   6 H :    0.114289
   7 H :    0.127526
   8 H :    0.117601
   9 H :    0.111637
  10 H :    0.097395
  11 H :    0.108239
  12 C :   -0.050180
  13 H :    0.111133
  14 H :    0.077310
  15 O :   -0.324441
  16 C :    0.022149
  17 C :    0.034452
  18 C :   -0.241524
  19 C :   -0.030108
  20 O :   -0.312785
  21 H :    0.121140
  22 H :    0.120721
  23 O :   -0.406327
  24 H :    0.122257
  25 H :    0.101513
  26 H :    0.101134
  27 H :    0.105221
  28 H :    0.276859

  Mayer bond orders larger than 0.100000
B(  0-C ,  1-C ) :   0.9222 B(  0-C ,  4-O ) :   0.9053 B(  0-C ,  5-H ) :   0.9321
B(  0-C , 15-O ) :   0.8611 B(  1-C ,  2-C ) :   0.9523 B(  1-C ,  6-H ) :   0.9349
B(  1-C ,  7-H ) :   0.9354 B(  2-C ,  3-C ) :   0.9522 B(  2-C ,  8-H ) :   0.9443
B(  2-C ,  9-H ) :   0.9432 B(  3-C ,  4-O ) :   0.8347 B(  3-C , 10-H ) :   0.9338
B(  3-C , 11-H ) :   0.9398 B( 12-C , 13-H ) :   0.8970 B( 12-C , 14-H ) :   0.9099
B( 12-C , 15-O ) :   0.8394 B( 12-C , 16-C ) :   0.9083 B( 16-C , 17-C ) :   0.8735
B( 16-C , 20-O ) :   0.8680 B( 16-C , 21-H ) :   0.9284 B( 17-C , 18-C ) :   0.9227
B( 17-C , 22-H ) :   0.9330 B( 17-C , 23-O ) :   0.8978 B( 18-C , 19-C ) :   0.9374
B( 18-C , 24-H ) :   0.9420 B( 18-C , 25-H ) :   0.9414 B( 19-C , 20-O ) :   0.8542
B( 19-C , 26-H ) :   0.9321 B( 19-C , 27-H ) :   0.9381 B( 23-O , 28-H ) :   0.7981

FINAL SINGLE POINT ENERGY      -652.853290618840

DIPOLE MOMENT
-------------
                                X             Y             Z
Electronic contribution:     -2.41007      -5.31291      -1.81656
Nuclear contribution   :      3.11452       6.71130       2.49638
                        -----------------------------------------
Total Dipole Moment    :      0.70445       1.39839       0.67982
                        -----------------------------------------
Magnitude (a.u.)       :      1.70701
Magnitude (Debye)      :      4.33888

Rotational constants in cm-1:     0.046932     0.014482     0.013334
Rotational constants in MHz :  1406.975792   434.154495   399.738745

                             ****ORCA TERMINATED NORMALLY****
TOTAL RUN TIME: 0 days 2 hours 0 minutes 4 seconds 836 msec
