                         Program Version 4.2.0 -  RELEASE  -
|  1> # Test redundant internal optimization
|  2> #
|  3> ! RKS B3LYP  Opt TightSCF SmallPrint
|  4>
|  5> %basis
|  6>         Basis "6-31G"
|  7> end
|  8>
|  9> %geom
| 10> Constraints
| 11> { D 4  0  15  12  240.0   C } # D for Dihedral angle
| 12> { D 0  15  12  16  180.0   C } # D for Dihedral angle
| 13> { D 0  4  3  2   C } # D for Dihedral angle
| 14> { D 4  3  2  1   C } # D for Dihedral angle
| 15> { D 3  2  1  0   C } # D for Dihedral angle
| 16> { D 2  1  0  4   C } # D for Dihedral angle
| 17> { D 1  0  4  3   C } # D for Dihedral angle
| 18> { D 16  20  19  18   C } # D for Dihedral angle
| 19> { D 20  19  18  17   C } # D for Dihedral angle
| 20> { D 19  18  17  16   C } # D for Dihedral angle
| 21> { D 18  17  16  20   C } # D for Dihedral angle
| 22> { D 17  16  20  19   C } # D for Dihedral angle
| 23> { D 15  12  16  20   C } # D for Dihedral angle
| 24> end
| 25> end
| 26>
| 27>
| 28> #%pal
| 29> #nprocs 8
| 30> #end
| 31>
| 32> * xyz 0 1
| 33> C  -21.048   26.222   46.251
| 34> C  -20.361   27.558   45.944
| 35> C  -20.329   28.222   47.341
| 36> C  -20.110   27.022   48.296
| 37> O  -20.473   25.807   47.535
| 38> H  -20.833   25.428   45.533
| 39> H  -19.344   27.382   45.576
| 40> H  -20.898   28.157   45.201
| 41> H  -19.543   28.978   47.434
| 42> H  -21.289   28.710   47.548
| 43> H  -20.733   27.082   49.195
| 44> H  -19.064   26.913   48.597
| 45> C  -23.430   25.483   45.442
| 46> H  -23.166   25.691   44.398
| 47> H  -23.219   24.425   45.645
| 48> O  -22.586   26.394   46.375
| 49> C  -24.959   25.701   45.612
| 50> C  -25.370   27.114   45.184
| 51> C  -25.405   26.976   43.643
| 52> C  -25.914   25.528   43.430
| 53> O  -25.706   24.818   44.710
| 54> H  -25.247   25.435   46.631
| 55> O  -26.783   27.447   45.737
| 56> H  -24.675   27.888   45.526
| 57> H  -26.051   27.720   43.165
| 58> H  -24.396   27.096   43.232
| 59> H  -25.370   25.005   42.637
| 60> H  -26.984   25.490   43.210
| 61> H  -27.498   26.685   45.406
| 62> *
| 63>
| 64>                          ****END OF INPUT****
 Total Charge           Charge          ....    0
 Multiplicity           Mult            ....    1
 Number of Electrons    NEL             ....  102
FINAL SINGLE POINT ENERGY      -652.836641482234
FINAL SINGLE POINT ENERGY      -652.859932401564
FINAL SINGLE POINT ENERGY      -652.863474499765
FINAL SINGLE POINT ENERGY      -652.864100200365
FINAL SINGLE POINT ENERGY      -652.864195673459
FINAL SINGLE POINT ENERGY      -652.864206067250
FINAL SINGLE POINT ENERGY      -652.864207942517
                    ***********************HURRAY********************

CARTESIAN COORDINATES (ANGSTROEM)
---------------------------------
  C    -21.102078   26.150404   46.196870
  C    -20.478090   27.513885   45.901833
  C    -20.563431   28.209515   47.281480
  C    -20.332201   27.045674   48.269898
  O    -20.587839   25.802962   47.497037
  H    -20.822196   25.342727   45.514751
  H    -19.433509   27.379149   45.596768
  H    -21.009502   28.052057   45.113366
  H    -19.825880   29.009240   47.396836
  H    -21.561902   28.635916   47.416610
  H    -21.008883   27.069366   49.127561
  H    -19.298737   26.986455   48.624114
  C    -23.313243   25.403119   45.381570
  H    -23.034226   25.550799   44.327281
  H    -23.133640   24.351870   45.641043
  O    -22.547070   26.289925   46.242692
  C    -24.788043   25.730526   45.598832
  C    -25.202912   27.154111   45.200891
  C    -25.348402   27.018754   43.662819
  C    -25.897111   25.581425   43.483595
  O    -25.611974   24.861796   44.751195
  H    -25.056258   25.522676   46.637754
  O    -26.462051   27.521393   45.829295
  H    -24.483156   27.908634   45.512380
  H    -26.022407   27.784241   43.270609
  H    -24.374333   27.136884   43.175818
  H    -25.424673   25.043896   42.655929
  H    -26.981902   25.559929   43.339231
  H    -27.078351   26.759673   45.785941

 Multiplicity           Mult            ....    1
 Number of Electrons    NEL             ....  102
 Basis Dimension        Dim             ....  149

ORBITAL ENERGIES
----------------

  NO   OCC          E(Eh)            E(eV)
   0   2.0000     -19.145803      -520.9838
   1   2.0000     -19.145188      -520.9671
   2   2.0000     -19.139238      -520.8051
   3   2.0000     -19.135143      -520.6937
   4   2.0000     -10.281594      -279.7764
   5   2.0000     -10.236236      -278.5421
   6   2.0000     -10.234155      -278.4855
   7   2.0000     -10.233562      -278.4694
   8   2.0000     -10.232979      -278.4535
   9   2.0000     -10.224375      -278.2194
  10   2.0000     -10.188750      -277.2500
  11   2.0000     -10.187205      -277.2079
  12   2.0000     -10.185946      -277.1737
  13   2.0000      -1.054014       -28.6812
  14   2.0000      -1.036467       -28.2037
  15   2.0000      -1.004611       -27.3369
  16   2.0000      -0.997033       -27.1307
  17   2.0000      -0.789629       -21.4869
  18   2.0000      -0.779474       -21.2106
  19   2.0000      -0.768682       -20.9169
  20   2.0000      -0.730054       -19.8658
  21   2.0000      -0.675247       -18.3744
  22   2.0000      -0.604995       -16.4628
  23   2.0000      -0.599209       -16.3053
  24   2.0000      -0.589562       -16.0428
  25   2.0000      -0.586680       -15.9644
  26   2.0000      -0.522726       -14.2241
  27   2.0000      -0.520719       -14.1695
  28   2.0000      -0.497337       -13.5332
  29   2.0000      -0.488617       -13.2959
  30   2.0000      -0.470409       -12.8005
  31   2.0000      -0.456399       -12.4193
  32   2.0000      -0.452409       -12.3107
  33   2.0000      -0.440815       -11.9952
  34   2.0000      -0.426582       -11.6079
  35   2.0000      -0.414246       -11.2722
  36   2.0000      -0.401937       -10.9373
  37   2.0000      -0.392902       -10.6914
  38   2.0000      -0.374968       -10.2034
  39   2.0000      -0.367763       -10.0073
  40   2.0000      -0.361366        -9.8333
  41   2.0000      -0.356672        -9.7055
  42   2.0000      -0.351952        -9.5771
  43   2.0000      -0.331163        -9.0114
  44   2.0000      -0.318462        -8.6658
  45   2.0000      -0.311438        -8.4747
  46   2.0000      -0.304609        -8.2888
  47   2.0000      -0.272799        -7.4232
  48   2.0000      -0.264787        -7.2052
  49   2.0000      -0.251408        -6.8412
  50   2.0000      -0.246035        -6.6949
  51   0.0000       0.063493         1.7277
  52   0.0000       0.071936         1.9575
  53   0.0000       0.093260         2.5377
  54   0.0000       0.095701         2.6042
  55   0.0000       0.104510         2.8439

MULLIKEN ATOMIC CHARGES
-----------------------
   0 C :    0.288150
   1 C :   -0.252555
   2 C :   -0.301321
   3 C :   -0.001555
   4 O :   -0.501279
   5 H :    0.142183
   6 H :    0.143920
   7 H :    0.142328
   8 H :    0.142129
   9 H :    0.164512
  10 H :    0.153953
  11 H :    0.141388
  12 C :   -0.004934
  13 H :    0.123337
  14 H :    0.157168
  15 O :   -0.526949
  16 C :    0.056819
  17 C :    0.091088
  18 C :   -0.297209
  19 C :   -0.034182
  20 O :   -0.527877
  21 H :    0.170993
  22 O :   -0.603226
  23 H :    0.171539
  24 H :    0.163080
  25 H :    0.141134
  26 H :    0.145423
  27 H :    0.149277
  28 H :    0.362667
Sum of atomic charges:   -0.0000000

LOEWDIN ATOMIC CHARGES
----------------------
   0 C :    0.177103
   1 C :   -0.220835
   2 C :   -0.216558
   3 C :   -0.026250
   4 O :   -0.315264
   5 H :    0.100464
   6 H :    0.112942
   7 H :    0.116274
   8 H :    0.114391
   9 H :    0.119981
  10 H :    0.109073
  11 H :    0.102247
  12 C :   -0.037854
  13 H :    0.087717
  14 H :    0.109097
  15 O :   -0.338509
  16 C :    0.019306
  17 C :    0.038219
  18 C :   -0.241398
  19 C :   -0.039433
  20 O :   -0.330328
  21 H :    0.121384
  22 O :   -0.414381
  23 H :    0.124889
  24 H :    0.127092
  25 H :    0.111655
  26 H :    0.103531
  27 H :    0.103808
  28 H :    0.281636

  Mayer bond orders larger than 0.100000
B(  0-C ,  1-C ) :   0.9426 B(  0-C ,  4-O ) :   0.9335 B(  0-C ,  5-H ) :   0.9206
B(  0-C , 15-O ) :   0.8333 B(  1-C ,  2-C ) :   0.9569 B(  1-C ,  6-H ) :   0.9366
B(  1-C ,  7-H ) :   0.9389 B(  2-C ,  3-C ) :   0.9541 B(  2-C ,  8-H ) :   0.9451
B(  2-C ,  9-H ) :   0.9432 B(  3-C ,  4-O ) :   0.8366 B(  3-C , 10-H ) :   0.9344
B(  3-C , 11-H ) :   0.9398 B( 12-C , 13-H ) :   0.9191 B( 12-C , 14-H ) :   0.9145
B( 12-C , 15-O ) :   0.8257 B( 12-C , 16-C ) :   0.9093 B( 16-C , 17-C ) :   0.9133
B( 16-C , 20-O ) :   0.8412 B( 16-C , 21-H ) :   0.9246 B( 17-C , 18-C ) :   0.9117
B( 17-C , 22-O ) :   0.8893 B( 17-C , 23-H ) :   0.9242 B( 18-C , 19-C ) :   0.9426
B( 18-C , 24-H ) :   0.9372 B( 18-C , 25-H ) :   0.9352 B( 19-C , 20-O ) :   0.8454
B( 19-C , 26-H ) :   0.9356 B( 19-C , 27-H ) :   0.9375 B( 22-O , 28-H ) :   0.7957

FINAL SINGLE POINT ENERGY      -652.864208041527

DIPOLE MOMENT
-------------
                                X             Y             Z
Electronic contribution:     -3.00369      -3.69027       2.35695
Nuclear contribution   :      3.61633       4.18232      -3.38481
                        -----------------------------------------
Total Dipole Moment    :      0.61265       0.49206      -1.02786
                        -----------------------------------------
Magnitude (a.u.)       :      1.29382
Magnitude (Debye)      :      3.28862

Rotational constants in cm-1:     0.057138     0.012097     0.011542
Rotational constants in MHz :  1712.967994   362.646716   346.030070

                             ****ORCA TERMINATED NORMALLY****
TOTAL RUN TIME: 0 days 0 hours 31 minutes 59 seconds 740 msec
