                         Program Version 4.2.1 -  RELEASE  -
|  1> # Test redundant internal optimization
|  2> #
|  3> ! RKS B3LYP  Opt TightSCF SmallPrint
|  4>
|  5> %basis
|  6>         Basis "6-31G"
|  7> end
|  8>
|  9> %geom
| 10> Constraints
| 11> { D 4  0  19  14  285.0   C } # D for Dihedral angle
| 12> { D 0  19  14  12  285.0   C } # D for Dihedral angle
| 13> { D 0  4  3  2   C } # D for Dihedral angle
| 14> { D 4  3  2  1   C } # D for Dihedral angle
| 15> { D 3  2  1  0   C } # D for Dihedral angle
| 16> { D 2  1  0  4   C } # D for Dihedral angle
| 17> { D 1  0  4  3   C } # D for Dihedral angle
| 18> { D 14  15  16  17   C } # D for Dihedral angle
| 19> { D 15  16  17  12   C } # D for Dihedral angle
| 20> { D 16  17  12  14   C } # D for Dihedral angle
| 21> { D 17  12  14  15   C } # D for Dihedral angle
| 22> { D 12  14  15  16   C } # D for Dihedral angle
| 23> end
| 24> end
| 25>
| 26>
| 27> #%pal
| 28> #nprocs 8
| 29> #end
| 30>
| 31> * xyz 0 1
| 32> C  -21.048   26.222   46.251
| 33> C  -20.361   27.558   45.944
| 34> C  -20.329   28.222   47.341
| 35> C  -20.110   27.022   48.296
| 36> O  -20.473   25.807   47.535
| 37> H  -20.833   25.428   45.533
| 38> H  -19.344   27.382   45.576
| 39> H  -20.898   28.157   45.201
| 40> H  -19.543   28.978   47.434
| 41> H  -21.289   28.710   47.548
| 42> H  -20.733   27.082   49.195
| 43> H  -19.064   26.913   48.597
| 44> C  -23.263   24.508   45.027
| 45> H  -24.044   23.733   44.974
| 46> C  -23.203   25.146   46.420
| 47> C  -22.418   24.080   47.220
| 48> C  -21.414   23.527   46.178
| 49> O  -21.935   23.910   44.847
| 50> H  -23.407   25.218   44.211
| 51> O  -22.472   26.381   46.366
| 52> H  -24.194   25.349   46.842
| 53> H  -21.919   24.493   48.102
| 54> H  -23.096   23.288   47.560
| 55> H  -21.317   22.437   46.224
| 56> H  -20.421   23.975   46.275
| 57> *
| 58>
| 59>                          ****END OF INPUT****
 Total Charge           Charge          ....    0
 Multiplicity           Mult            ....    1
 Number of Electrons    NEL             ....   86
FINAL SINGLE POINT ENERGY      -538.416448595735
FINAL SINGLE POINT ENERGY      -538.434838434818
FINAL SINGLE POINT ENERGY      -538.437529857154
FINAL SINGLE POINT ENERGY      -538.438065553813
FINAL SINGLE POINT ENERGY      -538.438108581424
FINAL SINGLE POINT ENERGY      -538.438120636856
                    ***********************HURRAY********************

CARTESIAN COORDINATES (ANGSTROEM)
---------------------------------
  C    -20.862229   26.311381   46.198918
  C    -20.391841   27.749002   45.966294
  C    -20.410001   28.324201   47.402574
  C    -19.984471   27.116111   48.268313
  O    -20.195896   25.912742   47.424534
  H    -20.575224   25.586453   45.435723
  H    -19.374408   27.732758   45.559481
  H    -21.045403   28.286406   45.276654
  H    -19.736676   29.178035   47.524154
  H    -21.425006   28.641805   47.656844
  H    -20.575731   27.017122   49.182533
  H    -18.921581   27.133182   48.527604
  C    -23.213189   24.472454   45.006159
  H    -24.116989   23.847883   44.954658
  C    -23.079433   25.124757   46.386432
  C    -22.510609   23.959959   47.224352
  C    -21.590812   23.212730   46.231352
  O    -22.004459   23.648347   44.868981
  H    -23.218270   25.196352   44.189550
  O    -22.300608   26.362890   46.341190
  H    -24.045762   25.463771   46.768962
  H    -21.970685   24.314066   48.102695
  H    -23.344646   23.325327   47.545033
  H    -21.693711   22.123716   46.294667
  H    -20.540362   23.484550   46.359342

 Multiplicity           Mult            ....    1
 Number of Electrons    NEL             ....   86
 Basis Dimension        Dim             ....  127

ORBITAL ENERGIES
----------------

  NO   OCC          E(Eh)            E(eV)
   0   2.0000     -19.140331      -520.8349
   1   2.0000     -19.139604      -520.8151
   2   2.0000     -19.131591      -520.5971
   3   2.0000     -10.272034      -279.5163
   4   2.0000     -10.237487      -278.5762
   5   2.0000     -10.224214      -278.2150
   6   2.0000     -10.220042      -278.1015
   7   2.0000     -10.217198      -278.0241
   8   2.0000     -10.182568      -277.0818
   9   2.0000     -10.181391      -277.0497
  10   2.0000     -10.179839      -277.0075
  11   2.0000      -1.050284       -28.5797
  12   2.0000      -1.011624       -27.5277
  13   2.0000      -0.987436       -26.8695
  14   2.0000      -0.790059       -21.4986
  15   2.0000      -0.771701       -20.9990
  16   2.0000      -0.740323       -20.1452
  17   2.0000      -0.717283       -19.5183
  18   2.0000      -0.614074       -16.7098
  19   2.0000      -0.596559       -16.2332
  20   2.0000      -0.594662       -16.1816
  21   2.0000      -0.564443       -15.3593
  22   2.0000      -0.519343       -14.1320
  23   2.0000      -0.498042       -13.5524
  24   2.0000      -0.479150       -13.0383
  25   2.0000      -0.475418       -12.9368
  26   2.0000      -0.447782       -12.1848
  27   2.0000      -0.446813       -12.1584
  28   2.0000      -0.414873       -11.2893
  29   2.0000      -0.412165       -11.2156
  30   2.0000      -0.402438       -10.9509
  31   2.0000      -0.391685       -10.6583
  32   2.0000      -0.369323       -10.0498
  33   2.0000      -0.365574        -9.9478
  34   2.0000      -0.354870        -9.6565
  35   2.0000      -0.352298        -9.5865
  36   2.0000      -0.339911        -9.2494
  37   2.0000      -0.322225        -8.7682
  38   2.0000      -0.308364        -8.3910
  39   2.0000      -0.291109        -7.9215
  40   2.0000      -0.268728        -7.3125
  41   2.0000      -0.251404        -6.8410
  42   2.0000      -0.233122        -6.3436
  43   0.0000       0.079934         2.1751
  44   0.0000       0.099845         2.7169
  45   0.0000       0.105756         2.8778
  46   0.0000       0.112543         3.0625
  47   0.0000       0.117817         3.2060

MULLIKEN ATOMIC CHARGES
-----------------------
   0 C :    0.276894
   1 C :   -0.258569
   2 C :   -0.296806
   3 C :   -0.004519
   4 O :   -0.520297
   5 H :    0.175443
   6 H :    0.145402
   7 H :    0.156336
   8 H :    0.138948
   9 H :    0.161389
  10 H :    0.143414
  11 H :    0.143034
  12 C :   -0.011573
  13 H :    0.126674
  14 C :    0.075369
  15 C :   -0.296718
  16 C :   -0.037892
  17 O :   -0.525890
  18 H :    0.159983
  19 O :   -0.525691
  20 H :    0.144275
  21 H :    0.180018
  22 H :    0.139413
  23 H :    0.141054
  24 H :    0.170310
Sum of atomic charges:   -0.0000000

LOEWDIN ATOMIC CHARGES
----------------------
   0 C :    0.167398
   1 C :   -0.213076
   2 C :   -0.215539
   3 C :   -0.029172
   4 O :   -0.332426
   5 H :    0.111458
   6 H :    0.113976
   7 H :    0.124014
   8 H :    0.112493
   9 H :    0.118856
  10 H :    0.103033
  11 H :    0.102604
  12 C :   -0.048954
  13 H :    0.094058
  14 C :    0.040540
  15 C :   -0.237982
  16 C :   -0.040955
  17 O :   -0.340205
  18 H :    0.116829
  19 O :   -0.322975
  20 H :    0.111758
  21 H :    0.136360
  22 H :    0.113750
  23 H :    0.101339
  24 H :    0.112819

  Mayer bond orders larger than 0.100000
B(  0-C ,  1-C ) :   0.9472 B(  0-C ,  4-O ) :   0.8797 B(  0-C ,  5-H ) :   0.9025
B(  0-C , 19-O ) :   0.8529 B(  1-C ,  2-C ) :   0.9558 B(  1-C ,  6-H ) :   0.9414
B(  1-C ,  7-H ) :   0.9372 B(  2-C ,  3-C ) :   0.9560 B(  2-C ,  8-H ) :   0.9456
B(  2-C ,  9-H ) :   0.9442 B(  3-C ,  4-O ) :   0.8353 B(  3-C , 10-H ) :   0.9360
B(  3-C , 11-H ) :   0.9404 B( 12-C , 13-H ) :   0.9145 B( 12-C , 14-C ) :   0.9144
B( 12-C , 17-O ) :   0.8617 B( 12-C , 18-H ) :   0.9334 B( 14-C , 15-C ) :   0.9379
B( 14-C , 19-O ) :   0.8707 B( 14-C , 20-H ) :   0.9379 B( 15-C , 16-C ) :   0.9464
B( 15-C , 21-H ) :   0.9230 B( 15-C , 22-H ) :   0.9358 B( 16-C , 17-O ) :   0.8413
B( 16-C , 23-H ) :   0.9361 B( 16-C , 24-H ) :   0.9257

FINAL SINGLE POINT ENERGY      -538.438121445374

DIPOLE MOMENT
-------------
                                X             Y             Z
Electronic contribution:     -0.61673      -1.69153      -1.89289
Nuclear contribution   :      0.39884       2.18719       2.48690
                        -----------------------------------------
Total Dipole Moment    :     -0.21789       0.49566       0.59401
                        -----------------------------------------
Magnitude (a.u.)       :      0.80374
Magnitude (Debye)      :      2.04294

Rotational constants in cm-1:     0.076792     0.024541     0.022770
Rotational constants in MHz :  2302.176377   735.720109   682.629403

                             ****ORCA TERMINATED NORMALLY****
TOTAL RUN TIME: 0 days 0 hours 15 minutes 52 seconds 517 msec
