                         Program Version 4.2.0 -  RELEASE  -
|  1> # Test redundant internal optimization
|  2> #
|  3> ! RKS B3LYP  Opt TightSCF SmallPrint
|  4>
|  5> %basis
|  6>         Basis "6-31G"
|  7> end
|  8>
|  9> %geom
| 10> Constraints
| 11> { D 4  0  15  12  255.0   C } # D for Dihedral angle
| 12> { D 0  15  12  16  255.0   C } # D for Dihedral angle
| 13> { D 0  4  3  2   C } # D for Dihedral angle
| 14> { D 4  3  2  1   C } # D for Dihedral angle
| 15> { D 3  2  1  0   C } # D for Dihedral angle
| 16> { D 2  1  0  4   C } # D for Dihedral angle
| 17> { D 1  0  4  3   C } # D for Dihedral angle
| 18> { D 16  20  19  18   C } # D for Dihedral angle
| 19> { D 20  19  18  17   C } # D for Dihedral angle
| 20> { D 19  18  17  16   C } # D for Dihedral angle
| 21> { D 18  17  16  20   C } # D for Dihedral angle
| 22> { D 17  16  20  19   C } # D for Dihedral angle
| 23> { D 15  12  16  20   C } # D for Dihedral angle
| 24> end
| 25> end
| 26>
| 27>
| 28> #%pal
| 29> #nprocs 8
| 30> #end
| 31>
| 32> * xyz 0 1
| 33> C  -21.048   26.222   46.251
| 34> C  -20.361   27.558   45.944
| 35> C  -20.329   28.222   47.341
| 36> C  -20.110   27.022   48.296
| 37> O  -20.473   25.807   47.535
| 38> H  -20.833   25.428   45.533
| 39> H  -19.344   27.382   45.576
| 40> H  -20.898   28.157   45.201
| 41> H  -19.543   28.978   47.434
| 42> H  -21.289   28.710   47.548
| 43> H  -20.733   27.082   49.195
| 44> H  -19.064   26.913   48.597
| 45> C  -23.431   25.260   45.734
| 46> H  -22.787   24.392   45.542
| 47> H  -24.234   24.947   46.414
| 48> O  -22.586   26.394   46.375
| 49> C  -24.088   25.686   44.392
| 50> C  -24.936   26.952   44.564
| 51> C  -23.853   28.057   44.562
| 52> C  -22.802   27.517   43.560
| 53> O  -23.062   26.068   43.417
| 54> H  -24.628   24.835   43.971
| 55> O  -25.893   27.120   43.353
| 56> H  -25.536   26.947   45.480
| 57> H  -24.245   29.036   44.269
| 58> H  -23.416   28.158   45.563
| 59> H  -21.774   27.665   43.909
| 60> H  -22.906   27.963   42.566
| 61> H  -25.314   27.128   42.423
| 62> *
| 63>
| 64>                          ****END OF INPUT****
 Total Charge           Charge          ....    0
 Multiplicity           Mult            ....    1
 Number of Electrons    NEL             ....  102
FINAL SINGLE POINT ENERGY      -652.831180340839
FINAL SINGLE POINT ENERGY      -652.853629395764
FINAL SINGLE POINT ENERGY      -652.860296293731
FINAL SINGLE POINT ENERGY      -652.863465540027
FINAL SINGLE POINT ENERGY      -652.863834052873
FINAL SINGLE POINT ENERGY      -652.863877899046
FINAL SINGLE POINT ENERGY      -652.863881829359
                    ***********************HURRAY********************

CARTESIAN COORDINATES (ANGSTROEM)
---------------------------------
  C    -20.997040   26.176529   46.268869
  C    -20.321531   27.530115   46.042050
  C    -20.321757   28.134542   47.470131
  C    -20.107066   26.890982   48.362553
  O    -20.448259   25.721586   47.520959
  H    -20.786383   25.408929   45.520722
  H    -19.296081   27.364466   45.691100
  H    -20.845845   28.150529   45.315716
  H    -19.541305   28.888393   47.609558
  H    -21.292611   28.595508   47.676047
  H    -20.746111   26.884587   49.249092
  H    -19.064022   26.765077   48.668567
  C    -23.301630   25.385356   45.775656
  H    -22.725540   24.469484   45.586489
  H    -24.076832   25.146005   46.513235
  O    -22.431653   26.380943   46.386445
  C    -23.980289   25.802793   44.470651
  C    -24.933170   27.006042   44.529478
  C    -23.955700   28.193224   44.329807
  C    -22.906039   27.618527   43.347107
  O    -23.039666   26.143281   43.402067
  H    -24.535527   24.921953   44.122539
  O    -25.928237   26.927113   43.469805
  H    -25.504642   27.068703   45.455415
  H    -24.476583   29.068804   43.934914
  H    -23.493683   28.441918   45.288447
  H    -21.881744   27.895516   43.602722
  H    -23.096087   27.916116   42.309979
  H    -25.480966   26.708977   42.624877

 Multiplicity           Mult            ....    1
 Number of Electrons    NEL             ....  102
 Basis Dimension        Dim             ....  149

ORBITAL ENERGIES
----------------

  NO   OCC          E(Eh)            E(eV)
   0   2.0000     -19.146919      -521.0142
   1   2.0000     -19.146185      -520.9942
   2   2.0000     -19.138559      -520.7867
   3   2.0000     -19.137539      -520.7589
   4   2.0000     -10.280754      -279.7535
   5   2.0000     -10.239543      -278.6321
   6   2.0000     -10.235808      -278.5305
   7   2.0000     -10.234785      -278.5027
   8   2.0000     -10.230717      -278.3920
   9   2.0000     -10.224863      -278.2327
  10   2.0000     -10.187622      -277.2193
  11   2.0000     -10.187177      -277.2072
  12   2.0000     -10.182614      -277.0830
  13   2.0000      -1.054367       -28.6908
  14   2.0000      -1.037144       -28.2221
  15   2.0000      -1.006747       -27.3950
  16   2.0000      -0.994919       -27.0731
  17   2.0000      -0.789955       -21.4958
  18   2.0000      -0.778913       -21.1953
  19   2.0000      -0.768950       -20.9242
  20   2.0000      -0.732733       -19.9387
  21   2.0000      -0.678009       -18.4496
  22   2.0000      -0.602904       -16.4059
  23   2.0000      -0.600916       -16.3517
  24   2.0000      -0.598925       -16.2976
  25   2.0000      -0.579813       -15.7775
  26   2.0000      -0.526517       -14.3272
  27   2.0000      -0.508460       -13.8359
  28   2.0000      -0.499536       -13.5931
  29   2.0000      -0.488788       -13.3006
  30   2.0000      -0.471794       -12.8382
  31   2.0000      -0.462395       -12.5824
  32   2.0000      -0.451906       -12.2970
  33   2.0000      -0.434627       -11.8268
  34   2.0000      -0.432522       -11.7695
  35   2.0000      -0.413407       -11.2494
  36   2.0000      -0.398721       -10.8498
  37   2.0000      -0.393679       -10.7125
  38   2.0000      -0.379075       -10.3152
  39   2.0000      -0.366672        -9.9777
  40   2.0000      -0.361028        -9.8241
  41   2.0000      -0.356888        -9.7114
  42   2.0000      -0.350068        -9.5258
  43   2.0000      -0.332980        -9.0608
  44   2.0000      -0.320889        -8.7318
  45   2.0000      -0.309555        -8.4234
  46   2.0000      -0.303867        -8.2686
  47   2.0000      -0.277335        -7.5467
  48   2.0000      -0.267091        -7.2679
  49   2.0000      -0.255529        -6.9533
  50   2.0000      -0.241483        -6.5711
  51   0.0000       0.062282         1.6948
  52   0.0000       0.080057         2.1785
  53   0.0000       0.086639         2.3576
  54   0.0000       0.101199         2.7538
  55   0.0000       0.104176         2.8348

MULLIKEN ATOMIC CHARGES
-----------------------
   0 C :    0.285357
   1 C :   -0.265165
   2 C :   -0.304139
   3 C :    0.001576
   4 O :   -0.503556
   5 H :    0.157541
   6 H :    0.147352
   7 H :    0.150414
   8 H :    0.141994
   9 H :    0.160791
  10 H :    0.150010
  11 H :    0.141229
  12 C :   -0.017717
  13 H :    0.148092
  14 H :    0.150011
  15 O :   -0.522438
  16 C :    0.074832
  17 C :    0.082230
  18 C :   -0.290871
  19 C :   -0.027247
  20 O :   -0.531426
  21 H :    0.154087
  22 O :   -0.605383
  23 H :    0.154574
  24 H :    0.151479
  25 H :    0.169158
  26 H :    0.143758
  27 H :    0.139849
  28 H :    0.363608
Sum of atomic charges:    0.0000000

LOEWDIN ATOMIC CHARGES
----------------------
   0 C :    0.175888
   1 C :   -0.219120
   2 C :   -0.217231
   3 C :   -0.026343
   4 O :   -0.319433
   5 H :    0.106335
   6 H :    0.115449
   7 H :    0.115790
   8 H :    0.113855
   9 H :    0.117495
  10 H :    0.106938
  11 H :    0.102008
  12 C :   -0.036041
  13 H :    0.107708
  14 H :    0.112330
  15 O :   -0.334244
  16 C :    0.004814
  17 C :    0.039666
  18 C :   -0.240506
  19 C :   -0.034997
  20 O :   -0.333580
  21 H :    0.116017
  22 O :   -0.417571
  23 H :    0.117751
  24 H :    0.120956
  25 H :    0.125778
  26 H :    0.100000
  27 H :    0.098128
  28 H :    0.282160

  Mayer bond orders larger than 0.100000
B(  0-C ,  1-C ) :   0.9460 B(  0-C ,  4-O ) :   0.9230 B(  0-C ,  5-H ) :   0.9144
B(  0-C , 15-O ) :   0.8379 B(  1-C ,  2-C ) :   0.9536 B(  1-C ,  6-H ) :   0.9384
B(  1-C ,  7-H ) :   0.9256 B(  2-C ,  3-C ) :   0.9539 B(  2-C ,  8-H ) :   0.9451
B(  2-C ,  9-H ) :   0.9440 B(  3-C ,  4-O ) :   0.8383 B(  3-C , 10-H ) :   0.9351
B(  3-C , 11-H ) :   0.9400 B( 12-C , 13-H ) :   0.9204 B( 12-C , 14-H ) :   0.9246
B( 12-C , 15-O ) :   0.8678 B( 12-C , 16-C ) :   0.8882 B( 16-C , 17-C ) :   0.9100
B( 16-C , 20-O ) :   0.8637 B( 16-C , 21-H ) :   0.9163 B( 17-C , 18-C ) :   0.9226
B( 17-C , 22-O ) :   0.8905 B( 17-C , 23-H ) :   0.9351 B( 18-C , 19-C ) :   0.9447
B( 18-C , 24-H ) :   0.9374 B( 18-C , 25-H ) :   0.9196 B( 19-C , 20-O ) :   0.8429
B( 19-C , 26-H ) :   0.9216 B( 19-C , 27-H ) :   0.9364 B( 22-O , 28-H ) :   0.7957

FINAL SINGLE POINT ENERGY      -652.863881100265

DIPOLE MOMENT
-------------
                                X             Y             Z
Electronic contribution:     -2.82045      -4.55355      -1.49351
Nuclear contribution   :      3.43433       5.28477       1.49411
                        -----------------------------------------
Total Dipole Moment    :      0.61388       0.73123       0.00061
                        -----------------------------------------
Magnitude (a.u.)       :      0.95475
Magnitude (Debye)      :      2.42677

Rotational constants in cm-1:     0.059406     0.014197     0.013392
Rotational constants in MHz :  1780.943402   425.619947   401.493716

                             ****ORCA TERMINATED NORMALLY****
TOTAL RUN TIME: 0 days 0 hours 41 minutes 11 seconds 22 msec
