                         Program Version 4.2.1 -  RELEASE  -
|  1> # Test redundant internal optimization
|  2> #
|  3> ! RKS B3LYP  Opt TightSCF SmallPrint
|  4>
|  5> %basis
|  6>         Basis "6-31G"
|  7> end
|  8>
|  9> %geom
| 10> Constraints
| 11> { D 4  0  19  14  255.0   C } # D for Dihedral angle
| 12> { D 0  19  14  12  195.0   C } # D for Dihedral angle
| 13> { D 0  4  3  2   C } # D for Dihedral angle
| 14> { D 4  3  2  1   C } # D for Dihedral angle
| 15> { D 3  2  1  0   C } # D for Dihedral angle
| 16> { D 2  1  0  4   C } # D for Dihedral angle
| 17> { D 1  0  4  3   C } # D for Dihedral angle
| 18> { D 14  15  16  17   C } # D for Dihedral angle
| 19> { D 15  16  17  12   C } # D for Dihedral angle
| 20> { D 16  17  12  14   C } # D for Dihedral angle
| 21> { D 17  12  14  15   C } # D for Dihedral angle
| 22> { D 12  14  15  16   C } # D for Dihedral angle
| 23> end
| 24> end
| 25>
| 26>
| 27> #%pal
| 28> #nprocs 8
| 29> #end
| 30>
| 31> * xyz 0 1
| 32> C  -21.048   26.222   46.251
| 33> C  -20.361   27.558   45.944
| 34> C  -20.329   28.222   47.341
| 35> C  -20.110   27.022   48.296
| 36> O  -20.473   25.807   47.535
| 37> H  -20.833   25.428   45.533
| 38> H  -19.344   27.382   45.576
| 39> H  -20.898   28.157   45.201
| 40> H  -19.543   28.978   47.434
| 41> H  -21.289   28.710   47.548
| 42> H  -20.733   27.082   49.195
| 43> H  -19.064   26.913   48.597
| 44> C  -24.699   25.754   45.610
| 45> H  -25.356   24.888   45.432
| 46> C  -23.236   25.322   45.767
| 47> C  -22.812   25.107   44.296
| 48> C  -23.599   26.205   43.538
| 49> O  -24.690   26.639   44.439
| 50> H  -25.092   26.335   46.446
| 51> O  -22.472   26.381   46.366
| 52> H  -23.118   24.422   46.379
| 53> H  -21.731   25.191   44.148
| 54> H  -23.119   24.109   43.957
| 55> H  -24.033   25.842   42.600
| 56> H  -22.987   27.088   43.326
| 57> *
| 58>
| 59>                          ****END OF INPUT****
 Total Charge           Charge          ....    0
 Multiplicity           Mult            ....    1
 Number of Electrons    NEL             ....   86
FINAL SINGLE POINT ENERGY      -538.425354162389
FINAL SINGLE POINT ENERGY      -538.431445549291
FINAL SINGLE POINT ENERGY      -538.432079561472
FINAL SINGLE POINT ENERGY      -538.432186863739
FINAL SINGLE POINT ENERGY      -538.432197070025
FINAL SINGLE POINT ENERGY      -538.432200514598
                    ***********************HURRAY********************

CARTESIAN COORDINATES (ANGSTROEM)
---------------------------------
  C    -20.913780   26.210396   46.219975
  C    -20.357813   27.615559   45.983139
  C    -20.436088   28.231751   47.400659
  C    -20.127067   27.027815   48.319019
  O    -20.346977   25.816179   47.491964
  H    -20.604516   25.451564   45.499215
  H    -19.317114   27.544357   45.645192
  H    -20.939414   28.167552   45.242110
  H    -19.730799   29.056085   47.541628
  H    -21.448611   28.604243   47.580823
  H    -20.779361   26.979997   49.194810
  H    -19.082700   26.999844   48.644947
  C    -24.601925   25.879381   45.646153
  H    -25.362542   25.091332   45.547203
  C    -23.198910   25.276309   45.711686
  C    -22.913892   24.989656   44.227051
  C    -23.612984   26.160276   43.495002
  O    -24.574162   26.737822   44.458002
  H    -24.823764   26.511082   46.506595
  O    -22.351424   26.311962   46.303142
  H    -23.150879   24.370041   46.328538
  H    -21.851607   24.912927   43.984201
  H    -23.376995   24.030741   43.965895
  H    -24.150530   25.830818   42.599105
  H    -22.915144   26.956308   43.218948

 Multiplicity           Mult            ....    1
 Number of Electrons    NEL             ....   86
 Basis Dimension        Dim             ....  127

ORBITAL ENERGIES
----------------

  NO   OCC          E(Eh)            E(eV)
   0   2.0000     -19.140016      -520.8263
   1   2.0000     -19.134175      -520.6674
   2   2.0000     -19.129828      -520.5491
   3   2.0000     -10.276918      -279.6491
   4   2.0000     -10.242196      -278.7043
   5   2.0000     -10.224790      -278.2307
   6   2.0000     -10.222137      -278.1585
   7   2.0000     -10.220621      -278.1172
   8   2.0000     -10.192649      -277.3561
   9   2.0000     -10.181902      -277.0636
  10   2.0000     -10.181121      -277.0424
  11   2.0000      -1.049998       -28.5719
  12   2.0000      -1.014579       -27.6081
  13   2.0000      -0.987281       -26.8653
  14   2.0000      -0.790848       -21.5201
  15   2.0000      -0.776304       -21.1243
  16   2.0000      -0.745883       -20.2965
  17   2.0000      -0.717949       -19.5364
  18   2.0000      -0.613660       -16.6985
  19   2.0000      -0.600672       -16.3451
  20   2.0000      -0.594110       -16.1666
  21   2.0000      -0.569172       -15.4880
  22   2.0000      -0.526380       -14.3235
  23   2.0000      -0.501272       -13.6403
  24   2.0000      -0.484521       -13.1845
  25   2.0000      -0.478346       -13.0165
  26   2.0000      -0.456413       -12.4196
  27   2.0000      -0.437847       -11.9144
  28   2.0000      -0.426334       -11.6011
  29   2.0000      -0.419942       -11.4272
  30   2.0000      -0.399107       -10.8603
  31   2.0000      -0.382922       -10.4198
  32   2.0000      -0.378901       -10.3104
  33   2.0000      -0.368247       -10.0205
  34   2.0000      -0.361093        -9.8259
  35   2.0000      -0.352468        -9.5911
  36   2.0000      -0.343258        -9.3405
  37   2.0000      -0.317251        -8.6328
  38   2.0000      -0.303936        -8.2705
  39   2.0000      -0.298146        -8.1130
  40   2.0000      -0.265813        -7.2332
  41   2.0000      -0.244275        -6.6471
  42   2.0000      -0.236577        -6.4376
  43   0.0000       0.076337         2.0772
  44   0.0000       0.093540         2.5454
  45   0.0000       0.098909         2.6915
  46   0.0000       0.108550         2.9538
  47   0.0000       0.116295         3.1645

MULLIKEN ATOMIC CHARGES
-----------------------
   0 C :    0.283429
   1 C :   -0.254012
   2 C :   -0.298395
   3 C :   -0.000829
   4 O :   -0.509662
   5 H :    0.137916
   6 H :    0.139768
   7 H :    0.154953
   8 H :    0.138978
   9 H :    0.166121
  10 H :    0.148306
  11 H :    0.138869
  12 C :    0.001769
  13 H :    0.126512
  14 C :    0.080164
  15 C :   -0.313336
  16 C :    0.005709
  17 O :   -0.519277
  18 H :    0.169911
  19 O :   -0.518339
  20 H :    0.142690
  21 H :    0.149417
  22 H :    0.146319
  23 H :    0.138088
  24 H :    0.144934
Sum of atomic charges:    0.0000000

LOEWDIN ATOMIC CHARGES
----------------------
   0 C :    0.172121
   1 C :   -0.218332
   2 C :   -0.215714
   3 C :   -0.027153
   4 O :   -0.325086
   5 H :    0.096524
   6 H :    0.110888
   7 H :    0.121965
   8 H :    0.112747
   9 H :    0.121084
  10 H :    0.105924
  11 H :    0.100689
  12 C :   -0.032748
  13 H :    0.092140
  14 C :    0.042102
  15 C :   -0.239501
  16 C :   -0.028341
  17 O :   -0.329127
  18 H :    0.124682
  19 O :   -0.323881
  20 H :    0.102733
  21 H :    0.116977
  22 H :    0.116839
  23 H :    0.099569
  24 H :    0.102899

  Mayer bond orders larger than 0.100000
B(  0-C ,  1-C ) :   0.9454 B(  0-C ,  4-O ) :   0.9167 B(  0-C ,  5-H ) :   0.9144
B(  0-C , 19-O ) :   0.8527 B(  1-C ,  2-C ) :   0.9582 B(  1-C ,  6-H ) :   0.9391
B(  1-C ,  7-H ) :   0.9357 B(  2-C ,  3-C ) :   0.9542 B(  2-C ,  8-H ) :   0.9454
B(  2-C ,  9-H ) :   0.9431 B(  3-C ,  4-O ) :   0.8401 B(  3-C , 10-H ) :   0.9353
B(  3-C , 11-H ) :   0.9401 B( 12-C , 13-H ) :   0.9161 B( 12-C , 14-C ) :   0.9344
B( 12-C , 17-O ) :   0.8670 B( 12-C , 18-H ) :   0.9298 B( 14-C , 15-C ) :   0.9350
B( 14-C , 19-O ) :   0.8366 B( 14-C , 20-H ) :   0.9203 B( 15-C , 16-C ) :   0.9410
B( 15-C , 21-H ) :   0.9316 B( 15-C , 22-H ) :   0.9363 B( 16-C , 17-O ) :   0.8641
B( 16-C , 23-H ) :   0.9326 B( 16-C , 24-H ) :   0.9359

FINAL SINGLE POINT ENERGY      -538.432200728992

DIPOLE MOMENT
-------------
                                X             Y             Z
Electronic contribution:     -1.71589      -1.29751       1.12024
Nuclear contribution   :      2.23791       1.02368      -1.47188
                        -----------------------------------------
Total Dipole Moment    :      0.52202      -0.27382      -0.35164
                        -----------------------------------------
Magnitude (a.u.)       :      0.68640
Magnitude (Debye)      :      1.74468

Rotational constants in cm-1:     0.080925     0.020436     0.020042
Rotational constants in MHz :  2426.059717   612.642026   600.848724

                             ****ORCA TERMINATED NORMALLY****
TOTAL RUN TIME: 0 days 0 hours 7 minutes 3 seconds 480 msec
