                         Program Version 4.2.0 -  RELEASE  -
|  1> # Test redundant internal optimization
|  2> #
|  3> ! RKS B3LYP  Opt TightSCF SmallPrint
|  4>
|  5> %basis
|  6>         Basis "6-31G"
|  7> end
|  8>
|  9> %geom
| 10> Constraints
| 11> { D 4  0  15  12  270.0   C } # D for Dihedral angle
| 12> { D 0  15  12  16  180.0   C } # D for Dihedral angle
| 13> { D 0  4  3  2   C } # D for Dihedral angle
| 14> { D 4  3  2  1   C } # D for Dihedral angle
| 15> { D 3  2  1  0   C } # D for Dihedral angle
| 16> { D 2  1  0  4   C } # D for Dihedral angle
| 17> { D 1  0  4  3   C } # D for Dihedral angle
| 18> { D 16  20  19  18   C } # D for Dihedral angle
| 19> { D 20  19  18  17   C } # D for Dihedral angle
| 20> { D 19  18  17  16   C } # D for Dihedral angle
| 21> { D 18  17  16  20   C } # D for Dihedral angle
| 22> { D 17  16  20  19   C } # D for Dihedral angle
| 23> { D 15  12  16  20   C } # D for Dihedral angle
| 24> end
| 25> end
| 26>
| 27>
| 28> #%pal
| 29> #nprocs 8
| 30> #end
| 31>
| 32> * xyz 0 1
| 33> C  -21.048   26.222   46.251
| 34> C  -20.361   27.558   45.944
| 35> C  -20.329   28.222   47.341
| 36> C  -20.110   27.022   48.296
| 37> O  -20.473   25.807   47.535
| 38> H  -20.833   25.428   45.533
| 39> H  -19.344   27.382   45.576
| 40> H  -20.898   28.157   45.201
| 41> H  -19.543   28.978   47.434
| 42> H  -21.289   28.710   47.548
| 43> H  -20.733   27.082   49.195
| 44> H  -19.064   26.913   48.597
| 45> C  -23.420   25.119   46.072
| 46> H  -23.215   24.787   45.047
| 47> H  -23.142   24.307   46.757
| 48> O  -22.586   26.394   46.375
| 49> C  -24.949   25.354   46.213
| 50> C  -25.303   25.907   47.599
| 51> C  -24.932   27.401   47.444
| 52> C  -25.298   27.703   45.969
| 53> O  -25.395   26.396   45.283
| 54> H  -25.478   24.438   45.944
| 55> H  -26.376   25.793   47.786
| 56> O  -24.527   25.210   48.750
| 57> H  -25.466   28.047   48.147
| 58> H  -23.857   27.542   47.611
| 59> H  -24.543   28.318   45.466
| 60> H  -26.273   28.191   45.873
| 61> H  -23.449   25.312   48.582
| 62> *
| 63>
| 64>                          ****END OF INPUT****
 Total Charge           Charge          ....    0
 Multiplicity           Mult            ....    1
 Number of Electrons    NEL             ....  102
FINAL SINGLE POINT ENERGY      -652.838030163049
FINAL SINGLE POINT ENERGY      -652.861878804806
FINAL SINGLE POINT ENERGY      -652.866165979337
FINAL SINGLE POINT ENERGY      -652.867455167475
FINAL SINGLE POINT ENERGY      -652.867593395205
FINAL SINGLE POINT ENERGY      -652.867618699945
FINAL SINGLE POINT ENERGY      -652.867619506886
                    ***********************HURRAY********************

CARTESIAN COORDINATES (ANGSTROEM)
---------------------------------
  C    -21.070247   26.152180   46.227270
  C    -20.424761   27.505304   45.923978
  C    -20.411464   28.169933   47.320676
  C    -20.157435   26.978980   48.272142
  O    -20.490458   25.757741   47.494496
  H    -20.844198   25.352266   45.516467
  H    -19.405112   27.343157   45.557131
  H    -20.987015   28.070772   45.178392
  H    -19.642334   28.943025   47.411797
  H    -21.383651   28.630352   47.522147
  H    -20.778098   27.007377   49.171739
  H    -19.107631   26.886088   48.564713
  C    -23.290818   25.135903   46.068339
  H    -23.086104   24.794531   45.044920
  H    -23.016321   24.337265   46.770170
  O    -22.497777   26.335781   46.334618
  C    -24.778848   25.427295   46.205270
  C    -25.219856   25.921348   47.595018
  C    -24.960568   27.455577   47.488111
  C    -25.303518   27.753561   46.012534
  O    -25.274358   26.450863   45.296358
  H    -25.301205   24.501537   45.935146
  H    -26.279570   25.708217   47.748082
  O    -24.542810   25.275871   48.699484
  H    -25.577168   28.025513   48.188708
  H    -23.905675   27.648882   47.689938
  H    -24.584313   28.427633   45.538819
  H    -26.313114   28.157889   45.889181
  H    -23.599573   25.545160   48.703356

 Multiplicity           Mult            ....    1
 Number of Electrons    NEL             ....  102
 Basis Dimension        Dim             ....  149

ORBITAL ENERGIES
----------------

  NO   OCC          E(Eh)            E(eV)
   0   2.0000     -19.154314      -521.2154
   1   2.0000     -19.146895      -521.0135
   2   2.0000     -19.136052      -520.7184
   3   2.0000     -19.132832      -520.6308
   4   2.0000     -10.285699      -279.8881
   5   2.0000     -10.234646      -278.4989
   6   2.0000     -10.232462      -278.4394
   7   2.0000     -10.231951      -278.4255
   8   2.0000     -10.230398      -278.3833
   9   2.0000     -10.220842      -278.1233
  10   2.0000     -10.192800      -277.3602
  11   2.0000     -10.191404      -277.3222
  12   2.0000     -10.177383      -276.9407
  13   2.0000      -1.061978       -28.8979
  14   2.0000      -1.025331       -27.9007
  15   2.0000      -1.007454       -27.4142
  16   2.0000      -1.000022       -27.2120
  17   2.0000      -0.794477       -21.6188
  18   2.0000      -0.772582       -21.0230
  19   2.0000      -0.765044       -20.8179
  20   2.0000      -0.734475       -19.9861
  21   2.0000      -0.677500       -18.4357
  22   2.0000      -0.605550       -16.4778
  23   2.0000      -0.600901       -16.3513
  24   2.0000      -0.596205       -16.2236
  25   2.0000      -0.575735       -15.6665
  26   2.0000      -0.527504       -14.3541
  27   2.0000      -0.509301       -13.8588
  28   2.0000      -0.500331       -13.6147
  29   2.0000      -0.488306       -13.2875
  30   2.0000      -0.472608       -12.8603
  31   2.0000      -0.464260       -12.6331
  32   2.0000      -0.439056       -11.9473
  33   2.0000      -0.431616       -11.7449
  34   2.0000      -0.421084       -11.4583
  35   2.0000      -0.416113       -11.3230
  36   2.0000      -0.402888       -10.9631
  37   2.0000      -0.399489       -10.8707
  38   2.0000      -0.382038       -10.3958
  39   2.0000      -0.369132       -10.0446
  40   2.0000      -0.363380        -9.8881
  41   2.0000      -0.354081        -9.6350
  42   2.0000      -0.347277        -9.4499
  43   2.0000      -0.334889        -9.1128
  44   2.0000      -0.322194        -8.7673
  45   2.0000      -0.310442        -8.4476
  46   2.0000      -0.303876        -8.2689
  47   2.0000      -0.277074        -7.5396
  48   2.0000      -0.260804        -7.0968
  49   2.0000      -0.257044        -6.9945
  50   2.0000      -0.238731        -6.4962
  51   0.0000       0.058360         1.5881
  52   0.0000       0.081747         2.2245
  53   0.0000       0.084645         2.3033
  54   0.0000       0.097316         2.6481
  55   0.0000       0.103804         2.8246

MULLIKEN ATOMIC CHARGES
-----------------------
   0 C :    0.287761
   1 C :   -0.257542
   2 C :   -0.304633
   3 C :   -0.005651
   4 O :   -0.510781
   5 H :    0.147092
   6 H :    0.148805
   7 H :    0.158173
   8 H :    0.146107
   9 H :    0.159500
  10 H :    0.143621
  11 H :    0.147411
  12 C :   -0.021984
  13 H :    0.144915
  14 H :    0.153406
  15 O :   -0.533107
  16 C :    0.087188
  17 C :    0.085602
  18 C :   -0.309435
  19 C :   -0.003181
  20 O :   -0.522557
  21 H :    0.150424
  22 H :    0.160896
  23 O :   -0.608542
  24 H :    0.142470
  25 H :    0.163725
  26 H :    0.144543
  27 H :    0.138992
  28 H :    0.366782
Sum of atomic charges:   -0.0000000

LOEWDIN ATOMIC CHARGES
----------------------
   0 C :    0.172647
   1 C :   -0.215241
   2 C :   -0.216873
   3 C :   -0.028927
   4 O :   -0.329762
   5 H :    0.101280
   6 H :    0.116278
   7 H :    0.124785
   8 H :    0.115982
   9 H :    0.115419
  10 H :    0.102855
  11 H :    0.105313
  12 C :   -0.049056
  13 H :    0.104482
  14 H :    0.107634
  15 O :   -0.333987
  16 C :    0.019229
  17 C :    0.038404
  18 C :   -0.242620
  19 C :   -0.024956
  20 O :   -0.323933
  21 H :    0.115593
  22 H :    0.115798
  23 O :   -0.411501
  24 H :    0.114645
  25 H :    0.119118
  26 H :    0.103938
  27 H :    0.100079
  28 H :    0.283381

  Mayer bond orders larger than 0.100000
B(  0-C ,  1-C ) :   0.9463 B(  0-C ,  4-O ) :   0.9127 B(  0-C ,  5-H ) :   0.9180
B(  0-C , 15-O ) :   0.8512 B(  1-C ,  2-C ) :   0.9558 B(  1-C ,  6-H ) :   0.9388
B(  1-C ,  7-H ) :   0.9360 B(  2-C ,  3-C ) :   0.9537 B(  2-C ,  8-H ) :   0.9447
B(  2-C ,  9-H ) :   0.9430 B(  3-C ,  4-O ) :   0.8381 B(  3-C , 10-H ) :   0.9355
B(  3-C , 11-H ) :   0.9397 B( 12-C , 13-H ) :   0.9219 B( 12-C , 14-H ) :   0.9010
B( 12-C , 15-O ) :   0.8215 B( 12-C , 16-C ) :   0.9192 B( 16-C , 17-C ) :   0.8871
B( 16-C , 20-O ) :   0.8803 B( 16-C , 21-H ) :   0.9279 B( 17-C , 18-C ) :   0.9306
B( 17-C , 22-H ) :   0.9367 B( 17-C , 23-O ) :   0.9033 B( 18-C , 19-C ) :   0.9467
B( 18-C , 24-H ) :   0.9412 B( 18-C , 25-H ) :   0.9259 B( 19-C , 20-O ) :   0.8368
B( 19-C , 26-H ) :   0.9328 B( 19-C , 27-H ) :   0.9384 B( 23-O , 28-H ) :   0.7876

FINAL SINGLE POINT ENERGY      -652.867617709928

DIPOLE MOMENT
-------------
                                X             Y             Z
Electronic contribution:     -2.43836      -4.54127      -0.81058
Nuclear contribution   :      3.28218       5.44943       0.69033
                        -----------------------------------------
Total Dipole Moment    :      0.84381       0.90816      -0.12025
                        -----------------------------------------
Magnitude (a.u.)       :      1.24548
Magnitude (Debye)      :      3.16577

Rotational constants in cm-1:     0.044185     0.016699     0.015815
Rotational constants in MHz :  1324.625621   500.619964   474.131721

                             ****ORCA TERMINATED NORMALLY****
TOTAL RUN TIME: 0 days 0 hours 43 minutes 1 seconds 940 msec
