                         Program Version 4.2.0 -  RELEASE  -
|  1> # Test redundant internal optimization
|  2> #
|  3> ! RKS B3LYP  Opt TightSCF SmallPrint
|  4>
|  5> %basis
|  6>         Basis "6-31G"
|  7> end
|  8>
|  9> %geom
| 10> Constraints
| 11> { D 4  0  15  12  90.0   C } # D for Dihedral angle
| 12> { D 0  15  12  16  90.0   C } # D for Dihedral angle
| 13> { D 0  4  3  2   C } # D for Dihedral angle
| 14> { D 4  3  2  1   C } # D for Dihedral angle
| 15> { D 3  2  1  0   C } # D for Dihedral angle
| 16> { D 2  1  0  4   C } # D for Dihedral angle
| 17> { D 1  0  4  3   C } # D for Dihedral angle
| 18> { D 16  20  19  18   C } # D for Dihedral angle
| 19> { D 20  19  18  17   C } # D for Dihedral angle
| 20> { D 19  18  17  16   C } # D for Dihedral angle
| 21> { D 18  17  16  20   C } # D for Dihedral angle
| 22> { D 17  16  20  19   C } # D for Dihedral angle
| 23> { D 15  12  16  20   C } # D for Dihedral angle
| 24> end
| 25> end
| 26>
| 27>
| 28> #%pal
| 29> #nprocs 8
| 30> #end
| 31>
| 32> * xyz 0 1
| 33> C  -21.048   26.222   46.251
| 34> C  -20.361   27.558   45.944
| 35> C  -20.329   28.222   47.341
| 36> C  -20.110   27.022   48.296
| 37> O  -20.473   25.807   47.535
| 38> H  -20.833   25.428   45.533
| 39> H  -19.344   27.382   45.576
| 40> H  -20.898   28.157   45.201
| 41> H  -19.543   28.978   47.434
| 42> H  -21.289   28.710   47.548
| 43> H  -20.733   27.082   49.195
| 44> H  -19.064   26.913   48.597
| 45> C  -23.061   27.816   46.783
| 46> H  -23.995   27.735   47.354
| 47> H  -22.311   28.303   47.419
| 48> O  -22.586   26.394   46.375
| 49> C  -23.314   28.739   45.559
| 50> C  -24.472   28.218   44.700
| 51> C  -25.702   28.695   45.509
| 52> C  -25.235   30.054   46.090
| 53> O  -23.759   30.065   46.001
| 54> H  -22.377   28.880   45.018
| 55> H  -24.450   28.694   43.713
| 56> O  -24.441   26.678   44.502
| 57> H  -26.602   28.791   44.895
| 58> H  -25.920   27.984   46.315
| 59> H  -25.533   30.187   47.135
| 60> H  -25.600   30.904   45.507
| 61> H  -24.462   26.181   45.478
| 62> *
| 63>
| 64>                          ****END OF INPUT****
 Total Charge           Charge          ....    0
 Multiplicity           Mult            ....    1
 Number of Electrons    NEL             ....  102
FINAL SINGLE POINT ENERGY      -652.785577534172
FINAL SINGLE POINT ENERGY      -652.828544330049
FINAL SINGLE POINT ENERGY      -652.849153942155
FINAL SINGLE POINT ENERGY      -652.854497201958
FINAL SINGLE POINT ENERGY      -652.856125250976
FINAL SINGLE POINT ENERGY      -652.856990164608
FINAL SINGLE POINT ENERGY      -652.857271201931
FINAL SINGLE POINT ENERGY      -652.857347197775
FINAL SINGLE POINT ENERGY      -652.857346036565
                    ***********************HURRAY********************

CARTESIAN COORDINATES (ANGSTROEM)
---------------------------------
  C    -21.219019   26.342837   46.421393
  C    -20.244841   27.432847   45.955540
  C    -19.900673   28.156687   47.291461
  C    -19.906835   26.991312   48.311218
  O    -20.650028   25.883036   47.661593
  H    -21.234675   25.472268   45.764734
  H    -19.356751   26.935440   45.552384
  H    -20.647434   28.092197   45.184783
  H    -18.926493   28.653463   47.248849
  H    -20.644132   28.919553   47.535328
  H    -20.398696   27.243492   49.254976
  H    -18.901466   26.616230   48.521178
  C    -23.215782   27.942255   46.897467
  H    -24.155984   27.691156   47.395700
  H    -22.594582   28.481764   47.616449
  O    -22.638956   26.641027   46.533406
  C    -23.471983   28.822064   45.667026
  C    -24.512818   28.253240   44.687334
  C    -25.847516   28.619845   45.398947
  C    -25.534146   29.979051   46.057579
  O    -24.043209   30.094448   46.104796
  H    -22.530783   29.065551   45.167665
  H    -24.444857   28.797405   43.739840
  O    -24.371954   26.854642   44.371188
  H    -26.680666   28.672806   44.693123
  H    -26.084783   27.846858   46.137793
  H    -25.923393   30.069710   47.076211
  H    -25.891679   30.826876   45.466531
  H    -23.870867   26.400940   45.089506

 Multiplicity           Mult            ....    1
 Number of Electrons    NEL             ....  102
 Basis Dimension        Dim             ....  149

ORBITAL ENERGIES
----------------

  NO   OCC          E(Eh)            E(eV)
   0   2.0000     -19.162349      -521.4340
   1   2.0000     -19.148578      -521.0593
   2   2.0000     -19.144615      -520.9514
   3   2.0000     -19.118625      -520.2442
   4   2.0000     -10.291173      -280.0370
   5   2.0000     -10.241088      -278.6742
   6   2.0000     -10.237648      -278.5806
   7   2.0000     -10.235314      -278.5170
   8   2.0000     -10.234579      -278.4970
   9   2.0000     -10.230431      -278.3842
  10   2.0000     -10.201743      -277.6035
  11   2.0000     -10.200547      -277.5710
  12   2.0000     -10.182936      -277.0918
  13   2.0000      -1.061105       -28.8741
  14   2.0000      -1.029071       -28.0025
  15   2.0000      -1.008008       -27.4293
  16   2.0000      -0.996290       -27.1104
  17   2.0000      -0.797157       -21.6917
  18   2.0000      -0.779732       -21.2176
  19   2.0000      -0.771985       -21.0068
  20   2.0000      -0.741269       -20.1710
  21   2.0000      -0.686775       -18.6881
  22   2.0000      -0.613237       -16.6870
  23   2.0000      -0.605422       -16.4744
  24   2.0000      -0.600050       -16.3282
  25   2.0000      -0.577392       -15.7116
  26   2.0000      -0.539275       -14.6744
  27   2.0000      -0.511442       -13.9171
  28   2.0000      -0.507763       -13.8169
  29   2.0000      -0.490880       -13.3575
  30   2.0000      -0.474729       -12.9180
  31   2.0000      -0.461755       -12.5650
  32   2.0000      -0.446031       -12.1371
  33   2.0000      -0.439787       -11.9672
  34   2.0000      -0.427874       -11.6430
  35   2.0000      -0.422390       -11.4938
  36   2.0000      -0.413755       -11.2589
  37   2.0000      -0.395370       -10.7586
  38   2.0000      -0.392555       -10.6820
  39   2.0000      -0.376380       -10.2418
  40   2.0000      -0.367000        -9.9866
  41   2.0000      -0.356580        -9.7030
  42   2.0000      -0.352354        -9.5880
  43   2.0000      -0.339980        -9.2513
  44   2.0000      -0.324219        -8.8224
  45   2.0000      -0.315798        -8.5933
  46   2.0000      -0.291125        -7.9219
  47   2.0000      -0.285740        -7.7754
  48   2.0000      -0.266833        -7.2609
  49   2.0000      -0.252059        -6.8589
  50   2.0000      -0.242132        -6.5887
  51   0.0000       0.053234         1.4486
  52   0.0000       0.066178         1.8008
  53   0.0000       0.085868         2.3366
  54   0.0000       0.091966         2.5025
  55   0.0000       0.100834         2.7438

MULLIKEN ATOMIC CHARGES
-----------------------
   0 C :    0.313418
   1 C :   -0.296186
   2 C :   -0.315805
   3 C :   -0.010501
   4 O :   -0.495108
   5 H :    0.171443
   6 H :    0.164114
   7 H :    0.155897
   8 H :    0.150614
   9 H :    0.156804
  10 H :    0.149801
  11 H :    0.151407
  12 C :   -0.041801
  13 H :    0.166720
  14 H :    0.156243
  15 O :   -0.551212
  16 C :    0.051452
  17 C :    0.119803
  18 C :   -0.309471
  19 C :   -0.018809
  20 O :   -0.522936
  21 H :    0.153278
  22 H :    0.149306
  23 O :   -0.636531
  24 H :    0.155750
  25 H :    0.147732
  26 H :    0.143053
  27 H :    0.150236
  28 H :    0.391288
Sum of atomic charges:   -0.0000000

LOEWDIN ATOMIC CHARGES
----------------------
   0 C :    0.178788
   1 C :   -0.229833
   2 C :   -0.222469
   3 C :   -0.031914
   4 O :   -0.312356
   5 H :    0.115601
   6 H :    0.126960
   7 H :    0.118722
   8 H :    0.118791
   9 H :    0.112032
  10 H :    0.105984
  11 H :    0.107108
  12 C :   -0.049710
  13 H :    0.117311
  14 H :    0.109208
  15 O :   -0.330417
  16 C :    0.006262
  17 C :    0.041673
  18 C :   -0.239495
  19 C :   -0.031400
  20 O :   -0.326013
  21 H :    0.107728
  22 H :    0.107273
  23 O :   -0.431193
  24 H :    0.123099
  25 H :    0.112327
  26 H :    0.102554
  27 H :    0.106749
  28 H :    0.286632

  Mayer bond orders larger than 0.100000
B(  0-C ,  1-C ) :   0.9259 B(  0-C ,  4-O ) :   0.9236 B(  0-C ,  5-H ) :   0.9338
B(  0-C , 15-O ) :   0.8486 B(  1-C ,  2-C ) :   0.9529 B(  1-C ,  6-H ) :   0.9321
B(  1-C ,  7-H ) :   0.9253 B(  2-C ,  3-C ) :   0.9460 B(  2-C ,  8-H ) :   0.9442
B(  2-C ,  9-H ) :   0.9370 B(  3-C ,  4-O ) :   0.8417 B(  3-C , 10-H ) :   0.9343
B(  3-C , 11-H ) :   0.9384 B( 12-C , 13-H ) :   0.9352 B( 12-C , 14-H ) :   0.9163
B( 12-C , 15-O ) :   0.7950 B( 12-C , 16-C ) :   0.8828 B( 16-C , 17-C ) :   0.9099
B( 16-C , 20-O ) :   0.8498 B( 16-C , 21-H ) :   0.9237 B( 17-C , 18-C ) :   0.9004
B( 17-C , 22-H ) :   0.9323 B( 17-C , 23-O ) :   0.9358 B( 18-C , 19-C ) :   0.9395
B( 18-C , 24-H ) :   0.9439 B( 18-C , 25-H ) :   0.9424 B( 19-C , 20-O ) :   0.8288
B( 19-C , 26-H ) :   0.9345 B( 19-C , 27-H ) :   0.9390 B( 23-O , 28-H ) :   0.7268

FINAL SINGLE POINT ENERGY      -652.857344710042

DIPOLE MOMENT
-------------
                                X             Y             Z
Electronic contribution:     -0.89141      -3.31294      -0.83988
Nuclear contribution   :      1.49819       4.21117       1.23451
                        -----------------------------------------
Total Dipole Moment    :      0.60678       0.89822       0.39463
                        -----------------------------------------
Magnitude (a.u.)       :      1.15357
Magnitude (Debye)      :      2.93213

Rotational constants in cm-1:     0.053966     0.014712     0.013214
Rotational constants in MHz :  1617.846665   441.065327   396.141279

                             ****ORCA TERMINATED NORMALLY****
TOTAL RUN TIME: 0 days 0 hours 46 minutes 58 seconds 916 msec
