                         Program Version 4.2.0 -  RELEASE  -
|  1> # Test redundant internal optimization
|  2> #
|  3> ! RKS B3LYP  Opt TightSCF SmallPrint
|  4>
|  5> %basis
|  6>         Basis "6-31G"
|  7> end
|  8>
|  9> %geom
| 10> Constraints
| 11> { D 4  0  15  12  0.0   C } # D for Dihedral angle
| 12> { D 0  15  12  16  300.0   C } # D for Dihedral angle
| 13> { D 0  4  3  2   C } # D for Dihedral angle
| 14> { D 4  3  2  1   C } # D for Dihedral angle
| 15> { D 3  2  1  0   C } # D for Dihedral angle
| 16> { D 2  1  0  4   C } # D for Dihedral angle
| 17> { D 1  0  4  3   C } # D for Dihedral angle
| 18> { D 16  20  19  18   C } # D for Dihedral angle
| 19> { D 20  19  18  17   C } # D for Dihedral angle
| 20> { D 19  18  17  16   C } # D for Dihedral angle
| 21> { D 18  17  16  20   C } # D for Dihedral angle
| 22> { D 17  16  20  19   C } # D for Dihedral angle
| 23> { D 15  12  16  20   C } # D for Dihedral angle
| 24> end
| 25> end
| 26>
| 27>
| 28> #%pal
| 29> #nprocs 8
| 30> #end
| 31>
| 32> * xyz 0 1
| 33> C  -21.048   26.222   46.251
| 34> C  -20.361   27.558   45.944
| 35> C  -20.329   28.222   47.341
| 36> C  -20.110   27.022   48.296
| 37> O  -20.473   25.807   47.535
| 38> H  -20.833   25.428   45.533
| 39> H  -19.344   27.382   45.576
| 40> H  -20.898   28.157   45.201
| 41> H  -19.543   28.978   47.434
| 42> H  -21.289   28.710   47.548
| 43> H  -20.733   27.082   49.195
| 44> H  -19.064   26.913   48.597
| 45> C  -23.172   26.101   47.783
| 46> H  -22.726   26.789   48.512
| 47> H  -24.259   26.255   47.787
| 48> O  -22.586   26.394   46.375
| 49> C  -22.900   24.646   48.256
| 50> C  -23.589   24.357   49.594
| 51> C  -25.048   24.103   49.147
| 52> C  -24.878   23.397   47.778
| 53> O  -23.500   23.684   47.326
| 54> H  -21.823   24.464   48.254
| 55> H  -23.162   23.457   50.052
| 56> O  -23.466   25.527   50.609
| 57> H  -25.612   23.495   49.862
| 58> H  -25.577   25.056   49.027
| 59> H  -25.586   23.764   47.026
| 60> H  -24.973   22.310   47.854
| 61> H  -23.888   26.439   50.173
| 62> *
| 63>
| 64>                          ****END OF INPUT****
 Total Charge           Charge          ....    0
 Multiplicity           Mult            ....    1
 Number of Electrons    NEL             ....  102
FINAL SINGLE POINT ENERGY      -652.822899883934
FINAL SINGLE POINT ENERGY      -652.846561312295
FINAL SINGLE POINT ENERGY      -652.851172635095
FINAL SINGLE POINT ENERGY      -652.853409838105
FINAL SINGLE POINT ENERGY      -652.853652719630
FINAL SINGLE POINT ENERGY      -652.853725225218
FINAL SINGLE POINT ENERGY      -652.853732856966
FINAL SINGLE POINT ENERGY      -652.853734940228
                    ***********************HURRAY********************

CARTESIAN COORDINATES (ANGSTROEM)
---------------------------------
  C    -21.043318   26.239135   46.308466
  C    -20.443870   27.600093   45.947915
  C    -20.260262   28.245319   47.342983
  C    -19.887148   27.042886   48.239801
  O    -20.312636   25.829356   47.486191
  H    -20.889218   25.455079   45.564860
  H    -19.477571   27.451482   45.451780
  H    -21.100826   28.171586   45.289309
  H    -19.488803   29.021395   47.351566
  H    -21.201406   28.699649   47.670415
  H    -20.391514   27.047225   49.210039
  H    -18.808739   26.947997   48.396064
  C    -23.125379   26.091709   47.757716
  H    -22.778116   26.801107   48.523906
  H    -24.180712   26.295583   47.549545
  O    -22.486111   26.364301   46.482115
  C    -22.936038   24.668010   48.299365
  C    -23.692190   24.418148   49.616350
  C    -25.133094   24.109789   49.105567
  C    -24.867420   23.353788   47.783384
  O    -23.469417   23.655504   47.390578
  H    -21.869443   24.463444   48.387474
  H    -23.268710   23.543669   50.115307
  O    -23.604774   25.478942   50.601921
  H    -25.710970   23.521623   49.824002
  H    -25.671073   25.051577   48.930447
  H    -25.541724   23.659114   46.976322
  H    -24.938631   22.268645   47.908134
  H    -24.190887   26.222844   50.354478

 Multiplicity           Mult            ....    1
 Number of Electrons    NEL             ....  102
 Basis Dimension        Dim             ....  149

ORBITAL ENERGIES
----------------

  NO   OCC          E(Eh)            E(eV)
   0   2.0000     -19.148592      -521.0597
   1   2.0000     -19.147736      -521.0364
   2   2.0000     -19.132664      -520.6263
   3   2.0000     -19.130140      -520.5576
   4   2.0000     -10.275034      -279.5979
   5   2.0000     -10.240751      -278.6650
   6   2.0000     -10.230317      -278.3811
   7   2.0000     -10.227894      -278.3152
   8   2.0000     -10.226011      -278.2639
   9   2.0000     -10.217527      -278.0331
  10   2.0000     -10.192856      -277.3617
  11   2.0000     -10.189908      -277.2815
  12   2.0000     -10.183254      -277.1004
  13   2.0000      -1.051181       -28.6041
  14   2.0000      -1.029367       -28.0105
  15   2.0000      -1.009898       -27.4807
  16   2.0000      -0.987882       -26.8816
  17   2.0000      -0.789117       -21.4730
  18   2.0000      -0.777945       -21.1689
  19   2.0000      -0.762376       -20.7453
  20   2.0000      -0.731900       -19.9160
  21   2.0000      -0.676116       -18.3981
  22   2.0000      -0.607449       -16.5295
  23   2.0000      -0.601691       -16.3728
  24   2.0000      -0.598312       -16.2809
  25   2.0000      -0.561423       -15.2771
  26   2.0000      -0.519665       -14.1408
  27   2.0000      -0.511747       -13.9253
  28   2.0000      -0.499304       -13.5868
  29   2.0000      -0.490101       -13.3363
  30   2.0000      -0.464106       -12.6290
  31   2.0000      -0.456314       -12.4169
  32   2.0000      -0.437483       -11.9045
  33   2.0000      -0.428523       -11.6607
  34   2.0000      -0.424017       -11.5381
  35   2.0000      -0.414109       -11.2685
  36   2.0000      -0.406581       -11.0636
  37   2.0000      -0.397346       -10.8123
  38   2.0000      -0.377140       -10.2625
  39   2.0000      -0.370059       -10.0698
  40   2.0000      -0.358817        -9.7639
  41   2.0000      -0.355714        -9.6795
  42   2.0000      -0.347737        -9.4624
  43   2.0000      -0.329030        -8.9534
  44   2.0000      -0.321778        -8.7560
  45   2.0000      -0.311827        -8.4852
  46   2.0000      -0.303752        -8.2655
  47   2.0000      -0.268302        -7.3009
  48   2.0000      -0.259373        -7.0579
  49   2.0000      -0.251841        -6.8529
  50   2.0000      -0.226791        -6.1713
  51   0.0000       0.052485         1.4282
  52   0.0000       0.074410         2.0248
  53   0.0000       0.086334         2.3493
  54   0.0000       0.094167         2.5624
  55   0.0000       0.105386         2.8677

MULLIKEN ATOMIC CHARGES
-----------------------
   0 C :    0.303545
   1 C :   -0.256924
   2 C :   -0.309892
   3 C :   -0.020158
   4 O :   -0.514707
   5 H :    0.166602
   6 H :    0.144097
   7 H :    0.160586
   8 H :    0.147582
   9 H :    0.152762
  10 H :    0.153462
  11 H :    0.151675
  12 C :   -0.012371
  13 H :    0.119533
  14 H :    0.143307
  15 O :   -0.532762
  16 C :    0.067461
  17 C :    0.084962
  18 C :   -0.331666
  19 C :   -0.012523
  20 O :   -0.509349
  21 H :    0.202022
  22 H :    0.166369
  23 O :   -0.602563
  24 H :    0.157064
  25 H :    0.132123
  26 H :    0.144784
  27 H :    0.150589
  28 H :    0.354389
Sum of atomic charges:   -0.0000000

LOEWDIN ATOMIC CHARGES
----------------------
   0 C :    0.183822
   1 C :   -0.219232
   2 C :   -0.219700
   3 C :   -0.034195
   4 O :   -0.317490
   5 H :    0.110653
   6 H :    0.113392
   7 H :    0.125679
   8 H :    0.117329
   9 H :    0.112946
  10 H :    0.105840
  11 H :    0.107360
  12 C :   -0.045794
  13 H :    0.089270
  14 H :    0.108071
  15 O :   -0.331151
  16 C :   -0.000399
  17 C :    0.035719
  18 C :   -0.244010
  19 C :   -0.032045
  20 O :   -0.317893
  21 H :    0.133490
  22 H :    0.118769
  23 O :   -0.410132
  24 H :    0.121851
  25 H :    0.102750
  26 H :    0.102947
  27 H :    0.105872
  28 H :    0.276279

  Mayer bond orders larger than 0.100000
B(  0-C ,  1-C ) :   0.9313 B(  0-C ,  4-O ) :   0.8953 B(  0-C ,  5-H ) :   0.9284
B(  0-C , 15-O ) :   0.8464 B(  1-C ,  2-C ) :   0.9522 B(  1-C ,  6-H ) :   0.9356
B(  1-C ,  7-H ) :   0.9365 B(  2-C ,  3-C ) :   0.9527 B(  2-C ,  8-H ) :   0.9448
B(  2-C ,  9-H ) :   0.9456 B(  3-C ,  4-O ) :   0.8272 B(  3-C , 10-H ) :   0.9303
B(  3-C , 11-H ) :   0.9398 B( 12-C , 13-H ) :   0.9008 B( 12-C , 14-H ) :   0.9404
B( 12-C , 15-O ) :   0.8588 B( 12-C , 16-C ) :   0.8843 B( 16-C , 17-C ) :   0.8688
B( 16-C , 20-O ) :   0.8548 B( 16-C , 21-H ) :   0.9049 B( 17-C , 18-C ) :   0.9226
B( 17-C , 22-H ) :   0.9338 B( 17-C , 23-O ) :   0.8914 B( 18-C , 19-C ) :   0.9409
B( 18-C , 24-H ) :   0.9420 B( 18-C , 25-H ) :   0.9407 B( 19-C , 20-O ) :   0.8547
B( 19-C , 26-H ) :   0.9307 B( 19-C , 27-H ) :   0.9370 B( 23-O , 28-H ) :   0.7992

FINAL SINGLE POINT ENERGY      -652.853735044243

DIPOLE MOMENT
-------------
                                X             Y             Z
Electronic contribution:      0.38399      -3.40423      -0.86198
Nuclear contribution   :     -0.80797       4.34705       1.16118
                        -----------------------------------------
Total Dipole Moment    :     -0.42397       0.94281       0.29920
                        -----------------------------------------
Magnitude (a.u.)       :      1.07618
Magnitude (Debye)      :      2.73544

Rotational constants in cm-1:     0.052278     0.015347     0.013555
Rotational constants in MHz :  1567.257876   460.092256   406.379644

                             ****ORCA TERMINATED NORMALLY****
TOTAL RUN TIME: 0 days 2 hours 10 minutes 41 seconds 167 msec
