                         Program Version 4.2.0 -  RELEASE  -
|  1> # Test redundant internal optimization
|  2> #
|  3> ! RKS B3LYP  Opt TightSCF SmallPrint
|  4>
|  5> %basis
|  6>         Basis "6-31G"
|  7> end
|  8>
|  9> %geom
| 10> Constraints
| 11> { D 4  0  15  12  60.0   C } # D for Dihedral angle
| 12> { D 0  15  12  16  255.0   C } # D for Dihedral angle
| 13> { D 0  4  3  2   C } # D for Dihedral angle
| 14> { D 4  3  2  1   C } # D for Dihedral angle
| 15> { D 3  2  1  0   C } # D for Dihedral angle
| 16> { D 2  1  0  4   C } # D for Dihedral angle
| 17> { D 1  0  4  3   C } # D for Dihedral angle
| 18> { D 16  20  19  18   C } # D for Dihedral angle
| 19> { D 20  19  18  17   C } # D for Dihedral angle
| 20> { D 19  18  17  16   C } # D for Dihedral angle
| 21> { D 18  17  16  20   C } # D for Dihedral angle
| 22> { D 17  16  20  19   C } # D for Dihedral angle
| 23> { D 15  12  16  20   C } # D for Dihedral angle
| 24> end
| 25> end
| 26>
| 27>
| 28> #%pal
| 29> #nprocs 8
| 30> #end
| 31>
| 32> * xyz 0 1
| 33> C  -21.048   26.222   46.251
| 34> C  -20.361   27.558   45.944
| 35> C  -20.329   28.222   47.341
| 36> C  -20.110   27.022   48.296
| 37> O  -20.473   25.807   47.535
| 38> H  -20.833   25.428   45.533
| 39> H  -19.344   27.382   45.576
| 40> H  -20.898   28.157   45.201
| 41> H  -19.543   28.978   47.434
| 42> H  -21.289   28.710   47.548
| 43> H  -20.733   27.082   49.195
| 44> H  -19.064   26.913   48.597
| 45> C  -23.051   27.452   47.413
| 46> H  -22.201   28.090   47.685
| 47> H  -23.836   28.089   46.987
| 48> O  -22.586   26.394   46.375
| 49> C  -23.614   26.811   48.712
| 50> C  -24.168   27.877   49.663
| 51> C  -25.547   28.177   49.029
| 52> C  -25.991   26.797   48.484
| 53> O  -24.772   25.964   48.405
| 54> H  -22.852   26.165   49.152
| 55> O  -24.338   27.284   51.089
| 56> H  -23.531   28.765   49.732
| 57> H  -26.263   28.593   49.746
| 58> H  -25.437   28.898   48.211
| 59> H  -26.444   26.865   47.488
| 60> H  -26.688   26.287   49.155
| 61> H  -24.974   26.393   51.043
| 62> *
| 63>
| 64>                          ****END OF INPUT****
 Total Charge           Charge          ....    0
 Multiplicity           Mult            ....    1
 Number of Electrons    NEL             ....  102
FINAL SINGLE POINT ENERGY      -652.789510870502
FINAL SINGLE POINT ENERGY      -652.827941727803
FINAL SINGLE POINT ENERGY      -652.847599426741
FINAL SINGLE POINT ENERGY      -652.851723538493
FINAL SINGLE POINT ENERGY      -652.852376050595
FINAL SINGLE POINT ENERGY      -652.852504748107
FINAL SINGLE POINT ENERGY      -652.852522313230
FINAL SINGLE POINT ENERGY      -652.852525520503
FINAL SINGLE POINT ENERGY      -652.852524214495
                    ***********************HURRAY********************

CARTESIAN COORDINATES (ANGSTROEM)
---------------------------------
  C    -21.183730   26.360971   46.437623
  C    -20.282800   27.489987   45.909239
  C    -19.882145   28.228914   47.222479
  C    -19.776665   27.064677   48.241804
  O    -20.513964   25.922961   47.646546
  H    -21.185838   25.493810   45.774906
  H    -19.404122   27.041157   45.435377
  H    -20.791380   28.129433   45.183320
  H    -18.930105   28.760641   47.123345
  H    -20.635291   28.966360   47.510156
  H    -20.211796   27.302472   49.217660
  H    -18.743787   26.735224   48.386018
  C    -23.143704   27.588275   47.492657
  H    -22.395624   28.311361   47.830028
  H    -23.911008   28.127042   46.926214
  O    -22.595371   26.603163   46.572693
  C    -23.757715   26.889425   48.709683
  C    -24.408965   27.850569   49.713977
  C    -25.802500   28.083641   49.071709
  C    -26.126921   26.708459   48.436769
  O    -24.840724   25.979181   48.331858
  H    -22.987195   26.271158   49.180225
  O    -24.517558   27.235890   51.027566
  H    -23.850023   28.774063   49.874752
  H    -26.528922   28.387572   49.829433
  H    -25.745249   28.872616   48.312832
  H    -26.569660   26.794895   47.439806
  H    -26.791544   26.104096   49.062278
  H    -24.803694   26.303987   50.919046

 Multiplicity           Mult            ....    1
 Number of Electrons    NEL             ....  102
 Basis Dimension        Dim             ....  149

ORBITAL ENERGIES
----------------

  NO   OCC          E(Eh)            E(eV)
   0   2.0000     -19.143539      -520.9222
   1   2.0000     -19.141728      -520.8729
   2   2.0000     -19.137816      -520.7665
   3   2.0000     -19.137282      -520.7519
   4   2.0000     -10.277856      -279.6747
   5   2.0000     -10.242399      -278.7098
   6   2.0000     -10.234026      -278.4820
   7   2.0000     -10.231827      -278.4222
   8   2.0000     -10.229853      -278.3685
   9   2.0000     -10.227901      -278.3153
  10   2.0000     -10.196492      -277.4607
  11   2.0000     -10.192026      -277.3391
  12   2.0000     -10.189404      -277.2678
  13   2.0000      -1.051816       -28.6214
  14   2.0000      -1.033936       -28.1348
  15   2.0000      -1.004944       -27.3459
  16   2.0000      -0.994379       -27.0584
  17   2.0000      -0.790515       -21.5110
  18   2.0000      -0.784798       -21.3554
  19   2.0000      -0.769363       -20.9354
  20   2.0000      -0.733934       -19.9714
  21   2.0000      -0.679056       -18.4781
  22   2.0000      -0.606950       -16.5159
  23   2.0000      -0.604810       -16.4577
  24   2.0000      -0.600230       -16.3331
  25   2.0000      -0.573381       -15.6025
  26   2.0000      -0.519925       -14.1479
  27   2.0000      -0.518173       -14.1002
  28   2.0000      -0.502739       -13.6802
  29   2.0000      -0.489321       -13.3151
  30   2.0000      -0.472710       -12.8631
  31   2.0000      -0.461517       -12.5585
  32   2.0000      -0.447102       -12.1663
  33   2.0000      -0.442471       -12.0402
  34   2.0000      -0.422485       -11.4964
  35   2.0000      -0.420408       -11.4399
  36   2.0000      -0.403099       -10.9689
  37   2.0000      -0.392299       -10.6750
  38   2.0000      -0.382933       -10.4201
  39   2.0000      -0.372158       -10.1269
  40   2.0000      -0.363363        -9.8876
  41   2.0000      -0.361164        -9.8278
  42   2.0000      -0.346715        -9.4346
  43   2.0000      -0.332528        -9.0486
  44   2.0000      -0.316759        -8.6194
  45   2.0000      -0.311599        -8.4790
  46   2.0000      -0.298539        -8.1237
  47   2.0000      -0.269480        -7.3329
  48   2.0000      -0.267747        -7.2858
  49   2.0000      -0.256589        -6.9821
  50   2.0000      -0.235535        -6.4092
  51   0.0000       0.062265         1.6943
  52   0.0000       0.074712         2.0330
  53   0.0000       0.084126         2.2892
  54   0.0000       0.094597         2.5741
  55   0.0000       0.097816         2.6617

MULLIKEN ATOMIC CHARGES
-----------------------
   0 C :    0.294385
   1 C :   -0.270497
   2 C :   -0.318211
   3 C :   -0.014971
   4 O :   -0.504121
   5 H :    0.169796
   6 H :    0.156210
   7 H :    0.150333
   8 H :    0.146248
   9 H :    0.149605
  10 H :    0.144469
  11 H :    0.151188
  12 C :   -0.018727
  13 H :    0.120881
  14 H :    0.146238
  15 O :   -0.503905
  16 C :    0.072787
  17 C :    0.072530
  18 C :   -0.294462
  19 C :   -0.033299
  20 O :   -0.506262
  21 H :    0.179635
  22 O :   -0.600927
  23 H :    0.143780
  24 H :    0.162378
  25 H :    0.140312
  26 H :    0.150275
  27 H :    0.147309
  28 H :    0.367024
Sum of atomic charges:   -0.0000000

LOEWDIN ATOMIC CHARGES
----------------------
   0 C :    0.173955
   1 C :   -0.227988
   2 C :   -0.224881
   3 C :   -0.035920
   4 O :   -0.323036
   5 H :    0.115080
   6 H :    0.122140
   7 H :    0.119732
   8 H :    0.116003
   9 H :    0.106475
  10 H :    0.101834
  11 H :    0.106834
  12 C :   -0.044536
  13 H :    0.096063
  14 H :    0.108161
  15 O :   -0.305575
  16 C :    0.009967
  17 C :    0.032745
  18 C :   -0.241619
  19 C :   -0.039713
  20 O :   -0.318127
  21 H :    0.125196
  22 O :   -0.414669
  23 H :    0.110954
  24 H :    0.126475
  25 H :    0.110885
  26 H :    0.105926
  27 H :    0.102889
  28 H :    0.284751

  Mayer bond orders larger than 0.100000
B(  0-C ,  1-C ) :   0.9137 B(  0-C ,  4-O ) :   0.8915 B(  0-C ,  5-H ) :   0.9358
B(  0-C , 15-O ) :   0.9124 B(  1-C ,  2-C ) :   0.9546 B(  1-C ,  6-H ) :   0.9350
B(  1-C ,  7-H ) :   0.9378 B(  2-C ,  3-C ) :   0.9453 B(  2-C ,  8-H ) :   0.9441
B(  2-C ,  9-H ) :   0.9372 B(  3-C ,  4-O ) :   0.8479 B(  3-C , 10-H ) :   0.9327
B(  3-C , 11-H ) :   0.9387 B( 12-C , 13-H ) :   0.8999 B( 12-C , 14-H ) :   0.9379
B( 12-C , 15-O ) :   0.8501 B( 12-C , 16-C ) :   0.8827 B( 16-C , 17-C ) :   0.8950
B( 16-C , 20-O ) :   0.8653 B( 16-C , 21-H ) :   0.9196 B( 17-C , 18-C ) :   0.9107
B( 17-C , 22-O ) :   0.8964 B( 17-C , 23-H ) :   0.9342 B( 18-C , 19-C ) :   0.9398
B( 18-C , 24-H ) :   0.9376 B( 18-C , 25-H ) :   0.9350 B( 19-C , 20-O ) :   0.8534
B( 19-C , 26-H ) :   0.9333 B( 19-C , 27-H ) :   0.9374 B( 22-O , 28-H ) :   0.7925

FINAL SINGLE POINT ENERGY      -652.852522511135

DIPOLE MOMENT
-------------
                                X             Y             Z
Electronic contribution:     -1.64371      -5.46097       0.83995
Nuclear contribution   :      1.92954       6.90238      -1.25946
                        -----------------------------------------
Total Dipole Moment    :      0.28583       1.44140      -0.41950
                        -----------------------------------------
Magnitude (a.u.)       :      1.52818
Magnitude (Debye)      :      3.88431

Rotational constants in cm-1:     0.053146     0.013996     0.012917
Rotational constants in MHz :  1593.291174   419.590025   387.237215

                             ****ORCA TERMINATED NORMALLY****
TOTAL RUN TIME: 0 days 2 hours 7 minutes 51 seconds 847 msec
