                         Program Version 4.2.1 -  RELEASE  -
|  1> # Test redundant internal optimization
|  2> #
|  3> ! RKS B3LYP  Opt TightSCF SmallPrint
|  4>
|  5> %basis
|  6>         Basis "6-31G"
|  7> end
|  8>
|  9> %geom
| 10> Constraints
| 11> { D 4  0  19  14  225.0   C } # D for Dihedral angle
| 12> { D 0  19  14  12  315.0   C } # D for Dihedral angle
| 13> { D 0  4  3  2   C } # D for Dihedral angle
| 14> { D 4  3  2  1   C } # D for Dihedral angle
| 15> { D 3  2  1  0   C } # D for Dihedral angle
| 16> { D 2  1  0  4   C } # D for Dihedral angle
| 17> { D 1  0  4  3   C } # D for Dihedral angle
| 18> { D 14  15  16  17   C } # D for Dihedral angle
| 19> { D 15  16  17  12   C } # D for Dihedral angle
| 20> { D 16  17  12  14   C } # D for Dihedral angle
| 21> { D 17  12  14  15   C } # D for Dihedral angle
| 22> { D 12  14  15  16   C } # D for Dihedral angle
| 23> end
| 24> end
| 25>
| 26>
| 27> #%pal
| 28> #nprocs 8
| 29> #end
| 30>
| 31> * xyz 0 1
| 32> C  -21.048   26.222   46.251
| 33> C  -20.361   27.558   45.944
| 34> C  -20.329   28.222   47.341
| 35> C  -20.110   27.022   48.296
| 36> O  -20.473   25.807   47.535
| 37> H  -20.833   25.428   45.533
| 38> H  -19.344   27.382   45.576
| 39> H  -20.898   28.157   45.201
| 40> H  -19.543   28.978   47.434
| 41> H  -21.289   28.710   47.548
| 42> H  -20.733   27.082   49.195
| 43> H  -19.064   26.913   48.597
| 44> C  -22.573   26.156   43.945
| 45> H  -23.265   25.981   43.106
| 46> C  -23.222   25.800   45.287
| 47> C  -23.093   24.259   45.300
| 48> C  -21.738   24.013   44.590
| 49> O  -21.418   25.255   43.852
| 50> H  -22.188   27.175   43.884
| 51> O  -22.472   26.381   46.366
| 52> H  -24.260   26.140   45.366
| 53> H  -23.118   23.839   46.310
| 54> H  -23.915   23.807   44.730
| 55> H  -21.779   23.177   43.884
| 56> H  -20.921   23.840   45.297
| 57> *
| 58>
| 59>                          ****END OF INPUT****
 Total Charge           Charge          ....    0
 Multiplicity           Mult            ....    1
 Number of Electrons    NEL             ....   86
FINAL SINGLE POINT ENERGY      -538.406878950319
FINAL SINGLE POINT ENERGY      -538.427826214704
FINAL SINGLE POINT ENERGY      -538.430242144960
FINAL SINGLE POINT ENERGY      -538.430649048177
FINAL SINGLE POINT ENERGY      -538.430715544935
FINAL SINGLE POINT ENERGY      -538.430734774945
FINAL SINGLE POINT ENERGY      -538.430736027869
                    ***********************HURRAY********************

CARTESIAN COORDINATES (ANGSTROEM)
---------------------------------
  C    -20.788271   26.276914   46.270860
  C    -20.219817   27.678717   46.051126
  C    -20.391367   28.318745   47.451540
  C    -20.141838   27.128059   48.402836
  O    -20.307855   25.907763   47.575433
  H    -20.453110   25.530001   45.554550
  H    -19.159011   27.602461   45.783750
  H    -20.740780   28.226324   45.262705
  H    -19.697678   29.146466   47.625284
  H    -21.414362   28.690249   47.561429
  H    -20.850167   27.086458   49.234452
  H    -19.120568   27.104718   48.795493
  C    -22.619094   26.040874   43.837142
  H    -23.466469   25.945972   43.142985
  C    -23.073609   25.766786   45.274532
  C    -23.128990   24.224521   45.292376
  C    -21.955123   23.806139   44.375901
  O    -21.609910   25.007313   43.564371
  H    -22.144079   27.013063   43.696167
  O    -22.248839   26.353087   46.319425
  H    -24.057842   26.200155   45.473213
  H    -23.035961   23.842218   46.311502
  H    -24.087519   23.890649   44.879789
  H    -22.215015   22.991142   43.693048
  H    -21.059726   23.525205   44.938089

 Multiplicity           Mult            ....    1
 Number of Electrons    NEL             ....   86
 Basis Dimension        Dim             ....  127

ORBITAL ENERGIES
----------------

  NO   OCC          E(Eh)            E(eV)
   0   2.0000     -19.140051      -520.8273
   1   2.0000     -19.134986      -520.6894
   2   2.0000     -19.132931      -520.6335
   3   2.0000     -10.270050      -279.4623
   4   2.0000     -10.241878      -278.6957
   5   2.0000     -10.228942      -278.3437
   6   2.0000     -10.226931      -278.2889
   7   2.0000     -10.219137      -278.0769
   8   2.0000     -10.186121      -277.1785
   9   2.0000     -10.179849      -277.0078
  10   2.0000     -10.178829      -276.9800
  11   2.0000      -1.046351       -28.4727
  12   2.0000      -1.018582       -27.7170
  13   2.0000      -0.985351       -26.8128
  14   2.0000      -0.787428       -21.4270
  15   2.0000      -0.774376       -21.0718
  16   2.0000      -0.743526       -20.2324
  17   2.0000      -0.720864       -19.6157
  18   2.0000      -0.616038       -16.7632
  19   2.0000      -0.603478       -16.4215
  20   2.0000      -0.592065       -16.1109
  21   2.0000      -0.566155       -15.4059
  22   2.0000      -0.521437       -14.1890
  23   2.0000      -0.503167       -13.6919
  24   2.0000      -0.480177       -13.0663
  25   2.0000      -0.477066       -12.9816
  26   2.0000      -0.450986       -12.2720
  27   2.0000      -0.444948       -12.1077
  28   2.0000      -0.425378       -11.5751
  29   2.0000      -0.412656       -11.2290
  30   2.0000      -0.402759       -10.9596
  31   2.0000      -0.394010       -10.7216
  32   2.0000      -0.374780       -10.1983
  33   2.0000      -0.367519       -10.0007
  34   2.0000      -0.355670        -9.6783
  35   2.0000      -0.349996        -9.5239
  36   2.0000      -0.344089        -9.3631
  37   2.0000      -0.318971        -8.6796
  38   2.0000      -0.307506        -8.3677
  39   2.0000      -0.293608        -7.9895
  40   2.0000      -0.261945        -7.1279
  41   2.0000      -0.246379        -6.7043
  42   2.0000      -0.238392        -6.4870
  43   0.0000       0.075580         2.0566
  44   0.0000       0.090967         2.4753
  45   0.0000       0.100195         2.7265
  46   0.0000       0.105192         2.8624
  47   0.0000       0.117202         3.1892

MULLIKEN ATOMIC CHARGES
-----------------------
   0 C :    0.270585
   1 C :   -0.255266
   2 C :   -0.298264
   3 C :   -0.000493
   4 O :   -0.507460
   5 H :    0.177174
   6 H :    0.144076
   7 H :    0.141886
   8 H :    0.137831
   9 H :    0.159698
  10 H :    0.149675
  11 H :    0.139014
  12 C :   -0.029335
  13 H :    0.137209
  14 C :    0.085378
  15 C :   -0.285505
  16 C :   -0.035008
  17 O :   -0.524365
  18 H :    0.157003
  19 O :   -0.525755
  20 H :    0.147509
  21 H :    0.172815
  22 H :    0.139946
  23 H :    0.145490
  24 H :    0.156160
Sum of atomic charges:   -0.0000000

LOEWDIN ATOMIC CHARGES
----------------------
   0 C :    0.171293
   1 C :   -0.220713
   2 C :   -0.217259
   3 C :   -0.026327
   4 O :   -0.313464
   5 H :    0.114937
   6 H :    0.113051
   7 H :    0.113121
   8 H :    0.112392
   9 H :    0.118060
  10 H :    0.106585
  11 H :    0.100688
  12 C :   -0.053801
  13 H :    0.099984
  14 C :    0.042623
  15 C :   -0.234994
  16 C :   -0.039740
  17 O :   -0.339480
  18 H :    0.114157
  19 O :   -0.331078
  20 H :    0.113523
  21 H :    0.132239
  22 H :    0.114387
  23 H :    0.103932
  24 H :    0.105882

  Mayer bond orders larger than 0.100000
B(  0-C ,  1-C ) :   0.9391 B(  0-C ,  4-O ) :   0.9219 B(  0-C ,  5-H ) :   0.8965
B(  0-C , 19-O ) :   0.8157 B(  1-C ,  2-C ) :   0.9547 B(  1-C ,  6-H ) :   0.9364
B(  1-C ,  7-H ) :   0.9371 B(  2-C ,  3-C ) :   0.9547 B(  2-C ,  8-H ) :   0.9456
B(  2-C ,  9-H ) :   0.9437 B(  3-C ,  4-O ) :   0.8386 B(  3-C , 10-H ) :   0.9351
B(  3-C , 11-H ) :   0.9400 B( 12-C , 13-H ) :   0.9150 B( 12-C , 14-C ) :   0.9179
B( 12-C , 17-O ) :   0.8520 B( 12-C , 18-H ) :   0.9303 B( 14-C , 15-C ) :   0.9193
B( 14-C , 19-O ) :   0.8862 B( 14-C , 20-H ) :   0.9368 B( 15-C , 16-C ) :   0.9464
B( 15-C , 21-H ) :   0.9351 B( 15-C , 22-H ) :   0.9389 B( 16-C , 17-O ) :   0.8421
B( 16-C , 23-H ) :   0.9367 B( 16-C , 24-H ) :   0.9319

FINAL SINGLE POINT ENERGY      -538.430736669218

DIPOLE MOMENT
-------------
                                X             Y             Z
Electronic contribution:      0.04684      -1.72695      -0.13589
Nuclear contribution   :     -0.55018       2.11066       0.00804
                        -----------------------------------------
Total Dipole Moment    :     -0.50335       0.38371      -0.12784
                        -----------------------------------------
Magnitude (a.u.)       :      0.64571
Magnitude (Debye)      :      1.64125

Rotational constants in cm-1:     0.078350     0.022762     0.021635
Rotational constants in MHz :  2348.864015   682.392729   648.606530

                             ****ORCA TERMINATED NORMALLY****
TOTAL RUN TIME: 0 days 0 hours 10 minutes 0 seconds 329 msec
