                         Program Version 4.2.0 -  RELEASE  -
|  1> # Test redundant internal optimization
|  2> #
|  3> ! RKS B3LYP  Opt TightSCF SmallPrint
|  4>
|  5> %basis
|  6>         Basis "6-31G"
|  7> end
|  8>
|  9> %geom
| 10> Constraints
| 11> { D 4  0  15  12  45.0   C } # D for Dihedral angle
| 12> { D 0  15  12  16  105.0   C } # D for Dihedral angle
| 13> { D 0  4  3  2   C } # D for Dihedral angle
| 14> { D 4  3  2  1   C } # D for Dihedral angle
| 15> { D 3  2  1  0   C } # D for Dihedral angle
| 16> { D 2  1  0  4   C } # D for Dihedral angle
| 17> { D 1  0  4  3   C } # D for Dihedral angle
| 18> { D 16  20  19  18   C } # D for Dihedral angle
| 19> { D 20  19  18  17   C } # D for Dihedral angle
| 20> { D 19  18  17  16   C } # D for Dihedral angle
| 21> { D 18  17  16  20   C } # D for Dihedral angle
| 22> { D 17  16  20  19   C } # D for Dihedral angle
| 23> { D 15  12  16  20   C } # D for Dihedral angle
| 24> end
| 25> end
| 26>
| 27>
| 28> #%pal
| 29> #nprocs 8
| 30> #end
| 31>
| 32> * xyz 0 1
| 33> C  -21.048   26.222   46.251
| 34> C  -20.361   27.558   45.944
| 35> C  -20.329   28.222   47.341
| 36> C  -20.110   27.022   48.296
| 37> O  -20.473   25.807   47.535
| 38> H  -20.833   25.428   45.533
| 39> H  -19.344   27.382   45.576
| 40> H  -20.898   28.157   45.201
| 41> H  -19.543   28.978   47.434
| 42> H  -21.289   28.710   47.548
| 43> H  -20.733   27.082   49.195
| 44> H  -19.064   26.913   48.597
| 45> C  -23.065   27.161   47.638
| 46> H  -23.907   26.624   48.090
| 47> H  -22.258   27.222   48.379
| 48> O  -22.586   26.394   46.375
| 49> C  -23.525   28.611   47.321
| 50> C  -24.765   28.617   46.419
| 51> C  -25.893   28.317   47.434
| 52> C  -25.414   29.043   48.717
| 53> O  -23.966   29.288   48.545
| 54> H  -22.678   29.178   46.929
| 55> O  -24.956   30.023   45.786
| 56> H  -24.713   27.880   45.610
| 57> H  -26.872   28.669   47.096
| 58> H  -25.966   27.236   47.606
| 59> H  -25.572   28.445   49.620
| 60> H  -25.893   30.016   48.849
| 61> H  -25.011   30.779   46.578
| 62> *
| 63>
| 64>                          ****END OF INPUT****
 Total Charge           Charge          ....    0
 Multiplicity           Mult            ....    1
 Number of Electrons    NEL             ....  102
FINAL SINGLE POINT ENERGY      -652.817683532495
FINAL SINGLE POINT ENERGY      -652.844128377107
FINAL SINGLE POINT ENERGY      -652.857032737429
FINAL SINGLE POINT ENERGY      -652.859012698170
FINAL SINGLE POINT ENERGY      -652.859349139953
FINAL SINGLE POINT ENERGY      -652.859408426316
FINAL SINGLE POINT ENERGY      -652.859413259892
                    ***********************HURRAY********************

CARTESIAN COORDINATES (ANGSTROEM)
---------------------------------
  C    -21.182150   26.340198   46.398404
  C    -20.386448   27.570085   45.940527
  C    -20.015106   28.240211   47.295744
  C    -19.795320   27.020060   48.224398
  O    -20.457030   25.871071   47.554540
  H    -21.158310   25.527481   45.670467
  H    -19.485304   27.229302   45.419384
  H    -20.959132   28.217329   45.271790
  H    -19.117520   28.861580   47.220845
  H    -20.826196   28.876630   47.658506
  H    -20.225752   27.148727   49.221827
  H    -18.738135   26.756819   48.324833
  C    -23.154066   27.175238   47.776113
  H    -23.989211   26.549885   48.107821
  H    -22.429925   27.213059   48.594711
  O    -22.606746   26.518684   46.596444
  C    -23.639491   28.587571   47.439220
  C    -24.789667   28.646722   46.423255
  C    -26.013410   28.325456   47.317067
  C    -25.652621   28.993835   48.667567
  O    -24.185315   29.224887   48.643800
  H    -22.806283   29.209614   47.101166
  O    -24.883629   29.969252   45.823859
  H    -24.657129   27.954861   45.592798
  H    -26.929633   28.725529   46.876421
  H    -26.131415   27.242077   47.425825
  H    -25.899169   28.369704   49.531650
  H    -26.129520   29.970523   48.794661
  H    -24.821366   30.647613   46.529359

 Multiplicity           Mult            ....    1
 Number of Electrons    NEL             ....  102
 Basis Dimension        Dim             ....  149

ORBITAL ENERGIES
----------------

  NO   OCC          E(Eh)            E(eV)
   0   2.0000     -19.147532      -521.0308
   1   2.0000     -19.147211      -521.0221
   2   2.0000     -19.144330      -520.9437
   3   2.0000     -19.137280      -520.7519
   4   2.0000     -10.280400      -279.7439
   5   2.0000     -10.237124      -278.5663
   6   2.0000     -10.233980      -278.4807
   7   2.0000     -10.233834      -278.4768
   8   2.0000     -10.232547      -278.4418
   9   2.0000     -10.231576      -278.4153
  10   2.0000     -10.194056      -277.3944
  11   2.0000     -10.189635      -277.2741
  12   2.0000     -10.188966      -277.2559
  13   2.0000      -1.054543       -28.6956
  14   2.0000      -1.037663       -28.2362
  15   2.0000      -1.006332       -27.3837
  16   2.0000      -0.997269       -27.1371
  17   2.0000      -0.789948       -21.4956
  18   2.0000      -0.782885       -21.3034
  19   2.0000      -0.771604       -20.9964
  20   2.0000      -0.735260       -20.0074
  21   2.0000      -0.678035       -18.4503
  22   2.0000      -0.606530       -16.5045
  23   2.0000      -0.605079       -16.4650
  24   2.0000      -0.601506       -16.3678
  25   2.0000      -0.575886       -15.6707
  26   2.0000      -0.529536       -14.4094
  27   2.0000      -0.507911       -13.8210
  28   2.0000      -0.501531       -13.6473
  29   2.0000      -0.495469       -13.4824
  30   2.0000      -0.473664       -12.8891
  31   2.0000      -0.460543       -12.5320
  32   2.0000      -0.449575       -12.2336
  33   2.0000      -0.437973       -11.9178
  34   2.0000      -0.428091       -11.6490
  35   2.0000      -0.417712       -11.3665
  36   2.0000      -0.407196       -11.0804
  37   2.0000      -0.394186       -10.7263
  38   2.0000      -0.382490       -10.4081
  39   2.0000      -0.368455       -10.0262
  40   2.0000      -0.362057        -9.8521
  41   2.0000      -0.356800        -9.7090
  42   2.0000      -0.350773        -9.5450
  43   2.0000      -0.335613        -9.1325
  44   2.0000      -0.321956        -8.7609
  45   2.0000      -0.314887        -8.5685
  46   2.0000      -0.304171        -8.2769
  47   2.0000      -0.277500        -7.5511
  48   2.0000      -0.265276        -7.2185
  49   2.0000      -0.260917        -7.0999
  50   2.0000      -0.240377        -6.5410
  51   0.0000       0.062957         1.7132
  52   0.0000       0.068269         1.8577
  53   0.0000       0.085713         2.3324
  54   0.0000       0.098474         2.6796
  55   0.0000       0.100991         2.7481

MULLIKEN ATOMIC CHARGES
-----------------------
   0 C :    0.301203
   1 C :   -0.271228
   2 C :   -0.322845
   3 C :   -0.019537
   4 O :   -0.506478
   5 H :    0.166217
   6 H :    0.152801
   7 H :    0.157479
   8 H :    0.149850
   9 H :    0.159313
  10 H :    0.148929
  11 H :    0.150682
  12 C :   -0.029872
  13 H :    0.150029
  14 H :    0.158886
  15 O :   -0.526330
  16 C :    0.057571
  17 C :    0.086813
  18 C :   -0.303966
  19 C :   -0.028322
  20 O :   -0.528891
  21 H :    0.155942
  22 O :   -0.602690
  23 H :    0.176599
  24 H :    0.160128
  25 H :    0.153857
  26 H :    0.146730
  27 H :    0.146554
  28 H :    0.360575
Sum of atomic charges:   -0.0000000

LOEWDIN ATOMIC CHARGES
----------------------
   0 C :    0.178923
   1 C :   -0.229523
   2 C :   -0.225119
   3 C :   -0.034927
   4 O :   -0.317583
   5 H :    0.112976
   6 H :    0.120026
   7 H :    0.122402
   8 H :    0.118520
   9 H :    0.112768
  10 H :    0.102729
  11 H :    0.105975
  12 C :   -0.042254
  13 H :    0.109231
  14 H :    0.112054
  15 O :   -0.328284
  16 C :    0.005567
  17 C :    0.036716
  18 C :   -0.241960
  19 C :   -0.037146
  20 O :   -0.333498
  21 H :    0.108494
  22 O :   -0.415146
  23 H :    0.127936
  24 H :    0.126288
  25 H :    0.117559
  26 H :    0.104467
  27 H :    0.102418
  28 H :    0.280391

  Mayer bond orders larger than 0.100000
B(  0-C ,  1-C ) :   0.9154 B(  0-C ,  4-O ) :   0.9102 B(  0-C ,  5-H ) :   0.9357
B(  0-C , 15-O ) :   0.8791 B(  1-C ,  2-C ) :   0.9549 B(  1-C ,  6-H ) :   0.9335
B(  1-C ,  7-H ) :   0.9348 B(  2-C ,  3-C ) :   0.9471 B(  2-C ,  8-H ) :   0.9448
B(  2-C ,  9-H ) :   0.9328 B(  3-C ,  4-O ) :   0.8369 B(  3-C , 10-H ) :   0.9302
B(  3-C , 11-H ) :   0.9389 B( 12-C , 13-H ) :   0.9361 B( 12-C , 14-H ) :   0.9128
B( 12-C , 15-O ) :   0.8323 B( 12-C , 16-C ) :   0.8816 B( 16-C , 17-C ) :   0.9067
B( 16-C , 20-O ) :   0.8434 B( 16-C , 21-H ) :   0.9158 B( 17-C , 18-C ) :   0.9146
B( 17-C , 22-O ) :   0.8903 B( 17-C , 23-H ) :   0.9237 B( 18-C , 19-C ) :   0.9417
B( 18-C , 24-H ) :   0.9382 B( 18-C , 25-H ) :   0.9329 B( 19-C , 20-O ) :   0.8414
B( 19-C , 26-H ) :   0.9359 B( 19-C , 27-H ) :   0.9381 B( 22-O , 28-H ) :   0.7974

FINAL SINGLE POINT ENERGY      -652.859402191839

DIPOLE MOMENT
-------------
                                X             Y             Z
Electronic contribution:     -0.93142      -1.56852      -0.99473
Nuclear contribution   :      1.05648       2.01465       1.41025
                        -----------------------------------------
Total Dipole Moment    :      0.12506       0.44612       0.41553
                        -----------------------------------------
Magnitude (a.u.)       :      0.62236
Magnitude (Debye)      :      1.58191

Rotational constants in cm-1:     0.052469     0.014244     0.013840
Rotational constants in MHz :  1572.978817   427.027639   414.899293

                             ****ORCA TERMINATED NORMALLY****
TOTAL RUN TIME: 0 days 0 hours 20 minutes 15 seconds 199 msec
