                         Program Version 4.2.0 -  RELEASE  -
|  1> # Test redundant internal optimization
|  2> #
|  3> ! RKS B3LYP  Opt TightSCF SmallPrint
|  4>
|  5> %basis
|  6>         Basis "6-31G"
|  7> end
|  8>
|  9> %geom
| 10> Constraints
| 11> { D 4  0  15  12  90.0   C } # D for Dihedral angle
| 12> { D 0  15  12  16  180.0   C } # D for Dihedral angle
| 13> { D 0  4  3  2   C } # D for Dihedral angle
| 14> { D 4  3  2  1   C } # D for Dihedral angle
| 15> { D 3  2  1  0   C } # D for Dihedral angle
| 16> { D 2  1  0  4   C } # D for Dihedral angle
| 17> { D 1  0  4  3   C } # D for Dihedral angle
| 18> { D 16  20  19  18   C } # D for Dihedral angle
| 19> { D 20  19  18  17   C } # D for Dihedral angle
| 20> { D 19  18  17  16   C } # D for Dihedral angle
| 21> { D 18  17  16  20   C } # D for Dihedral angle
| 22> { D 17  16  20  19   C } # D for Dihedral angle
| 23> { D 15  12  16  20   C } # D for Dihedral angle
| 24> end
| 25> end
| 26>
| 27>
| 28> #%pal
| 29> #nprocs 8
| 30> #end
| 31>
| 32> * xyz 0 1
| 33> C  -21.048   26.222   46.251
| 34> C  -20.361   27.558   45.944
| 35> C  -20.329   28.222   47.341
| 36> C  -20.110   27.022   48.296
| 37> O  -20.473   25.807   47.535
| 38> H  -20.833   25.428   45.533
| 39> H  -19.344   27.382   45.576
| 40> H  -20.898   28.157   45.201
| 41> H  -19.543   28.978   47.434
| 42> H  -21.289   28.710   47.548
| 43> H  -20.733   27.082   49.195
| 44> H  -19.064   26.913   48.597
| 45> C  -23.061   27.816   46.783
| 46> H  -22.628   28.076   47.757
| 47> H  -22.724   28.559   46.049
| 48> O  -22.586   26.394   46.375
| 49> C  -24.607   27.924   46.891
| 50> C  -25.045   29.364   47.181
| 51> C  -24.942   30.012   45.779
| 52> C  -25.365   28.863   44.830
| 53> O  -25.234   27.609   45.602
| 54> H  -24.969   27.188   47.611
| 55> O  -26.513   29.384   47.687
| 56> H  -24.416   29.863   47.926
| 57> H  -25.578   30.897   45.672
| 58> H  -23.908   30.317   45.580
| 59> H  -24.731   28.802   43.937
| 60> H  -26.410   28.942   44.517
| 61> H  -27.161   28.889   46.956
| 62> *
| 63>
| 64>                          ****END OF INPUT****
 Total Charge           Charge          ....    0
 Multiplicity           Mult            ....    1
 Number of Electrons    NEL             ....  102
FINAL SINGLE POINT ENERGY      -652.808399045555
FINAL SINGLE POINT ENERGY      -652.836222488778
FINAL SINGLE POINT ENERGY      -652.850652475697
FINAL SINGLE POINT ENERGY      -652.853128008678
FINAL SINGLE POINT ENERGY      -652.853544170938
FINAL SINGLE POINT ENERGY      -652.853596431351
FINAL SINGLE POINT ENERGY      -652.853603214295
FINAL SINGLE POINT ENERGY      -652.853603030943
                    ***********************HURRAY********************

CARTESIAN COORDINATES (ANGSTROEM)
---------------------------------
  C    -21.227411   26.367149   46.389626
  C    -20.231131   27.458852   45.974166
  C    -19.907267   28.138924   47.335727
  C    -19.946996   26.944903   48.324155
  O    -20.686765   25.862636   47.634101
  H    -21.237083   25.509424   45.716000
  H    -19.339570   26.974256   45.564102
  H    -20.626807   28.147271   45.222065
  H    -18.928676   28.629221   47.330248
  H    -20.653431   28.896429   47.587636
  H    -20.453621   27.182046   49.264798
  H    -18.948469   26.557694   48.546890
  C    -23.082912   28.032127   46.831823
  H    -22.769748   28.291396   47.853807
  H    -22.690086   28.790161   46.140006
  O    -22.625438   26.708557   46.460078
  C    -24.609502   27.995981   46.791087
  C    -25.276738   29.338179   47.123489
  C    -25.218144   30.068628   45.755237
  C    -25.420206   28.918007   44.738062
  O    -25.127109   27.658429   45.463727
  H    -24.949086   27.201955   47.462068
  O    -26.647130   29.137273   47.565350
  H    -24.791060   29.890607   47.929391
  H    -25.994838   30.835492   45.695735
  H    -24.244298   30.553803   45.624169
  H    -24.755121   28.993929   43.872560
  H    -26.451928   28.851706   44.379656
  H    -27.062430   28.444964   47.008241

 Multiplicity           Mult            ....    1
 Number of Electrons    NEL             ....  102
 Basis Dimension        Dim             ....  149

ORBITAL ENERGIES
----------------

  NO   OCC          E(Eh)            E(eV)
   0   2.0000     -19.143120      -520.9108
   1   2.0000     -19.141393      -520.8638
   2   2.0000     -19.140164      -520.8303
   3   2.0000     -19.138547      -520.7864
   4   2.0000     -10.277537      -279.6660
   5   2.0000     -10.245562      -278.7959
   6   2.0000     -10.237708      -278.5822
   7   2.0000     -10.235502      -278.5222
   8   2.0000     -10.231225      -278.4058
   9   2.0000     -10.228984      -278.3448
  10   2.0000     -10.195626      -277.4371
  11   2.0000     -10.194719      -277.4124
  12   2.0000     -10.192283      -277.3461
  13   2.0000      -1.051838       -28.6220
  14   2.0000      -1.037111       -28.2212
  15   2.0000      -1.007700       -27.4209
  16   2.0000      -0.995317       -27.0839
  17   2.0000      -0.791078       -21.5263
  18   2.0000      -0.787975       -21.4419
  19   2.0000      -0.772824       -21.0296
  20   2.0000      -0.733731       -19.9658
  21   2.0000      -0.681316       -18.5395
  22   2.0000      -0.608002       -16.5446
  23   2.0000      -0.605056       -16.4644
  24   2.0000      -0.599358       -16.3094
  25   2.0000      -0.578603       -15.7446
  26   2.0000      -0.527091       -14.3429
  27   2.0000      -0.510507       -13.8916
  28   2.0000      -0.501545       -13.6477
  29   2.0000      -0.491932       -13.3861
  30   2.0000      -0.482546       -13.1307
  31   2.0000      -0.462594       -12.5878
  32   2.0000      -0.452530       -12.3140
  33   2.0000      -0.437647       -11.9090
  34   2.0000      -0.431565       -11.7435
  35   2.0000      -0.415259       -11.2998
  36   2.0000      -0.406642       -11.0653
  37   2.0000      -0.395218       -10.7544
  38   2.0000      -0.385308       -10.4848
  39   2.0000      -0.374278       -10.1846
  40   2.0000      -0.364786        -9.9263
  41   2.0000      -0.360876        -9.8199
  42   2.0000      -0.353055        -9.6071
  43   2.0000      -0.331871        -9.0307
  44   2.0000      -0.315163        -8.5760
  45   2.0000      -0.309126        -8.4117
  46   2.0000      -0.296740        -8.0747
  47   2.0000      -0.272983        -7.4282
  48   2.0000      -0.268240        -7.2992
  49   2.0000      -0.251845        -6.8531
  50   2.0000      -0.245801        -6.6886
  51   0.0000       0.059462         1.6180
  52   0.0000       0.073550         2.0014
  53   0.0000       0.079015         2.1501
  54   0.0000       0.095727         2.6049
  55   0.0000       0.102470         2.7883

MULLIKEN ATOMIC CHARGES
-----------------------
   0 C :    0.305669
   1 C :   -0.294211
   2 C :   -0.310401
   3 C :   -0.007294
   4 O :   -0.498607
   5 H :    0.169353
   6 H :    0.159148
   7 H :    0.148281
   8 H :    0.145384
   9 H :    0.142665
  10 H :    0.144075
  11 H :    0.146624
  12 C :    0.005522
  13 H :    0.127582
  14 H :    0.124566
  15 O :   -0.507415
  16 C :    0.063961
  17 C :    0.072671
  18 C :   -0.294995
  19 C :   -0.027655
  20 O :   -0.506899
  21 H :    0.178317
  22 O :   -0.599908
  23 H :    0.149508
  24 H :    0.165766
  25 H :    0.137664
  26 H :    0.146712
  27 H :    0.146475
  28 H :    0.367442
Sum of atomic charges:    0.0000000

LOEWDIN ATOMIC CHARGES
----------------------
   0 C :    0.174859
   1 C :   -0.230909
   2 C :   -0.223491
   3 C :   -0.032823
   4 O :   -0.319981
   5 H :    0.114561
   6 H :    0.124249
   7 H :    0.116415
   8 H :    0.115751
   9 H :    0.106775
  10 H :    0.102353
  11 H :    0.104312
  12 C :   -0.041359
  13 H :    0.094124
  14 H :    0.090064
  15 O :   -0.306178
  16 C :    0.018760
  17 C :    0.034828
  18 C :   -0.242053
  19 C :   -0.038356
  20 O :   -0.317752
  21 H :    0.125341
  22 O :   -0.413165
  23 H :    0.113777
  24 H :    0.127715
  25 H :    0.109668
  26 H :    0.104521
  27 H :    0.103122
  28 H :    0.284873

  Mayer bond orders larger than 0.100000
B(  0-C ,  1-C ) :   0.9234 B(  0-C ,  4-O ) :   0.9010 B(  0-C ,  5-H ) :   0.9347
B(  0-C , 15-O ) :   0.9009 B(  1-C ,  2-C ) :   0.9523 B(  1-C ,  6-H ) :   0.9354
B(  1-C ,  7-H ) :   0.9340 B(  2-C ,  3-C ) :   0.9474 B(  2-C ,  8-H ) :   0.9456
B(  2-C ,  9-H ) :   0.9415 B(  3-C ,  4-O ) :   0.8510 B(  3-C , 10-H ) :   0.9340
B(  3-C , 11-H ) :   0.9386 B( 12-C , 13-H ) :   0.9037 B( 12-C , 14-H ) :   0.9104
B( 12-C , 15-O ) :   0.8494 B( 12-C , 16-C ) :   0.8977 B( 16-C , 17-C ) :   0.9015
B( 16-C , 20-O ) :   0.8671 B( 16-C , 21-H ) :   0.9212 B( 17-C , 18-C ) :   0.9087
B( 17-C , 22-O ) :   0.8969 B( 17-C , 23-H ) :   0.9332 B( 18-C , 19-C ) :   0.9413
B( 18-C , 24-H ) :   0.9370 B( 18-C , 25-H ) :   0.9349 B( 19-C , 20-O ) :   0.8532
B( 19-C , 26-H ) :   0.9340 B( 19-C , 27-H ) :   0.9378 B( 22-O , 28-H ) :   0.7922

FINAL SINGLE POINT ENERGY      -652.853601339429

DIPOLE MOMENT
-------------
                                X             Y             Z
Electronic contribution:     -4.43741      -5.54117       0.65412
Nuclear contribution   :      5.42684       7.05037      -1.12961
                        -----------------------------------------
Total Dipole Moment    :      0.98942       1.50921      -0.47549
                        -----------------------------------------
Magnitude (a.u.)       :      1.86621
Magnitude (Debye)      :      4.74354

Rotational constants in cm-1:     0.057913     0.012204     0.011938
Rotational constants in MHz :  1736.178304   365.868496   357.893401

                             ****ORCA TERMINATED NORMALLY****
TOTAL RUN TIME: 0 days 0 hours 21 minutes 19 seconds 976 msec
