                         Program Version 4.2.0 -  RELEASE  -
|  1> # Test redundant internal optimization
|  2> #
|  3> ! RKS B3LYP  Opt TightSCF SmallPrint
|  4>
|  5> %basis
|  6>         Basis "6-31G"
|  7> end
|  8>
|  9> %geom
| 10> Constraints
| 11> { D 4  0  15  12  180.0   C } # D for Dihedral angle
| 12> { D 0  15  12  16  135.0   C } # D for Dihedral angle
| 13> { D 0  4  3  2   C } # D for Dihedral angle
| 14> { D 4  3  2  1   C } # D for Dihedral angle
| 15> { D 3  2  1  0   C } # D for Dihedral angle
| 16> { D 2  1  0  4   C } # D for Dihedral angle
| 17> { D 1  0  4  3   C } # D for Dihedral angle
| 18> { D 16  20  19  18   C } # D for Dihedral angle
| 19> { D 20  19  18  17   C } # D for Dihedral angle
| 20> { D 19  18  17  16   C } # D for Dihedral angle
| 21> { D 18  17  16  20   C } # D for Dihedral angle
| 22> { D 17  16  20  19   C } # D for Dihedral angle
| 23> { D 15  12  16  20   C } # D for Dihedral angle
| 24> end
| 25> end
| 26>
| 27>
| 28> #%pal
| 29> #nprocs 8
| 30> #end
| 31>
| 32> * xyz 0 1
| 33> C  -21.048   26.222   46.251
| 34> C  -20.361   27.558   45.944
| 35> C  -20.329   28.222   47.341
| 36> C  -20.110   27.022   48.296
| 37> O  -20.473   25.807   47.535
| 38> H  -20.833   25.428   45.533
| 39> H  -19.344   27.382   45.576
| 40> H  -20.898   28.157   45.201
| 41> H  -19.543   28.978   47.434
| 42> H  -21.289   28.710   47.548
| 43> H  -20.733   27.082   49.195
| 44> H  -19.064   26.913   48.597
| 45> C  -23.309   26.834   45.072
| 46> H  -23.576   27.895   45.147
| 47> H  -22.648   26.707   44.205
| 48> O  -22.586   26.394   46.375
| 49> C  -24.605   26.021   44.801
| 50> C  -25.228   26.400   43.453
| 51> C  -24.340   25.608   42.463
| 52> C  -24.018   24.309   43.243
| 53> O  -24.296   24.593   44.667
| 54> H  -25.278   26.125   45.655
| 55> H  -26.265   26.052   43.405
| 56> O  -25.213   27.930   43.183
| 57> H  -24.840   25.409   41.510
| 58> H  -23.422   26.168   42.250
| 59> H  -22.970   24.005   43.137
| 60> H  -24.661   23.475   42.949
| 61> H  -24.184   28.302   43.224
| 62> *
| 63>
| 64>                          ****END OF INPUT****
 Total Charge           Charge          ....    0
 Multiplicity           Mult            ....    1
 Number of Electrons    NEL             ....  102
FINAL SINGLE POINT ENERGY      -652.823165915880
FINAL SINGLE POINT ENERGY      -652.846833792823
FINAL SINGLE POINT ENERGY      -652.851116219978
FINAL SINGLE POINT ENERGY      -652.851843099762
FINAL SINGLE POINT ENERGY      -652.851991038339
FINAL SINGLE POINT ENERGY      -652.852027873374
FINAL SINGLE POINT ENERGY      -652.852035413864
FINAL SINGLE POINT ENERGY      -652.852036492681
                    ***********************HURRAY********************

CARTESIAN COORDINATES (ANGSTROEM)
---------------------------------
  C    -21.044741   26.255935   46.174030
  C    -20.297619   27.572182   45.967438
  C    -20.368040   28.208947   47.378708
  C    -20.269648   26.982553   48.309051
  O    -20.606516   25.808809   47.461457
  H    -20.819100   25.465139   45.451328
  H    -19.259411   27.354917   45.689179
  H    -20.732107   28.208180   45.190802
  H    -19.565946   28.932418   47.552357
  H    -21.328182   28.717089   47.509563
  H    -20.970096   27.018310   49.146734
  H    -19.257021   26.813810   48.686993
  C    -23.140950   26.901748   45.034621
  H    -23.407903   27.962381   45.132584
  H    -22.464959   26.792435   44.172281
  O    -22.487947   26.445030   46.248592
  C    -24.404789   26.070133   44.823291
  C    -25.189411   26.412876   43.545986
  C    -24.421900   25.589120   42.468498
  C    -24.008914   24.318278   43.242277
  O    -24.114174   24.645768   44.687817
  H    -25.020627   26.160789   45.722368
  H    -26.215252   26.051902   43.643249
  O    -25.324313   27.826170   43.255066
  H    -25.040054   25.375142   41.592740
  H    -23.544034   26.157440   42.130030
  H    -22.986606   23.995965   43.021052
  H    -24.687917   23.481350   43.054280
  H    -24.485822   28.183185   42.897626

 Multiplicity           Mult            ....    1
 Number of Electrons    NEL             ....  102
 Basis Dimension        Dim             ....  149

ORBITAL ENERGIES
----------------

  NO   OCC          E(Eh)            E(eV)
   0   2.0000     -19.151966      -521.1515
   1   2.0000     -19.137769      -520.7652
   2   2.0000     -19.137456      -520.7566
   3   2.0000     -19.135365      -520.6998
   4   2.0000     -10.277140      -279.6552
   5   2.0000     -10.246610      -278.8244
   6   2.0000     -10.232608      -278.4434
   7   2.0000     -10.231498      -278.4132
   8   2.0000     -10.229277      -278.3528
   9   2.0000     -10.223042      -278.1831
  10   2.0000     -10.198458      -277.5142
  11   2.0000     -10.187942      -277.2280
  12   2.0000     -10.186758      -277.1958
  13   2.0000      -1.051271       -28.6065
  14   2.0000      -1.034841       -28.1595
  15   2.0000      -1.016471       -27.6596
  16   2.0000      -0.990538       -26.9539
  17   2.0000      -0.786307       -21.3965
  18   2.0000      -0.784045       -21.3350
  19   2.0000      -0.768185       -20.9034
  20   2.0000      -0.730351       -19.8739
  21   2.0000      -0.682899       -18.5826
  22   2.0000      -0.613328       -16.6895
  23   2.0000      -0.601353       -16.3636
  24   2.0000      -0.589922       -16.0526
  25   2.0000      -0.575493       -15.6600
  26   2.0000      -0.529712       -14.4142
  27   2.0000      -0.507679       -13.8146
  28   2.0000      -0.502842       -13.6830
  29   2.0000      -0.491703       -13.3799
  30   2.0000      -0.469939       -12.7877
  31   2.0000      -0.460165       -12.5217
  32   2.0000      -0.447275       -12.1710
  33   2.0000      -0.438083       -11.9209
  34   2.0000      -0.430616       -11.7177
  35   2.0000      -0.412954       -11.2370
  36   2.0000      -0.411061       -11.1855
  37   2.0000      -0.396218       -10.7816
  38   2.0000      -0.380953       -10.3663
  39   2.0000      -0.373524       -10.1641
  40   2.0000      -0.361799        -9.8450
  41   2.0000      -0.354659        -9.6508
  42   2.0000      -0.350394        -9.5347
  43   2.0000      -0.331821        -9.0293
  44   2.0000      -0.315975        -8.5981
  45   2.0000      -0.311120        -8.4660
  46   2.0000      -0.300498        -8.1770
  47   2.0000      -0.272304        -7.4098
  48   2.0000      -0.257187        -6.9984
  49   2.0000      -0.253914        -6.9093
  50   2.0000      -0.236777        -6.4430
  51   0.0000       0.047101         1.2817
  52   0.0000       0.069855         1.9009
  53   0.0000       0.086478         2.3532
  54   0.0000       0.092336         2.5126
  55   0.0000       0.108004         2.9389

MULLIKEN ATOMIC CHARGES
-----------------------
   0 C :    0.305062
   1 C :   -0.279767
   2 C :   -0.298718
   3 C :   -0.000038
   4 O :   -0.499267
   5 H :    0.144961
   6 H :    0.145900
   7 H :    0.137511
   8 H :    0.141846
   9 H :    0.159118
  10 H :    0.156595
  11 H :    0.141025
  12 C :   -0.021861
  13 H :    0.138225
  14 H :    0.109105
  15 O :   -0.499352
  16 C :    0.102653
  17 C :    0.079197
  18 C :   -0.329464
  19 C :   -0.008256
  20 O :   -0.502989
  21 H :    0.169173
  22 H :    0.171983
  23 O :   -0.598981
  24 H :    0.159863
  25 H :    0.130245
  26 H :    0.140472
  27 H :    0.151793
  28 H :    0.353968
Sum of atomic charges:   -0.0000000

LOEWDIN ATOMIC CHARGES
----------------------
   0 C :    0.183107
   1 C :   -0.234830
   2 C :   -0.216994
   3 C :   -0.024579
   4 O :   -0.298945
   5 H :    0.099043
   6 H :    0.114734
   7 H :    0.110617
   8 H :    0.114119
   9 H :    0.117246
  10 H :    0.110718
  11 H :    0.102165
  12 C :   -0.052284
  13 H :    0.101279
  14 H :    0.084589
  15 O :   -0.325144
  16 C :    0.020446
  17 C :    0.033793
  18 C :   -0.243391
  19 C :   -0.030149
  20 O :   -0.311806
  21 H :    0.122547
  22 H :    0.121243
  23 O :   -0.407706
  24 H :    0.123547
  25 H :    0.101857
  26 H :    0.101151
  27 H :    0.107141
  28 H :    0.276485

  Mayer bond orders larger than 0.100000
B(  0-C ,  1-C ) :   0.9251 B(  0-C ,  4-O ) :   0.9415 B(  0-C ,  5-H ) :   0.9190
B(  0-C , 15-O ) :   0.8355 B(  1-C ,  2-C ) :   0.9516 B(  1-C ,  6-H ) :   0.9340
B(  1-C ,  7-H ) :   0.9335 B(  2-C ,  3-C ) :   0.9561 B(  2-C ,  8-H ) :   0.9451
B(  2-C ,  9-H ) :   0.9448 B(  3-C ,  4-O ) :   0.8359 B(  3-C , 10-H ) :   0.9340
B(  3-C , 11-H ) :   0.9398 B( 12-C , 13-H ) :   0.9091 B( 12-C , 14-H ) :   0.9176
B( 12-C , 15-O ) :   0.8547 B( 12-C , 16-C ) :   0.8962 B( 16-C , 17-C ) :   0.8707
B( 16-C , 20-O ) :   0.8707 B( 16-C , 21-H ) :   0.9292 B( 17-C , 18-C ) :   0.9256
B( 17-C , 22-H ) :   0.9315 B( 17-C , 23-O ) :   0.8940 B( 18-C , 19-C ) :   0.9376
B( 18-C , 24-H ) :   0.9418 B( 18-C , 25-H ) :   0.9401 B( 19-C , 20-O ) :   0.8532
B( 19-C , 26-H ) :   0.9323 B( 19-C , 27-H ) :   0.9374 B( 23-O , 28-H ) :   0.7996

FINAL SINGLE POINT ENERGY      -652.852036540417

DIPOLE MOMENT
-------------
                                X             Y             Z
Electronic contribution:     -3.20103      -3.13383       2.12823
Nuclear contribution   :      4.01269       4.08422      -3.45362
                        -----------------------------------------
Total Dipole Moment    :      0.81166       0.95040      -1.32539
                        -----------------------------------------
Magnitude (a.u.)       :      1.82173
Magnitude (Debye)      :      4.63047

Rotational constants in cm-1:     0.056821     0.012595     0.011452
Rotational constants in MHz :  1703.442915   377.585254   343.322280

                             ****ORCA TERMINATED NORMALLY****
TOTAL RUN TIME: 0 days 1 hours 56 minutes 17 seconds 506 msec
