                         Program Version 4.2.0 -  RELEASE  -
|  1> # Test redundant internal optimization
|  2> #
|  3> ! RKS B3LYP  Opt TightSCF SmallPrint
|  4>
|  5> %basis
|  6>         Basis "6-31G"
|  7> end
|  8>
|  9> %geom
| 10> Constraints
| 11> { D 4  0  15  12  75.0   C } # D for Dihedral angle
| 12> { D 0  15  12  16  210.0   C } # D for Dihedral angle
| 13> { D 0  4  3  2   C } # D for Dihedral angle
| 14> { D 4  3  2  1   C } # D for Dihedral angle
| 15> { D 3  2  1  0   C } # D for Dihedral angle
| 16> { D 2  1  0  4   C } # D for Dihedral angle
| 17> { D 1  0  4  3   C } # D for Dihedral angle
| 18> { D 16  20  19  18   C } # D for Dihedral angle
| 19> { D 20  19  18  17   C } # D for Dihedral angle
| 20> { D 19  18  17  16   C } # D for Dihedral angle
| 21> { D 18  17  16  20   C } # D for Dihedral angle
| 22> { D 17  16  20  19   C } # D for Dihedral angle
| 23> { D 15  12  16  20   C } # D for Dihedral angle
| 24> end
| 25> end
| 26>
| 27>
| 28> #%pal
| 29> #nprocs 8
| 30> #end
| 31>
| 32> * xyz 0 1
| 33> C  -21.048   26.222   46.251
| 34> C  -20.361   27.558   45.944
| 35> C  -20.329   28.222   47.341
| 36> C  -20.110   27.022   48.296
| 37> O  -20.473   25.807   47.535
| 38> H  -20.833   25.428   45.533
| 39> H  -19.344   27.382   45.576
| 40> H  -20.898   28.157   45.201
| 41> H  -19.543   28.978   47.434
| 42> H  -21.289   28.710   47.548
| 43> H  -20.733   27.082   49.195
| 44> H  -19.064   26.913   48.597
| 45> C  -23.049   27.675   47.122
| 46> H  -22.290   27.957   47.862
| 47> H  -23.168   28.508   46.418
| 48> O  -22.586   26.394   46.375
| 49> C  -24.403   27.483   47.860
| 50> C  -25.497   26.999   46.901
| 51> C  -25.169   25.491   46.788
| 52> C  -24.658   25.134   48.206
| 53> O  -24.296   26.412   48.857
| 54> H  -24.649   28.399   48.400
| 55> O  -26.896   27.208   47.540
| 56> H  -25.479   27.511   45.933
| 57> H  -26.034   24.889   46.493
| 58> H  -24.380   25.332   46.042
| 59> H  -23.779   24.481   48.184
| 60> H  -25.431   24.667   48.823
| 61> H  -26.938   26.703   48.512
| 62> *
| 63>
| 64>                          ****END OF INPUT****
 Total Charge           Charge          ....    0
 Multiplicity           Mult            ....    1
 Number of Electrons    NEL             ....  102
FINAL SINGLE POINT ENERGY      -652.803843957613
FINAL SINGLE POINT ENERGY      -652.837126318964
FINAL SINGLE POINT ENERGY      -652.854314409351
FINAL SINGLE POINT ENERGY      -652.857535296961
FINAL SINGLE POINT ENERGY      -652.857931489566
FINAL SINGLE POINT ENERGY      -652.858004531552
FINAL SINGLE POINT ENERGY      -652.858014992979
FINAL SINGLE POINT ENERGY      -652.858014466086
                    ***********************HURRAY********************

CARTESIAN COORDINATES (ANGSTROEM)
---------------------------------
  C    -21.182820   26.386292   46.434807
  C    -20.308543   27.554184   45.955755
  C    -19.976074   28.282218   47.291488
  C    -19.860225   27.105310   48.294260
  O    -20.538794   25.951525   47.651991
  H    -21.146841   25.526772   45.763495
  H    -19.400083   27.145063   45.502585
  H    -20.810272   28.191658   45.222337
  H    -19.042713   28.850687   47.227805
  H    -20.766774   28.982584   47.569780
  H    -20.339044   27.305992   49.256949
  H    -18.822008   26.807087   48.465877
  C    -23.177211   27.756355   47.217296
  H    -22.538247   28.074818   48.046138
  H    -23.288632   28.589908   46.509027
  O    -22.605203   26.596838   46.547941
  C    -24.532226   27.394641   47.829551
  C    -25.619633   26.895047   46.867376
  C    -25.260879   25.390138   46.737507
  C    -24.739576   25.033662   48.151635
  O    -24.402800   26.320560   48.810137
  H    -24.892935   28.279392   48.368351
  O    -26.941842   27.103487   47.440818
  H    -25.637059   27.420103   45.912180
  H    -26.140334   24.808030   46.447658
  H    -24.471795   25.265596   45.994838
  H    -23.838309   24.417539   48.120662
  H    -25.494868   24.543621   48.775461
  H    -26.951259   26.744894   48.353297

 Multiplicity           Mult            ....    1
 Number of Electrons    NEL             ....  102
 Basis Dimension        Dim             ....  149

ORBITAL ENERGIES
----------------

  NO   OCC          E(Eh)            E(eV)
   0   2.0000     -19.149318      -521.0794
   1   2.0000     -19.143242      -520.9141
   2   2.0000     -19.133375      -520.6456
   3   2.0000     -19.131811      -520.6030
   4   2.0000     -10.282671      -279.8057
   5   2.0000     -10.235608      -278.5251
   6   2.0000     -10.232730      -278.4467
   7   2.0000     -10.231717      -278.4192
   8   2.0000     -10.230869      -278.3961
   9   2.0000     -10.216725      -278.0112
  10   2.0000     -10.196332      -277.4563
  11   2.0000     -10.195525      -277.4343
  12   2.0000     -10.171284      -276.7747
  13   2.0000      -1.055314       -28.7166
  14   2.0000      -1.028789       -27.9948
  15   2.0000      -1.002774       -27.2869
  16   2.0000      -0.994212       -27.0539
  17   2.0000      -0.792025       -21.5521
  18   2.0000      -0.779300       -21.2058
  19   2.0000      -0.761407       -20.7189
  20   2.0000      -0.733901       -19.9705
  21   2.0000      -0.677122       -18.4254
  22   2.0000      -0.608069       -16.5464
  23   2.0000      -0.603347       -16.4179
  24   2.0000      -0.592465       -16.1218
  25   2.0000      -0.568032       -15.4569
  26   2.0000      -0.523627       -14.2486
  27   2.0000      -0.510257       -13.8848
  28   2.0000      -0.499408       -13.5896
  29   2.0000      -0.483140       -13.1469
  30   2.0000      -0.475249       -12.9322
  31   2.0000      -0.457970       -12.4620
  32   2.0000      -0.447597       -12.1797
  33   2.0000      -0.434431       -11.8215
  34   2.0000      -0.424936       -11.5631
  35   2.0000      -0.415929       -11.3180
  36   2.0000      -0.402507       -10.9528
  37   2.0000      -0.386519       -10.5177
  38   2.0000      -0.382470       -10.4076
  39   2.0000      -0.364409        -9.9161
  40   2.0000      -0.363184        -9.8827
  41   2.0000      -0.357768        -9.7354
  42   2.0000      -0.348560        -9.4848
  43   2.0000      -0.324661        -8.8345
  44   2.0000      -0.316411        -8.6100
  45   2.0000      -0.306298        -8.3348
  46   2.0000      -0.295249        -8.0341
  47   2.0000      -0.273996        -7.4558
  48   2.0000      -0.262009        -7.1296
  49   2.0000      -0.256080        -6.9683
  50   2.0000      -0.238201        -6.4818
  51   0.0000       0.067565         1.8385
  52   0.0000       0.077899         2.1198
  53   0.0000       0.090137         2.4528
  54   0.0000       0.106064         2.8862
  55   0.0000       0.107280         2.9192

MULLIKEN ATOMIC CHARGES
-----------------------
   0 C :    0.306252
   1 C :   -0.280476
   2 C :   -0.318769
   3 C :   -0.011432
   4 O :   -0.499431
   5 H :    0.163227
   6 H :    0.157695
   7 H :    0.148471
   8 H :    0.147199
   9 H :    0.149337
  10 H :    0.154378
  11 H :    0.147796
  12 C :   -0.001663
  13 H :    0.150169
  14 H :    0.127575
  15 O :   -0.527121
  16 C :    0.068488
  17 C :    0.079919
  18 C :   -0.288644
  19 C :   -0.023149
  20 O :   -0.525177
  21 H :    0.151904
  22 O :   -0.604694
  23 H :    0.147000
  24 H :    0.145269
  25 H :    0.176668
  26 H :    0.163477
  27 H :    0.133199
  28 H :    0.362530
Sum of atomic charges:    0.0000000

LOEWDIN ATOMIC CHARGES
----------------------
   0 C :    0.174987
   1 C :   -0.228903
   2 C :   -0.225269
   3 C :   -0.033427
   4 O :   -0.317622
   5 H :    0.111561
   6 H :    0.123132
   7 H :    0.117935
   8 H :    0.116481
   9 H :    0.109602
  10 H :    0.107203
  11 H :    0.105334
  12 C :   -0.040851
  13 H :    0.107016
  14 H :    0.095571
  15 O :   -0.320781
  16 C :    0.014670
  17 C :    0.039447
  18 C :   -0.242113
  19 C :   -0.033757
  20 O :   -0.328679
  21 H :    0.113991
  22 O :   -0.418476
  23 H :    0.114117
  24 H :    0.116858
  25 H :    0.131317
  26 H :    0.114174
  27 H :    0.094764
  28 H :    0.281718

  Mayer bond orders larger than 0.100000
B(  0-C ,  1-C ) :   0.9205 B(  0-C ,  4-O ) :   0.9105 B(  0-C ,  5-H ) :   0.9367
B(  0-C , 15-O ) :   0.8907 B(  1-C ,  2-C ) :   0.9545 B(  1-C ,  6-H ) :   0.9353
B(  1-C ,  7-H ) :   0.9370 B(  2-C ,  3-C ) :   0.9468 B(  2-C ,  8-H ) :   0.9449
B(  2-C ,  9-H ) :   0.9401 B(  3-C ,  4-O ) :   0.8435 B(  3-C , 10-H ) :   0.9320
B(  3-C , 11-H ) :   0.9385 B( 12-C , 13-H ) :   0.9079 B( 12-C , 14-H ) :   0.9140
B( 12-C , 15-O ) :   0.8419 B( 12-C , 16-C ) :   0.8966 B( 16-C , 17-C ) :   0.9100
B( 16-C , 20-O ) :   0.8814 B( 16-C , 21-H ) :   0.9220 B( 17-C , 18-C ) :   0.9253
B( 17-C , 22-O ) :   0.8909 B( 17-C , 23-H ) :   0.9362 B( 18-C , 19-C ) :   0.9467
B( 18-C , 24-H ) :   0.9376 B( 18-C , 25-H ) :   0.9187 B( 19-C , 20-O ) :   0.8338
B( 19-C , 26-H ) :   0.9319 B( 19-C , 27-H ) :   0.9369 B( 22-O , 28-H ) :   0.7960

FINAL SINGLE POINT ENERGY      -652.858013311571

DIPOLE MOMENT
-------------
                                X             Y             Z
Electronic contribution:     -3.62915      -2.12818       1.35604
Nuclear contribution   :      4.68706       2.82618      -1.78226
                        -----------------------------------------
Total Dipole Moment    :      1.05792       0.69800      -0.42622
                        -----------------------------------------
Magnitude (a.u.)       :      1.33718
Magnitude (Debye)      :      3.39885

Rotational constants in cm-1:     0.060179     0.014069     0.013634
Rotational constants in MHz :  1804.118164   421.772427   408.739853

                             ****ORCA TERMINATED NORMALLY****
TOTAL RUN TIME: 0 days 1 hours 19 minutes 1 seconds 664 msec
