                         Program Version 4.2.0 -  RELEASE  -
|  1> # Test redundant internal optimization
|  2> #
|  3> ! RKS B3LYP  Opt TightSCF SmallPrint
|  4>
|  5> %basis
|  6>         Basis "6-31G"
|  7> end
|  8>
|  9> %geom
| 10> Constraints
| 11> { D 4  0  15  12  315.0   C } # D for Dihedral angle
| 12> { D 0  15  12  16  75.0   C } # D for Dihedral angle
| 13> { D 0  4  3  2   C } # D for Dihedral angle
| 14> { D 4  3  2  1   C } # D for Dihedral angle
| 15> { D 3  2  1  0   C } # D for Dihedral angle
| 16> { D 2  1  0  4   C } # D for Dihedral angle
| 17> { D 1  0  4  3   C } # D for Dihedral angle
| 18> { D 16  20  19  18   C } # D for Dihedral angle
| 19> { D 20  19  18  17   C } # D for Dihedral angle
| 20> { D 19  18  17  16   C } # D for Dihedral angle
| 21> { D 18  17  16  20   C } # D for Dihedral angle
| 22> { D 17  16  20  19   C } # D for Dihedral angle
| 23> { D 15  12  16  20   C } # D for Dihedral angle
| 24> end
| 25> end
| 26>
| 27>
| 28> #%pal
| 29> #nprocs 8
| 30> #end
| 31>
| 32> * xyz 0 1
| 33> C  -21.048   26.222   46.251
| 34> C  -20.361   27.558   45.944
| 35> C  -20.329   28.222   47.341
| 36> C  -20.110   27.022   48.296
| 37> O  -20.473   25.807   47.535
| 38> H  -20.833   25.428   45.533
| 39> H  -19.344   27.382   45.576
| 40> H  -20.898   28.157   45.201
| 41> H  -19.543   28.978   47.434
| 42> H  -21.289   28.710   47.548
| 43> H  -20.733   27.082   49.195
| 44> H  -19.064   26.913   48.597
| 45> C  -23.319   25.255   47.135
| 46> H  -24.395   25.319   46.933
| 47> H  -22.963   24.274   46.793
| 48> O  -22.586   26.394   46.375
| 49> C  -23.106   25.324   48.673
| 50> C  -23.745   24.123   49.378
| 51> C  -22.693   23.017   49.127
| 52> C  -21.351   23.788   49.184
| 53> O  -21.680   25.218   48.998
| 54> H  -23.446   26.296   49.037
| 55> H  -23.845   24.325   50.450
| 56> O  -25.146   23.760   48.816
| 57> H  -22.741   22.209   49.866
| 58> H  -22.842   22.573   48.136
| 59> H  -20.654   23.476   48.398
| 60> H  -20.855   23.695   50.154
| 61> H  -25.071   23.552   47.743
| 62> *
| 63>
| 64>                          ****END OF INPUT****
 Total Charge           Charge          ....    0
 Multiplicity           Mult            ....    1
 Number of Electrons    NEL             ....  102
FINAL SINGLE POINT ENERGY      -652.779165015550
FINAL SINGLE POINT ENERGY      -652.823053318726
FINAL SINGLE POINT ENERGY      -652.845925093202
FINAL SINGLE POINT ENERGY      -652.851367064156
FINAL SINGLE POINT ENERGY      -652.852210837782
FINAL SINGLE POINT ENERGY      -652.852393040234
FINAL SINGLE POINT ENERGY      -652.852415133930
FINAL SINGLE POINT ENERGY      -652.852419045658
                    ***********************HURRAY********************

CARTESIAN COORDINATES (ANGSTROEM)
---------------------------------
  C    -20.946825   26.274954   46.220202
  C    -20.545428   27.708520   45.885093
  C    -20.360064   28.326602   47.290094
  C    -19.786856   27.150849   48.112846
  O    -20.108447   25.927268   47.327506
  H    -20.743652   25.523352   45.448702
  H    -19.597473   27.696694   45.333882
  H    -21.300817   28.219022   45.284510
  H    -19.694232   29.195090   47.282690
  H    -21.331817   28.636734   47.684466
  H    -20.235775   27.038169   49.099894
  H    -18.696043   27.182626   48.199007
  C    -23.126736   25.305432   47.171738
  H    -24.171278   25.524607   46.932279
  H    -22.876199   24.316823   46.746093
  O    -22.387571   26.320171   46.446663
  C    -23.030027   25.239561   48.711028
  C    -23.870920   24.070950   49.253224
  C    -22.859929   22.879899   49.182808
  C    -21.517891   23.570990   49.515963
  O    -21.723999   25.022959   49.299180
  H    -23.370778   26.201682   49.108979
  H    -24.137308   24.272231   50.293080
  O    -25.140164   23.839316   48.594951
  H    -23.117213   22.081776   49.883508
  H    -22.855038   22.456993   48.169725
  H    -20.692092   23.242395   48.879279
  H    -21.235460   23.441061   50.564874
  H    -25.002972   23.412277   47.724735

 Multiplicity           Mult            ....    1
 Number of Electrons    NEL             ....  102
 Basis Dimension        Dim             ....  149

ORBITAL ENERGIES
----------------

  NO   OCC          E(Eh)            E(eV)
   0   2.0000     -19.149176      -521.0756
   1   2.0000     -19.135003      -520.6899
   2   2.0000     -19.134923      -520.6877
   3   2.0000     -19.131216      -520.5868
   4   2.0000     -10.270671      -279.4792
   5   2.0000     -10.244154      -278.7576
   6   2.0000     -10.229110      -278.3482
   7   2.0000     -10.228949      -278.3438
   8   2.0000     -10.226585      -278.2795
   9   2.0000     -10.211634      -277.8727
  10   2.0000     -10.194164      -277.3973
  11   2.0000     -10.175967      -276.9021
  12   2.0000     -10.175376      -276.8861
  13   2.0000      -1.042609       -28.3708
  14   2.0000      -1.032255       -28.0891
  15   2.0000      -1.014997       -27.6195
  16   2.0000      -0.986227       -26.8366
  17   2.0000      -0.782636       -21.2966
  18   2.0000      -0.777789       -21.1647
  19   2.0000      -0.762020       -20.7356
  20   2.0000      -0.726324       -19.7643
  21   2.0000      -0.675062       -18.3694
  22   2.0000      -0.610488       -16.6122
  23   2.0000      -0.592221       -16.1152
  24   2.0000      -0.588407       -16.0114
  25   2.0000      -0.564578       -15.3630
  26   2.0000      -0.523424       -14.2431
  27   2.0000      -0.511231       -13.9113
  28   2.0000      -0.491435       -13.3726
  29   2.0000      -0.478568       -13.0225
  30   2.0000      -0.462834       -12.5944
  31   2.0000      -0.451609       -12.2889
  32   2.0000      -0.442494       -12.0409
  33   2.0000      -0.427500       -11.6329
  34   2.0000      -0.420796       -11.4504
  35   2.0000      -0.414104       -11.2684
  36   2.0000      -0.401222       -10.9178
  37   2.0000      -0.393036       -10.6951
  38   2.0000      -0.379701       -10.3322
  39   2.0000      -0.364306        -9.9133
  40   2.0000      -0.348760        -9.4902
  41   2.0000      -0.347829        -9.4649
  42   2.0000      -0.337314        -9.1788
  43   2.0000      -0.329296        -8.9606
  44   2.0000      -0.319070        -8.6823
  45   2.0000      -0.311817        -8.4850
  46   2.0000      -0.286305        -7.7908
  47   2.0000      -0.271705        -7.3935
  48   2.0000      -0.264271        -7.1912
  49   2.0000      -0.250297        -6.8109
  50   2.0000      -0.223765        -6.0890
  51   0.0000       0.054192         1.4746
  52   0.0000       0.079106         2.1526
  53   0.0000       0.091353         2.4858
  54   0.0000       0.101137         2.7521
  55   0.0000       0.112424         3.0592

MULLIKEN ATOMIC CHARGES
-----------------------
   0 C :    0.306701
   1 C :   -0.263107
   2 C :   -0.302230
   3 C :   -0.010189
   4 O :   -0.498810
   5 H :    0.136797
   6 H :    0.139868
   7 H :    0.155958
   8 H :    0.136913
   9 H :    0.156834
  10 H :    0.168417
  11 H :    0.137779
  12 C :   -0.001590
  13 H :    0.160169
  14 H :    0.101361
  15 O :   -0.542797
  16 C :    0.106784
  17 C :    0.074406
  18 C :   -0.325155
  19 C :   -0.001237
  20 O :   -0.503209
  21 H :    0.148136
  22 H :    0.167812
  23 O :   -0.599798
  24 H :    0.158393
  25 H :    0.134309
  26 H :    0.157159
  27 H :    0.143007
  28 H :    0.357319
Sum of atomic charges:    0.0000000

LOEWDIN ATOMIC CHARGES
----------------------
   0 C :    0.178074
   1 C :   -0.215521
   2 C :   -0.217581
   3 C :   -0.031159
   4 O :   -0.310960
   5 H :    0.092375
   6 H :    0.110585
   7 H :    0.122919
   8 H :    0.111731
   9 H :    0.116061
  10 H :    0.116249
  11 H :    0.100006
  12 C :   -0.047160
  13 H :    0.120423
  14 H :    0.079098
  15 O :   -0.337803
  16 C :    0.011377
  17 C :    0.033611
  18 C :   -0.241758
  19 C :   -0.026519
  20 O :   -0.304826
  21 H :    0.110476
  22 H :    0.118722
  23 O :   -0.407329
  24 H :    0.122623
  25 H :    0.104421
  26 H :    0.110078
  27 H :    0.103341
  28 H :    0.278448

  Mayer bond orders larger than 0.100000
B(  0-C ,  1-C ) :   0.9445 B(  0-C ,  4-O ) :   0.9386 B(  0-C ,  5-H ) :   0.9253
B(  0-C , 15-O ) :   0.8310 B(  1-C ,  2-C ) :   0.9591 B(  1-C ,  6-H ) :   0.9400
B(  1-C ,  7-H ) :   0.9367 B(  2-C ,  3-C ) :   0.9577 B(  2-C ,  8-H ) :   0.9452
B(  2-C ,  9-H ) :   0.9446 B(  3-C ,  4-O ) :   0.8239 B(  3-C , 10-H ) :   0.9222
B(  3-C , 11-H ) :   0.9415 B( 12-C , 13-H ) :   0.9192 B( 12-C , 14-H ) :   0.9222
B( 12-C , 15-O ) :   0.8574 B( 12-C , 16-C ) :   0.8798 B( 16-C , 17-C ) :   0.8653
B( 16-C , 20-O ) :   0.8730 B( 16-C , 21-H ) :   0.9328 B( 17-C , 18-C ) :   0.9255
B( 17-C , 22-H ) :   0.9337 B( 17-C , 23-O ) :   0.8970 B( 18-C , 19-C ) :   0.9396
B( 18-C , 24-H ) :   0.9418 B( 18-C , 25-H ) :   0.9394 B( 19-C , 20-O ) :   0.8393
B( 19-C , 26-H ) :   0.9273 B( 19-C , 27-H ) :   0.9390 B( 23-O , 28-H ) :   0.7967

FINAL SINGLE POINT ENERGY      -652.852419346895

DIPOLE MOMENT
-------------
                                X             Y             Z
Electronic contribution:     -2.05060      -0.96944      -0.00606
Nuclear contribution   :      2.36442       0.51750      -0.11805
                        -----------------------------------------
Total Dipole Moment    :      0.31381      -0.45194      -0.12411
                        -----------------------------------------
Magnitude (a.u.)       :      0.56403
Magnitude (Debye)      :      1.43366

Rotational constants in cm-1:     0.052738     0.016360     0.014211
Rotational constants in MHz :  1581.033685   490.468295   426.026942

                             ****ORCA TERMINATED NORMALLY****
TOTAL RUN TIME: 0 days 2 hours 38 minutes 39 seconds 345 msec
