                         Program Version 4.2.0 -  RELEASE  -
|  1> # Test redundant internal optimization
|  2> #
|  3> ! RKS B3LYP  Opt TightSCF SmallPrint
|  4>
|  5> %basis
|  6>         Basis "6-31G"
|  7> end
|  8>
|  9> %geom
| 10> Constraints
| 11> { D 4  0  15  12  120.0   C } # D for Dihedral angle
| 12> { D 0  15  12  16  195.0   C } # D for Dihedral angle
| 13> { D 0  4  3  2   C } # D for Dihedral angle
| 14> { D 4  3  2  1   C } # D for Dihedral angle
| 15> { D 3  2  1  0   C } # D for Dihedral angle
| 16> { D 2  1  0  4   C } # D for Dihedral angle
| 17> { D 1  0  4  3   C } # D for Dihedral angle
| 18> { D 16  20  19  18   C } # D for Dihedral angle
| 19> { D 20  19  18  17   C } # D for Dihedral angle
| 20> { D 19  18  17  16   C } # D for Dihedral angle
| 21> { D 18  17  16  20   C } # D for Dihedral angle
| 22> { D 17  16  20  19   C } # D for Dihedral angle
| 23> { D 15  12  16  20   C } # D for Dihedral angle
| 24> end
| 25> end
| 26>
| 27>
| 28> #%pal
| 29> #nprocs 8
| 30> #end
| 31>
| 32> * xyz 0 1
| 33> C  -21.048   26.222   46.251
| 34> C  -20.361   27.558   45.944
| 35> C  -20.329   28.222   47.341
| 36> C  -20.110   27.022   48.296
| 37> O  -20.473   25.807   47.535
| 38> H  -20.833   25.428   45.533
| 39> H  -19.344   27.382   45.576
| 40> H  -20.898   28.157   45.201
| 41> H  -19.543   28.978   47.434
| 42> H  -21.289   28.710   47.548
| 43> H  -20.733   27.082   49.195
| 44> H  -19.064   26.913   48.597
| 45> C  -23.119   27.818   46.058
| 46> H  -22.477   28.562   46.546
| 47> H  -23.098   28.004   44.976
| 48> O  -22.586   26.394   46.375
| 49> C  -24.578   28.036   46.547
| 50> C  -25.110   29.407   46.116
| 51> C  -25.481   29.149   44.636
| 52> C  -25.987   27.685   44.651
| 53> O  -25.483   27.079   45.902
| 54> H  -24.627   27.849   47.621
| 55> H  -26.001   29.666   46.699
| 56> O  -24.068   30.547   46.285
| 57> H  -26.235   29.848   44.259
| 58> H  -24.591   29.244   44.003
| 59> H  -25.618   27.105   43.797
| 60> H  -27.078   27.621   44.678
| 61> H  -23.166   30.311   45.710
| 62> *
| 63>
| 64>                          ****END OF INPUT****
 Total Charge           Charge          ....    0
 Multiplicity           Mult            ....    1
 Number of Electrons    NEL             ....  102
FINAL SINGLE POINT ENERGY      -652.810333173423
FINAL SINGLE POINT ENERGY      -652.835593456793
FINAL SINGLE POINT ENERGY      -652.843660656608
FINAL SINGLE POINT ENERGY      -652.845844971074
FINAL SINGLE POINT ENERGY      -652.846264940959
FINAL SINGLE POINT ENERGY      -652.846397748344
FINAL SINGLE POINT ENERGY      -652.846415001857
FINAL SINGLE POINT ENERGY      -652.846409101099
FINAL SINGLE POINT ENERGY      -652.846406917679
                    ***********************HURRAY********************

CARTESIAN COORDINATES (ANGSTROEM)
---------------------------------
  C    -21.143884   26.318628   46.319546
  C    -20.151640   27.439262   45.986487
  C    -20.008371   28.166225   47.355180
  C    -20.112460   26.996014   48.363779
  O    -20.727667   25.870342   47.625202
  H    -21.055870   25.441758   45.675115
  H    -19.200306   26.982804   45.695007
  H    -20.476794   28.097116   45.175589
  H    -19.056977   28.700312   47.441055
  H    -20.811623   28.892902   47.507709
  H    -20.731861   27.234176   49.233021
  H    -19.132299   26.651562   48.705913
  C    -23.054720   27.967087   45.976554
  H    -22.514340   28.764378   46.499665
  H    -22.970994   28.141488   44.892521
  O    -22.557103   26.647126   46.304461
  C    -24.513124   28.020937   46.429314
  C    -25.209875   29.356299   46.121104
  C    -25.656526   29.151732   44.642014
  C    -26.008535   27.648313   44.600028
  O    -25.358772   27.025670   45.780123
  H    -24.536046   27.777129   47.495228
  H    -26.080173   29.468054   46.771168
  O    -24.412979   30.543972   46.363600
  H    -26.496742   29.796296   44.370004
  H    -24.819250   29.384948   43.969880
  H    -25.652256   27.152254   43.691878
  H    -27.084363   27.473025   44.697107
  H    -23.792449   30.696192   45.621750

 Multiplicity           Mult            ....    1
 Number of Electrons    NEL             ....  102
 Basis Dimension        Dim             ....  149

ORBITAL ENERGIES
----------------

  NO   OCC          E(Eh)            E(eV)
   0   2.0000     -19.152923      -521.1775
   1   2.0000     -19.136100      -520.7197
   2   2.0000     -19.135833      -520.7125
   3   2.0000     -19.134891      -520.6869
   4   2.0000     -10.276665      -279.6423
   5   2.0000     -10.246620      -278.8247
   6   2.0000     -10.232713      -278.4463
   7   2.0000     -10.229746      -278.3655
   8   2.0000     -10.229707      -278.3645
   9   2.0000     -10.225418      -278.2478
  10   2.0000     -10.198115      -277.5048
  11   2.0000     -10.194799      -277.4146
  12   2.0000     -10.193846      -277.3887
  13   2.0000      -1.047836       -28.5131
  14   2.0000      -1.034866       -28.1601
  15   2.0000      -1.015628       -27.6366
  16   2.0000      -0.991142       -26.9704
  17   2.0000      -0.789496       -21.4833
  18   2.0000      -0.784236       -21.3402
  19   2.0000      -0.771220       -20.9860
  20   2.0000      -0.731845       -19.9145
  21   2.0000      -0.684725       -18.6323
  22   2.0000      -0.613083       -16.6828
  23   2.0000      -0.605587       -16.4789
  24   2.0000      -0.593678       -16.1548
  25   2.0000      -0.571051       -15.5391
  26   2.0000      -0.526150       -14.3173
  27   2.0000      -0.513554       -13.9745
  28   2.0000      -0.501365       -13.6428
  29   2.0000      -0.497107       -13.5270
  30   2.0000      -0.469298       -12.7702
  31   2.0000      -0.460196       -12.5226
  32   2.0000      -0.442540       -12.0421
  33   2.0000      -0.436764       -11.8850
  34   2.0000      -0.430275       -11.7084
  35   2.0000      -0.416002       -11.3200
  36   2.0000      -0.415230       -11.2990
  37   2.0000      -0.400272       -10.8920
  38   2.0000      -0.382502       -10.4084
  39   2.0000      -0.378724       -10.3056
  40   2.0000      -0.362879        -9.8744
  41   2.0000      -0.356387        -9.6978
  42   2.0000      -0.350044        -9.5252
  43   2.0000      -0.330726        -8.9995
  44   2.0000      -0.317318        -8.6347
  45   2.0000      -0.310981        -8.4622
  46   2.0000      -0.288458        -7.8493
  47   2.0000      -0.272843        -7.4244
  48   2.0000      -0.264290        -7.1917
  49   2.0000      -0.247118        -6.7244
  50   2.0000      -0.239892        -6.5278
  51   0.0000       0.044581         1.2131
  52   0.0000       0.071598         1.9483
  53   0.0000       0.084778         2.3069
  54   0.0000       0.091363         2.4861
  55   0.0000       0.100405         2.7322

MULLIKEN ATOMIC CHARGES
-----------------------
   0 C :    0.317705
   1 C :   -0.298372
   2 C :   -0.314631
   3 C :   -0.002586
   4 O :   -0.493977
   5 H :    0.159772
   6 H :    0.156774
   7 H :    0.139866
   8 H :    0.145249
   9 H :    0.157551
  10 H :    0.150113
  11 H :    0.144454
  12 C :   -0.008120
  13 H :    0.128141
  14 H :    0.112768
  15 O :   -0.515601
  16 C :    0.097975
  17 C :    0.076617
  18 C :   -0.330268
  19 C :   -0.007239
  20 O :   -0.498650
  21 H :    0.169563
  22 H :    0.172205
  23 O :   -0.598616
  24 H :    0.159229
  25 H :    0.131632
  26 H :    0.144147
  27 H :    0.150577
  28 H :    0.353723
Sum of atomic charges:   -0.0000000

LOEWDIN ATOMIC CHARGES
----------------------
   0 C :    0.181246
   1 C :   -0.231973
   2 C :   -0.222393
   3 C :   -0.030143
   4 O :   -0.311806
   5 H :    0.107266
   6 H :    0.123298
   7 H :    0.112328
   8 H :    0.115867
   9 H :    0.110511
  10 H :    0.106328
  11 H :    0.103608
  12 C :   -0.048582
  13 H :    0.095395
  14 H :    0.083342
  15 O :   -0.316610
  16 C :    0.023808
  17 C :    0.032941
  18 C :   -0.242996
  19 C :   -0.029598
  20 O :   -0.307986
  21 H :    0.122642
  22 H :    0.121123
  23 O :   -0.408966
  24 H :    0.122793
  25 H :    0.102429
  26 H :    0.103321
  27 H :    0.106323
  28 H :    0.276484

  Mayer bond orders larger than 0.100000
B(  0-C ,  1-C ) :   0.9288 B(  0-C ,  4-O ) :   0.9151 B(  0-C ,  5-H ) :   0.9314
B(  0-C , 15-O ) :   0.8769 B(  1-C ,  2-C ) :   0.9510 B(  1-C ,  6-H ) :   0.9347
B(  1-C ,  7-H ) :   0.9322 B(  2-C ,  3-C ) :   0.9481 B(  2-C ,  8-H ) :   0.9456
B(  2-C ,  9-H ) :   0.9364 B(  3-C ,  4-O ) :   0.8478 B(  3-C , 10-H ) :   0.9339
B(  3-C , 11-H ) :   0.9393 B( 12-C , 13-H ) :   0.8841 B( 12-C , 14-H ) :   0.9175
B( 12-C , 15-O ) :   0.8537 B( 12-C , 16-C ) :   0.9035 B( 16-C , 17-C ) :   0.8696
B( 16-C , 20-O ) :   0.8766 B( 16-C , 21-H ) :   0.9278 B( 17-C , 18-C ) :   0.9274
B( 17-C , 22-H ) :   0.9323 B( 17-C , 23-O ) :   0.8921 B( 18-C , 19-C ) :   0.9387
B( 18-C , 24-H ) :   0.9411 B( 18-C , 25-H ) :   0.9400 B( 19-C , 20-O ) :   0.8541
B( 19-C , 26-H ) :   0.9314 B( 19-C , 27-H ) :   0.9372 B( 23-O , 28-H ) :   0.7998

FINAL SINGLE POINT ENERGY      -652.846407661519

DIPOLE MOMENT
-------------
                                X             Y             Z
Electronic contribution:     -2.66183      -4.10632       1.96011
Nuclear contribution   :      3.31692       5.59773      -3.11346
                        -----------------------------------------
Total Dipole Moment    :      0.65510       1.49141      -1.15335
                        -----------------------------------------
Magnitude (a.u.)       :      1.99591
Magnitude (Debye)      :      5.07320

Rotational constants in cm-1:     0.052300     0.013426     0.012014
Rotational constants in MHz :  1567.921072   402.505567   360.162235

                             ****ORCA TERMINATED NORMALLY****
TOTAL RUN TIME: 0 days 2 hours 27 minutes 25 seconds 911 msec
