                         Program Version 4.2.0 -  RELEASE  -
|  1> # Test redundant internal optimization
|  2> #
|  3> ! RKS B3LYP  Opt TightSCF SmallPrint
|  4>
|  5> %basis
|  6>         Basis "6-31G"
|  7> end
|  8>
|  9> %geom
| 10> Constraints
| 11> { D 4  0  15  12  90.0   C } # D for Dihedral angle
| 12> { D 0  15  12  16  120.0   C } # D for Dihedral angle
| 13> { D 0  4  3  2   C } # D for Dihedral angle
| 14> { D 4  3  2  1   C } # D for Dihedral angle
| 15> { D 3  2  1  0   C } # D for Dihedral angle
| 16> { D 2  1  0  4   C } # D for Dihedral angle
| 17> { D 1  0  4  3   C } # D for Dihedral angle
| 18> { D 16  20  19  18   C } # D for Dihedral angle
| 19> { D 20  19  18  17   C } # D for Dihedral angle
| 20> { D 19  18  17  16   C } # D for Dihedral angle
| 21> { D 18  17  16  20   C } # D for Dihedral angle
| 22> { D 17  16  20  19   C } # D for Dihedral angle
| 23> { D 15  12  16  20   C } # D for Dihedral angle
| 24> end
| 25> end
| 26>
| 27>
| 28> #%pal
| 29> #nprocs 8
| 30> #end
| 31>
| 32> * xyz 0 1
| 33> C  -21.048   26.222   46.251
| 34> C  -20.361   27.558   45.944
| 35> C  -20.329   28.222   47.341
| 36> C  -20.110   27.022   48.296
| 37> O  -20.473   25.807   47.535
| 38> H  -20.833   25.428   45.533
| 39> H  -19.344   27.382   45.576
| 40> H  -20.898   28.157   45.201
| 41> H  -19.543   28.978   47.434
| 42> H  -21.289   28.710   47.548
| 43> H  -20.733   27.082   49.195
| 44> H  -19.064   26.913   48.597
| 45> C  -23.061   27.816   46.783
| 46> H  -23.613   27.755   47.730
| 47> H  -22.200   28.481   46.930
| 48> O  -22.586   26.394   46.375
| 49> C  -23.986   28.468   45.719
| 50> C  -25.299   27.692   45.572
| 51> C  -26.099   28.192   46.799
| 52> C  -25.659   29.673   46.924
| 53> O  -24.404   29.805   46.154
| 54> H  -23.428   28.594   44.789
| 55> O  -26.011   28.095   44.252
| 56> H  -25.160   26.605   45.570
| 57> H  -27.181   28.088   46.671
| 58> H  -25.810   27.626   47.692
| 59> H  -25.476   29.969   47.963
| 60> H  -26.383   30.362   46.483
| 61> H  -26.163   29.180   44.231
| 62> *
| 63>
| 64>                          ****END OF INPUT****
 Total Charge           Charge          ....    0
 Multiplicity           Mult            ....    1
 Number of Electrons    NEL             ....  102
FINAL SINGLE POINT ENERGY      -652.795515299896
FINAL SINGLE POINT ENERGY      -652.834210652955
FINAL SINGLE POINT ENERGY      -652.852396285188
FINAL SINGLE POINT ENERGY      -652.855453299426
FINAL SINGLE POINT ENERGY      -652.855885308231
FINAL SINGLE POINT ENERGY      -652.855978132139
FINAL SINGLE POINT ENERGY      -652.855987785104
FINAL SINGLE POINT ENERGY      -652.855988752550
                    ***********************HURRAY********************

CARTESIAN COORDINATES (ANGSTROEM)
---------------------------------
  C    -21.252894   26.414093   46.385774
  C    -20.287796   27.522276   45.935759
  C    -19.871449   28.167611   47.293612
  C    -19.843301   26.942286   48.243774
  O    -20.626576   25.880030   47.573060
  H    -21.294667   25.575914   45.688422
  H    -19.424400   27.053853   45.453382
  H    -20.736884   28.231162   45.234281
  H    -18.892500   28.653813   47.233298
  H    -20.588919   28.921511   47.624147
  H    -20.283530   27.147905   49.224254
  H    -18.831854   26.549851   48.383533
  C    -23.186080   28.012687   46.975257
  H    -23.753831   27.842824   47.896970
  H    -22.413873   28.754249   47.184029
  O    -22.652417   26.728599   46.540436
  C    -24.081917   28.558064   45.861412
  C    -25.311252   27.699988   45.535209
  C    -26.289693   28.114252   46.662521
  C    -25.975225   29.616496   46.872908
  O    -24.638990   29.854678   46.266018
  H    -23.481825   28.731322   44.962622
  O    -25.833732   28.025876   44.216957
  H    -25.089224   26.634595   45.511928
  H    -27.324652   27.934153   46.360373
  H    -26.093020   27.533099   47.569729
  H    -25.940109   29.901698   47.928580
  H    -26.683129   30.272413   46.357170
  H    -25.860261   29.000702   44.112585

 Multiplicity           Mult            ....    1
 Number of Electrons    NEL             ....  102
 Basis Dimension        Dim             ....  149

ORBITAL ENERGIES
----------------

  NO   OCC          E(Eh)            E(eV)
   0   2.0000     -19.146601      -521.0055
   1   2.0000     -19.146254      -520.9960
   2   2.0000     -19.140592      -520.8420
   3   2.0000     -19.135110      -520.6928
   4   2.0000     -10.281657      -279.7781
   5   2.0000     -10.234769      -278.5022
   6   2.0000     -10.233921      -278.4791
   7   2.0000     -10.233375      -278.4643
   8   2.0000     -10.232836      -278.4496
   9   2.0000     -10.229962      -278.3714
  10   2.0000     -10.196215      -277.4531
  11   2.0000     -10.195881      -277.4440
  12   2.0000     -10.187352      -277.2119
  13   2.0000      -1.051785       -28.6205
  14   2.0000      -1.036198       -28.1964
  15   2.0000      -1.004417       -27.3316
  16   2.0000      -0.998181       -27.1619
  17   2.0000      -0.790922       -21.5221
  18   2.0000      -0.782410       -21.2904
  19   2.0000      -0.771278       -20.9875
  20   2.0000      -0.734334       -19.9822
  21   2.0000      -0.681417       -18.5423
  22   2.0000      -0.607896       -16.5417
  23   2.0000      -0.603867       -16.4321
  24   2.0000      -0.600411       -16.3380
  25   2.0000      -0.574154       -15.6235
  26   2.0000      -0.527688       -14.3591
  27   2.0000      -0.512473       -13.9451
  28   2.0000      -0.504088       -13.7169
  29   2.0000      -0.491248       -13.3675
  30   2.0000      -0.473620       -12.8879
  31   2.0000      -0.461006       -12.5446
  32   2.0000      -0.447299       -12.1716
  33   2.0000      -0.440116       -11.9762
  34   2.0000      -0.429412       -11.6849
  35   2.0000      -0.415116       -11.2959
  36   2.0000      -0.410426       -11.1683
  37   2.0000      -0.392548       -10.6818
  38   2.0000      -0.386111       -10.5066
  39   2.0000      -0.368789       -10.0353
  40   2.0000      -0.363061        -9.8794
  41   2.0000      -0.359672        -9.7872
  42   2.0000      -0.353434        -9.6174
  43   2.0000      -0.330377        -8.9900
  44   2.0000      -0.316772        -8.6198
  45   2.0000      -0.309269        -8.4156
  46   2.0000      -0.295741        -8.0475
  47   2.0000      -0.278453        -7.5771
  48   2.0000      -0.266451        -7.2505
  49   2.0000      -0.258356        -7.0302
  50   2.0000      -0.242934        -6.6106
  51   0.0000       0.062734         1.7071
  52   0.0000       0.067429         1.8348
  53   0.0000       0.088497         2.4081
  54   0.0000       0.095180         2.5900
  55   0.0000       0.101253         2.7552

MULLIKEN ATOMIC CHARGES
-----------------------
   0 C :    0.310591
   1 C :   -0.294249
   2 C :   -0.318457
   3 C :   -0.007971
   4 O :   -0.499581
   5 H :    0.168349
   6 H :    0.161422
   7 H :    0.151231
   8 H :    0.147522
   9 H :    0.155667
  10 H :    0.145973
  11 H :    0.148575
  12 C :   -0.020297
  13 H :    0.146375
  14 H :    0.145351
  15 O :   -0.530065
  16 C :    0.060987
  17 C :    0.089983
  18 C :   -0.301444
  19 C :   -0.032830
  20 O :   -0.529834
  21 H :    0.157247
  22 O :   -0.603708
  23 H :    0.181376
  24 H :    0.161779
  25 H :    0.151213
  26 H :    0.145629
  27 H :    0.148355
  28 H :    0.360813
Sum of atomic charges:   -0.0000000

LOEWDIN ATOMIC CHARGES
----------------------
   0 C :    0.177106
   1 C :   -0.231153
   2 C :   -0.223988
   3 C :   -0.032711
   4 O :   -0.318931
   5 H :    0.113454
   6 H :    0.125681
   7 H :    0.117964
   8 H :    0.116712
   9 H :    0.109759
  10 H :    0.103780
  11 H :    0.105135
  12 C :   -0.042519
  13 H :    0.105433
  14 H :    0.106031
  15 O :   -0.324287
  16 C :    0.011256
  17 C :    0.038023
  18 C :   -0.241578
  19 C :   -0.038756
  20 O :   -0.334648
  21 H :    0.112214
  22 O :   -0.415130
  23 H :    0.130318
  24 H :    0.126673
  25 H :    0.116618
  26 H :    0.103730
  27 H :    0.103313
  28 H :    0.280498

  Mayer bond orders larger than 0.100000
B(  0-C ,  1-C ) :   0.9230 B(  0-C ,  4-O ) :   0.9072 B(  0-C ,  5-H ) :   0.9351
B(  0-C , 15-O ) :   0.8907 B(  1-C ,  2-C ) :   0.9534 B(  1-C ,  6-H ) :   0.9345
B(  1-C ,  7-H ) :   0.9338 B(  2-C ,  3-C ) :   0.9459 B(  2-C ,  8-H ) :   0.9446
B(  2-C ,  9-H ) :   0.9343 B(  3-C ,  4-O ) :   0.8481 B(  3-C , 10-H ) :   0.9342
B(  3-C , 11-H ) :   0.9389 B( 12-C , 13-H ) :   0.9328 B( 12-C , 14-H ) :   0.9023
B( 12-C , 15-O ) :   0.8238 B( 12-C , 16-C ) :   0.8907 B( 16-C , 17-C ) :   0.9136
B( 16-C , 20-O ) :   0.8421 B( 16-C , 21-H ) :   0.9268 B( 17-C , 18-C ) :   0.9125
B( 17-C , 22-O ) :   0.8885 B( 17-C , 23-H ) :   0.9221 B( 18-C , 19-C ) :   0.9421
B( 18-C , 24-H ) :   0.9379 B( 18-C , 25-H ) :   0.9336 B( 19-C , 20-O ) :   0.8430
B( 19-C , 26-H ) :   0.9360 B( 19-C , 27-H ) :   0.9374 B( 22-O , 28-H ) :   0.7969

FINAL SINGLE POINT ENERGY      -652.855987580743

DIPOLE MOMENT
-------------
                                X             Y             Z
Electronic contribution:     -2.00962      -2.47822      -2.37122
Nuclear contribution   :      2.47308       3.46240       2.89629
                        -----------------------------------------
Total Dipole Moment    :      0.46346       0.98418       0.52508
                        -----------------------------------------
Magnitude (a.u.)       :      1.20794
Magnitude (Debye)      :      3.07034

Rotational constants in cm-1:     0.058366     0.012430     0.011932
Rotational constants in MHz :  1749.781854   372.647659   357.704280

                             ****ORCA TERMINATED NORMALLY****
TOTAL RUN TIME: 0 days 0 hours 25 minutes 10 seconds 163 msec
