                         Program Version 4.2.0 -  RELEASE  -
|  1> # Test redundant internal optimization
|  2> #
|  3> ! RKS B3LYP  Opt TightSCF SmallPrint
|  4>
|  5> %basis
|  6>         Basis "6-31G"
|  7> end
|  8>
|  9> %geom
| 10> Constraints
| 11> { D 4  0  15  12  255.0   C } # D for Dihedral angle
| 12> { D 0  15  12  16  240.0   C } # D for Dihedral angle
| 13> { D 0  4  3  2   C } # D for Dihedral angle
| 14> { D 4  3  2  1   C } # D for Dihedral angle
| 15> { D 3  2  1  0   C } # D for Dihedral angle
| 16> { D 2  1  0  4   C } # D for Dihedral angle
| 17> { D 1  0  4  3   C } # D for Dihedral angle
| 18> { D 16  20  19  18   C } # D for Dihedral angle
| 19> { D 20  19  18  17   C } # D for Dihedral angle
| 20> { D 19  18  17  16   C } # D for Dihedral angle
| 21> { D 18  17  16  20   C } # D for Dihedral angle
| 22> { D 17  16  20  19   C } # D for Dihedral angle
| 23> { D 15  12  16  20   C } # D for Dihedral angle
| 24> end
| 25> end
| 26>
| 27>
| 28> #%pal
| 29> #nprocs 8
| 30> #end
| 31>
| 32> * xyz 0 1
| 33> C  -21.048   26.222   46.251
| 34> C  -20.361   27.558   45.944
| 35> C  -20.329   28.222   47.341
| 36> C  -20.110   27.022   48.296
| 37> O  -20.473   25.807   47.535
| 38> H  -20.833   25.428   45.533
| 39> H  -19.344   27.382   45.576
| 40> H  -20.898   28.157   45.201
| 41> H  -19.543   28.978   47.434
| 42> H  -21.289   28.710   47.548
| 43> H  -20.733   27.082   49.195
| 44> H  -19.064   26.913   48.597
| 45> C  -23.431   25.260   45.734
| 46> H  -22.759   24.509   45.300
| 47> H  -24.052   24.767   46.493
| 48> O  -22.586   26.394   46.375
| 49> C  -24.376   25.775   44.613
| 50> C  -23.581   26.330   43.426
| 51> C  -23.166   25.033   42.692
| 52> C  -24.384   24.100   42.911
| 53> O  -25.148   24.666   44.043
| 54> H  -25.094   26.476   45.044
| 55> O  -24.503   27.198   42.527
| 56> H  -22.723   26.940   43.729
| 57> H  -22.951   25.196   41.632
| 58> H  -22.267   24.610   43.156
| 59> H  -24.089   23.075   43.154
| 60> H  -25.055   24.080   42.048
| 61> H  -25.371   26.607   42.209
| 62> *
| 63>
| 64>                          ****END OF INPUT****
 Total Charge           Charge          ....    0
 Multiplicity           Mult            ....    1
 Number of Electrons    NEL             ....  102
FINAL SINGLE POINT ENERGY      -652.836570914994
FINAL SINGLE POINT ENERGY      -652.859073540746
FINAL SINGLE POINT ENERGY      -652.862933594764
FINAL SINGLE POINT ENERGY      -652.863580188460
FINAL SINGLE POINT ENERGY      -652.863655612929
FINAL SINGLE POINT ENERGY      -652.863665181937
FINAL SINGLE POINT ENERGY      -652.863666883427
                    ***********************HURRAY********************

CARTESIAN COORDINATES (ANGSTROEM)
---------------------------------
  C    -21.050539   26.140581   46.223721
  C    -20.436890   27.503212   45.900342
  C    -20.475527   28.206752   47.279062
  C    -20.210440   27.046676   48.264496
  O    -20.491182   25.800500   47.509318
  H    -20.789899   25.325507   45.540926
  H    -19.402998   27.363750   45.563068
  H    -20.993123   28.039681   45.128944
  H    -19.733663   29.006199   47.365553
  H    -21.469000   28.633919   47.443796
  H    -20.856934   27.075886   49.145034
  H    -19.165514   26.990592   48.584147
  C    -23.336282   25.243481   45.759871
  H    -22.722904   24.411963   45.383034
  H    -23.968502   24.854179   46.563155
  O    -22.486618   26.294420   46.299695
  C    -24.227388   25.801350   44.645508
  C    -23.491006   26.335807   43.408373
  C    -23.163461   25.025067   42.646021
  C    -24.393482   24.130843   42.941473
  O    -25.068517   24.718521   44.124197
  H    -24.895406   26.563852   45.056429
  O    -24.354673   27.208532   42.628498
  H    -22.614640   26.935124   43.648691
  H    -23.025481   25.222528   41.580290
  H    -22.242219   24.577211   43.034480
  H    -24.123287   23.094223   43.164874
  H    -25.120171   24.132472   42.122607
  H    -25.251253   26.814172   42.581397

 Multiplicity           Mult            ....    1
 Number of Electrons    NEL             ....  102
 Basis Dimension        Dim             ....  149

ORBITAL ENERGIES
----------------

  NO   OCC          E(Eh)            E(eV)
   0   2.0000     -19.148054      -521.0450
   1   2.0000     -19.146022      -520.9897
   2   2.0000     -19.139538      -520.8133
   3   2.0000     -19.138784      -520.7928
   4   2.0000     -10.283449      -279.8269
   5   2.0000     -10.241844      -278.6947
   6   2.0000     -10.235271      -278.5159
   7   2.0000     -10.234821      -278.5037
   8   2.0000     -10.233635      -278.4714
   9   2.0000     -10.224200      -278.2146
  10   2.0000     -10.192378      -277.3487
  11   2.0000     -10.186858      -277.1985
  12   2.0000     -10.185193      -277.1532
  13   2.0000      -1.054389       -28.6914
  14   2.0000      -1.039639       -28.2900
  15   2.0000      -1.008288       -27.4369
  16   2.0000      -0.996822       -27.1249
  17   2.0000      -0.789330       -21.4788
  18   2.0000      -0.781870       -21.2758
  19   2.0000      -0.769414       -20.9368
  20   2.0000      -0.732623       -19.9357
  21   2.0000      -0.677080       -18.4243
  22   2.0000      -0.607360       -16.5271
  23   2.0000      -0.598602       -16.2888
  24   2.0000      -0.594830       -16.1861
  25   2.0000      -0.587874       -15.9969
  26   2.0000      -0.524906       -14.2834
  27   2.0000      -0.521511       -14.1910
  28   2.0000      -0.498192       -13.5565
  29   2.0000      -0.491190       -13.3660
  30   2.0000      -0.472534       -12.8583
  31   2.0000      -0.459301       -12.4982
  32   2.0000      -0.448941       -12.2163
  33   2.0000      -0.441364       -12.0101
  34   2.0000      -0.427481       -11.6324
  35   2.0000      -0.416836       -11.3427
  36   2.0000      -0.403775       -10.9873
  37   2.0000      -0.395849       -10.7716
  38   2.0000      -0.377475       -10.2716
  39   2.0000      -0.372474       -10.1355
  40   2.0000      -0.358308        -9.7501
  41   2.0000      -0.355181        -9.6650
  42   2.0000      -0.350903        -9.5486
  43   2.0000      -0.335242        -9.1224
  44   2.0000      -0.321383        -8.7453
  45   2.0000      -0.309859        -8.4317
  46   2.0000      -0.306359        -8.3364
  47   2.0000      -0.275175        -7.4879
  48   2.0000      -0.270826        -7.3696
  49   2.0000      -0.257940        -7.0189
  50   2.0000      -0.240926        -6.5559
  51   0.0000       0.061064         1.6616
  52   0.0000       0.063073         1.7163
  53   0.0000       0.087103         2.3702
  54   0.0000       0.093069         2.5325
  55   0.0000       0.102050         2.7769

MULLIKEN ATOMIC CHARGES
-----------------------
   0 C :    0.284596
   1 C :   -0.263451
   2 C :   -0.299918
   3 C :   -0.000684
   4 O :   -0.504253
   5 H :    0.137298
   6 H :    0.144388
   7 H :    0.156343
   8 H :    0.141932
   9 H :    0.165789
  10 H :    0.151441
  11 H :    0.140941
  12 C :   -0.007044
  13 H :    0.126046
  14 H :    0.165924
  15 O :   -0.523283
  16 C :    0.061727
  17 C :    0.079742
  18 C :   -0.292908
  19 C :   -0.036308
  20 O :   -0.525176
  21 H :    0.168952
  22 O :   -0.602415
  23 H :    0.162329
  24 H :    0.164925
  25 H :    0.136554
  26 H :    0.150562
  27 H :    0.150976
  28 H :    0.364974
Sum of atomic charges:   -0.0000000

LOEWDIN ATOMIC CHARGES
----------------------
   0 C :    0.173515
   1 C :   -0.220287
   2 C :   -0.215722
   3 C :   -0.026480
   4 O :   -0.321077
   5 H :    0.094797
   6 H :    0.113470
   7 H :    0.119463
   8 H :    0.114105
   9 H :    0.120898
  10 H :    0.107813
  11 H :    0.101938
  12 C :   -0.033608
  13 H :    0.095042
  14 H :    0.117295
  15 O :   -0.330903
  16 C :    0.010810
  17 C :    0.035754
  18 C :   -0.240951
  19 C :   -0.039835
  20 O :   -0.329520
  21 H :    0.119277
  22 O :   -0.414339
  23 H :    0.118166
  24 H :    0.127895
  25 H :    0.109371
  26 H :    0.105602
  27 H :    0.104465
  28 H :    0.283046

  Mayer bond orders larger than 0.100000
B(  0-C ,  1-C ) :   0.9438 B(  0-C ,  4-O ) :   0.9292 B(  0-C ,  5-H ) :   0.9176
B(  0-C , 15-O ) :   0.8457 B(  1-C ,  2-C ) :   0.9571 B(  1-C ,  6-H ) :   0.9379
B(  1-C ,  7-H ) :   0.9323 B(  2-C ,  3-C ) :   0.9541 B(  2-C ,  8-H ) :   0.9451
B(  2-C ,  9-H ) :   0.9435 B(  3-C ,  4-O ) :   0.8369 B(  3-C , 10-H ) :   0.9350
B(  3-C , 11-H ) :   0.9400 B( 12-C , 13-H ) :   0.9229 B( 12-C , 14-H ) :   0.9274
B( 12-C , 15-O ) :   0.8325 B( 12-C , 16-C ) :   0.8924 B( 16-C , 17-C ) :   0.9102
B( 16-C , 20-O ) :   0.8376 B( 16-C , 21-H ) :   0.9253 B( 17-C , 18-C ) :   0.9114
B( 17-C , 22-O ) :   0.8951 B( 17-C , 23-H ) :   0.9235 B( 18-C , 19-C ) :   0.9404
B( 18-C , 24-H ) :   0.9373 B( 18-C , 25-H ) :   0.9352 B( 19-C , 20-O ) :   0.8434
B( 19-C , 26-H ) :   0.9346 B( 19-C , 27-H ) :   0.9373 B( 22-O , 28-H ) :   0.7942

FINAL SINGLE POINT ENERGY      -652.863667318332

DIPOLE MOMENT
-------------
                                X             Y             Z
Electronic contribution:     -3.88628      -1.29191       0.63110
Nuclear contribution   :      4.49916       1.20118      -1.06604
                        -----------------------------------------
Total Dipole Moment    :      0.61288      -0.09073      -0.43494
                        -----------------------------------------
Magnitude (a.u.)       :      0.75698
Magnitude (Debye)      :      1.92410

Rotational constants in cm-1:     0.058264     0.012782     0.011875
Rotational constants in MHz :  1746.699878   383.181358   356.007877

                             ****ORCA TERMINATED NORMALLY****
TOTAL RUN TIME: 0 days 0 hours 31 minutes 25 seconds 888 msec
