                         Program Version 4.2.0 -  RELEASE  -
|  1> # Test redundant internal optimization
|  2> #
|  3> ! RKS B3LYP  Opt TightSCF SmallPrint
|  4>
|  5> %basis
|  6>         Basis "6-31G"
|  7> end
|  8>
|  9> %geom
| 10> Constraints
| 11> { D 4  0  15  12  105.0   C } # D for Dihedral angle
| 12> { D 0  15  12  16  90.0   C } # D for Dihedral angle
| 13> { D 0  4  3  2   C } # D for Dihedral angle
| 14> { D 4  3  2  1   C } # D for Dihedral angle
| 15> { D 3  2  1  0   C } # D for Dihedral angle
| 16> { D 2  1  0  4   C } # D for Dihedral angle
| 17> { D 1  0  4  3   C } # D for Dihedral angle
| 18> { D 16  20  19  18   C } # D for Dihedral angle
| 19> { D 20  19  18  17   C } # D for Dihedral angle
| 20> { D 19  18  17  16   C } # D for Dihedral angle
| 21> { D 18  17  16  20   C } # D for Dihedral angle
| 22> { D 17  16  20  19   C } # D for Dihedral angle
| 23> { D 15  12  16  20   C } # D for Dihedral angle
| 24> end
| 25> end
| 26>
| 27>
| 28> #%pal
| 29> #nprocs 8
| 30> #end
| 31>
| 32> * xyz 0 1
| 33> C  -21.048   26.222   46.251
| 34> C  -20.361   27.558   45.944
| 35> C  -20.329   28.222   47.341
| 36> C  -20.110   27.022   48.296
| 37> O  -20.473   25.807   47.535
| 38> H  -20.833   25.428   45.533
| 39> H  -19.344   27.382   45.576
| 40> H  -20.898   28.157   45.201
| 41> H  -19.543   28.978   47.434
| 42> H  -21.289   28.710   47.548
| 43> H  -20.733   27.082   49.195
| 44> H  -19.064   26.913   48.597
| 45> C  -23.085   27.864   46.420
| 46> H  -24.001   27.918   47.021
| 47> H  -22.330   28.511   46.887
| 48> O  -22.586   26.394   46.375
| 49> C  -23.392   28.438   45.009
| 50> C  -23.769   29.922   45.082
| 51> C  -22.381   30.592   45.221
| 52> C  -21.467   29.691   44.353
| 53> O  -22.188   28.412   44.172
| 54> H  -24.136   27.806   44.520
| 55> H  -24.257   30.233   44.151
| 56> O  -24.719   30.253   46.266
| 57> H  -22.378   31.634   44.887
| 58> H  -22.058   30.575   46.269
| 59> H  -20.500   29.493   44.829
| 60> H  -21.294   30.107   43.357
| 61> H  -24.251   29.951   47.209
| 62> *
| 63>
| 64>                          ****END OF INPUT****
 Total Charge           Charge          ....    0
 Multiplicity           Mult            ....    1
 Number of Electrons    NEL             ....  102
FINAL SINGLE POINT ENERGY      -652.767175398801
FINAL SINGLE POINT ENERGY      -652.819635122538
FINAL SINGLE POINT ENERGY      -652.841218542118
FINAL SINGLE POINT ENERGY      -652.846286085472
FINAL SINGLE POINT ENERGY      -652.846964765606
FINAL SINGLE POINT ENERGY      -652.847165086239
FINAL SINGLE POINT ENERGY      -652.847191833076
FINAL SINGLE POINT ENERGY      -652.847194592755
FINAL SINGLE POINT ENERGY      -652.847193252924
                    ***********************HURRAY********************

CARTESIAN COORDINATES (ANGSTROEM)
---------------------------------
  C    -21.107295   26.230737   46.396597
  C    -20.046652   27.281551   46.047874
  C    -19.828734   27.989741   47.413997
  C    -19.994297   26.824848   48.423134
  O    -20.697737   25.747571   47.696934
  H    -21.087897   25.357634   45.744074
  H    -19.134729   26.753322   45.748900
  H    -20.364118   27.929785   45.233806
  H    -18.841173   28.456472   47.488126
  H    -20.575370   28.772804   47.582774
  H    -20.576443   27.101802   49.307592
  H    -19.031377   26.417403   48.745534
  C    -23.089412   27.924786   46.407658
  H    -24.065053   27.796937   46.886112
  H    -22.497826   28.617290   47.024415
  O    -22.508876   26.598050   46.395799
  C    -23.333783   28.508351   45.009888
  C    -23.969329   29.911047   45.010261
  C    -22.713426   30.830082   45.107818
  C    -21.659779   30.061489   44.283085
  O    -22.146664   28.656533   44.170418
  H    -23.960956   27.788430   44.473877
  H    -24.486790   30.073320   44.062420
  O    -24.979331   30.141456   46.020007
  H    -22.904532   31.835150   44.723595
  H    -22.408183   30.921927   46.158857
  H    -20.669562   30.061244   44.749211
  H    -21.568664   30.444170   43.263069
  H    -24.569014   30.241065   46.903168

 Multiplicity           Mult            ....    1
 Number of Electrons    NEL             ....  102
 Basis Dimension        Dim             ....  149

ORBITAL ENERGIES
----------------

  NO   OCC          E(Eh)            E(eV)
   0   2.0000     -19.156512      -521.2752
   1   2.0000     -19.152381      -521.1628
   2   2.0000     -19.134628      -520.6797
   3   2.0000     -19.131760      -520.6016
   4   2.0000     -10.272694      -279.5342
   5   2.0000     -10.252936      -278.9966
   6   2.0000     -10.241543      -278.6865
   7   2.0000     -10.236301      -278.5439
   8   2.0000     -10.235470      -278.5213
   9   2.0000     -10.223638      -278.1993
  10   2.0000     -10.204405      -277.6760
  11   2.0000     -10.191077      -277.3133
  12   2.0000     -10.180338      -277.0211
  13   2.0000      -1.045836       -28.4586
  14   2.0000      -1.039265       -28.2798
  15   2.0000      -1.025121       -27.8950
  16   2.0000      -0.987978       -26.8843
  17   2.0000      -0.791859       -21.5476
  18   2.0000      -0.783453       -21.3188
  19   2.0000      -0.775468       -21.1015
  20   2.0000      -0.732983       -19.9455
  21   2.0000      -0.687805       -18.7161
  22   2.0000      -0.620850       -16.8942
  23   2.0000      -0.603802       -16.4303
  24   2.0000      -0.599405       -16.3106
  25   2.0000      -0.567687       -15.4476
  26   2.0000      -0.531292       -14.4572
  27   2.0000      -0.517679       -14.0868
  28   2.0000      -0.504305       -13.7228
  29   2.0000      -0.486826       -13.2472
  30   2.0000      -0.468641       -12.7524
  31   2.0000      -0.461788       -12.5659
  32   2.0000      -0.451349       -12.2818
  33   2.0000      -0.439947       -11.9716
  34   2.0000      -0.432018       -11.7558
  35   2.0000      -0.424901       -11.5622
  36   2.0000      -0.411096       -11.1865
  37   2.0000      -0.403316       -10.9748
  38   2.0000      -0.387906       -10.5555
  39   2.0000      -0.375855       -10.2275
  40   2.0000      -0.362029        -9.8513
  41   2.0000      -0.356363        -9.6971
  42   2.0000      -0.345861        -9.4113
  43   2.0000      -0.339423        -9.2362
  44   2.0000      -0.323392        -8.7999
  45   2.0000      -0.307890        -8.3781
  46   2.0000      -0.284591        -7.7441
  47   2.0000      -0.277200        -7.5430
  48   2.0000      -0.275510        -7.4970
  49   2.0000      -0.253246        -6.8912
  50   2.0000      -0.237971        -6.4755
  51   0.0000       0.041779         1.1369
  52   0.0000       0.056585         1.5398
  53   0.0000       0.081313         2.2126
  54   0.0000       0.089818         2.4441
  55   0.0000       0.095715         2.6045

MULLIKEN ATOMIC CHARGES
-----------------------
   0 C :    0.317497
   1 C :   -0.313814
   2 C :   -0.314263
   3 C :   -0.002195
   4 O :   -0.497307
   5 H :    0.165169
   6 H :    0.150102
   7 H :    0.192428
   8 H :    0.140757
   9 H :    0.134616
  10 H :    0.140753
  11 H :    0.143745
  12 C :   -0.018697
  13 H :    0.165926
  14 H :    0.106315
  15 O :   -0.528886
  16 C :    0.092101
  17 C :    0.084615
  18 C :   -0.320979
  19 C :   -0.019485
  20 O :   -0.511700
  21 H :    0.169127
  22 H :    0.171445
  23 O :   -0.597358
  24 H :    0.161771
  25 H :    0.134124
  26 H :    0.139208
  27 H :    0.157502
  28 H :    0.357483
Sum of atomic charges:    0.0000000

LOEWDIN ATOMIC CHARGES
----------------------
   0 C :    0.186114
   1 C :   -0.239264
   2 C :   -0.223967
   3 C :   -0.032367
   4 O :   -0.317878
   5 H :    0.112417
   6 H :    0.120667
   7 H :    0.135884
   8 H :    0.113416
   9 H :    0.099482
  10 H :    0.101019
  11 H :    0.102883
  12 C :   -0.045459
  13 H :    0.122685
  14 H :    0.081273
  15 O :   -0.323264
  16 C :    0.007727
  17 C :    0.035982
  18 C :   -0.240917
  19 C :   -0.033242
  20 O :   -0.318624
  21 H :    0.120714
  22 H :    0.121275
  23 O :   -0.404103
  24 H :    0.125272
  25 H :    0.104114
  26 H :    0.099462
  27 H :    0.109763
  28 H :    0.278933

  Mayer bond orders larger than 0.100000
B(  0-C ,  1-C ) :   0.9296 B(  0-C ,  4-O ) :   0.9067 B(  0-C ,  5-H ) :   0.9340
B(  0-C , 15-O ) :   0.8731 B(  1-C ,  2-C ) :   0.9525 B(  1-C ,  6-H ) :   0.9344
B(  1-C ,  7-H ) :   0.8964 B(  2-C ,  3-C ) :   0.9472 B(  2-C ,  8-H ) :   0.9459
B(  2-C ,  9-H ) :   0.9398 B(  3-C ,  4-O ) :   0.8539 B(  3-C , 10-H ) :   0.9350
B(  3-C , 11-H ) :   0.9387 B( 12-C , 13-H ) :   0.9185 B( 12-C , 14-H ) :   0.9098
B( 12-C , 15-O ) :   0.8641 B( 12-C , 16-C ) :   0.8912 B( 16-C , 17-C ) :   0.8656
B( 16-C , 20-O ) :   0.8554 B( 16-C , 21-H ) :   0.9282 B( 17-C , 18-C ) :   0.9231
B( 17-C , 22-H ) :   0.9320 B( 17-C , 23-O ) :   0.9018 B( 18-C , 19-C ) :   0.9420
B( 18-C , 24-H ) :   0.9408 B( 18-C , 25-H ) :   0.9407 B( 19-C , 20-O ) :   0.8395
B( 19-C , 26-H ) :   0.9258 B( 19-C , 27-H ) :   0.9382 B( 23-O , 28-H ) :   0.7975

FINAL SINGLE POINT ENERGY      -652.847191214435

DIPOLE MOMENT
-------------
                                X             Y             Z
Electronic contribution:     -4.38105      -4.89057      -1.22459
Nuclear contribution   :      5.29158       6.72071       1.34187
                        -----------------------------------------
Total Dipole Moment    :      0.91053       1.83014       0.11728
                        -----------------------------------------
Magnitude (a.u.)       :      2.04750
Magnitude (Debye)      :      5.20432

Rotational constants in cm-1:     0.048029     0.015730     0.014549
Rotational constants in MHz :  1439.885460   471.571324   436.180208

                             ****ORCA TERMINATED NORMALLY****
TOTAL RUN TIME: 0 days 0 hours 33 minutes 34 seconds 968 msec
