                         Program Version 4.2.0 -  RELEASE  -
|  1> # Test redundant internal optimization
|  2> #
|  3> ! RKS B3LYP  Opt TightSCF SmallPrint
|  4>
|  5> %basis
|  6>         Basis "6-31G"
|  7> end
|  8>
|  9> %geom
| 10> Constraints
| 11> { D 4  0  15  12  105.0   C } # D for Dihedral angle
| 12> { D 0  15  12  16  225.0   C } # D for Dihedral angle
| 13> { D 0  4  3  2   C } # D for Dihedral angle
| 14> { D 4  3  2  1   C } # D for Dihedral angle
| 15> { D 3  2  1  0   C } # D for Dihedral angle
| 16> { D 2  1  0  4   C } # D for Dihedral angle
| 17> { D 1  0  4  3   C } # D for Dihedral angle
| 18> { D 16  20  19  18   C } # D for Dihedral angle
| 19> { D 20  19  18  17   C } # D for Dihedral angle
| 20> { D 19  18  17  16   C } # D for Dihedral angle
| 21> { D 18  17  16  20   C } # D for Dihedral angle
| 22> { D 17  16  20  19   C } # D for Dihedral angle
| 23> { D 15  12  16  20   C } # D for Dihedral angle
| 24> end
| 25> end
| 26>
| 27>
| 28> #%pal
| 29> #nprocs 8
| 30> #end
| 31>
| 32> * xyz 0 1
| 33> C  -21.048   26.222   46.251
| 34> C  -20.361   27.558   45.944
| 35> C  -20.329   28.222   47.341
| 36> C  -20.110   27.022   48.296
| 37> O  -20.473   25.807   47.535
| 38> H  -20.833   25.428   45.533
| 39> H  -19.344   27.382   45.576
| 40> H  -20.898   28.157   45.201
| 41> H  -19.543   28.978   47.434
| 42> H  -21.289   28.710   47.548
| 43> H  -20.733   27.082   49.195
| 44> H  -19.064   26.913   48.597
| 45> C  -23.085   27.864   46.420
| 46> H  -22.234   28.529   46.615
| 47> H  -23.529   28.149   45.458
| 48> O  -22.586   26.394   46.375
| 49> C  -24.153   28.103   47.523
| 50> C  -23.564   27.892   48.923
| 51> C  -22.809   29.223   49.149
| 52> C  -23.710   30.264   48.438
| 53> O  -24.587   29.504   47.522
| 54> H  -25.033   27.495   47.306
| 55> H  -24.370   27.775   49.656
| 56> O  -22.636   26.650   49.014
| 57> H  -22.663   29.453   50.210
| 58> H  -21.820   29.180   48.677
| 59> H  -23.133   30.993   47.860
| 60> H  -24.359   30.800   49.135
| 61> H  -21.821   26.746   48.288
| 62> *
| 63>
| 64>                          ****END OF INPUT****
 Total Charge           Charge          ....    0
 Multiplicity           Mult            ....    1
 Number of Electrons    NEL             ....  102
FINAL SINGLE POINT ENERGY      -652.751898383878
FINAL SINGLE POINT ENERGY      -652.818091061912
FINAL SINGLE POINT ENERGY      -652.840693841105
FINAL SINGLE POINT ENERGY      -652.849727456638
FINAL SINGLE POINT ENERGY      -652.853278824892
FINAL SINGLE POINT ENERGY      -652.855439116617
FINAL SINGLE POINT ENERGY      -652.856628719433
FINAL SINGLE POINT ENERGY      -652.857317919398
FINAL SINGLE POINT ENERGY      -652.857578253724
FINAL SINGLE POINT ENERGY      -652.857667113175
FINAL SINGLE POINT ENERGY      -652.857694615428
FINAL SINGLE POINT ENERGY      -652.857700594443
                    ***********************HURRAY********************

CARTESIAN COORDINATES (ANGSTROEM)
---------------------------------
  C    -21.105961   26.342330   46.300228
  C    -20.123778   27.414536   45.809004
  C    -19.789016   28.175634   47.125213
  C    -19.806540   27.044969   48.184779
  O    -20.551575   25.915370   47.559578
  H    -21.118149   25.449078   45.673943
  H    -19.234714   26.909076   45.420084
  H    -20.530675   28.055512   45.021966
  H    -18.814294   28.671077   47.077430
  H    -20.536074   28.942753   47.344221
  H    -20.322951   27.313827   49.107114
  H    -18.805353   26.668595   48.408889
  C    -23.102669   28.012946   46.423454
  H    -22.343822   28.787540   46.564301
  H    -23.592106   28.187687   45.460130
  O    -22.517161   26.669435   46.408232
  C    -24.157542   28.096247   47.536252
  C    -23.682030   27.900117   48.987935
  C    -23.080317   29.300438   49.318620
  C    -24.009200   30.261815   48.547257
  O    -24.721619   29.443744   47.528549
  H    -24.975335   27.411199   47.294491
  H    -24.574767   27.744894   49.606645
  O    -22.761017   26.832811   49.272709
  H    -23.065415   29.492198   50.394728
  H    -22.049145   29.341246   48.953673
  H    -23.471208   31.068225   48.038407
  H    -24.779478   30.704030   49.185848
  H    -22.495090   26.337671   48.466322

 Multiplicity           Mult            ....    1
 Number of Electrons    NEL             ....  102
 Basis Dimension        Dim             ....  149

ORBITAL ENERGIES
----------------

  NO   OCC          E(Eh)            E(eV)
   0   2.0000     -19.156178      -521.2661
   1   2.0000     -19.152793      -521.1740
   2   2.0000     -19.142936      -520.9058
   3   2.0000     -19.119041      -520.2556
   4   2.0000     -10.291542      -280.0471
   5   2.0000     -10.239365      -278.6273
   6   2.0000     -10.235225      -278.5146
   7   2.0000     -10.234423      -278.4928
   8   2.0000     -10.229822      -278.3676
   9   2.0000     -10.229582      -278.3611
  10   2.0000     -10.203514      -277.6517
  11   2.0000     -10.201335      -277.5924
  12   2.0000     -10.184413      -277.1320
  13   2.0000      -1.062113       -28.9016
  14   2.0000      -1.028340       -27.9826
  15   2.0000      -1.004661       -27.3382
  16   2.0000      -0.997523       -27.1440
  17   2.0000      -0.798427       -21.7263
  18   2.0000      -0.777815       -21.1654
  19   2.0000      -0.772165       -21.0117
  20   2.0000      -0.737805       -20.0767
  21   2.0000      -0.685136       -18.6435
  22   2.0000      -0.613836       -16.7033
  23   2.0000      -0.601436       -16.3659
  24   2.0000      -0.598322       -16.2812
  25   2.0000      -0.577195       -15.7063
  26   2.0000      -0.532462       -14.4890
  27   2.0000      -0.511598       -13.9213
  28   2.0000      -0.511233       -13.9113
  29   2.0000      -0.494834       -13.4651
  30   2.0000      -0.475055       -12.9269
  31   2.0000      -0.457536       -12.4502
  32   2.0000      -0.443681       -12.0732
  33   2.0000      -0.440469       -11.9858
  34   2.0000      -0.430753       -11.7214
  35   2.0000      -0.420631       -11.4459
  36   2.0000      -0.413300       -11.2465
  37   2.0000      -0.393027       -10.6948
  38   2.0000      -0.388062       -10.5597
  39   2.0000      -0.373790       -10.1713
  40   2.0000      -0.364966        -9.9312
  41   2.0000      -0.362079        -9.8527
  42   2.0000      -0.350462        -9.5365
  43   2.0000      -0.338869        -9.2211
  44   2.0000      -0.327333        -8.9072
  45   2.0000      -0.302931        -8.2432
  46   2.0000      -0.295833        -8.0500
  47   2.0000      -0.279589        -7.6080
  48   2.0000      -0.266527        -7.2526
  49   2.0000      -0.248979        -6.7751
  50   2.0000      -0.245612        -6.6834
  51   0.0000       0.056659         1.5418
  52   0.0000       0.065427         1.7804
  53   0.0000       0.085873         2.3367
  54   0.0000       0.094754         2.5784
  55   0.0000       0.103232         2.8091

MULLIKEN ATOMIC CHARGES
-----------------------
   0 C :    0.308630
   1 C :   -0.296150
   2 C :   -0.319039
   3 C :   -0.029922
   4 O :   -0.506582
   5 H :    0.171654
   6 H :    0.164383
   7 H :    0.153530
   8 H :    0.150211
   9 H :    0.155013
  10 H :    0.182469
  11 H :    0.149147
  12 C :   -0.008121
  13 H :    0.130216
  14 H :    0.161242
  15 O :   -0.557436
  16 C :    0.056226
  17 C :    0.118218
  18 C :   -0.315508
  19 C :   -0.012612
  20 O :   -0.521552
  21 H :    0.164520
  22 H :    0.149896
  23 O :   -0.640626
  24 H :    0.156234
  25 H :    0.143291
  26 H :    0.136241
  27 H :    0.150104
  28 H :    0.406323
Sum of atomic charges:   -0.0000000

LOEWDIN ATOMIC CHARGES
----------------------
   0 C :    0.176672
   1 C :   -0.228888
   2 C :   -0.222597
   3 C :   -0.039386
   4 O :   -0.316474
   5 H :    0.113447
   6 H :    0.127454
   7 H :    0.119482
   8 H :    0.118714
   9 H :    0.106373
  10 H :    0.120386
  11 H :    0.106763
  12 C :   -0.040979
  13 H :    0.096795
  14 H :    0.113179
  15 O :   -0.342097
  16 C :    0.018341
  17 C :    0.041700
  18 C :   -0.237070
  19 C :   -0.031878
  20 O :   -0.322284
  21 H :    0.116454
  22 H :    0.104825
  23 O :   -0.426699
  24 H :    0.122939
  25 H :    0.106346
  26 H :    0.099323
  27 H :    0.106599
  28 H :    0.292560

  Mayer bond orders larger than 0.100000
B(  0-C ,  1-C ) :   0.9305 B(  0-C ,  4-O ) :   0.9069 B(  0-C ,  5-H ) :   0.9318
B(  0-C , 15-O ) :   0.8630 B(  1-C ,  2-C ) :   0.9495 B(  1-C ,  6-H ) :   0.9328
B(  1-C ,  7-H ) :   0.9337 B(  2-C ,  3-C ) :   0.9478 B(  2-C ,  8-H ) :   0.9444
B(  2-C ,  9-H ) :   0.9277 B(  3-C ,  4-O ) :   0.8210 B(  3-C , 10-H ) :   0.9128
B(  3-C , 11-H ) :   0.9386 B( 12-C , 13-H ) :   0.9122 B( 12-C , 14-H ) :   0.9300
B( 12-C , 15-O ) :   0.7976 B( 12-C , 16-C ) :   0.9025 B( 16-C , 17-C ) :   0.9092
B( 16-C , 20-O ) :   0.8497 B( 16-C , 21-H ) :   0.9289 B( 17-C , 18-C ) :   0.9070
B( 17-C , 22-H ) :   0.9250 B( 17-C , 23-O ) :   0.9312 B( 18-C , 19-C ) :   0.9408
B( 18-C , 24-H ) :   0.9438 B( 18-C , 25-H ) :   0.9360 B( 19-C , 20-O ) :   0.8330
B( 19-C , 26-H ) :   0.9349 B( 19-C , 27-H ) :   0.9385 B( 23-O , 28-H ) :   0.7122

FINAL SINGLE POINT ENERGY      -652.857701294213

DIPOLE MOMENT
-------------
                                X             Y             Z
Electronic contribution:     -4.09316      -4.99084      -0.64076
Nuclear contribution   :      5.16200       6.09101       0.05213
                        -----------------------------------------
Total Dipole Moment    :      1.06884       1.10018      -0.58863
                        -----------------------------------------
Magnitude (a.u.)       :      1.64295
Magnitude (Debye)      :      4.17605

Rotational constants in cm-1:     0.045123     0.018417     0.017530
Rotational constants in MHz :  1352.765836   552.128392   525.535068

                             ****ORCA TERMINATED NORMALLY****
TOTAL RUN TIME: 0 days 0 hours 56 minutes 11 seconds 330 msec
