                         Program Version 4.2.0 -  RELEASE  -
|  1> # Test redundant internal optimization
|  2> #
|  3> ! RKS B3LYP  Opt TightSCF SmallPrint
|  4>
|  5> %basis
|  6>         Basis "6-31G"
|  7> end
|  8>
|  9> %geom
| 10> Constraints
| 11> { D 4  0  15  12  300.0   C } # D for Dihedral angle
| 12> { D 0  15  12  16  300.0   C } # D for Dihedral angle
| 13> { D 0  4  3  2   C } # D for Dihedral angle
| 14> { D 4  3  2  1   C } # D for Dihedral angle
| 15> { D 3  2  1  0   C } # D for Dihedral angle
| 16> { D 2  1  0  4   C } # D for Dihedral angle
| 17> { D 1  0  4  3   C } # D for Dihedral angle
| 18> { D 16  20  19  18   C } # D for Dihedral angle
| 19> { D 20  19  18  17   C } # D for Dihedral angle
| 20> { D 19  18  17  16   C } # D for Dihedral angle
| 21> { D 18  17  16  20   C } # D for Dihedral angle
| 22> { D 17  16  20  19   C } # D for Dihedral angle
| 23> { D 15  12  16  20   C } # D for Dihedral angle
| 24> end
| 25> end
| 26>
| 27>
| 28> #%pal
| 29> #nprocs 8
| 30> #end
| 31>
| 32> * xyz 0 1
| 33> C  -21.048   26.222   46.251
| 34> C  -20.361   27.558   45.944
| 35> C  -20.329   28.222   47.341
| 36> C  -20.110   27.022   48.296
| 37> O  -20.473   25.807   47.535
| 38> H  -20.833   25.428   45.533
| 39> H  -19.344   27.382   45.576
| 40> H  -20.898   28.157   45.201
| 41> H  -19.543   28.978   47.434
| 42> H  -21.289   28.710   47.548
| 43> H  -20.733   27.082   49.195
| 44> H  -19.064   26.913   48.597
| 45> C  -23.362   25.116   46.798
| 46> H  -23.008   24.788   47.783
| 47> H  -24.436   25.326   46.871
| 48> O  -22.586   26.394   46.375
| 49> C  -23.177   23.943   45.796
| 50> C  -23.567   24.358   44.373
| 51> C  -22.313   25.144   43.921
| 52> C  -21.153   24.381   44.607
| 53> O  -21.760   23.577   45.690
| 54> H  -23.706   23.065   46.172
| 55> H  -23.712   23.470   43.749
| 56> O  -24.864   25.211   44.320
| 57> H  -22.203   25.180   42.833
| 58> H  -22.364   26.177   44.286
| 59> H  -20.403   25.053   45.036
| 60> H  -20.655   23.681   43.929
| 61> H  -24.741   26.107   44.939
| 62> *
| 63>
| 64>                          ****END OF INPUT****
 Total Charge           Charge          ....    0
 Multiplicity           Mult            ....    1
 Number of Electrons    NEL             ....  102
FINAL SINGLE POINT ENERGY      -652.687486453668
FINAL SINGLE POINT ENERGY      -652.756347161956
FINAL SINGLE POINT ENERGY      -652.798525459184
FINAL SINGLE POINT ENERGY      -652.823927926682
FINAL SINGLE POINT ENERGY      -652.839056279996
FINAL SINGLE POINT ENERGY      -652.848047805568
FINAL SINGLE POINT ENERGY      -652.852624166712
FINAL SINGLE POINT ENERGY      -652.855391591168
FINAL SINGLE POINT ENERGY      -652.855035901473
FINAL SINGLE POINT ENERGY      -652.856207544249
FINAL SINGLE POINT ENERGY      -652.857534792862
FINAL SINGLE POINT ENERGY      -652.857539970933
FINAL SINGLE POINT ENERGY      -652.857546343883
FINAL SINGLE POINT ENERGY      -652.857552286766
FINAL SINGLE POINT ENERGY      -652.857556903947
FINAL SINGLE POINT ENERGY      -652.857561077806
FINAL SINGLE POINT ENERGY      -652.857566071493
FINAL SINGLE POINT ENERGY      -652.857570843933
FINAL SINGLE POINT ENERGY      -652.857574374969
                    ***********************HURRAY********************

CARTESIAN COORDINATES (ANGSTROEM)
---------------------------------
  C    -20.907278   26.448909   46.353924
  C    -20.410519   27.889959   46.234694
  C    -20.459610   28.364191   47.706339
  C    -20.075980   27.094064   48.496190
  O    -20.282725   25.955855   47.562157
  H    -20.596852   25.778621   45.559201
  H    -19.383244   27.885748   45.853315
  H    -21.036045   28.489818   45.569989
  H    -19.777538   29.196664   47.903064
  H    -21.476222   28.681321   47.954832
  H    -20.692420   26.938114   49.385166
  H    -19.020101   27.072924   48.781894
  C    -23.102860   25.294188   46.743950
  H    -22.796850   24.934069   47.733560
  H    -24.142599   25.626971   46.798958
  O    -22.345532   26.514992   46.470995
  C    -23.065893   24.086373   45.791264
  C    -23.680120   24.314716   44.397398
  C    -22.429996   24.728952   43.556683
  C    -21.308379   23.869277   44.182071
  O    -21.802580   23.422173   45.509482
  H    -23.660717   23.335894   46.330137
  H    -24.110446   23.384960   44.020127
  O    -24.765265   25.269822   44.362651
  H    -22.563633   24.545339   42.487357
  H    -22.245070   25.800002   43.706532
  H    -20.361261   24.402532   44.304514
  H    -21.114805   22.961109   43.603249
  H    -24.420462   26.164446   44.569308

 Multiplicity           Mult            ....    1
 Number of Electrons    NEL             ....  102
 Basis Dimension        Dim             ....  149

ORBITAL ENERGIES
----------------

  NO   OCC          E(Eh)            E(eV)
   0   2.0000     -19.147714      -521.0358
   1   2.0000     -19.144493      -520.9481
   2   2.0000     -19.143416      -520.9188
   3   2.0000     -19.138900      -520.7959
   4   2.0000     -10.276883      -279.6482
   5   2.0000     -10.241463      -278.6844
   6   2.0000     -10.233608      -278.4706
   7   2.0000     -10.232389      -278.4375
   8   2.0000     -10.227803      -278.3127
   9   2.0000     -10.224295      -278.2172
  10   2.0000     -10.192228      -277.3446
  11   2.0000     -10.186058      -277.1767
  12   2.0000     -10.184851      -277.1439
  13   2.0000      -1.053649       -28.6712
  14   2.0000      -1.032580       -28.0979
  15   2.0000      -1.015728       -27.6394
  16   2.0000      -0.992164       -26.9981
  17   2.0000      -0.789436       -21.4816
  18   2.0000      -0.778149       -21.1745
  19   2.0000      -0.769239       -20.9320
  20   2.0000      -0.732734       -19.9387
  21   2.0000      -0.681011       -18.5313
  22   2.0000      -0.610212       -16.6047
  23   2.0000      -0.605698       -16.4819
  24   2.0000      -0.597578       -16.2609
  25   2.0000      -0.563133       -15.3236
  26   2.0000      -0.530886       -14.4461
  27   2.0000      -0.508379       -13.8337
  28   2.0000      -0.501602       -13.6493
  29   2.0000      -0.483620       -13.1600
  30   2.0000      -0.466692       -12.6993
  31   2.0000      -0.462076       -12.5737
  32   2.0000      -0.442705       -12.0466
  33   2.0000      -0.437488       -11.9047
  34   2.0000      -0.427080       -11.6214
  35   2.0000      -0.412538       -11.2257
  36   2.0000      -0.405782       -11.0419
  37   2.0000      -0.395910       -10.7733
  38   2.0000      -0.380485       -10.3535
  39   2.0000      -0.369587       -10.0570
  40   2.0000      -0.360650        -9.8138
  41   2.0000      -0.356287        -9.6951
  42   2.0000      -0.345438        -9.3999
  43   2.0000      -0.333228        -9.0676
  44   2.0000      -0.328403        -8.9363
  45   2.0000      -0.312288        -8.4978
  46   2.0000      -0.297175        -8.0866
  47   2.0000      -0.275225        -7.4892
  48   2.0000      -0.266157        -7.2425
  49   2.0000      -0.253580        -6.9003
  50   2.0000      -0.241094        -6.5605
  51   0.0000       0.064612         1.7582
  52   0.0000       0.077022         2.0959
  53   0.0000       0.090488         2.4623
  54   0.0000       0.096886         2.6364
  55   0.0000       0.101686         2.7670

MULLIKEN ATOMIC CHARGES
-----------------------
   0 C :    0.291917
   1 C :   -0.261910
   2 C :   -0.293985
   3 C :   -0.007037
   4 O :   -0.507153
   5 H :    0.149095
   6 H :    0.143613
   7 H :    0.150692
   8 H :    0.139682
   9 H :    0.160644
  10 H :    0.146951
  11 H :    0.143918
  12 C :   -0.031828
  13 H :    0.160116
  14 H :    0.156319
  15 O :   -0.545168
  16 C :    0.085180
  17 C :    0.091561
  18 C :   -0.323903
  19 C :   -0.021006
  20 O :   -0.512477
  21 H :    0.154477
  22 H :    0.164412
  23 O :   -0.604815
  24 H :    0.157724
  25 H :    0.148411
  26 H :    0.147057
  27 H :    0.150813
  28 H :    0.366701
Sum of atomic charges:    0.0000000

LOEWDIN ATOMIC CHARGES
----------------------
   0 C :    0.171334
   1 C :   -0.215917
   2 C :   -0.215505
   3 C :   -0.028502
   4 O :   -0.321427
   5 H :    0.100965
   6 H :    0.113112
   7 H :    0.120803
   8 H :    0.112987
   9 H :    0.118472
  10 H :    0.104870
  11 H :    0.103352
  12 C :   -0.055083
  13 H :    0.112065
  14 H :    0.119944
  15 O :   -0.339309
  16 C :    0.005176
  17 C :    0.035300
  18 C :   -0.243844
  19 C :   -0.033411
  20 O :   -0.315131
  21 H :    0.118845
  22 H :    0.117210
  23 O :   -0.408594
  24 H :    0.122559
  25 H :    0.110945
  26 H :    0.098100
  27 H :    0.106830
  28 H :    0.283854

  Mayer bond orders larger than 0.100000
B(  0-C ,  1-C ) :   0.9457 B(  0-C ,  4-O ) :   0.9133 B(  0-C ,  5-H ) :   0.8980
B(  0-C , 15-O ) :   0.8437 B(  1-C ,  2-C ) :   0.9564 B(  1-C ,  6-H ) :   0.9410
B(  1-C ,  7-H ) :   0.9365 B(  2-C ,  3-C ) :   0.9544 B(  2-C ,  8-H ) :   0.9455
B(  2-C ,  9-H ) :   0.9445 B(  3-C ,  4-O ) :   0.8379 B(  3-C , 10-H ) :   0.9358
B(  3-C , 11-H ) :   0.9402 B( 12-C , 13-H ) :   0.9228 B( 12-C , 14-H ) :   0.9200
B( 12-C , 15-O ) :   0.8476 B( 12-C , 16-C ) :   0.8953 B( 16-C , 17-C ) :   0.8777
B( 16-C , 20-O ) :   0.8735 B( 16-C , 21-H ) :   0.9186 B( 17-C , 18-C ) :   0.9241
B( 17-C , 22-H ) :   0.9364 B( 17-C , 23-O ) :   0.9045 B( 18-C , 19-C ) :   0.9395
B( 18-C , 24-H ) :   0.9410 B( 18-C , 25-H ) :   0.9366 B( 19-C , 20-O ) :   0.8409
B( 19-C , 26-H ) :   0.9131 B( 19-C , 27-H ) :   0.9376 B( 23-O , 28-H ) :   0.7897

FINAL SINGLE POINT ENERGY      -652.857575901479

DIPOLE MOMENT
-------------
                                X             Y             Z
Electronic contribution:     -2.51915      -3.85731       0.26705
Nuclear contribution   :      2.99909       4.74122      -0.59693
                        -----------------------------------------
Total Dipole Moment    :      0.47994       0.88391      -0.32988
                        -----------------------------------------
Magnitude (a.u.)       :      1.05852
Magnitude (Debye)      :      2.69054

Rotational constants in cm-1:     0.049769     0.015952     0.015053
Rotational constants in MHz :  1492.022697   478.214877   451.273044

                             ****ORCA TERMINATED NORMALLY****
TOTAL RUN TIME: 0 days 2 hours 50 minutes 21 seconds 603 msec
