                         Program Version 4.2.0 -  RELEASE  -
|  1> # Test redundant internal optimization
|  2> #
|  3> ! RKS B3LYP  Opt TightSCF SmallPrint
|  4>
|  5> %basis
|  6>         Basis "6-31G"
|  7> end
|  8>
|  9> %geom
| 10> Constraints
| 11> { D 4  0  15  12  150.0   C } # D for Dihedral angle
| 12> { D 0  15  12  16  45.0   C } # D for Dihedral angle
| 13> { D 0  4  3  2   C } # D for Dihedral angle
| 14> { D 4  3  2  1   C } # D for Dihedral angle
| 15> { D 3  2  1  0   C } # D for Dihedral angle
| 16> { D 2  1  0  4   C } # D for Dihedral angle
| 17> { D 1  0  4  3   C } # D for Dihedral angle
| 18> { D 16  20  19  18   C } # D for Dihedral angle
| 19> { D 20  19  18  17   C } # D for Dihedral angle
| 20> { D 19  18  17  16   C } # D for Dihedral angle
| 21> { D 18  17  16  20   C } # D for Dihedral angle
| 22> { D 17  16  20  19   C } # D for Dihedral angle
| 23> { D 15  12  16  20   C } # D for Dihedral angle
| 24> end
| 25> end
| 26>
| 27>
| 28> #%pal
| 29> #nprocs 8
| 30> #end
| 31>
| 32> * xyz 0 1
| 33> C  -21.048   26.222   46.251
| 34> C  -20.361   27.558   45.944
| 35> C  -20.329   28.222   47.341
| 36> C  -20.110   27.022   48.296
| 37> O  -20.473   25.807   47.535
| 38> H  -20.833   25.428   45.533
| 39> H  -19.344   27.382   45.576
| 40> H  -20.898   28.157   45.201
| 41> H  -19.543   28.978   47.434
| 42> H  -21.289   28.710   47.548
| 43> H  -20.733   27.082   49.195
| 44> H  -19.064   26.913   48.597
| 45> C  -23.210   27.459   45.431
| 46> H  -24.298   27.325   45.404
| 47> H  -22.997   28.470   45.801
| 48> O  -22.586   26.394   46.375
| 49> C  -22.669   27.363   43.978
| 50> C  -23.217   28.497   43.105
| 51> C  -22.314   29.681   43.526
| 52> C  -20.945   29.004   43.786
| 53> O  -21.216   27.561   43.957
| 54> H  -22.862   26.361   43.590
| 55> H  -23.073   28.260   42.045
| 56> O  -24.726   28.777   43.343
| 57> H  -22.255   30.463   42.762
| 58> H  -22.699   30.140   44.445
| 59> H  -20.454   29.386   44.689
| 60> H  -20.261   29.106   42.939
| 61> H  -24.895   29.018   44.398
| 62> *
| 63>
| 64>                          ****END OF INPUT****
 Total Charge           Charge          ....    0
 Multiplicity           Mult            ....    1
 Number of Electrons    NEL             ....  102
FINAL SINGLE POINT ENERGY      -652.723882832018
FINAL SINGLE POINT ENERGY      -652.813687250063
FINAL SINGLE POINT ENERGY      -652.836459282548
FINAL SINGLE POINT ENERGY      -652.841976726995
FINAL SINGLE POINT ENERGY      -652.842822428932
FINAL SINGLE POINT ENERGY      -652.843023277325
FINAL SINGLE POINT ENERGY      -652.843056144052
FINAL SINGLE POINT ENERGY      -652.843063161755
FINAL SINGLE POINT ENERGY      -652.843065583316
FINAL SINGLE POINT ENERGY      -652.843056523742
FINAL SINGLE POINT ENERGY      -652.843052737414
                    ***********************HURRAY********************

CARTESIAN COORDINATES (ANGSTROEM)
---------------------------------
  C    -20.912469   26.147473   46.385595
  C    -19.937600   27.311712   46.210153
  C    -20.112320   28.086488   47.542773
  C    -20.355180   26.948101   48.558384
  O    -20.746661   25.767822   47.760791
  H    -20.712365   25.267181   45.774046
  H    -18.924447   26.895650   46.146421
  H    -20.123515   27.892116   45.312979
  H    -19.235410   28.691190   47.794128
  H    -20.981203   28.752452   47.488548
  H    -21.152882   27.170638   49.272438
  H    -19.448469   26.672092   49.106353
  C    -22.994696   27.434723   45.382046
  H    -24.047280   27.141738   45.431889
  H    -22.903037   28.445125   45.822328
  O    -22.332924   26.489611   46.258088
  C    -22.624471   27.501952   43.888994
  C    -23.445528   28.553671   43.119697
  C    -22.580970   29.840485   43.314500
  C    -21.140408   29.287718   43.296939
  O    -21.241260   27.823556   43.558184
  H    -22.781763   26.501795   43.468400
  H    -23.479936   28.279316   42.063507
  O    -24.832156   28.679679   43.507149
  H    -22.762320   30.581501   42.532048
  H    -22.821241   30.300481   44.282099
  H    -20.498636   29.742259   44.059091
  H    -20.660282   29.398568   42.320666
  H    -24.912569   29.140907   44.366767

 Multiplicity           Mult            ....    1
 Number of Electrons    NEL             ....  102
 Basis Dimension        Dim             ....  149

ORBITAL ENERGIES
----------------

  NO   OCC          E(Eh)            E(eV)
   0   2.0000     -19.157853      -521.3117
   1   2.0000     -19.155774      -521.2551
   2   2.0000     -19.129758      -520.5472
   3   2.0000     -19.127464      -520.4848
   4   2.0000     -10.271958      -279.5142
   5   2.0000     -10.254734      -279.0455
   6   2.0000     -10.244218      -278.7593
   7   2.0000     -10.240152      -278.6487
   8   2.0000     -10.236313      -278.5442
   9   2.0000     -10.218411      -278.0571
  10   2.0000     -10.205696      -277.7111
  11   2.0000     -10.182750      -277.0867
  12   2.0000     -10.171594      -276.7831
  13   2.0000      -1.046880       -28.4871
  14   2.0000      -1.039775       -28.2937
  15   2.0000      -1.028358       -27.9830
  16   2.0000      -0.980109       -26.6701
  17   2.0000      -0.793385       -21.5891
  18   2.0000      -0.778135       -21.1741
  19   2.0000      -0.773675       -21.0528
  20   2.0000      -0.731825       -19.9140
  21   2.0000      -0.685283       -18.6475
  22   2.0000      -0.622954       -16.9514
  23   2.0000      -0.605317       -16.4715
  24   2.0000      -0.592758       -16.1298
  25   2.0000      -0.562106       -15.2957
  26   2.0000      -0.533837       -14.5264
  27   2.0000      -0.519195       -14.1280
  28   2.0000      -0.498061       -13.5529
  29   2.0000      -0.481261       -13.0958
  30   2.0000      -0.472940       -12.8693
  31   2.0000      -0.459526       -12.5043
  32   2.0000      -0.447483       -12.1766
  33   2.0000      -0.440412       -11.9842
  34   2.0000      -0.431779       -11.7493
  35   2.0000      -0.426600       -11.6084
  36   2.0000      -0.408307       -11.1106
  37   2.0000      -0.398971       -10.8566
  38   2.0000      -0.390160       -10.6168
  39   2.0000      -0.368223       -10.0199
  40   2.0000      -0.361398        -9.8342
  41   2.0000      -0.355381        -9.6704
  42   2.0000      -0.345011        -9.3882
  43   2.0000      -0.338275        -9.2049
  44   2.0000      -0.324212        -8.8223
  45   2.0000      -0.304757        -8.2929
  46   2.0000      -0.288705        -7.8561
  47   2.0000      -0.281939        -7.6719
  48   2.0000      -0.257870        -7.0170
  49   2.0000      -0.249779        -6.7968
  50   2.0000      -0.237525        -6.4634
  51   0.0000       0.043629         1.1872
  52   0.0000       0.059994         1.6325
  53   0.0000       0.081190         2.2093
  54   0.0000       0.093811         2.5527
  55   0.0000       0.098807         2.6887

MULLIKEN ATOMIC CHARGES
-----------------------
   0 C :    0.319915
   1 C :   -0.296246
   2 C :   -0.307862
   3 C :    0.002640
   4 O :   -0.495648
   5 H :    0.151628
   6 H :    0.140101
   7 H :    0.186640
   8 H :    0.137165
   9 H :    0.142131
  10 H :    0.146853
  11 H :    0.140982
  12 C :   -0.000548
  13 H :    0.169159
  14 H :    0.100129
  15 O :   -0.544529
  16 C :    0.078852
  17 C :    0.085290
  18 C :   -0.319618
  19 C :   -0.020824
  20 O :   -0.516436
  21 H :    0.162297
  22 H :    0.172124
  23 O :   -0.596347
  24 H :    0.164840
  25 H :    0.135740
  26 H :    0.142780
  27 H :    0.158242
  28 H :    0.360550
Sum of atomic charges:   -0.0000000

LOEWDIN ATOMIC CHARGES
----------------------
   0 C :    0.196180
   1 C :   -0.238890
   2 C :   -0.221028
   3 C :   -0.028199
   4 O :   -0.304831
   5 H :    0.104898
   6 H :    0.115025
   7 H :    0.133277
   8 H :    0.111784
   9 H :    0.106143
  10 H :    0.105065
  11 H :    0.101414
  12 C :   -0.044314
  13 H :    0.125589
  14 H :    0.075221
  15 O :   -0.345542
  16 C :    0.003608
  17 C :    0.037666
  18 C :   -0.240442
  19 C :   -0.032416
  20 O :   -0.319375
  21 H :    0.116241
  22 H :    0.121343
  23 O :   -0.402667
  24 H :    0.126066
  25 H :    0.105634
  26 H :    0.101070
  27 H :    0.110428
  28 H :    0.281053

  Mayer bond orders larger than 0.100000
B(  0-C ,  1-C ) :   0.9372 B(  0-C ,  4-O ) :   0.9290 B(  0-C ,  5-H ) :   0.9282
B(  0-C , 15-O ) :   0.8177 B(  1-C ,  2-C ) :   0.9464 B(  1-C ,  6-H ) :   0.9356
B(  1-C ,  7-H ) :   0.8967 B(  2-C ,  3-C ) :   0.9528 B(  2-C ,  8-H ) :   0.9460
B(  2-C ,  9-H ) :   0.9470 B(  3-C ,  4-O ) :   0.8411 B(  3-C , 10-H ) :   0.9354
B(  3-C , 11-H ) :   0.9394 B( 12-C , 13-H ) :   0.9135 B( 12-C , 14-H ) :   0.9151
B( 12-C , 15-O ) :   0.8662 B( 12-C , 16-C ) :   0.8905 B( 16-C , 17-C ) :   0.8644
B( 16-C , 20-O ) :   0.8490 B( 16-C , 21-H ) :   0.9289 B( 17-C , 18-C ) :   0.9230
B( 17-C , 22-H ) :   0.9325 B( 17-C , 23-O ) :   0.9067 B( 18-C , 19-C ) :   0.9413
B( 18-C , 24-H ) :   0.9408 B( 18-C , 25-H ) :   0.9397 B( 19-C , 20-O ) :   0.8343
B( 19-C , 26-H ) :   0.9269 B( 19-C , 27-H ) :   0.9383 B( 23-O , 28-H ) :   0.7956

FINAL SINGLE POINT ENERGY      -652.843053098831

DIPOLE MOMENT
-------------
                                X             Y             Z
Electronic contribution:     -2.87811      -5.52810      -0.94165
Nuclear contribution   :      3.33336       7.41868       0.52624
                        -----------------------------------------
Total Dipole Moment    :      0.45524       1.89058      -0.41541
                        -----------------------------------------
Magnitude (a.u.)       :      1.98849
Magnitude (Debye)      :      5.05435

Rotational constants in cm-1:     0.052423     0.014911     0.013435
Rotational constants in MHz :  1571.605250   447.024726   402.774021

                             ****ORCA TERMINATED NORMALLY****
TOTAL RUN TIME: 0 days 0 hours 33 minutes 32 seconds 780 msec
