                         Program Version 4.2.0 -  RELEASE  -
|  1> # Test redundant internal optimization
|  2> #
|  3> ! RKS B3LYP  Opt TightSCF SmallPrint
|  4>
|  5> %basis
|  6>         Basis "6-31G"
|  7> end
|  8>
|  9> %geom
| 10> Constraints
| 11> { D 4  0  15  12  315.0   C } # D for Dihedral angle
| 12> { D 0  15  12  16  330.0   C } # D for Dihedral angle
| 13> { D 0  4  3  2   C } # D for Dihedral angle
| 14> { D 4  3  2  1   C } # D for Dihedral angle
| 15> { D 3  2  1  0   C } # D for Dihedral angle
| 16> { D 2  1  0  4   C } # D for Dihedral angle
| 17> { D 1  0  4  3   C } # D for Dihedral angle
| 18> { D 16  20  19  18   C } # D for Dihedral angle
| 19> { D 20  19  18  17   C } # D for Dihedral angle
| 20> { D 19  18  17  16   C } # D for Dihedral angle
| 21> { D 18  17  16  20   C } # D for Dihedral angle
| 22> { D 17  16  20  19   C } # D for Dihedral angle
| 23> { D 15  12  16  20   C } # D for Dihedral angle
| 24> end
| 25> end
| 26>
| 27>
| 28> #%pal
| 29> #nprocs 8
| 30> #end
| 31>
| 32> * xyz 0 1
| 33> C  -21.048   26.222   46.251
| 34> C  -20.361   27.558   45.944
| 35> C  -20.329   28.222   47.341
| 36> C  -20.110   27.022   48.296
| 37> O  -20.473   25.807   47.535
| 38> H  -20.833   25.428   45.533
| 39> H  -19.344   27.382   45.576
| 40> H  -20.898   28.157   45.201
| 41> H  -19.543   28.978   47.434
| 42> H  -21.289   28.710   47.548
| 43> H  -20.733   27.082   49.195
| 44> H  -19.064   26.913   48.597
| 45> C  -23.319   25.255   47.135
| 46> H  -23.368   25.505   48.202
| 47> H  -24.345   25.142   46.761
| 48> O  -22.586   26.394   46.375
| 49> C  -22.608   23.881   46.988
| 50> C  -23.418   22.761   47.651
| 51> C  -24.505   22.487   46.585
| 52> C  -23.752   22.709   45.250
| 53> O  -22.539   23.488   45.576
| 54> H  -21.581   23.969   47.347
| 55> H  -22.788   21.877   47.798
| 56> O  -24.013   23.172   49.026
| 57> H  -24.931   21.481   46.662
| 58> H  -25.326   23.206   46.690
| 59> H  -24.350   23.266   44.519
| 60> H  -23.421   21.771   44.796
| 61> H  -24.649   24.055   48.905
| 62> *
| 63>
| 64>                          ****END OF INPUT****
 Total Charge           Charge          ....    0
 Multiplicity           Mult            ....    1
 Number of Electrons    NEL             ....  102
FINAL SINGLE POINT ENERGY      -652.831009173926
FINAL SINGLE POINT ENERGY      -652.854675622355
FINAL SINGLE POINT ENERGY      -652.859382318467
FINAL SINGLE POINT ENERGY      -652.860123570277
FINAL SINGLE POINT ENERGY      -652.860260585987
FINAL SINGLE POINT ENERGY      -652.860286131624
FINAL SINGLE POINT ENERGY      -652.860289313343
                    ***********************HURRAY********************

CARTESIAN COORDINATES (ANGSTROEM)
---------------------------------
  C    -21.005054   26.207293   46.244045
  C    -20.442180   27.602054   45.965676
  C    -20.401054   28.212855   47.384243
  C    -20.045970   27.004631   48.281147
  O    -20.350639   25.793718   47.472404
  H    -20.772871   25.434003   45.508429
  H    -19.435714   27.505208   45.543275
  H    -21.069894   28.164424   45.271576
  H    -19.670670   29.022923   47.474609
  H    -21.388731   28.606554   47.641105
  H    -20.628605   26.968680   49.205579
  H    -18.980786   26.955931   48.526012
  C    -23.186619   25.296057   47.072104
  H    -23.259229   25.565828   48.134646
  H    -24.185004   25.344668   46.626013
  O    -22.437578   26.339317   46.377214
  C    -22.606298   23.880947   46.988162
  C    -23.488614   22.826102   47.682110
  C    -24.560983   22.533518   46.586880
  C    -23.747859   22.654994   45.277780
  O    -22.511495   23.405368   45.608363
  H    -21.590726   23.885945   47.383428
  H    -22.891047   21.933139   47.877882
  O    -24.021143   23.197919   48.975382
  H    -25.022438   21.550570   46.711580
  H    -25.356067   23.289431   46.639547
  H    -24.288098   23.186782   44.488064
  H    -23.436447   21.678835   44.894633
  H    -24.742190   23.852304   48.875113

 Multiplicity           Mult            ....    1
 Number of Electrons    NEL             ....  102
 Basis Dimension        Dim             ....  149

ORBITAL ENERGIES
----------------

  NO   OCC          E(Eh)            E(eV)
   0   2.0000     -19.147715      -521.0358
   1   2.0000     -19.139371      -520.8088
   2   2.0000     -19.136189      -520.7222
   3   2.0000     -19.134832      -520.6853
   4   2.0000     -10.269184      -279.4387
   5   2.0000     -10.242891      -278.7232
   6   2.0000     -10.229224      -278.3513
   7   2.0000     -10.225681      -278.2549
   8   2.0000     -10.223314      -278.1905
   9   2.0000     -10.222669      -278.1730
  10   2.0000     -10.194014      -277.3932
  11   2.0000     -10.182019      -277.0668
  12   2.0000     -10.179900      -277.0092
  13   2.0000      -1.048084       -28.5198
  14   2.0000      -1.031070       -28.0568
  15   2.0000      -1.013512       -27.5791
  16   2.0000      -0.985715       -26.8227
  17   2.0000      -0.785974       -21.3874
  18   2.0000      -0.779445       -21.2098
  19   2.0000      -0.760143       -20.6845
  20   2.0000      -0.729964       -19.8633
  21   2.0000      -0.675908       -18.3924
  22   2.0000      -0.610153       -16.6031
  23   2.0000      -0.598482       -16.2855
  24   2.0000      -0.594982       -16.1903
  25   2.0000      -0.558299       -15.1921
  26   2.0000      -0.526285       -14.3209
  27   2.0000      -0.507643       -13.8137
  28   2.0000      -0.496506       -13.5106
  29   2.0000      -0.482529       -13.1303
  30   2.0000      -0.464698       -12.6451
  31   2.0000      -0.455081       -12.3834
  32   2.0000      -0.438700       -11.9376
  33   2.0000      -0.429241       -11.6802
  34   2.0000      -0.426080       -11.5942
  35   2.0000      -0.411383       -11.1943
  36   2.0000      -0.402447       -10.9511
  37   2.0000      -0.398502       -10.8438
  38   2.0000      -0.379943       -10.3388
  39   2.0000      -0.366368        -9.9694
  40   2.0000      -0.355909        -9.6848
  41   2.0000      -0.353107        -9.6085
  42   2.0000      -0.343167        -9.3381
  43   2.0000      -0.329057        -8.9541
  44   2.0000      -0.322438        -8.7740
  45   2.0000      -0.313152        -8.5213
  46   2.0000      -0.295711        -8.0467
  47   2.0000      -0.269110        -7.3228
  48   2.0000      -0.263505        -7.1703
  49   2.0000      -0.247758        -6.7418
  50   2.0000      -0.234399        -6.3783
  51   0.0000       0.052882         1.4390
  52   0.0000       0.079110         2.1527
  53   0.0000       0.091620         2.4931
  54   0.0000       0.094761         2.5786
  55   0.0000       0.107770         2.9326

MULLIKEN ATOMIC CHARGES
-----------------------
   0 C :    0.288274
   1 C :   -0.261122
   2 C :   -0.299877
   3 C :   -0.006381
   4 O :   -0.521863
   5 H :    0.175025
   6 H :    0.144724
   7 H :    0.160042
   8 H :    0.140396
   9 H :    0.158559
  10 H :    0.144582
  11 H :    0.144661
  12 C :    0.009354
  13 H :    0.133476
  14 H :    0.134469
  15 O :   -0.538666
  16 C :    0.051303
  17 C :    0.081631
  18 C :   -0.321663
  19 C :   -0.007376
  20 O :   -0.521764
  21 H :    0.204345
  22 H :    0.168251
  23 O :   -0.597831
  24 H :    0.155463
  25 H :    0.133285
  26 H :    0.144666
  27 H :    0.149240
  28 H :    0.354795
Sum of atomic charges:    0.0000000

LOEWDIN ATOMIC CHARGES
----------------------
   0 C :    0.172715
   1 C :   -0.212290
   2 C :   -0.216659
   3 C :   -0.029859
   4 O :   -0.331948
   5 H :    0.110710
   6 H :    0.113871
   7 H :    0.125982
   8 H :    0.113128
   9 H :    0.117313
  10 H :    0.103381
  11 H :    0.103598
  12 C :   -0.045834
  13 H :    0.099431
  14 H :    0.103296
  15 O :   -0.327584
  16 C :   -0.001933
  17 C :    0.038441
  18 C :   -0.241560
  19 C :   -0.029492
  20 O :   -0.325361
  21 H :    0.135096
  22 H :    0.119599
  23 O :   -0.405625
  24 H :    0.121848
  25 H :    0.103705
  26 H :    0.103067
  27 H :    0.105844
  28 H :    0.277118

  Mayer bond orders larger than 0.100000
B(  0-C ,  1-C ) :   0.9451 B(  0-C ,  4-O ) :   0.8775 B(  0-C ,  5-H ) :   0.9119
B(  0-C , 15-O ) :   0.8538 B(  1-C ,  2-C ) :   0.9536 B(  1-C ,  6-H ) :   0.9399
B(  1-C ,  7-H ) :   0.9363 B(  2-C ,  3-C ) :   0.9557 B(  2-C ,  8-H ) :   0.9452
B(  2-C ,  9-H ) :   0.9450 B(  3-C ,  4-O ) :   0.8330 B(  3-C , 10-H ) :   0.9357
B(  3-C , 11-H ) :   0.9408 B( 12-C , 13-H ) :   0.9072 B( 12-C , 14-H ) :   0.9368
B( 12-C , 15-O ) :   0.8440 B( 12-C , 16-C ) :   0.8999 B( 16-C , 17-C ) :   0.8674
B( 16-C , 20-O ) :   0.8389 B( 16-C , 21-H ) :   0.9006 B( 17-C , 18-C ) :   0.9221
B( 17-C , 22-H ) :   0.9336 B( 17-C , 23-O ) :   0.8996 B( 18-C , 19-C ) :   0.9403
B( 18-C , 24-H ) :   0.9428 B( 18-C , 25-H ) :   0.9406 B( 19-C , 20-O ) :   0.8462
B( 19-C , 26-H ) :   0.9316 B( 19-C , 27-H ) :   0.9380 B( 23-O , 28-H ) :   0.7986

FINAL SINGLE POINT ENERGY      -652.860289232724

DIPOLE MOMENT
-------------
                                X             Y             Z
Electronic contribution:      0.32942      -2.57360       0.02554
Nuclear contribution   :     -0.94587       2.95374      -0.11675
                        -----------------------------------------
Total Dipole Moment    :     -0.61645       0.38014      -0.09120
                        -----------------------------------------
Magnitude (a.u.)       :      0.72996
Magnitude (Debye)      :      1.85541

Rotational constants in cm-1:     0.055643     0.014450     0.012962
Rotational constants in MHz :  1668.138515   433.204943   388.591377

                             ****ORCA TERMINATED NORMALLY****
TOTAL RUN TIME: 0 days 0 hours 28 minutes 25 seconds 312 msec
