                         Program Version 4.2.0 -  RELEASE  -
|  1> # Test redundant internal optimization
|  2> #
|  3> ! RKS B3LYP  Opt TightSCF SmallPrint
|  4>
|  5> %basis
|  6>         Basis "6-31G"
|  7> end
|  8>
|  9> %geom
| 10> Constraints
| 11> { D 4  0  15  12  135.0   C } # D for Dihedral angle
| 12> { D 0  15  12  16  270.0   C } # D for Dihedral angle
| 13> { D 0  4  3  2   C } # D for Dihedral angle
| 14> { D 4  3  2  1   C } # D for Dihedral angle
| 15> { D 3  2  1  0   C } # D for Dihedral angle
| 16> { D 2  1  0  4   C } # D for Dihedral angle
| 17> { D 1  0  4  3   C } # D for Dihedral angle
| 18> { D 16  20  19  18   C } # D for Dihedral angle
| 19> { D 20  19  18  17   C } # D for Dihedral angle
| 20> { D 19  18  17  16   C } # D for Dihedral angle
| 21> { D 18  17  16  20   C } # D for Dihedral angle
| 22> { D 17  16  20  19   C } # D for Dihedral angle
| 23> { D 15  12  16  20   C } # D for Dihedral angle
| 24> end
| 25> end
| 26>
| 27>
| 28> #%pal
| 29> #nprocs 8
| 30> #end
| 31>
| 32> * xyz 0 1
| 33> C  -21.048   26.222   46.251
| 34> C  -20.361   27.558   45.944
| 35> C  -20.329   28.222   47.341
| 36> C  -20.110   27.022   48.296
| 37> O  -20.473   25.807   47.535
| 38> H  -20.833   25.428   45.533
| 39> H  -19.344   27.382   45.576
| 40> H  -20.898   28.157   45.201
| 41> H  -19.543   28.978   47.434
| 42> H  -21.289   28.710   47.548
| 43> H  -20.733   27.082   49.195
| 44> H  -19.064   26.913   48.597
| 45> C  -23.162   27.680   45.721
| 46> H  -22.540   27.957   44.860
| 47> H  -24.184   27.503   45.362
| 48> O  -22.586   26.394   46.375
| 49> C  -23.206   28.885   46.701
| 50> C  -23.884   30.100   46.059
| 51> C  -25.381   29.734   46.198
| 52> C  -25.434   28.983   47.553
| 53> O  -24.048   28.572   47.860
| 54> H  -22.199   29.076   47.078
| 55> O  -23.556   31.384   46.869
| 56> H  -23.582   30.261   45.018
| 57> H  -26.036   30.611   46.181
| 58> H  -25.685   29.072   45.378
| 59> H  -26.073   28.093   47.514
| 60> H  -25.770   29.625   48.372
| 61> H  -23.851   31.244   47.915
| 62> *
| 63>
| 64>                          ****END OF INPUT****
 Total Charge           Charge          ....    0
 Multiplicity           Mult            ....    1
 Number of Electrons    NEL             ....  102
FINAL SINGLE POINT ENERGY      -652.787147128645
FINAL SINGLE POINT ENERGY      -652.822160811278
FINAL SINGLE POINT ENERGY      -652.840818649458
FINAL SINGLE POINT ENERGY      -652.844464388261
FINAL SINGLE POINT ENERGY      -652.845036086907
FINAL SINGLE POINT ENERGY      -652.845130863340
FINAL SINGLE POINT ENERGY      -652.845139501571
                    ***********************HURRAY********************

CARTESIAN COORDINATES (ANGSTROEM)
---------------------------------
  C    -21.094030   26.342356   46.265879
  C    -20.098251   27.468357   45.965438
  C    -19.933902   28.143017   47.359719
  C    -20.034837   26.935312   48.322285
  O    -20.667444   25.844932   47.542806
  H    -20.987539   25.493529   45.584275
  H    -19.156509   27.008500   45.649961
  H    -20.415677   28.162386   45.181444
  H    -18.973874   28.661133   47.450749
  H    -20.720851   28.870466   47.553625
  H    -20.648354   27.140997   49.203378
  H    -19.055312   26.567048   48.639904
  C    -23.166728   27.806737   45.737072
  H    -22.640525   28.166694   44.838370
  H    -24.149287   27.444103   45.420901
  O    -22.524305   26.622976   46.271502
  C    -23.346465   28.986796   46.698228
  C    -24.101980   30.158488   46.052709
  C    -25.580631   29.704359   46.202833
  C    -25.576750   28.959857   47.562792
  O    -24.162056   28.633559   47.861501
  H    -22.388401   29.329817   47.084958
  O    -23.840869   31.396879   46.768795
  H    -23.814637   30.360539   45.019734
  H    -26.251278   30.566997   46.187780
  H    -25.859552   29.035833   45.381160
  H    -26.157094   28.033162   47.540567
  H    -25.945438   29.582622   48.384038
  H    -23.909426   31.227549   47.732598

 Multiplicity           Mult            ....    1
 Number of Electrons    NEL             ....  102
 Basis Dimension        Dim             ....  149

ORBITAL ENERGIES
----------------

  NO   OCC          E(Eh)            E(eV)
   0   2.0000     -19.144268      -520.9420
   1   2.0000     -19.143035      -520.9085
   2   2.0000     -19.136213      -520.7228
   3   2.0000     -19.135476      -520.7028
   4   2.0000     -10.278052      -279.6800
   5   2.0000     -10.247832      -278.8577
   6   2.0000     -10.237637      -278.5803
   7   2.0000     -10.236532      -278.5502
   8   2.0000     -10.232730      -278.4467
   9   2.0000     -10.223370      -278.1921
  10   2.0000     -10.194507      -277.4066
  11   2.0000     -10.193778      -277.3868
  12   2.0000     -10.191178      -277.3160
  13   2.0000      -1.046832       -28.4857
  14   2.0000      -1.039428       -28.2843
  15   2.0000      -1.010148       -27.4875
  16   2.0000      -0.990415       -26.9506
  17   2.0000      -0.789317       -21.4784
  18   2.0000      -0.788161       -21.4469
  19   2.0000      -0.771157       -20.9842
  20   2.0000      -0.734992       -20.0001
  21   2.0000      -0.680745       -18.5240
  22   2.0000      -0.610889       -16.6231
  23   2.0000      -0.608337       -16.5537
  24   2.0000      -0.597954       -16.2712
  25   2.0000      -0.574227       -15.6255
  26   2.0000      -0.525291       -14.2939
  27   2.0000      -0.510966       -13.9041
  28   2.0000      -0.500559       -13.6209
  29   2.0000      -0.496938       -13.5224
  30   2.0000      -0.473575       -12.8866
  31   2.0000      -0.461179       -12.5493
  32   2.0000      -0.455008       -12.3814
  33   2.0000      -0.438813       -11.9407
  34   2.0000      -0.432747       -11.7757
  35   2.0000      -0.413394       -11.2490
  36   2.0000      -0.407853       -11.0982
  37   2.0000      -0.397412       -10.8141
  38   2.0000      -0.381562       -10.3828
  39   2.0000      -0.376633       -10.2487
  40   2.0000      -0.365329        -9.9411
  41   2.0000      -0.356453        -9.6996
  42   2.0000      -0.350688        -9.5427
  43   2.0000      -0.336554        -9.1581
  44   2.0000      -0.312965        -8.5162
  45   2.0000      -0.308357        -8.3908
  46   2.0000      -0.288884        -7.8609
  47   2.0000      -0.274138        -7.4597
  48   2.0000      -0.269421        -7.3313
  49   2.0000      -0.254066        -6.9135
  50   2.0000      -0.235997        -6.4218
  51   0.0000       0.061366         1.6699
  52   0.0000       0.076085         2.0704
  53   0.0000       0.082813         2.2535
  54   0.0000       0.086286         2.3480
  55   0.0000       0.095349         2.5946

MULLIKEN ATOMIC CHARGES
-----------------------
   0 C :    0.323519
   1 C :   -0.303516
   2 C :   -0.314430
   3 C :   -0.003780
   4 O :   -0.493393
   5 H :    0.153571
   6 H :    0.158803
   7 H :    0.141439
   8 H :    0.144770
   9 H :    0.161247
  10 H :    0.158041
  11 H :    0.143245
  12 C :    0.008259
  13 H :    0.113952
  14 H :    0.153993
  15 O :   -0.520853
  16 C :    0.043450
  17 C :    0.076815
  18 C :   -0.296538
  19 C :   -0.031125
  20 O :   -0.507153
  21 H :    0.164170
  22 O :   -0.601003
  23 H :    0.150170
  24 H :    0.164391
  25 H :    0.145311
  26 H :    0.156494
  27 H :    0.145707
  28 H :    0.364443
Sum of atomic charges:    0.0000000

LOEWDIN ATOMIC CHARGES
----------------------
   0 C :    0.184315
   1 C :   -0.232925
   2 C :   -0.221359
   3 C :   -0.028501
   4 O :   -0.306116
   5 H :    0.101677
   6 H :    0.124437
   7 H :    0.112548
   8 H :    0.115746
   9 H :    0.111248
  10 H :    0.110832
  11 H :    0.103001
  12 C :   -0.035010
  13 H :    0.089565
  14 H :    0.114181
  15 O :   -0.325667
  16 C :    0.002012
  17 C :    0.034486
  18 C :   -0.241516
  19 C :   -0.038436
  20 O :   -0.321375
  21 H :    0.110539
  22 O :   -0.413801
  23 H :    0.114204
  24 H :    0.127503
  25 H :    0.113473
  26 H :    0.109307
  27 H :    0.102436
  28 H :    0.283198

  Mayer bond orders larger than 0.100000
B(  0-C ,  1-C ) :   0.9261 B(  0-C ,  4-O ) :   0.9267 B(  0-C ,  5-H ) :   0.9315
B(  0-C , 15-O ) :   0.8633 B(  1-C ,  2-C ) :   0.9550 B(  1-C ,  6-H ) :   0.9329
B(  1-C ,  7-H ) :   0.9306 B(  2-C ,  3-C ) :   0.9510 B(  2-C ,  8-H ) :   0.9451
B(  2-C ,  9-H ) :   0.9227 B(  3-C ,  4-O ) :   0.8416 B(  3-C , 10-H ) :   0.9326
B(  3-C , 11-H ) :   0.9395 B( 12-C , 13-H ) :   0.9098 B( 12-C , 14-H ) :   0.9346
B( 12-C , 15-O ) :   0.8681 B( 12-C , 16-C ) :   0.8754 B( 16-C , 17-C ) :   0.8913
B( 16-C , 20-O ) :   0.8739 B( 16-C , 21-H ) :   0.8995 B( 17-C , 18-C ) :   0.9131
B( 17-C , 22-O ) :   0.8914 B( 17-C , 23-H ) :   0.9327 B( 18-C , 19-C ) :   0.9406
B( 18-C , 24-H ) :   0.9366 B( 18-C , 25-H ) :   0.9333 B( 19-C , 20-O ) :   0.8477
B( 19-C , 26-H ) :   0.9326 B( 19-C , 27-H ) :   0.9374 B( 22-O , 28-H ) :   0.7944

FINAL SINGLE POINT ENERGY      -652.845141933582

DIPOLE MOMENT
-------------
                                X             Y             Z
Electronic contribution:     -0.94350      -2.68372       1.56640
Nuclear contribution   :      1.00889       3.52063      -2.25156
                        -----------------------------------------
Total Dipole Moment    :      0.06539       0.83691      -0.68516
                        -----------------------------------------
Magnitude (a.u.)       :      1.08358
Magnitude (Debye)      :      2.75424

Rotational constants in cm-1:     0.050917     0.014338     0.013592
Rotational constants in MHz :  1526.448825   429.849494   407.463024

                             ****ORCA TERMINATED NORMALLY****
TOTAL RUN TIME: 0 days 1 hours 46 minutes 40 seconds 503 msec
