                         Program Version 4.2.0 -  RELEASE  -
|  1> # Test redundant internal optimization
|  2> #
|  3> ! RKS B3LYP  Opt TightSCF SmallPrint
|  4>
|  5> %basis
|  6>         Basis "6-31G"
|  7> end
|  8>
|  9> %geom
| 10> Constraints
| 11> { D 4  0  15  12  165.0   C } # D for Dihedral angle
| 12> { D 0  15  12  16  135.0   C } # D for Dihedral angle
| 13> { D 0  4  3  2   C } # D for Dihedral angle
| 14> { D 4  3  2  1   C } # D for Dihedral angle
| 15> { D 3  2  1  0   C } # D for Dihedral angle
| 16> { D 2  1  0  4   C } # D for Dihedral angle
| 17> { D 1  0  4  3   C } # D for Dihedral angle
| 18> { D 16  20  19  18   C } # D for Dihedral angle
| 19> { D 20  19  18  17   C } # D for Dihedral angle
| 20> { D 19  18  17  16   C } # D for Dihedral angle
| 21> { D 18  17  16  20   C } # D for Dihedral angle
| 22> { D 17  16  20  19   C } # D for Dihedral angle
| 23> { D 15  12  16  20   C } # D for Dihedral angle
| 24> end
| 25> end
| 26>
| 27>
| 28> #%pal
| 29> #nprocs 8
| 30> #end
| 31>
| 32> * xyz 0 1
| 33> C  -21.048   26.222   46.251
| 34> C  -20.361   27.558   45.944
| 35> C  -20.329   28.222   47.341
| 36> C  -20.110   27.022   48.296
| 37> O  -20.473   25.807   47.535
| 38> H  -20.833   25.428   45.533
| 39> H  -19.344   27.382   45.576
| 40> H  -20.898   28.157   45.201
| 41> H  -19.543   28.978   47.434
| 42> H  -21.289   28.710   47.548
| 43> H  -20.733   27.082   49.195
| 44> H  -19.064   26.913   48.597
| 45> C  -23.260   27.170   45.210
| 46> H  -23.512   28.183   45.548
| 47> H  -22.574   27.254   44.357
| 48> O  -22.586   26.394   46.375
| 49> C  -24.561   26.486   44.706
| 50> C  -25.134   27.213   43.485
| 51> C  -24.230   26.679   42.349
| 52> C  -23.954   25.216   42.777
| 53> O  -24.272   25.133   44.218
| 54> H  -25.258   26.384   45.540
| 55> O  -26.610   26.788   43.256
| 56> H  -25.100   28.304   43.578
| 57> H  -24.703   26.743   41.363
| 58> H  -23.296   27.253   42.310
| 59> H  -22.909   24.924   42.623
| 60> H  -24.601   24.501   42.261
| 61> H  -26.669   25.698   43.159
| 62> *
| 63>
| 64>                          ****END OF INPUT****
 Total Charge           Charge          ....    0
 Multiplicity           Mult            ....    1
 Number of Electrons    NEL             ....  102
FINAL SINGLE POINT ENERGY      -652.826654285672
FINAL SINGLE POINT ENERGY      -652.849489212857
FINAL SINGLE POINT ENERGY      -652.853613101574
FINAL SINGLE POINT ENERGY      -652.854335042010
FINAL SINGLE POINT ENERGY      -652.854438250309
FINAL SINGLE POINT ENERGY      -652.854449648843
                    ***********************HURRAY********************

CARTESIAN COORDINATES (ANGSTROEM)
---------------------------------
  C    -21.060992   26.272566   46.159277
  C    -20.263645   27.562403   45.967327
  C    -20.360031   28.215766   47.371256
  C    -20.333419   26.993538   48.312441
  O    -20.679881   25.824832   47.465559
  H    -20.833643   25.466920   45.455593
  H    -19.225200   27.300880   45.732238
  H    -20.634922   28.211100   45.169865
  H    -19.538965   28.912222   47.565378
  H    -21.304661   28.760017   47.468047
  H    -21.058479   27.060890   49.127293
  H    -19.339627   26.796574   48.725279
  C    -23.126065   27.244449   45.124068
  H    -23.390314   28.248281   45.485590
  H    -22.444439   27.356551   44.269403
  O    -22.505585   26.484577   46.191663
  C    -24.386423   26.500583   44.682601
  C    -25.145074   27.157063   43.520702
  C    -24.349371   26.641530   42.292978
  C    -23.935864   25.210894   42.718907
  O    -24.075603   25.154038   44.194204
  H    -25.032961   26.365538   45.555032
  O    -26.529174   26.715517   43.487810
  H    -25.191080   28.246115   43.577738
  H    -24.973063   26.657937   41.395670
  H    -23.473509   27.275602   42.113060
  H    -22.903710   24.969284   42.447119
  H    -24.593374   24.442206   42.301582
  H    -26.564926   25.756129   43.688320

 Multiplicity           Mult            ....    1
 Number of Electrons    NEL             ....  102
 Basis Dimension        Dim             ....  149

ORBITAL ENERGIES
----------------

  NO   OCC          E(Eh)            E(eV)
   0   2.0000     -19.142031      -520.8811
   1   2.0000     -19.139418      -520.8100
   2   2.0000     -19.138625      -520.7885
   3   2.0000     -19.135629      -520.7069
   4   2.0000     -10.278536      -279.6932
   5   2.0000     -10.244853      -278.7766
   6   2.0000     -10.235840      -278.5314
   7   2.0000     -10.233958      -278.4802
   8   2.0000     -10.231953      -278.4256
   9   2.0000     -10.224766      -278.2300
  10   2.0000     -10.192543      -277.3532
  11   2.0000     -10.190798      -277.3057
  12   2.0000     -10.189843      -277.2797
  13   2.0000      -1.052062       -28.6281
  14   2.0000      -1.037023       -28.2188
  15   2.0000      -1.007466       -27.4145
  16   2.0000      -0.990485       -26.9525
  17   2.0000      -0.788780       -21.4638
  18   2.0000      -0.785552       -21.3760
  19   2.0000      -0.769647       -20.9432
  20   2.0000      -0.732349       -19.9282
  21   2.0000      -0.678774       -18.4704
  22   2.0000      -0.606097       -16.4927
  23   2.0000      -0.603959       -16.4346
  24   2.0000      -0.593807       -16.1583
  25   2.0000      -0.579703       -15.7745
  26   2.0000      -0.528288       -14.3754
  27   2.0000      -0.507555       -13.8113
  28   2.0000      -0.499204       -13.5840
  29   2.0000      -0.492891       -13.4122
  30   2.0000      -0.479397       -13.0450
  31   2.0000      -0.461505       -12.5582
  32   2.0000      -0.450082       -12.2474
  33   2.0000      -0.449201       -12.2234
  34   2.0000      -0.422484       -11.4964
  35   2.0000      -0.412431       -11.2228
  36   2.0000      -0.401871       -10.9355
  37   2.0000      -0.395723       -10.7682
  38   2.0000      -0.377911       -10.2835
  39   2.0000      -0.374300       -10.1852
  40   2.0000      -0.367396        -9.9973
  41   2.0000      -0.357189        -9.7196
  42   2.0000      -0.352320        -9.5871
  43   2.0000      -0.333502        -9.0750
  44   2.0000      -0.312443        -8.5020
  45   2.0000      -0.307333        -8.3630
  46   2.0000      -0.297868        -8.1054
  47   2.0000      -0.272468        -7.4142
  48   2.0000      -0.257967        -7.0196
  49   2.0000      -0.257247        -7.0000
  50   2.0000      -0.239967        -6.5298
  51   0.0000       0.061814         1.6820
  52   0.0000       0.079229         2.1559
  53   0.0000       0.084013         2.2861
  54   0.0000       0.099285         2.7017
  55   0.0000       0.106236         2.8908

MULLIKEN ATOMIC CHARGES
-----------------------
   0 C :    0.310499
   1 C :   -0.288534
   2 C :   -0.300479
   3 C :    0.000502
   4 O :   -0.496977
   5 H :    0.151381
   6 H :    0.150032
   7 H :    0.140083
   8 H :    0.143515
   9 H :    0.155673
  10 H :    0.155370
  11 H :    0.142173
  12 C :   -0.011328
  13 H :    0.130807
  14 H :    0.123372
  15 O :   -0.503981
  16 C :    0.070234
  17 C :    0.074602
  18 C :   -0.299637
  19 C :   -0.026644
  20 O :   -0.508972
  21 H :    0.174367
  22 O :   -0.601166
  23 H :    0.151235
  24 H :    0.164943
  25 H :    0.140290
  26 H :    0.141771
  27 H :    0.149702
  28 H :    0.367168
Sum of atomic charges:    0.0000000

LOEWDIN ATOMIC CHARGES
----------------------
   0 C :    0.185856
   1 C :   -0.235881
   2 C :   -0.217165
   3 C :   -0.025568
   4 O :   -0.299855
   5 H :    0.102727
   6 H :    0.117555
   7 H :    0.111665
   8 H :    0.114874
   9 H :    0.114651
  10 H :    0.109997
  11 H :    0.102758
  12 C :   -0.044442
  13 H :    0.098350
  14 H :    0.091671
  15 O :   -0.328116
  16 C :    0.015327
  17 C :    0.033696
  18 C :   -0.242908
  19 C :   -0.038380
  20 O :   -0.319818
  21 H :    0.122920
  22 O :   -0.413731
  23 H :    0.114763
  24 H :    0.127648
  25 H :    0.110270
  26 H :    0.102178
  27 H :    0.104169
  28 H :    0.284788

  Mayer bond orders larger than 0.100000
B(  0-C ,  1-C ) :   0.9286 B(  0-C ,  4-O ) :   0.9386 B(  0-C ,  5-H ) :   0.9209
B(  0-C , 15-O ) :   0.8356 B(  1-C ,  2-C ) :   0.9493 B(  1-C ,  6-H ) :   0.9338
B(  1-C ,  7-H ) :   0.9299 B(  2-C ,  3-C ) :   0.9555 B(  2-C ,  8-H ) :   0.9450
B(  2-C ,  9-H ) :   0.9458 B(  3-C ,  4-O ) :   0.8367 B(  3-C , 10-H ) :   0.9342
B(  3-C , 11-H ) :   0.9397 B( 12-C , 13-H ) :   0.9150 B( 12-C , 14-H ) :   0.9156
B( 12-C , 15-O ) :   0.8552 B( 12-C , 16-C ) :   0.8899 B( 16-C , 17-C ) :   0.8975
B( 16-C , 20-O ) :   0.8631 B( 16-C , 21-H ) :   0.9230 B( 17-C , 18-C ) :   0.9093
B( 17-C , 22-O ) :   0.8954 B( 17-C , 23-H ) :   0.9323 B( 18-C , 19-C ) :   0.9411
B( 18-C , 24-H ) :   0.9373 B( 18-C , 25-H ) :   0.9343 B( 19-C , 20-O ) :   0.8531
B( 19-C , 26-H ) :   0.9352 B( 19-C , 27-H ) :   0.9374 B( 22-O , 28-H ) :   0.7925

FINAL SINGLE POINT ENERGY      -652.854452658554

DIPOLE MOMENT
-------------
                                X             Y             Z
Electronic contribution:     -3.87297      -4.66521       1.85819
Nuclear contribution   :      4.81108       5.84421      -2.73496
                        -----------------------------------------
Total Dipole Moment    :      0.93811       1.17900      -0.87677
                        -----------------------------------------
Magnitude (a.u.)       :      1.74322
Magnitude (Debye)      :      4.43092

Rotational constants in cm-1:     0.067112     0.011497     0.011283
Rotational constants in MHz :  2011.964686   344.682034   338.262875

                             ****ORCA TERMINATED NORMALLY****
TOTAL RUN TIME: 0 days 1 hours 44 minutes 51 seconds 422 msec
