                         Program Version 4.2.0 -  RELEASE  -
|  1> # Test redundant internal optimization
|  2> #
|  3> ! RKS B3LYP  Opt TightSCF SmallPrint
|  4>
|  5> %basis
|  6>         Basis "6-31G"
|  7> end
|  8>
|  9> %geom
| 10> Constraints
| 11> { D 4  0  15  12  225.0   C } # D for Dihedral angle
| 12> { D 0  15  12  16  75.0   C } # D for Dihedral angle
| 13> { D 0  4  3  2   C } # D for Dihedral angle
| 14> { D 4  3  2  1   C } # D for Dihedral angle
| 15> { D 3  2  1  0   C } # D for Dihedral angle
| 16> { D 2  1  0  4   C } # D for Dihedral angle
| 17> { D 1  0  4  3   C } # D for Dihedral angle
| 18> { D 16  20  19  18   C } # D for Dihedral angle
| 19> { D 20  19  18  17   C } # D for Dihedral angle
| 20> { D 19  18  17  16   C } # D for Dihedral angle
| 21> { D 18  17  16  20   C } # D for Dihedral angle
| 22> { D 17  16  20  19   C } # D for Dihedral angle
| 23> { D 15  12  16  20   C } # D for Dihedral angle
| 24> end
| 25> end
| 26>
| 27>
| 28> #%pal
| 29> #nprocs 8
| 30> #end
| 31>
| 32> * xyz 0 1
| 33> C  -21.048   26.222   46.251
| 34> C  -20.361   27.558   45.944
| 35> C  -20.329   28.222   47.341
| 36> C  -20.110   27.022   48.296
| 37> O  -20.473   25.807   47.535
| 38> H  -20.833   25.428   45.533
| 39> H  -19.344   27.382   45.576
| 40> H  -20.898   28.157   45.201
| 41> H  -19.543   28.978   47.434
| 42> H  -21.289   28.710   47.548
| 43> H  -20.733   27.082   49.195
| 44> H  -19.064   26.913   48.597
| 45> C  -23.415   25.773   45.218
| 46> H  -24.435   26.176   45.246
| 47> H  -22.972   26.029   44.247
| 48> O  -22.586   26.394   46.375
| 49> C  -23.501   24.224   45.304
| 50> C  -24.225   23.637   44.088
| 51> C  -23.113   23.670   43.013
| 52> C  -21.829   23.370   43.828
| 53> O  -22.160   23.633   45.245
| 54> H  -23.932   23.942   46.267
| 55> O  -24.662   22.176   44.380
| 56> H  -25.113   24.211   43.798
| 57> H  -23.276   22.945   42.210
| 58> H  -23.057   24.667   42.559
| 59> H  -20.987   24.006   43.532
| 60> H  -21.525   22.322   43.756
| 61> H  -23.789   21.582   44.673
| 62> *
| 63>
| 64>                          ****END OF INPUT****
 Total Charge           Charge          ....    0
 Multiplicity           Mult            ....    1
 Number of Electrons    NEL             ....  102
FINAL SINGLE POINT ENERGY      -652.832311287269
FINAL SINGLE POINT ENERGY      -652.854716784789
FINAL SINGLE POINT ENERGY      -652.858966615280
FINAL SINGLE POINT ENERGY      -652.859667030804
FINAL SINGLE POINT ENERGY      -652.859767897214
FINAL SINGLE POINT ENERGY      -652.859776855317
                    ***********************HURRAY********************

CARTESIAN COORDINATES (ANGSTROEM)
---------------------------------
  C    -20.963011   26.222947   46.192362
  C    -20.363196   27.611254   45.976114
  C    -20.459434   28.226437   47.392917
  C    -20.207267   27.012192   48.312137
  O    -20.442317   25.812896   47.468678
  H    -20.694142   25.451755   45.473240
  H    -19.316327   27.512549   45.663589
  H    -20.902244   28.188378   45.219970
  H    -19.737000   29.032060   47.554361
  H    -21.466344   28.624298   47.550387
  H    -20.882853   26.974967   49.170462
  H    -19.172284   26.951514   48.662613
  C    -23.237691   25.785439   45.230928
  H    -24.230722   26.217743   45.390469
  H    -22.875660   26.125761   44.247073
  O    -22.417264   26.341677   46.286899
  C    -23.348204   24.258391   45.261377
  C    -24.195125   23.661580   44.126959
  C    -23.165241   23.588693   42.968797
  C    -21.840368   23.251491   43.697450
  O    -22.046456   23.590920   45.129252
  H    -23.734108   23.961204   46.241246
  O    -24.695228   22.345560   44.486069
  H    -25.080441   24.249155   43.878724
  H    -23.457121   22.828644   42.240044
  H    -23.102809   24.554433   42.454466
  H    -20.988689   23.822191   43.314073
  H    -21.593368   22.186852   43.653275
  H    -23.987085   21.847018   44.946069

 Multiplicity           Mult            ....    1
 Number of Electrons    NEL             ....  102
 Basis Dimension        Dim             ....  149

ORBITAL ENERGIES
----------------

  NO   OCC          E(Eh)            E(eV)
   0   2.0000     -19.149414      -521.0820
   1   2.0000     -19.141414      -520.8643
   2   2.0000     -19.134348      -520.6721
   3   2.0000     -19.129340      -520.5358
   4   2.0000     -10.266969      -279.3784
   5   2.0000     -10.247171      -278.8397
   6   2.0000     -10.236515      -278.5497
   7   2.0000     -10.235665      -278.5266
   8   2.0000     -10.235528      -278.5229
   9   2.0000     -10.216382      -278.0019
  10   2.0000     -10.194851      -277.4160
  11   2.0000     -10.178719      -276.9770
  12   2.0000     -10.178605      -276.9739
  13   2.0000      -1.046442       -28.4751
  14   2.0000      -1.037560       -28.2334
  15   2.0000      -1.010230       -27.4898
  16   2.0000      -0.986318       -26.8391
  17   2.0000      -0.789365       -21.4797
  18   2.0000      -0.779219       -21.2036
  19   2.0000      -0.767632       -20.8883
  20   2.0000      -0.727181       -19.7876
  21   2.0000      -0.675276       -18.3752
  22   2.0000      -0.608503       -16.5582
  23   2.0000      -0.599529       -16.3140
  24   2.0000      -0.590188       -16.0598
  25   2.0000      -0.575894       -15.6709
  26   2.0000      -0.528605       -14.3841
  27   2.0000      -0.507175       -13.8009
  28   2.0000      -0.497749       -13.5444
  29   2.0000      -0.484681       -13.1888
  30   2.0000      -0.474413       -12.9094
  31   2.0000      -0.457405       -12.4466
  32   2.0000      -0.447670       -12.1817
  33   2.0000      -0.441589       -12.0162
  34   2.0000      -0.425284       -11.5726
  35   2.0000      -0.409425       -11.1410
  36   2.0000      -0.399137       -10.8611
  37   2.0000      -0.391864       -10.6632
  38   2.0000      -0.377972       -10.2851
  39   2.0000      -0.367338        -9.9958
  40   2.0000      -0.364917        -9.9299
  41   2.0000      -0.349772        -9.5178
  42   2.0000      -0.345370        -9.3980
  43   2.0000      -0.335277        -9.1234
  44   2.0000      -0.314571        -8.5599
  45   2.0000      -0.304821        -8.2946
  46   2.0000      -0.298392        -8.1196
  47   2.0000      -0.275949        -7.5089
  48   2.0000      -0.267444        -7.2775
  49   2.0000      -0.251047        -6.8313
  50   2.0000      -0.231345        -6.2952
  51   0.0000       0.058463         1.5909
  52   0.0000       0.082108         2.2343
  53   0.0000       0.088197         2.4000
  54   0.0000       0.098200         2.6722
  55   0.0000       0.105254         2.8641

MULLIKEN ATOMIC CHARGES
-----------------------
   0 C :    0.283071
   1 C :   -0.255310
   2 C :   -0.298667
   3 C :   -0.000304
   4 O :   -0.498706
   5 H :    0.167992
   6 H :    0.139185
   7 H :    0.137930
   8 H :    0.137031
   9 H :    0.160366
  10 H :    0.149820
  11 H :    0.137564
  12 C :   -0.014559
  13 H :    0.152539
  14 H :    0.115489
  15 O :   -0.518344
  16 C :    0.069327
  17 C :    0.078060
  18 C :   -0.294656
  19 C :   -0.032669
  20 O :   -0.512988
  21 H :    0.174340
  22 O :   -0.600677
  23 H :    0.153271
  24 H :    0.167063
  25 H :    0.142175
  26 H :    0.142265
  27 H :    0.152343
  28 H :    0.367047
Sum of atomic charges:    0.0000000

LOEWDIN ATOMIC CHARGES
----------------------
   0 C :    0.175036
   1 C :   -0.225255
   2 C :   -0.217102
   3 C :   -0.027105
   4 O :   -0.305635
   5 H :    0.112271
   6 H :    0.110216
   7 H :    0.113279
   8 H :    0.111671
   9 H :    0.118380
  10 H :    0.106858
  11 H :    0.100073
  12 C :   -0.039777
  13 H :    0.117302
  14 H :    0.085648
  15 O :   -0.332851
  16 C :    0.005947
  17 C :    0.035851
  18 C :   -0.241047
  19 C :   -0.039879
  20 O :   -0.323236
  21 H :    0.123069
  22 O :   -0.412686
  23 H :    0.116170
  24 H :    0.128692
  25 H :    0.111836
  26 H :    0.101509
  27 H :    0.106029
  28 H :    0.284736

  Mayer bond orders larger than 0.100000
B(  0-C ,  1-C ) :   0.9348 B(  0-C ,  4-O ) :   0.9321 B(  0-C ,  5-H ) :   0.9070
B(  0-C , 15-O ) :   0.8135 B(  1-C ,  2-C ) :   0.9552 B(  1-C ,  6-H ) :   0.9369
B(  1-C ,  7-H ) :   0.9396 B(  2-C ,  3-C ) :   0.9548 B(  2-C ,  8-H ) :   0.9458
B(  2-C ,  9-H ) :   0.9438 B(  3-C ,  4-O ) :   0.8425 B(  3-C , 10-H ) :   0.9347
B(  3-C , 11-H ) :   0.9399 B( 12-C , 13-H ) :   0.9305 B( 12-C , 14-H ) :   0.9224
B( 12-C , 15-O ) :   0.8777 B( 12-C , 16-C ) :   0.8851 B( 16-C , 17-C ) :   0.8940
B( 16-C , 20-O ) :   0.8505 B( 16-C , 21-H ) :   0.9227 B( 17-C , 18-C ) :   0.9101
B( 17-C , 22-O ) :   0.8927 B( 17-C , 23-H ) :   0.9337 B( 18-C , 19-C ) :   0.9400
B( 18-C , 24-H ) :   0.9367 B( 18-C , 25-H ) :   0.9332 B( 19-C , 20-O ) :   0.8461
B( 19-C , 26-H ) :   0.9337 B( 19-C , 27-H ) :   0.9381 B( 22-O , 28-H ) :   0.7933

FINAL SINGLE POINT ENERGY      -652.859777076240

DIPOLE MOMENT
-------------
                                X             Y             Z
Electronic contribution:     -2.14753      -4.51095       2.31255
Nuclear contribution   :      2.48325       5.28867      -3.41433
                        -----------------------------------------
Total Dipole Moment    :      0.33572       0.77772      -1.10178
                        -----------------------------------------
Magnitude (a.u.)       :      1.38977
Magnitude (Debye)      :      3.53252

Rotational constants in cm-1:     0.067118     0.012264     0.012155
Rotational constants in MHz :  2012.138408   367.670693   364.396359

                             ****ORCA TERMINATED NORMALLY****
TOTAL RUN TIME: 0 days 0 hours 20 minutes 51 seconds 289 msec
