                         Program Version 4.2.0 -  RELEASE  -
|  1> # Test redundant internal optimization
|  2> #
|  3> ! RKS B3LYP  Opt TightSCF SmallPrint
|  4>
|  5> %basis
|  6>         Basis "6-31G"
|  7> end
|  8>
|  9> %geom
| 10> Constraints
| 11> { D 4  0  15  12  60.0   C } # D for Dihedral angle
| 12> { D 0  15  12  16  150.0   C } # D for Dihedral angle
| 13> { D 0  4  3  2   C } # D for Dihedral angle
| 14> { D 4  3  2  1   C } # D for Dihedral angle
| 15> { D 3  2  1  0   C } # D for Dihedral angle
| 16> { D 2  1  0  4   C } # D for Dihedral angle
| 17> { D 1  0  4  3   C } # D for Dihedral angle
| 18> { D 16  20  19  18   C } # D for Dihedral angle
| 19> { D 20  19  18  17   C } # D for Dihedral angle
| 20> { D 19  18  17  16   C } # D for Dihedral angle
| 21> { D 18  17  16  20   C } # D for Dihedral angle
| 22> { D 17  16  20  19   C } # D for Dihedral angle
| 23> { D 15  12  16  20   C } # D for Dihedral angle
| 24> end
| 25> end
| 26>
| 27>
| 28> #%pal
| 29> #nprocs 8
| 30> #end
| 31>
| 32> * xyz 0 1
| 33> C  -21.048   26.222   46.251
| 34> C  -20.361   27.558   45.944
| 35> C  -20.329   28.222   47.341
| 36> C  -20.110   27.022   48.296
| 37> O  -20.473   25.807   47.535
| 38> H  -20.833   25.428   45.533
| 39> H  -19.344   27.382   45.576
| 40> H  -20.898   28.157   45.201
| 41> H  -19.543   28.978   47.434
| 42> H  -21.289   28.710   47.548
| 43> H  -20.733   27.082   49.195
| 44> H  -19.064   26.913   48.597
| 45> C  -23.051   27.452   47.413
| 46> H  -23.173   26.969   48.391
| 47> H  -22.300   28.246   47.514
| 48> O  -22.586   26.394   46.375
| 49> C  -24.399   28.121   47.027
| 50> C  -25.546   27.104   47.029
| 51> C  -25.859   26.988   48.540
| 52> C  -25.611   28.426   49.062
| 53> O  -24.789   29.108   48.039
| 54> H  -24.274   28.660   46.086
| 55> H  -26.407   27.508   46.485
| 56> O  -25.156   25.744   46.388
| 57> H  -26.879   26.643   48.736
| 58> H  -25.169   26.280   49.014
| 59> H  -25.077   28.438   50.017
| 60> H  -26.537   28.997   49.166
| 61> H  -24.295   25.321   46.917
| 62> *
| 63>
| 64>                          ****END OF INPUT****
 Total Charge           Charge          ....    0
 Multiplicity           Mult            ....    1
 Number of Electrons    NEL             ....  102
FINAL SINGLE POINT ENERGY      -652.793814287117
FINAL SINGLE POINT ENERGY      -652.831182266699
FINAL SINGLE POINT ENERGY      -652.851454210947
FINAL SINGLE POINT ENERGY      -652.857048066403
FINAL SINGLE POINT ENERGY      -652.858946424791
FINAL SINGLE POINT ENERGY      -652.860118313607
FINAL SINGLE POINT ENERGY      -652.860656745676
FINAL SINGLE POINT ENERGY      -652.860800523163
FINAL SINGLE POINT ENERGY      -652.860831208461
FINAL SINGLE POINT ENERGY      -652.860834003160
                    ***********************HURRAY********************

CARTESIAN COORDINATES (ANGSTROEM)
---------------------------------
  C    -21.204535   26.349846   46.472403
  C    -20.354696   27.503153   45.920914
  C    -19.897261   28.223459   47.224662
  C    -19.716975   27.044325   48.212597
  O    -20.468571   25.902350   47.628461
  H    -21.248372   25.497072   45.793206
  H    -19.496364   27.076166   45.392419
  H    -20.907979   28.149177   45.234552
  H    -18.961264   28.773258   47.082886
  H    -20.644711   28.941006   47.569004
  H    -20.108116   27.250956   49.212823
  H    -18.674514   26.724540   48.294229
  C    -23.128825   27.569684   47.671652
  H    -23.237948   27.080863   48.645967
  H    -22.465946   28.428353   47.784230
  O    -22.612876   26.592913   46.706370
  C    -24.473441   28.073501   47.133316
  C    -25.573889   27.004451   47.018637
  C    -26.058492   26.891939   48.494013
  C    -25.933199   28.337808   49.015110
  O    -25.016989   29.051118   48.073706
  H    -24.306330   28.595933   46.187272
  H    -26.385155   27.406504   46.400933
  O    -25.180869   25.747762   46.437988
  H    -27.078453   26.503982   48.557026
  H    -25.401947   26.198967   49.031512
  H    -25.515503   28.401752   50.024780
  H    -26.883269   28.879024   48.991619
  H    -24.196511   25.680138   46.437713

 Multiplicity           Mult            ....    1
 Number of Electrons    NEL             ....  102
 Basis Dimension        Dim             ....  149

ORBITAL ENERGIES
----------------

  NO   OCC          E(Eh)            E(eV)
   0   2.0000     -19.164812      -521.5011
   1   2.0000     -19.153829      -521.2022
   2   2.0000     -19.140850      -520.8490
   3   2.0000     -19.110797      -520.0312
   4   2.0000     -10.292758      -280.0802
   5   2.0000     -10.239502      -278.6310
   6   2.0000     -10.238997      -278.6173
   7   2.0000     -10.234555      -278.4964
   8   2.0000     -10.229211      -278.3510
   9   2.0000     -10.226502      -278.2773
  10   2.0000     -10.201990      -277.6103
  11   2.0000     -10.200642      -277.5736
  12   2.0000     -10.178004      -276.9576
  13   2.0000      -1.065119       -28.9834
  14   2.0000      -1.026023       -27.9195
  15   2.0000      -1.009597       -27.4725
  16   2.0000      -0.990753       -26.9597
  17   2.0000      -0.798342       -21.7240
  18   2.0000      -0.780024       -21.2255
  19   2.0000      -0.767995       -20.8982
  20   2.0000      -0.738425       -20.0936
  21   2.0000      -0.683796       -18.6070
  22   2.0000      -0.614536       -16.7224
  23   2.0000      -0.602152       -16.3854
  24   2.0000      -0.595597       -16.2070
  25   2.0000      -0.577781       -15.7222
  26   2.0000      -0.534786       -14.5523
  27   2.0000      -0.512686       -13.9509
  28   2.0000      -0.510650       -13.8955
  29   2.0000      -0.487329       -13.2609
  30   2.0000      -0.476466       -12.9653
  31   2.0000      -0.463135       -12.6025
  32   2.0000      -0.443263       -12.0618
  33   2.0000      -0.434278       -11.8173
  34   2.0000      -0.427085       -11.6216
  35   2.0000      -0.424378       -11.5479
  36   2.0000      -0.411011       -11.1842
  37   2.0000      -0.392765       -10.6877
  38   2.0000      -0.387960       -10.5569
  39   2.0000      -0.370747       -10.0886
  40   2.0000      -0.368429       -10.0255
  41   2.0000      -0.358433        -9.7535
  42   2.0000      -0.349186        -9.5018
  43   2.0000      -0.339884        -9.2487
  44   2.0000      -0.327691        -8.9169
  45   2.0000      -0.319403        -8.6914
  46   2.0000      -0.291609        -7.9351
  47   2.0000      -0.273048        -7.4300
  48   2.0000      -0.269643        -7.3374
  49   2.0000      -0.249364        -6.7855
  50   2.0000      -0.239752        -6.5240
  51   0.0000       0.054917         1.4944
  52   0.0000       0.070371         1.9149
  53   0.0000       0.088325         2.4034
  54   0.0000       0.097655         2.6573
  55   0.0000       0.102086         2.7779

MULLIKEN ATOMIC CHARGES
-----------------------
   0 C :    0.312448
   1 C :   -0.274006
   2 C :   -0.321606
   3 C :   -0.014101
   4 O :   -0.502709
   5 H :    0.170851
   6 H :    0.161122
   7 H :    0.155064
   8 H :    0.150518
   9 H :    0.157718
  10 H :    0.150075
  11 H :    0.154404
  12 C :   -0.024531
  13 H :    0.154857
  14 H :    0.154177
  15 O :   -0.566140
  16 C :    0.059839
  17 C :    0.117996
  18 C :   -0.302907
  19 C :   -0.021336
  20 O :   -0.524178
  21 H :    0.155070
  22 H :    0.147535
  23 O :   -0.637617
  24 H :    0.150945
  25 H :    0.148737
  26 H :    0.140513
  27 H :    0.150742
  28 H :    0.396520
Sum of atomic charges:   -0.0000000

LOEWDIN ATOMIC CHARGES
----------------------
   0 C :    0.178941
   1 C :   -0.225890
   2 C :   -0.223848
   3 C :   -0.032900
   4 O :   -0.316962
   5 H :    0.115846
   6 H :    0.124828
   7 H :    0.122105
   8 H :    0.118331
   9 H :    0.111413
  10 H :    0.105852
  11 H :    0.108493
  12 C :   -0.047173
  13 H :    0.106854
  14 H :    0.108643
  15 O :   -0.333523
  16 C :    0.018425
  17 C :    0.041696
  18 C :   -0.237827
  19 C :   -0.032327
  20 O :   -0.326964
  21 H :    0.113159
  22 H :    0.105475
  23 O :   -0.432883
  24 H :    0.121473
  25 H :    0.112669
  26 H :    0.101079
  27 H :    0.106382
  28 H :    0.288635

  Mayer bond orders larger than 0.100000
B(  0-C ,  1-C ) :   0.9229 B(  0-C ,  4-O ) :   0.9209 B(  0-C ,  5-H ) :   0.9351
B(  0-C , 15-O ) :   0.8484 B(  1-C ,  2-C ) :   0.9541 B(  1-C ,  6-H ) :   0.9336
B(  1-C ,  7-H ) :   0.9361 B(  2-C ,  3-C ) :   0.9471 B(  2-C ,  8-H ) :   0.9434
B(  2-C ,  9-H ) :   0.9349 B(  3-C ,  4-O ) :   0.8378 B(  3-C , 10-H ) :   0.9338
B(  3-C , 11-H ) :   0.9384 B( 12-C , 13-H ) :   0.9254 B( 12-C , 14-H ) :   0.9081
B( 12-C , 15-O ) :   0.7772 B( 12-C , 16-C ) :   0.9016 B( 16-C , 17-C ) :   0.9144
B( 16-C , 20-O ) :   0.8572 B( 16-C , 21-H ) :   0.9297 B( 17-C , 18-C ) :   0.9014
B( 17-C , 22-H ) :   0.9299 B( 17-C , 23-O ) :   0.9384 B( 18-C , 19-C ) :   0.9375
B( 18-C , 24-H ) :   0.9451 B( 18-C , 25-H ) :   0.9423 B( 19-C , 20-O ) :   0.8292
B( 19-C , 26-H ) :   0.9348 B( 19-C , 27-H ) :   0.9384 B( 23-O , 28-H ) :   0.7239

FINAL SINGLE POINT ENERGY      -652.860835154046

DIPOLE MOMENT
-------------
                                X             Y             Z
Electronic contribution:     -1.97916      -2.66915      -2.00845
Nuclear contribution   :      3.11944       3.55510       2.33320
                        -----------------------------------------
Total Dipole Moment    :      1.14029       0.88595       0.32475
                        -----------------------------------------
Magnitude (a.u.)       :      1.48007
Magnitude (Debye)      :      3.76205

Rotational constants in cm-1:     0.051694     0.014121     0.012860
Rotational constants in MHz :  1549.741003   423.323931   385.523619

                             ****ORCA TERMINATED NORMALLY****
TOTAL RUN TIME: 0 days 0 hours 32 minutes 9 seconds 332 msec
