                         Program Version 4.2.0 -  RELEASE  -
|  1> # Test redundant internal optimization
|  2> #
|  3> ! RKS B3LYP  Opt TightSCF SmallPrint
|  4>
|  5> %basis
|  6>         Basis "6-31G"
|  7> end
|  8>
|  9> %geom
| 10> Constraints
| 11> { D 4  0  15  12  240.0   C } # D for Dihedral angle
| 12> { D 0  15  12  16  45.0   C } # D for Dihedral angle
| 13> { D 0  4  3  2   C } # D for Dihedral angle
| 14> { D 4  3  2  1   C } # D for Dihedral angle
| 15> { D 3  2  1  0   C } # D for Dihedral angle
| 16> { D 2  1  0  4   C } # D for Dihedral angle
| 17> { D 1  0  4  3   C } # D for Dihedral angle
| 18> { D 16  20  19  18   C } # D for Dihedral angle
| 19> { D 20  19  18  17   C } # D for Dihedral angle
| 20> { D 19  18  17  16   C } # D for Dihedral angle
| 21> { D 18  17  16  20   C } # D for Dihedral angle
| 22> { D 17  16  20  19   C } # D for Dihedral angle
| 23> { D 15  12  16  20   C } # D for Dihedral angle
| 24> end
| 25> end
| 26>
| 27>
| 28> #%pal
| 29> #nprocs 8
| 30> #end
| 31>
| 32> * xyz 0 1
| 33> C  -21.048   26.222   46.251
| 34> C  -20.361   27.558   45.944
| 35> C  -20.329   28.222   47.341
| 36> C  -20.110   27.022   48.296
| 37> O  -20.473   25.807   47.535
| 38> H  -20.833   25.428   45.533
| 39> H  -19.344   27.382   45.576
| 40> H  -20.898   28.157   45.201
| 41> H  -19.543   28.978   47.434
| 42> H  -21.289   28.710   47.548
| 43> H  -20.733   27.082   49.195
| 44> H  -19.064   26.913   48.597
| 45> C  -23.430   25.483   45.442
| 46> H  -24.474   25.486   45.780
| 47> H  -23.402   25.858   44.411
| 48> O  -22.586   26.394   46.375
| 49> C  -22.928   24.012   45.424
| 50> C  -23.092   23.352   46.798
| 51> C  -24.598   22.999   46.798
| 52> C  -24.874   22.634   45.318
| 53> O  -23.758   23.198   44.530
| 54> H  -21.911   23.986   45.028
| 55> H  -22.482   22.442   46.852
| 56> O  -22.690   24.282   47.975
| 57> H  -24.842   22.181   47.483
| 58> H  -25.189   23.874   47.097
| 59> H  -25.818   23.051   44.952
| 60> H  -24.875   21.554   45.148
| 61> H  -23.288   25.199   47.939
| 62> *
| 63>
| 64>                          ****END OF INPUT****
 Total Charge           Charge          ....    0
 Multiplicity           Mult            ....    1
 Number of Electrons    NEL             ....  102
FINAL SINGLE POINT ENERGY      -652.821374381424
FINAL SINGLE POINT ENERGY      -652.847835193977
FINAL SINGLE POINT ENERGY      -652.855365719726
FINAL SINGLE POINT ENERGY      -652.858260777842
FINAL SINGLE POINT ENERGY      -652.859555397626
FINAL SINGLE POINT ENERGY      -652.860342387376
FINAL SINGLE POINT ENERGY      -652.860876926332
FINAL SINGLE POINT ENERGY      -652.861355083296
FINAL SINGLE POINT ENERGY      -652.861908628768
FINAL SINGLE POINT ENERGY      -652.862379561723
FINAL SINGLE POINT ENERGY      -652.862614069818
FINAL SINGLE POINT ENERGY      -652.858059650948
FINAL SINGLE POINT ENERGY      -652.863414026598
FINAL SINGLE POINT ENERGY      -652.863721291447
FINAL SINGLE POINT ENERGY      -652.863869841226
FINAL SINGLE POINT ENERGY      -652.863943513724
FINAL SINGLE POINT ENERGY      -652.863955312749
                    ***********************HURRAY********************

CARTESIAN COORDINATES (ANGSTROEM)
---------------------------------
  C    -21.017666   26.178097   46.220945
  C    -20.348367   27.526110   45.937446
  C    -20.499581   28.248378   47.299502
  C    -20.349699   27.098237   48.323251
  O    -20.584754   25.841712   47.562373
  H    -20.706496   25.364409   45.565986
  H    -19.291502   27.370702   45.690593
  H    -20.833769   28.053047   45.113491
  H    -19.751016   29.032027   47.447355
  H    -21.495019   28.694904   47.368995
  H    -21.076825   27.148097   49.136743
  H    -19.340270   27.022721   48.736735
  C    -23.296159   25.516294   45.395600
  H    -24.303575   25.686449   45.780624
  H    -23.260212   25.856222   44.352191
  O    -22.447760   26.366057   46.235438
  C    -22.946940   24.019420   45.431790
  C    -23.096512   23.318392   46.794585
  C    -24.632772   23.067786   46.853532
  C    -24.995535   22.779347   45.381870
  O    -23.869416   23.298586   44.552884
  H    -21.957116   23.847610   44.997473
  H    -22.563748   22.356954   46.736239
  O    -22.729135   24.032098   47.985579
  H    -24.884121   22.243818   47.526069
  H    -25.105055   23.977611   47.234205
  H    -25.921046   23.266865   45.060194
  H    -25.069127   21.708954   45.167267
  H    -21.888806   24.545095   47.912046

 Multiplicity           Mult            ....    1
 Number of Electrons    NEL             ....  102
 Basis Dimension        Dim             ....  149

ORBITAL ENERGIES
----------------

  NO   OCC          E(Eh)            E(eV)
   0   2.0000     -19.160842      -521.3930
   1   2.0000     -19.146872      -521.0129
   2   2.0000     -19.138488      -520.7847
   3   2.0000     -19.106421      -519.9122
   4   2.0000     -10.290778      -280.0263
   5   2.0000     -10.235952      -278.5344
   6   2.0000     -10.231134      -278.4033
   7   2.0000     -10.230404      -278.3834
   8   2.0000     -10.228064      -278.3198
   9   2.0000     -10.222704      -278.1739
  10   2.0000     -10.193031      -277.3665
  11   2.0000     -10.192486      -277.3516
  12   2.0000     -10.174669      -276.8668
  13   2.0000      -1.065891       -29.0044
  14   2.0000      -1.021499       -27.7964
  15   2.0000      -1.002008       -27.2660
  16   2.0000      -0.986100       -26.8331
  17   2.0000      -0.794956       -21.6319
  18   2.0000      -0.768255       -20.9053
  19   2.0000      -0.762332       -20.7441
  20   2.0000      -0.738502       -20.0957
  21   2.0000      -0.675440       -18.3796
  22   2.0000      -0.610245       -16.6056
  23   2.0000      -0.606949       -16.5159
  24   2.0000      -0.589244       -16.0341
  25   2.0000      -0.568959       -15.4822
  26   2.0000      -0.529792       -14.4164
  27   2.0000      -0.510392       -13.8885
  28   2.0000      -0.496711       -13.5162
  29   2.0000      -0.495676       -13.4880
  30   2.0000      -0.466645       -12.6980
  31   2.0000      -0.458380       -12.4732
  32   2.0000      -0.446514       -12.1503
  33   2.0000      -0.434002       -11.8098
  34   2.0000      -0.424517       -11.5517
  35   2.0000      -0.415838       -11.3155
  36   2.0000      -0.403988       -10.9931
  37   2.0000      -0.379367       -10.3231
  38   2.0000      -0.373195       -10.1551
  39   2.0000      -0.366234        -9.9657
  40   2.0000      -0.362827        -9.8730
  41   2.0000      -0.358394        -9.7524
  42   2.0000      -0.345651        -9.4056
  43   2.0000      -0.338207        -9.2031
  44   2.0000      -0.325615        -8.8604
  45   2.0000      -0.314853        -8.5676
  46   2.0000      -0.289972        -7.8905
  47   2.0000      -0.270479        -7.3601
  48   2.0000      -0.263848        -7.1797
  49   2.0000      -0.246703        -6.7131
  50   2.0000      -0.231341        -6.2951
  51   0.0000       0.062986         1.7139
  52   0.0000       0.082072         2.2333
  53   0.0000       0.094241         2.5644
  54   0.0000       0.096983         2.6390
  55   0.0000       0.103040         2.8039

MULLIKEN ATOMIC CHARGES
-----------------------
   0 C :    0.262485
   1 C :   -0.244888
   2 C :   -0.300035
   3 C :   -0.000839
   4 O :   -0.531729
   5 H :    0.152193
   6 H :    0.144760
   7 H :    0.154459
   8 H :    0.145470
   9 H :    0.171894
  10 H :    0.165765
  11 H :    0.149307
  12 C :    0.002458
  13 H :    0.158759
  14 H :    0.144756
  15 O :   -0.518604
  16 C :    0.035677
  17 C :    0.127773
  18 C :   -0.296399
  19 C :   -0.019696
  20 O :   -0.527790
  21 H :    0.144462
  22 H :    0.127637
  23 O :   -0.648917
  24 H :    0.151623
  25 H :    0.161630
  26 H :    0.139858
  27 H :    0.146023
  28 H :    0.401908
Sum of atomic charges:   -0.0000000

LOEWDIN ATOMIC CHARGES
----------------------
   0 C :    0.166414
   1 C :   -0.215128
   2 C :   -0.214096
   3 C :   -0.022986
   4 O :   -0.321277
   5 H :    0.102496
   6 H :    0.113085
   7 H :    0.123066
   8 H :    0.116231
   9 H :    0.124260
  10 H :    0.115438
  11 H :    0.106460
  12 C :   -0.038002
  13 H :    0.118276
  14 H :    0.101263
  15 O :   -0.324988
  16 C :   -0.000681
  17 C :    0.043064
  18 C :   -0.224258
  19 C :   -0.032339
  20 O :   -0.323956
  21 H :    0.101991
  22 H :    0.091253
  23 O :   -0.438063
  24 H :    0.121535
  25 H :    0.119559
  26 H :    0.100944
  27 H :    0.104302
  28 H :    0.286137

  Mayer bond orders larger than 0.100000
B(  0-C ,  1-C ) :   0.9454 B(  0-C ,  4-O ) :   0.8679 B(  0-C ,  5-H ) :   0.9096
B(  0-C , 15-O ) :   0.8695 B(  1-C ,  2-C ) :   0.9544 B(  1-C ,  6-H ) :   0.9363
B(  1-C ,  7-H ) :   0.9394 B(  2-C ,  3-C ) :   0.9558 B(  2-C ,  8-H ) :   0.9448
B(  2-C ,  9-H ) :   0.9412 B(  3-C ,  4-O ) :   0.8046 B(  3-C , 10-H ) :   0.9342
B(  3-C , 11-H ) :   0.9405 B(  4-O , 28-H ) :   0.1005 B( 12-C , 13-H ) :   0.9387
B( 12-C , 14-H ) :   0.9239 B( 12-C , 15-O ) :   0.8180 B( 12-C , 16-C ) :   0.8890
B( 16-C , 17-C ) :   0.8887 B( 16-C , 20-O ) :   0.8416 B( 16-C , 21-H ) :   0.9256
B( 17-C , 18-C ) :   0.9273 B( 17-C , 22-H ) :   0.9188 B( 17-C , 23-O ) :   0.9479
B( 18-C , 19-C ) :   0.9427 B( 18-C , 24-H ) :   0.9441 B( 18-C , 25-H ) :   0.9379
B( 19-C , 20-O ) :   0.8315 B( 19-C , 26-H ) :   0.9353 B( 19-C , 27-H ) :   0.9393
B( 23-O , 28-H ) :   0.7037

FINAL SINGLE POINT ENERGY      -652.863957221073

DIPOLE MOMENT
-------------
                                X             Y             Z
Electronic contribution:      0.12859      -2.43997      -0.54013
Nuclear contribution   :      0.45511       3.23316       0.25365
                        -----------------------------------------
Total Dipole Moment    :      0.58371       0.79319      -0.28648
                        -----------------------------------------
Magnitude (a.u.)       :      1.02564
Magnitude (Debye)      :      2.60697

Rotational constants in cm-1:     0.062936     0.014818     0.013158
Rotational constants in MHz :  1886.774666   444.229360   394.481449

                             ****ORCA TERMINATED NORMALLY****
TOTAL RUN TIME: 0 days 0 hours 55 minutes 23 seconds 510 msec
