                         Program Version 4.2.0 -  RELEASE  -
|  1> # Test redundant internal optimization
|  2> #
|  3> ! RKS B3LYP  Opt TightSCF SmallPrint
|  4>
|  5> %basis
|  6>         Basis "6-31G"
|  7> end
|  8>
|  9> %geom
| 10> Constraints
| 11> { D 4  0  15  12  345.0   C } # D for Dihedral angle
| 12> { D 0  15  12  16  195.0   C } # D for Dihedral angle
| 13> { D 0  4  3  2   C } # D for Dihedral angle
| 14> { D 4  3  2  1   C } # D for Dihedral angle
| 15> { D 3  2  1  0   C } # D for Dihedral angle
| 16> { D 2  1  0  4   C } # D for Dihedral angle
| 17> { D 1  0  4  3   C } # D for Dihedral angle
| 18> { D 16  20  19  18   C } # D for Dihedral angle
| 19> { D 20  19  18  17   C } # D for Dihedral angle
| 20> { D 19  18  17  16   C } # D for Dihedral angle
| 21> { D 18  17  16  20   C } # D for Dihedral angle
| 22> { D 17  16  20  19   C } # D for Dihedral angle
| 23> { D 15  12  16  20   C } # D for Dihedral angle
| 24> end
| 25> end
| 26>
| 27>
| 28> #%pal
| 29> #nprocs 8
| 30> #end
| 31>
| 32> * xyz 0 1
| 33> C  -21.048   26.222   46.251
| 34> C  -20.361   27.558   45.944
| 35> C  -20.329   28.222   47.341
| 36> C  -20.110   27.022   48.296
| 37> O  -20.473   25.807   47.535
| 38> H  -20.833   25.428   45.533
| 39> H  -19.344   27.382   45.576
| 40> H  -20.898   28.157   45.201
| 41> H  -19.543   28.978   47.434
| 42> H  -21.289   28.710   47.548
| 43> H  -20.733   27.082   49.195
| 44> H  -19.064   26.913   48.597
| 45> C  -23.221   25.764   47.645
| 46> H  -22.801   24.763   47.801
| 47> H  -22.994   26.373   48.530
| 48> O  -22.586   26.394   46.375
| 49> C  -24.766   25.635   47.544
| 50> C  -25.369   25.119   48.855
| 51> C  -25.378   26.401   49.721
| 52> C  -25.680   27.519   48.692
| 53> O  -25.379   26.955   47.359
| 54> H  -25.018   25.039   46.664
| 55> H  -26.390   24.760   48.685
| 56> O  -24.545   23.967   49.493
| 57> H  -26.120   26.364   50.526
| 58> H  -24.394   26.553   50.180
| 59> H  -25.064   28.412   48.850
| 60> H  -26.734   27.811   48.689
| 61> H  -23.519   24.304   49.674
| 62> *
| 63>
| 64>                          ****END OF INPUT****
 Total Charge           Charge          ....    0
 Multiplicity           Mult            ....    1
 Number of Electrons    NEL             ....  102
FINAL SINGLE POINT ENERGY      -652.827466881720
FINAL SINGLE POINT ENERGY      -652.850882089785
FINAL SINGLE POINT ENERGY      -652.855389614810
FINAL SINGLE POINT ENERGY      -652.856113912057
FINAL SINGLE POINT ENERGY      -652.856237272361
FINAL SINGLE POINT ENERGY      -652.856265619620
FINAL SINGLE POINT ENERGY      -652.856268070784
                    ***********************HURRAY********************

CARTESIAN COORDINATES (ANGSTROEM)
---------------------------------
  C    -21.100907   26.207039   46.313467
  C    -20.522689   27.573147   45.945109
  C    -20.338644   28.221311   47.334840
  C    -19.943654   27.029633   48.234213
  O    -20.356913   25.806839   47.488863
  H    -20.942019   25.415950   45.575291
  H    -19.560074   27.435193   45.439073
  H    -21.193984   28.136734   45.293942
  H    -19.578864   29.009049   47.335258
  H    -21.286062   28.659834   47.663219
  H    -20.444224   27.035300   49.206938
  H    -18.863571   26.948860   48.387814
  C    -23.084945   25.755423   47.746815
  H    -22.696623   24.741725   47.905570
  H    -22.813017   26.367782   48.618516
  O    -22.533005   26.339094   46.537245
  C    -24.598952   25.690428   47.569698
  C    -25.342219   25.129669   48.794530
  C    -25.468905   26.394093   49.697933
  C    -25.666937   27.528105   48.668422
  O    -25.206398   27.001799   47.358857
  H    -24.807919   25.118077   46.661757
  H    -26.330547   24.781115   48.488615
  O    -24.734392   23.979671   49.429247
  H    -26.295931   26.311802   50.408548
  H    -24.542149   26.528514   50.271648
  H    -25.096801   28.430078   48.912087
  H    -26.720007   27.800321   48.551429
  H    -23.912650   24.237416   49.895054

 Multiplicity           Mult            ....    1
 Number of Electrons    NEL             ....  102
 Basis Dimension        Dim             ....  149

ORBITAL ENERGIES
----------------

  NO   OCC          E(Eh)            E(eV)
   0   2.0000     -19.149162      -521.0752
   1   2.0000     -19.147785      -521.0377
   2   2.0000     -19.135924      -520.7150
   3   2.0000     -19.133666      -520.6535
   4   2.0000     -10.276991      -279.6511
   5   2.0000     -10.242790      -278.7205
   6   2.0000     -10.232591      -278.4430
   7   2.0000     -10.227966      -278.3171
   8   2.0000     -10.227129      -278.2943
   9   2.0000     -10.226742      -278.2838
  10   2.0000     -10.193673      -277.3839
  11   2.0000     -10.189100      -277.2595
  12   2.0000     -10.183879      -277.1174
  13   2.0000      -1.054298       -28.6889
  14   2.0000      -1.031358       -28.0647
  15   2.0000      -1.013067       -27.5669
  16   2.0000      -0.990249       -26.9460
  17   2.0000      -0.790703       -21.5161
  18   2.0000      -0.780060       -21.2265
  19   2.0000      -0.767183       -20.8761
  20   2.0000      -0.731918       -19.9165
  21   2.0000      -0.677281       -18.4298
  22   2.0000      -0.609050       -16.5731
  23   2.0000      -0.603054       -16.4099
  24   2.0000      -0.591321       -16.0907
  25   2.0000      -0.570181       -15.5154
  26   2.0000      -0.529196       -14.4002
  27   2.0000      -0.507478       -13.8092
  28   2.0000      -0.497172       -13.5287
  29   2.0000      -0.495588       -13.4856
  30   2.0000      -0.470815       -12.8115
  31   2.0000      -0.453587       -12.3427
  32   2.0000      -0.449400       -12.2288
  33   2.0000      -0.429862       -11.6971
  34   2.0000      -0.425053       -11.5663
  35   2.0000      -0.413211       -11.2440
  36   2.0000      -0.406142       -11.0517
  37   2.0000      -0.400446       -10.8967
  38   2.0000      -0.376924       -10.2566
  39   2.0000      -0.367623       -10.0035
  40   2.0000      -0.360149        -9.8002
  41   2.0000      -0.353269        -9.6129
  42   2.0000      -0.348970        -9.4960
  43   2.0000      -0.340063        -9.2536
  44   2.0000      -0.323445        -8.8014
  45   2.0000      -0.311213        -8.4685
  46   2.0000      -0.303643        -8.2626
  47   2.0000      -0.269149        -7.3239
  48   2.0000      -0.262137        -7.1331
  49   2.0000      -0.248861        -6.7719
  50   2.0000      -0.238255        -6.4833
  51   0.0000       0.050809         1.3826
  52   0.0000       0.068243         1.8570
  53   0.0000       0.090001         2.4490
  54   0.0000       0.095774         2.6061
  55   0.0000       0.105445         2.8693

MULLIKEN ATOMIC CHARGES
-----------------------
   0 C :    0.296480
   1 C :   -0.256225
   2 C :   -0.305795
   3 C :   -0.016103
   4 O :   -0.514585
   5 H :    0.153480
   6 H :    0.142775
   7 H :    0.167703
   8 H :    0.145668
   9 H :    0.160712
  10 H :    0.137844
  11 H :    0.150874
  12 C :    0.002340
  13 H :    0.147982
  14 H :    0.112409
  15 O :   -0.528653
  16 C :    0.092204
  17 C :    0.081106
  18 C :   -0.321670
  19 C :   -0.008305
  20 O :   -0.505199
  21 H :    0.162673
  22 H :    0.168297
  23 O :   -0.598597
  24 H :    0.157902
  25 H :    0.130161
  26 H :    0.140432
  27 H :    0.147476
  28 H :    0.356614
Sum of atomic charges:    0.0000000

LOEWDIN ATOMIC CHARGES
----------------------
   0 C :    0.180597
   1 C :   -0.217127
   2 C :   -0.218637
   3 C :   -0.032647
   4 O :   -0.323774
   5 H :    0.102092
   6 H :    0.112802
   7 H :    0.129591
   8 H :    0.116455
   9 H :    0.117795
  10 H :    0.098552
  11 H :    0.106665
  12 C :   -0.046464
  13 H :    0.106741
  14 H :    0.083828
  15 O :   -0.328728
  16 C :    0.021372
  17 C :    0.034800
  18 C :   -0.242301
  19 C :   -0.030363
  20 O :   -0.313917
  21 H :    0.119905
  22 H :    0.119898
  23 O :   -0.406304
  24 H :    0.122418
  25 H :    0.102457
  26 H :    0.100950
  27 H :    0.105195
  28 H :    0.278151

  Mayer bond orders larger than 0.100000
B(  0-C ,  1-C ) :   0.9392 B(  0-C ,  4-O ) :   0.9007 B(  0-C ,  5-H ) :   0.9254
B(  0-C , 15-O ) :   0.8485 B(  1-C ,  2-C ) :   0.9525 B(  1-C ,  6-H ) :   0.9365
B(  1-C ,  7-H ) :   0.9344 B(  2-C ,  3-C ) :   0.9547 B(  2-C ,  8-H ) :   0.9446
B(  2-C ,  9-H ) :   0.9445 B(  3-C ,  4-O ) :   0.8331 B(  3-C , 10-H ) :   0.9333
B(  3-C , 11-H ) :   0.9400 B( 12-C , 13-H ) :   0.9027 B( 12-C , 14-H ) :   0.9179
B( 12-C , 15-O ) :   0.8345 B( 12-C , 16-C ) :   0.9051 B( 16-C , 17-C ) :   0.8742
B( 16-C , 20-O ) :   0.8669 B( 16-C , 21-H ) :   0.9290 B( 17-C , 18-C ) :   0.9211
B( 17-C , 22-H ) :   0.9339 B( 17-C , 23-O ) :   0.8982 B( 18-C , 19-C ) :   0.9396
B( 18-C , 24-H ) :   0.9420 B( 18-C , 25-H ) :   0.9414 B( 19-C , 20-O ) :   0.8540
B( 19-C , 26-H ) :   0.9318 B( 19-C , 27-H ) :   0.9377 B( 23-O , 28-H ) :   0.7970

FINAL SINGLE POINT ENERGY      -652.856268335497

DIPOLE MOMENT
-------------
                                X             Y             Z
Electronic contribution:     -2.06451      -4.28922      -2.73842
Nuclear contribution   :      2.65541       5.18397       3.65852
                        -----------------------------------------
Total Dipole Moment    :      0.59091       0.89474       0.92010
                        -----------------------------------------
Magnitude (a.u.)       :      1.41291
Magnitude (Debye)      :      3.59134

Rotational constants in cm-1:     0.047997     0.014105     0.013130
Rotational constants in MHz :  1438.916760   422.843606   393.639961

                             ****ORCA TERMINATED NORMALLY****
TOTAL RUN TIME: 0 days 0 hours 24 minutes 24 seconds 437 msec
