                         Program Version 4.2.0 -  RELEASE  -
|  1> # Test redundant internal optimization
|  2> #
|  3> ! RKS B3LYP  Opt TightSCF SmallPrint
|  4>
|  5> %basis
|  6>         Basis "6-31G"
|  7> end
|  8>
|  9> %geom
| 10> Constraints
| 11> { D 4  0  15  12  240.0   C } # D for Dihedral angle
| 12> { D 0  15  12  16  135.0   C } # D for Dihedral angle
| 13> { D 0  4  3  2   C } # D for Dihedral angle
| 14> { D 4  3  2  1   C } # D for Dihedral angle
| 15> { D 3  2  1  0   C } # D for Dihedral angle
| 16> { D 2  1  0  4   C } # D for Dihedral angle
| 17> { D 1  0  4  3   C } # D for Dihedral angle
| 18> { D 16  20  19  18   C } # D for Dihedral angle
| 19> { D 20  19  18  17   C } # D for Dihedral angle
| 20> { D 19  18  17  16   C } # D for Dihedral angle
| 21> { D 18  17  16  20   C } # D for Dihedral angle
| 22> { D 17  16  20  19   C } # D for Dihedral angle
| 23> { D 15  12  16  20   C } # D for Dihedral angle
| 24> end
| 25> end
| 26>
| 27>
| 28> #%pal
| 29> #nprocs 8
| 30> #end
| 31>
| 32> * xyz 0 1
| 33> C  -21.048   26.222   46.251
| 34> C  -20.361   27.558   45.944
| 35> C  -20.329   28.222   47.341
| 36> C  -20.110   27.022   48.296
| 37> O  -20.473   25.807   47.535
| 38> H  -20.833   25.428   45.533
| 39> H  -19.344   27.382   45.576
| 40> H  -20.898   28.157   45.201
| 41> H  -19.543   28.978   47.434
| 42> H  -21.289   28.710   47.548
| 43> H  -20.733   27.082   49.195
| 44> H  -19.064   26.913   48.597
| 45> C  -23.430   25.483   45.442
| 46> H  -23.822   26.081   44.610
| 47> H  -22.808   24.680   45.024
| 48> O  -22.586   26.394   46.375
| 49> C  -24.629   24.819   46.175
| 50> C  -25.642   25.868   46.647
| 51> C  -26.411   26.172   45.338
| 52> C  -26.443   24.798   44.622
| 53> O  -25.389   23.972   45.250
| 54> H  -24.249   24.169   46.965
| 55> H  -26.312   25.432   47.396
| 56> O  -24.975   27.129   47.261
| 57> H  -27.413   26.572   45.519
| 58> H  -25.859   26.907   44.741
| 59> H  -26.243   24.880   43.549
| 60> H  -27.392   24.274   44.766
| 61> H  -24.299   27.581   46.527
| 62> *
| 63>
| 64>                          ****END OF INPUT****
 Total Charge           Charge          ....    0
 Multiplicity           Mult            ....    1
 Number of Electrons    NEL             ....  102
FINAL SINGLE POINT ENERGY      -652.831755464846
FINAL SINGLE POINT ENERGY      -652.855557141897
FINAL SINGLE POINT ENERGY      -652.861724417920
FINAL SINGLE POINT ENERGY      -652.863970559649
FINAL SINGLE POINT ENERGY      -652.865309145170
FINAL SINGLE POINT ENERGY      -652.866112844910
FINAL SINGLE POINT ENERGY      -652.866454905431
FINAL SINGLE POINT ENERGY      -652.866520818836
FINAL SINGLE POINT ENERGY      -652.866528841916
                    ***********************HURRAY********************

CARTESIAN COORDINATES (ANGSTROEM)
---------------------------------
  C    -21.073408   26.160616   46.192726
  C    -20.426926   27.517080   45.917573
  C    -20.533745   28.208617   47.298043
  C    -20.338383   27.038983   48.286620
  O    -20.593721   25.802442   47.497987
  H    -20.797160   25.352955   45.509615
  H    -19.378028   27.365987   45.637224
  H    -20.930822   28.065819   45.118702
  H    -19.785917   28.995755   47.431678
  H    -21.524988   28.657558   47.415402
  H    -21.032839   27.063169   49.129747
  H    -19.313674   26.962661   48.660849
  C    -23.328724   25.441317   45.327204
  H    -23.666182   26.029369   44.465848
  H    -22.730459   24.597958   44.962804
  O    -22.523205   26.298898   46.201598
  C    -24.513114   24.904427   46.138769
  C    -25.489646   25.979447   46.644056
  C    -26.337547   26.259170   45.368353
  C    -26.424604   24.874195   44.694927
  O    -25.331304   24.045126   45.286689
  H    -24.130032   24.280542   46.950795
  H    -26.128781   25.534752   47.415922
  O    -24.891006   27.165274   47.202543
  H    -27.318380   26.673383   45.615338
  H    -25.810617   26.991618   44.747006
  H    -26.289193   24.908813   43.608876
  H    -27.361687   24.354771   44.916450
  H    -23.922907   27.161299   47.014655

 Multiplicity           Mult            ....    1
 Number of Electrons    NEL             ....  102
 Basis Dimension        Dim             ....  149

ORBITAL ENERGIES
----------------

  NO   OCC          E(Eh)            E(eV)
   0   2.0000     -19.163008      -521.4520
   1   2.0000     -19.148717      -521.0631
   2   2.0000     -19.139716      -520.8182
   3   2.0000     -19.112096      -520.0666
   4   2.0000     -10.293381      -280.0971
   5   2.0000     -10.241099      -278.6745
   6   2.0000     -10.232246      -278.4336
   7   2.0000     -10.231693      -278.4185
   8   2.0000     -10.229209      -278.3509
   9   2.0000     -10.226384      -278.2741
  10   2.0000     -10.194329      -277.4018
  11   2.0000     -10.193235      -277.3720
  12   2.0000     -10.178371      -276.9676
  13   2.0000      -1.064777       -28.9741
  14   2.0000      -1.024925       -27.8896
  15   2.0000      -1.007661       -27.4199
  16   2.0000      -0.991304       -26.9748
  17   2.0000      -0.795759       -21.6537
  18   2.0000      -0.773074       -21.0364
  19   2.0000      -0.767146       -20.8751
  20   2.0000      -0.735990       -20.0273
  21   2.0000      -0.679645       -18.4941
  22   2.0000      -0.607068       -16.5191
  23   2.0000      -0.602119       -16.3845
  24   2.0000      -0.594196       -16.1689
  25   2.0000      -0.581891       -15.8341
  26   2.0000      -0.528579       -14.3834
  27   2.0000      -0.523229       -14.2378
  28   2.0000      -0.498629       -13.5684
  29   2.0000      -0.487766       -13.2728
  30   2.0000      -0.473232       -12.8773
  31   2.0000      -0.457020       -12.4361
  32   2.0000      -0.447165       -12.1680
  33   2.0000      -0.437925       -11.9165
  34   2.0000      -0.426027       -11.5928
  35   2.0000      -0.416842       -11.3429
  36   2.0000      -0.407108       -11.0780
  37   2.0000      -0.387241       -10.5374
  38   2.0000      -0.381547       -10.3824
  39   2.0000      -0.366968        -9.9857
  40   2.0000      -0.363559        -9.8929
  41   2.0000      -0.360602        -9.8125
  42   2.0000      -0.347528        -9.4567
  43   2.0000      -0.342491        -9.3197
  44   2.0000      -0.326124        -8.8743
  45   2.0000      -0.318576        -8.6689
  46   2.0000      -0.285673        -7.7735
  47   2.0000      -0.282021        -7.6742
  48   2.0000      -0.261304        -7.1105
  49   2.0000      -0.247890        -6.7454
  50   2.0000      -0.240723        -6.5504
  51   0.0000       0.053383         1.4526
  52   0.0000       0.081746         2.2244
  53   0.0000       0.090840         2.4719
  54   0.0000       0.097294         2.6475
  55   0.0000       0.103127         2.8062

MULLIKEN ATOMIC CHARGES
-----------------------
   0 C :    0.298898
   1 C :   -0.256521
   2 C :   -0.306568
   3 C :   -0.008237
   4 O :   -0.498544
   5 H :    0.148168
   6 H :    0.149617
   7 H :    0.149936
   8 H :    0.147919
   9 H :    0.164821
  10 H :    0.159975
  11 H :    0.146863
  12 C :   -0.019213
  13 H :    0.145716
  14 H :    0.156149
  15 O :   -0.561719
  16 C :    0.056086
  17 C :    0.120455
  18 C :   -0.301903
  19 C :   -0.025222
  20 O :   -0.521044
  21 H :    0.165780
  22 H :    0.146252
  23 O :   -0.644892
  24 H :    0.151223
  25 H :    0.146171
  26 H :    0.143244
  27 H :    0.149767
  28 H :    0.396824
Sum of atomic charges:    0.0000000

LOEWDIN ATOMIC CHARGES
----------------------
   0 C :    0.180910
   1 C :   -0.220855
   2 C :   -0.217190
   3 C :   -0.027389
   4 O :   -0.311842
   5 H :    0.103622
   6 H :    0.116440
   7 H :    0.120048
   8 H :    0.117473
   9 H :    0.119080
  10 H :    0.111813
  11 H :    0.105360
  12 C :   -0.040237
  13 H :    0.101261
  14 H :    0.111764
  15 O :   -0.344520
  16 C :    0.014883
  17 C :    0.042483
  18 C :   -0.236741
  19 C :   -0.033825
  20 O :   -0.324820
  21 H :    0.118626
  22 H :    0.104451
  23 O :   -0.436761
  24 H :    0.121324
  25 H :    0.111081
  26 H :    0.101707
  27 H :    0.106162
  28 H :    0.285693

  Mayer bond orders larger than 0.100000
B(  0-C ,  1-C ) :   0.9445 B(  0-C ,  4-O ) :   0.9467 B(  0-C ,  5-H ) :   0.9193
B(  0-C , 15-O ) :   0.8012 B(  1-C ,  2-C ) :   0.9552 B(  1-C ,  6-H ) :   0.9352
B(  1-C ,  7-H ) :   0.9378 B(  2-C ,  3-C ) :   0.9525 B(  2-C ,  8-H ) :   0.9447
B(  2-C ,  9-H ) :   0.9431 B(  3-C ,  4-O ) :   0.8309 B(  3-C , 10-H ) :   0.9337
B(  3-C , 11-H ) :   0.9395 B( 12-C , 13-H ) :   0.9270 B( 12-C , 14-H ) :   0.9225
B( 12-C , 15-O ) :   0.7898 B( 12-C , 16-C ) :   0.8984 B( 16-C , 17-C ) :   0.9155
B( 16-C , 20-O ) :   0.8538 B( 16-C , 21-H ) :   0.9281 B( 17-C , 18-C ) :   0.9009
B( 17-C , 22-H ) :   0.9303 B( 17-C , 23-O ) :   0.9336 B( 18-C , 19-C ) :   0.9388
B( 18-C , 24-H ) :   0.9447 B( 18-C , 25-H ) :   0.9431 B( 19-C , 20-O ) :   0.8323
B( 19-C , 26-H ) :   0.9340 B( 19-C , 27-H ) :   0.9386 B( 23-O , 28-H ) :   0.7204

FINAL SINGLE POINT ENERGY      -652.866530265060

DIPOLE MOMENT
-------------
                                X             Y             Z
Electronic contribution:     -0.51475      -3.91740       1.52486
Nuclear contribution   :      1.28630       4.57823      -2.33782
                        -----------------------------------------
Total Dipole Moment    :      0.77155       0.66083      -0.81296
                        -----------------------------------------
Magnitude (a.u.)       :      1.30111
Magnitude (Debye)      :      3.30716

Rotational constants in cm-1:     0.060331     0.013068     0.012260
Rotational constants in MHz :  1808.682472   391.771726   367.536766

                             ****ORCA TERMINATED NORMALLY****
TOTAL RUN TIME: 0 days 0 hours 26 minutes 52 seconds 210 msec
