                         Program Version 4.2.0 -  RELEASE  -
|  1> # Test redundant internal optimization
|  2> #
|  3> ! RKS B3LYP  Opt TightSCF SmallPrint
|  4>
|  5> %basis
|  6>         Basis "6-31G"
|  7> end
|  8>
|  9> %geom
| 10> Constraints
| 11> { D 4  0  15  12  30.0   C } # D for Dihedral angle
| 12> { D 0  15  12  16  135.0   C } # D for Dihedral angle
| 13> { D 0  4  3  2   C } # D for Dihedral angle
| 14> { D 4  3  2  1   C } # D for Dihedral angle
| 15> { D 3  2  1  0   C } # D for Dihedral angle
| 16> { D 2  1  0  4   C } # D for Dihedral angle
| 17> { D 1  0  4  3   C } # D for Dihedral angle
| 18> { D 16  20  19  18   C } # D for Dihedral angle
| 19> { D 20  19  18  17   C } # D for Dihedral angle
| 20> { D 19  18  17  16   C } # D for Dihedral angle
| 21> { D 18  17  16  20   C } # D for Dihedral angle
| 22> { D 17  16  20  19   C } # D for Dihedral angle
| 23> { D 15  12  16  20   C } # D for Dihedral angle
| 24> end
| 25> end
| 26>
| 27>
| 28> #%pal
| 29> #nprocs 8
| 30> #end
| 31>
| 32> * xyz 0 1
| 33> C  -21.048   26.222   46.251
| 34> C  -20.361   27.558   45.944
| 35> C  -20.329   28.222   47.341
| 36> C  -20.110   27.022   48.296
| 37> O  -20.473   25.807   47.535
| 38> H  -20.833   25.428   45.533
| 39> H  -19.344   27.382   45.576
| 40> H  -20.898   28.157   45.201
| 41> H  -19.543   28.978   47.434
| 42> H  -21.289   28.710   47.548
| 43> H  -20.733   27.082   49.195
| 44> H  -19.064   26.913   48.597
| 45> C  -23.091   26.824   47.779
| 46> H  -23.540   25.959   48.283
| 47> H  -22.256   27.184   48.394
| 48> O  -22.586   26.394   46.375
| 49> C  -24.154   27.956   47.715
| 50> C  -25.432   27.481   47.016
| 51> C  -26.128   26.682   48.143
| 52> C  -25.756   27.479   49.419
| 53> O  -24.595   28.322   49.065
| 54> H  -23.701   28.846   47.274
| 55> O  -26.295   28.702   46.596
| 56> H  -25.236   26.875   46.124
| 57> H  -27.210   26.602   48.001
| 58> H  -25.720   25.665   48.190
| 59> H  -25.484   26.827   50.256
| 60> H  -26.557   28.150   49.740
| 61> H  -26.505   29.324   47.474
| 62> *
| 63>
| 64>                          ****END OF INPUT****
 Total Charge           Charge          ....    0
 Multiplicity           Mult            ....    1
 Number of Electrons    NEL             ....  102
FINAL SINGLE POINT ENERGY      -652.826377449991
FINAL SINGLE POINT ENERGY      -652.850911756951
FINAL SINGLE POINT ENERGY      -652.857385882618
FINAL SINGLE POINT ENERGY      -652.859668116251
FINAL SINGLE POINT ENERGY      -652.859929838867
FINAL SINGLE POINT ENERGY      -652.859979745875
FINAL SINGLE POINT ENERGY      -652.859985817810
FINAL SINGLE POINT ENERGY      -652.859987156433
                    ***********************HURRAY********************

CARTESIAN COORDINATES (ANGSTROEM)
---------------------------------
  C    -21.194565   26.319927   46.398668
  C    -20.501978   27.613282   45.955216
  C    -20.136192   28.265093   47.316379
  C    -19.802223   27.042110   48.203609
  O    -20.404283   25.865975   47.518337
  H    -21.154353   25.528014   45.648439
  H    -19.598858   27.358075   45.389330
  H    -21.148634   28.236128   45.333158
  H    -19.291699   28.956416   47.237713
  H    -20.988562   28.826199   47.713968
  H    -20.208621   27.110885   49.216868
  H    -18.726750   26.850015   48.264563
  C    -23.120697   26.800872   47.985352
  H    -23.540457   25.897052   48.442307
  H    -22.342713   27.174582   48.653292
  O    -22.614338   26.461866   46.661893
  C    -24.189099   27.879410   47.811118
  C    -25.418561   27.450186   46.998826
  C    -26.236440   26.669321   48.058071
  C    -25.952563   27.445301   49.368830
  O    -24.731298   28.255199   49.122282
  H    -23.736252   28.777218   47.380109
  O    -26.142984   28.612605   46.505133
  H    -25.161118   26.864101   46.118237
  H    -27.296777   26.654642   47.793139
  H    -25.884950   25.634211   48.122838
  H    -25.774102   26.787084   50.224483
  H    -26.754272   28.144222   49.626308
  H    -26.217659   29.273008   47.226532

 Multiplicity           Mult            ....    1
 Number of Electrons    NEL             ....  102
 Basis Dimension        Dim             ....  149

ORBITAL ENERGIES
----------------

  NO   OCC          E(Eh)            E(eV)
   0   2.0000     -19.150398      -521.1088
   1   2.0000     -19.145014      -520.9623
   2   2.0000     -19.142320      -520.8890
   3   2.0000     -19.134071      -520.6645
   4   2.0000     -10.281509      -279.7741
   5   2.0000     -10.234650      -278.4990
   6   2.0000     -10.234084      -278.4836
   7   2.0000     -10.231927      -278.4249
   8   2.0000     -10.231429      -278.4113
   9   2.0000     -10.230588      -278.3885
  10   2.0000     -10.195082      -277.4223
  11   2.0000     -10.188713      -277.2490
  12   2.0000     -10.186326      -277.1840
  13   2.0000      -1.055746       -28.7283
  14   2.0000      -1.035204       -28.1693
  15   2.0000      -1.003277       -27.3006
  16   2.0000      -0.996445       -27.1146
  17   2.0000      -0.791849       -21.5473
  18   2.0000      -0.780781       -21.2461
  19   2.0000      -0.770094       -20.9553
  20   2.0000      -0.734068       -19.9750
  21   2.0000      -0.675838       -18.3905
  22   2.0000      -0.606530       -16.5045
  23   2.0000      -0.603621       -16.4254
  24   2.0000      -0.596425       -16.2296
  25   2.0000      -0.576444       -15.6858
  26   2.0000      -0.527215       -14.3463
  27   2.0000      -0.511144       -13.9089
  28   2.0000      -0.502600       -13.6765
  29   2.0000      -0.492564       -13.4033
  30   2.0000      -0.473403       -12.8820
  31   2.0000      -0.458244       -12.4695
  32   2.0000      -0.446482       -12.1494
  33   2.0000      -0.438960       -11.9447
  34   2.0000      -0.424074       -11.5396
  35   2.0000      -0.419084       -11.4039
  36   2.0000      -0.404651       -11.0111
  37   2.0000      -0.391496       -10.6531
  38   2.0000      -0.379909       -10.3378
  39   2.0000      -0.365906        -9.9568
  40   2.0000      -0.363125        -9.8811
  41   2.0000      -0.357092        -9.7170
  42   2.0000      -0.350649        -9.5416
  43   2.0000      -0.338281        -9.2051
  44   2.0000      -0.323660        -8.8072
  45   2.0000      -0.314639        -8.5618
  46   2.0000      -0.302943        -8.2435
  47   2.0000      -0.272379        -7.4118
  48   2.0000      -0.265622        -7.2279
  49   2.0000      -0.256323        -6.9749
  50   2.0000      -0.240993        -6.5577
  51   0.0000       0.064910         1.7663
  52   0.0000       0.065790         1.7902
  53   0.0000       0.090819         2.4713
  54   0.0000       0.097942         2.6651
  55   0.0000       0.100941         2.7467

MULLIKEN ATOMIC CHARGES
-----------------------
   0 C :    0.300562
   1 C :   -0.263161
   2 C :   -0.317034
   3 C :   -0.023589
   4 O :   -0.506751
   5 H :    0.164124
   6 H :    0.149730
   7 H :    0.157952
   8 H :    0.150763
   9 H :    0.155556
  10 H :    0.150133
  11 H :    0.152771
  12 C :   -0.006929
  13 H :    0.141481
  14 H :    0.151649
  15 O :   -0.540664
  16 C :    0.061883
  17 C :    0.088285
  18 C :   -0.302128
  19 C :   -0.030900
  20 O :   -0.530607
  21 H :    0.154992
  22 O :   -0.602847
  23 H :    0.178199
  24 H :    0.162368
  25 H :    0.150837
  26 H :    0.147144
  27 H :    0.145934
  28 H :    0.360246
Sum of atomic charges:   -0.0000000

LOEWDIN ATOMIC CHARGES
----------------------
   0 C :    0.181728
   1 C :   -0.226447
   2 C :   -0.223146
   3 C :   -0.036294
   4 O :   -0.317915
   5 H :    0.111034
   6 H :    0.117226
   7 H :    0.123635
   8 H :    0.119012
   9 H :    0.112464
  10 H :    0.103023
  11 H :    0.107428
  12 C :   -0.035421
  13 H :    0.101269
  14 H :    0.109024
  15 O :   -0.337793
  16 C :    0.013172
  17 C :    0.037994
  18 C :   -0.241949
  19 C :   -0.038354
  20 O :   -0.334454
  21 H :    0.111326
  22 O :   -0.415319
  23 H :    0.128920
  24 H :    0.126593
  25 H :    0.116558
  26 H :    0.104251
  27 H :    0.102334
  28 H :    0.280101

  Mayer bond orders larger than 0.100000
B(  0-C ,  1-C ) :   0.9186 B(  0-C ,  4-O ) :   0.9153 B(  0-C ,  5-H ) :   0.9346
B(  0-C , 15-O ) :   0.8615 B(  1-C ,  2-C ) :   0.9535 B(  1-C ,  6-H ) :   0.9343
B(  1-C ,  7-H ) :   0.9363 B(  2-C ,  3-C ) :   0.9490 B(  2-C ,  8-H ) :   0.9444
B(  2-C ,  9-H ) :   0.9418 B(  3-C ,  4-O ) :   0.8345 B(  3-C , 10-H ) :   0.9284
B(  3-C , 11-H ) :   0.9383 B( 12-C , 13-H ) :   0.9302 B( 12-C , 14-H ) :   0.9098
B( 12-C , 15-O ) :   0.8148 B( 12-C , 16-C ) :   0.8931 B( 16-C , 17-C ) :   0.9128
B( 16-C , 20-O ) :   0.8421 B( 16-C , 21-H ) :   0.9255 B( 17-C , 18-C ) :   0.9142
B( 17-C , 22-O ) :   0.8881 B( 17-C , 23-H ) :   0.9238 B( 18-C , 19-C ) :   0.9419
B( 18-C , 24-H ) :   0.9375 B( 18-C , 25-H ) :   0.9330 B( 19-C , 20-O ) :   0.8431
B( 19-C , 26-H ) :   0.9354 B( 19-C , 27-H ) :   0.9380 B( 22-O , 28-H ) :   0.7972

FINAL SINGLE POINT ENERGY      -652.859987219098

DIPOLE MOMENT
-------------
                                X             Y             Z
Electronic contribution:     -1.66824      -1.04787      -1.24682
Nuclear contribution   :      2.11560       1.30236       1.72080
                        -----------------------------------------
Total Dipole Moment    :      0.44735       0.25450       0.47397
                        -----------------------------------------
Magnitude (a.u.)       :      0.69968
Magnitude (Debye)      :      1.77843

Rotational constants in cm-1:     0.054798     0.013354     0.012790
Rotational constants in MHz :  1642.794587   400.339081   383.431459

                             ****ORCA TERMINATED NORMALLY****
TOTAL RUN TIME: 0 days 0 hours 27 minutes 26 seconds 305 msec
