                         Program Version 4.2.0 -  RELEASE  -
|  1> # Test redundant internal optimization
|  2> #
|  3> ! RKS B3LYP  Opt TightSCF SmallPrint
|  4>
|  5> %basis
|  6>         Basis "6-31G"
|  7> end
|  8>
|  9> %geom
| 10> Constraints
| 11> { D 4  0  15  12  195.0   C } # D for Dihedral angle
| 12> { D 0  15  12  16  210.0   C } # D for Dihedral angle
| 13> { D 0  4  3  2   C } # D for Dihedral angle
| 14> { D 4  3  2  1   C } # D for Dihedral angle
| 15> { D 3  2  1  0   C } # D for Dihedral angle
| 16> { D 2  1  0  4   C } # D for Dihedral angle
| 17> { D 1  0  4  3   C } # D for Dihedral angle
| 18> { D 16  20  19  18   C } # D for Dihedral angle
| 19> { D 20  19  18  17   C } # D for Dihedral angle
| 20> { D 19  18  17  16   C } # D for Dihedral angle
| 21> { D 18  17  16  20   C } # D for Dihedral angle
| 22> { D 17  16  20  19   C } # D for Dihedral angle
| 23> { D 15  12  16  20   C } # D for Dihedral angle
| 24> end
| 25> end
| 26>
| 27>
| 28> #%pal
| 29> #nprocs 8
| 30> #end
| 31>
| 32> * xyz 0 1
| 33> C  -21.048   26.222   46.251
| 34> C  -20.361   27.558   45.944
| 35> C  -20.329   28.222   47.341
| 36> C  -20.110   27.022   48.296
| 37> O  -20.473   25.807   47.535
| 38> H  -20.833   25.428   45.533
| 39> H  -19.344   27.382   45.576
| 40> H  -20.898   28.157   45.201
| 41> H  -19.543   28.978   47.434
| 42> H  -21.289   28.710   47.548
| 43> H  -20.733   27.082   49.195
| 44> H  -19.064   26.913   48.597
| 45> C  -23.353   26.472   45.026
| 46> H  -22.697   26.908   44.262
| 47> H  -23.647   25.469   44.693
| 48> O  -22.586   26.394   46.375
| 49> C  -24.640   27.337   45.117
| 50> C  -24.306   28.803   45.412
| 51> C  -23.875   29.315   44.017
| 52> C  -24.801   28.529   43.054
| 53> O  -25.323   27.377   43.819
| 54> H  -25.330   26.878   45.827
| 55> H  -25.203   29.331   45.758
| 56> O  -23.196   28.972   46.485
| 57> H  -23.985   30.398   43.910
| 58> H  -22.824   29.064   43.833
| 59> H  -24.271   28.162   42.169
| 60> H  -25.663   29.119   42.730
| 61> H  -22.288   28.451   46.160
| 62> *
| 63>
| 64>                          ****END OF INPUT****
 Total Charge           Charge          ....    0
 Multiplicity           Mult            ....    1
 Number of Electrons    NEL             ....  102
FINAL SINGLE POINT ENERGY      -652.816592876162
FINAL SINGLE POINT ENERGY      -652.843335720120
FINAL SINGLE POINT ENERGY      -652.851037048031
FINAL SINGLE POINT ENERGY      -652.854358856382
FINAL SINGLE POINT ENERGY      -652.856679314914
FINAL SINGLE POINT ENERGY      -652.858740004542
FINAL SINGLE POINT ENERGY      -652.860302799011
FINAL SINGLE POINT ENERGY      -652.861373422569
FINAL SINGLE POINT ENERGY      -652.861941803298
FINAL SINGLE POINT ENERGY      -652.862022018611
FINAL SINGLE POINT ENERGY      -652.862056965879
FINAL SINGLE POINT ENERGY      -652.862062214879
                    ***********************HURRAY********************

CARTESIAN COORDINATES (ANGSTROEM)
---------------------------------
  C    -21.115690   26.232800   46.236902
  C    -20.326793   27.489394   45.868521
  C    -20.269594   28.245920   47.222999
  C    -20.160545   27.097893   48.247569
  O    -20.610098   25.874104   47.522557
  H    -20.943186   25.380110   45.572158
  H    -19.326690   27.188133   45.539482
  H    -20.788634   28.087603   45.078228
  H    -19.408207   28.919486   47.274110
  H    -21.167859   28.849476   47.361796
  H    -20.796597   27.231534   49.125812
  H    -19.133288   26.905035   48.567474
  C    -23.268029   26.450521   45.030846
  H    -22.591428   26.831373   44.254740
  H    -23.567547   25.433229   44.757672
  O    -22.574641   26.421484   46.333236
  C    -24.516169   27.339391   45.118235
  C    -24.283520   28.823786   45.433903
  C    -23.864536   29.380208   44.045503
  C    -24.717449   28.550436   43.062741
  O    -25.177860   27.347262   43.815611
  H    -25.220961   26.887826   45.823611
  H    -25.239033   29.271160   45.733533
  O    -23.314238   29.064571   46.475871
  H    -24.049713   30.454904   43.960780
  H    -22.791085   29.214224   43.905103
  H    -24.162476   28.222633   42.178360
  H    -25.618892   29.077197   42.737717
  H    -23.008241   28.188306   46.812930

 Multiplicity           Mult            ....    1
 Number of Electrons    NEL             ....  102
 Basis Dimension        Dim             ....  149

ORBITAL ENERGIES
----------------

  NO   OCC          E(Eh)            E(eV)
   0   2.0000     -19.162497      -521.4381
   1   2.0000     -19.149840      -521.0936
   2   2.0000     -19.146005      -520.9893
   3   2.0000     -19.126441      -520.4569
   4   2.0000     -10.290163      -280.0096
   5   2.0000     -10.241006      -278.6719
   6   2.0000     -10.239912      -278.6422
   7   2.0000     -10.238424      -278.6017
   8   2.0000     -10.232716      -278.4464
   9   2.0000     -10.230340      -278.3817
  10   2.0000     -10.194795      -277.4145
  11   2.0000     -10.187892      -277.2266
  12   2.0000     -10.187773      -277.2234
  13   2.0000      -1.063143       -28.9296
  14   2.0000      -1.032351       -28.0917
  15   2.0000      -1.010323       -27.4923
  16   2.0000      -1.000893       -27.2357
  17   2.0000      -0.792010       -21.5517
  18   2.0000      -0.778527       -21.1848
  19   2.0000      -0.772283       -21.0149
  20   2.0000      -0.737858       -20.0781
  21   2.0000      -0.683433       -18.5972
  22   2.0000      -0.607729       -16.5372
  23   2.0000      -0.603720       -16.4281
  24   2.0000      -0.594628       -16.1807
  25   2.0000      -0.585946       -15.9444
  26   2.0000      -0.531761       -14.4700
  27   2.0000      -0.515181       -14.0188
  28   2.0000      -0.502676       -13.6785
  29   2.0000      -0.498000       -13.5513
  30   2.0000      -0.472576       -12.8594
  31   2.0000      -0.460596       -12.5335
  32   2.0000      -0.450496       -12.2586
  33   2.0000      -0.437477       -11.9044
  34   2.0000      -0.432513       -11.7693
  35   2.0000      -0.421757       -11.4766
  36   2.0000      -0.411531       -11.1983
  37   2.0000      -0.394026       -10.7220
  38   2.0000      -0.381551       -10.3825
  39   2.0000      -0.375424       -10.2158
  40   2.0000      -0.362865        -9.8741
  41   2.0000      -0.361028        -9.8241
  42   2.0000      -0.352048        -9.5797
  43   2.0000      -0.343654        -9.3513
  44   2.0000      -0.326440        -8.8829
  45   2.0000      -0.318299        -8.6614
  46   2.0000      -0.296608        -8.0711
  47   2.0000      -0.272933        -7.4269
  48   2.0000      -0.270183        -7.3521
  49   2.0000      -0.256098        -6.9688
  50   2.0000      -0.248449        -6.7606
  51   0.0000       0.052849         1.4381
  52   0.0000       0.064255         1.7485
  53   0.0000       0.091334         2.4853
  54   0.0000       0.094200         2.5633
  55   0.0000       0.104710         2.8493

MULLIKEN ATOMIC CHARGES
-----------------------
   0 C :    0.310385
   1 C :   -0.287944
   2 C :   -0.321569
   3 C :   -0.011728
   4 O :   -0.501927
   5 H :    0.148742
   6 H :    0.153119
   7 H :    0.150894
   8 H :    0.145093
   9 H :    0.186452
  10 H :    0.157516
  11 H :    0.147492
  12 C :   -0.015111
  13 H :    0.133514
  14 H :    0.165896
  15 O :   -0.536041
  16 C :    0.033671
  17 C :    0.122847
  18 C :   -0.310165
  19 C :   -0.018055
  20 O :   -0.517137
  21 H :    0.168477
  22 H :    0.146925
  23 O :   -0.648312
  24 H :    0.156680
  25 H :    0.148308
  26 H :    0.142675
  27 H :    0.151574
  28 H :    0.397729
Sum of atomic charges:   -0.0000000

LOEWDIN ATOMIC CHARGES
----------------------
   0 C :    0.179932
   1 C :   -0.231459
   2 C :   -0.224428
   3 C :   -0.026943
   4 O :   -0.299644
   5 H :    0.100324
   6 H :    0.119444
   7 H :    0.115902
   8 H :    0.117338
   9 H :    0.129749
  10 H :    0.110698
  11 H :    0.105516
  12 C :   -0.046638
  13 H :    0.096706
  14 H :    0.115512
  15 O :   -0.342473
  16 C :    0.015596
  17 C :    0.042158
  18 C :   -0.235394
  19 C :   -0.031103
  20 O :   -0.320626
  21 H :    0.118214
  22 H :    0.103996
  23 O :   -0.438370
  24 H :    0.122951
  25 H :    0.110168
  26 H :    0.102426
  27 H :    0.107534
  28 H :    0.282914

  Mayer bond orders larger than 0.100000
B(  0-C ,  1-C ) :   0.9286 B(  0-C ,  4-O ) :   0.9493 B(  0-C ,  5-H ) :   0.9224
B(  0-C , 15-O ) :   0.7952 B(  1-C ,  2-C ) :   0.9492 B(  1-C ,  6-H ) :   0.9324
B(  1-C ,  7-H ) :   0.9267 B(  2-C ,  3-C ) :   0.9499 B(  2-C ,  8-H ) :   0.9456
B(  2-C ,  9-H ) :   0.9202 B(  3-C ,  4-O ) :   0.8271 B(  3-C , 10-H ) :   0.9346
B(  3-C , 11-H ) :   0.9396 B( 12-C , 13-H ) :   0.9169 B( 12-C , 14-H ) :   0.9229
B( 12-C , 15-O ) :   0.7979 B( 12-C , 16-C ) :   0.9092 B( 15-O , 28-H ) :   0.1078
B( 16-C , 17-C ) :   0.9192 B( 16-C , 20-O ) :   0.8583 B( 16-C , 21-H ) :   0.9265
B( 17-C , 18-C ) :   0.9109 B( 17-C , 22-H ) :   0.9252 B( 17-C , 23-O ) :   0.9114
B( 18-C , 19-C ) :   0.9401 B( 18-C , 24-H ) :   0.9435 B( 18-C , 25-H ) :   0.9396
B( 19-C , 20-O ) :   0.8345 B( 19-C , 26-H ) :   0.9341 B( 19-C , 27-H ) :   0.9379
B( 23-O , 28-H ) :   0.7003

FINAL SINGLE POINT ENERGY      -652.862063138409

DIPOLE MOMENT
-------------
                                X             Y             Z
Electronic contribution:     -3.24474      -4.29993       2.09794
Nuclear contribution   :      4.01919       4.87397      -2.87051
                        -----------------------------------------
Total Dipole Moment    :      0.77445       0.57404      -0.77257
                        -----------------------------------------
Magnitude (a.u.)       :      1.23538
Magnitude (Debye)      :      3.14008

Rotational constants in cm-1:     0.056587     0.015270     0.013985
Rotational constants in MHz :  1696.431521   457.796917   419.268970

                             ****ORCA TERMINATED NORMALLY****
TOTAL RUN TIME: 0 days 1 hours 44 minutes 42 seconds 154 msec
