                         Program Version 4.2.0 -  RELEASE  -
|  1> # Test redundant internal optimization
|  2> #
|  3> ! RKS B3LYP  Opt TightSCF SmallPrint
|  4>
|  5> %basis
|  6>         Basis "6-31G"
|  7> end
|  8>
|  9> %geom
| 10> Constraints
| 11> { D 4  0  15  12  240.0   C } # D for Dihedral angle
| 12> { D 0  15  12  16  15.0   C } # D for Dihedral angle
| 13> { D 0  4  3  2   C } # D for Dihedral angle
| 14> { D 4  3  2  1   C } # D for Dihedral angle
| 15> { D 3  2  1  0   C } # D for Dihedral angle
| 16> { D 2  1  0  4   C } # D for Dihedral angle
| 17> { D 1  0  4  3   C } # D for Dihedral angle
| 18> { D 16  20  19  18   C } # D for Dihedral angle
| 19> { D 20  19  18  17   C } # D for Dihedral angle
| 20> { D 19  18  17  16   C } # D for Dihedral angle
| 21> { D 18  17  16  20   C } # D for Dihedral angle
| 22> { D 17  16  20  19   C } # D for Dihedral angle
| 23> { D 15  12  16  20   C } # D for Dihedral angle
| 24> end
| 25> end
| 26>
| 27>
| 28> #%pal
| 29> #nprocs 8
| 30> #end
| 31>
| 32> * xyz 0 1
| 33> C  -21.048   26.222   46.251
| 34> C  -20.361   27.558   45.944
| 35> C  -20.329   28.222   47.341
| 36> C  -20.110   27.022   48.296
| 37> O  -20.473   25.807   47.535
| 38> H  -20.833   25.428   45.533
| 39> H  -19.344   27.382   45.576
| 40> H  -20.898   28.157   45.201
| 41> H  -19.543   28.978   47.434
| 42> H  -21.289   28.710   47.548
| 43> H  -20.733   27.082   49.195
| 44> H  -19.064   26.913   48.597
| 45> C  -23.430   25.483   45.442
| 46> H  -24.262   25.052   46.013
| 47> H  -23.848   26.066   44.612
| 48> O  -22.586   26.394   46.375
| 49> C  -22.602   24.318   44.832
| 50> C  -22.118   23.351   45.918
| 51> C  -23.391   22.512   46.182
| 52> C  -24.046   22.416   44.781
| 53> O  -23.446   23.491   43.962
| 54> H  -21.808   24.732   44.208
| 55> H  -21.313   22.718   45.526
| 56> O  -21.597   24.073   47.190
| 57> H  -23.171   21.529   46.608
| 58> H  -24.050   23.040   46.882
| 59> H  -25.131   22.555   44.815
| 60> H  -23.826   21.469   44.282
| 61> H  -22.387   24.712   47.600
| 62> *
| 63>
| 64>                          ****END OF INPUT****
 Total Charge           Charge          ....    0
 Multiplicity           Mult            ....    1
 Number of Electrons    NEL             ....  102
FINAL SINGLE POINT ENERGY      -652.789853116054
FINAL SINGLE POINT ENERGY      -652.831957691134
FINAL SINGLE POINT ENERGY      -652.850714252672
FINAL SINGLE POINT ENERGY      -652.855162829632
FINAL SINGLE POINT ENERGY      -652.856300745663
FINAL SINGLE POINT ENERGY      -652.856861860451
FINAL SINGLE POINT ENERGY      -652.856955999945
FINAL SINGLE POINT ENERGY      -652.856987086607
FINAL SINGLE POINT ENERGY      -652.856994254901
                    ***********************HURRAY********************

CARTESIAN COORDINATES (ANGSTROEM)
---------------------------------
  C    -20.860260   26.258918   46.268753
  C    -20.279232   27.649109   46.001177
  C    -20.544559   28.368985   47.345897
  C    -20.357969   27.240369   48.386403
  O    -20.465658   25.966948   47.630932
  H    -20.471304   25.453623   45.648782
  H    -19.203549   27.563978   45.807093
  H    -20.757821   28.136681   45.149125
  H    -19.864153   29.208143   47.517176
  H    -21.572218   28.741916   47.364998
  H    -21.121909   27.248837   49.168518
  H    -19.366070   27.245747   48.847704
  C    -23.148799   25.472422   45.419222
  H    -23.989723   25.205248   46.066994
  H    -23.546000   26.068752   44.590108
  O    -22.301334   26.338476   46.237052
  C    -22.566613   24.187046   44.794808
  C    -22.112760   23.066030   45.752164
  C    -23.481088   22.462664   46.211711
  C    -24.351218   22.593080   44.945117
  O    -23.686877   23.594391   44.062827
  H    -21.800785   24.422432   44.050403
  H    -21.595732   22.315764   45.144769
  O    -21.171923   23.369706   46.789906
  H    -23.367945   21.428964   46.547190
  H    -23.880348   23.048311   47.048328
  H    -25.370703   22.932878   45.152035
  H    -24.399943   21.660618   44.375307
  H    -21.400506   24.141967   47.354500

 Multiplicity           Mult            ....    1
 Number of Electrons    NEL             ....  102
 Basis Dimension        Dim             ....  149

ORBITAL ENERGIES
----------------

  NO   OCC          E(Eh)            E(eV)
   0   2.0000     -19.146303      -520.9974
   1   2.0000     -19.144673      -520.9530
   2   2.0000     -19.142535      -520.8949
   3   2.0000     -19.129229      -520.5328
   4   2.0000     -10.281890      -279.7845
   5   2.0000     -10.239129      -278.6209
   6   2.0000     -10.237702      -278.5820
   7   2.0000     -10.231878      -278.4235
   8   2.0000     -10.230588      -278.3884
   9   2.0000     -10.228444      -278.3301
  10   2.0000     -10.186596      -277.1914
  11   2.0000     -10.186449      -277.1874
  12   2.0000     -10.186228      -277.1814
  13   2.0000      -1.056948       -28.7610
  14   2.0000      -1.029161       -28.0049
  15   2.0000      -1.005983       -27.3742
  16   2.0000      -0.994203       -27.0536
  17   2.0000      -0.788353       -21.4522
  18   2.0000      -0.775774       -21.1099
  19   2.0000      -0.766263       -20.8511
  20   2.0000      -0.735596       -20.0166
  21   2.0000      -0.679921       -18.5016
  22   2.0000      -0.609305       -16.5800
  23   2.0000      -0.604363       -16.4456
  24   2.0000      -0.599982       -16.3263
  25   2.0000      -0.565830       -15.3970
  26   2.0000      -0.528894       -14.3919
  27   2.0000      -0.523997       -14.2587
  28   2.0000      -0.493527       -13.4295
  29   2.0000      -0.486695       -13.2437
  30   2.0000      -0.462870       -12.5953
  31   2.0000      -0.457567       -12.4510
  32   2.0000      -0.450028       -12.2459
  33   2.0000      -0.430278       -11.7085
  34   2.0000      -0.422658       -11.5011
  35   2.0000      -0.414829       -11.2881
  36   2.0000      -0.402933       -10.9644
  37   2.0000      -0.400124       -10.8879
  38   2.0000      -0.375574       -10.2199
  39   2.0000      -0.373412       -10.1611
  40   2.0000      -0.358858        -9.7650
  41   2.0000      -0.354216        -9.6387
  42   2.0000      -0.352366        -9.5884
  43   2.0000      -0.331791        -9.0285
  44   2.0000      -0.324231        -8.8228
  45   2.0000      -0.311939        -8.4883
  46   2.0000      -0.298674        -8.1273
  47   2.0000      -0.271766        -7.3951
  48   2.0000      -0.255765        -6.9597
  49   2.0000      -0.251788        -6.8515
  50   2.0000      -0.242677        -6.6036
  51   0.0000       0.060069         1.6346
  52   0.0000       0.079006         2.1499
  53   0.0000       0.095179         2.5900
  54   0.0000       0.097389         2.6501
  55   0.0000       0.105230         2.8635

MULLIKEN ATOMIC CHARGES
-----------------------
   0 C :    0.250998
   1 C :   -0.243971
   2 C :   -0.299157
   3 C :   -0.000431
   4 O :   -0.518953
   5 H :    0.170974
   6 H :    0.146464
   7 H :    0.147914
   8 H :    0.141367
   9 H :    0.165922
  10 H :    0.151962
  11 H :    0.146729
  12 C :    0.006496
  13 H :    0.146159
  14 H :    0.157221
  15 O :   -0.541394
  16 C :    0.030961
  17 C :    0.111252
  18 C :   -0.314037
  19 C :   -0.021448
  20 O :   -0.520292
  21 H :    0.153158
  22 H :    0.160545
  23 O :   -0.619181
  24 H :    0.155773
  25 H :    0.144345
  26 H :    0.146470
  27 H :    0.152809
  28 H :    0.391348
Sum of atomic charges:   -0.0000000

LOEWDIN ATOMIC CHARGES
----------------------
   0 C :    0.164093
   1 C :   -0.216594
   2 C :   -0.214898
   3 C :   -0.025955
   4 O :   -0.321414
   5 H :    0.110354
   6 H :    0.113948
   7 H :    0.119792
   8 H :    0.113933
   9 H :    0.121091
  10 H :    0.107885
  11 H :    0.104681
  12 C :   -0.044135
  13 H :    0.106738
  14 H :    0.110245
  15 O :   -0.341645
  16 C :    0.002519
  17 C :    0.036670
  18 C :   -0.241302
  19 C :   -0.032113
  20 O :   -0.319518
  21 H :    0.109747
  22 H :    0.113673
  23 O :   -0.413270
  24 H :    0.123267
  25 H :    0.109828
  26 H :    0.103644
  27 H :    0.107487
  28 H :    0.291248

  Mayer bond orders larger than 0.100000
B(  0-C ,  1-C ) :   0.9443 B(  0-C ,  4-O ) :   0.8806 B(  0-C ,  5-H ) :   0.9028
B(  0-C , 15-O ) :   0.8441 B(  1-C ,  2-C ) :   0.9547 B(  1-C ,  6-H ) :   0.9367
B(  1-C ,  7-H ) :   0.9401 B(  2-C ,  3-C ) :   0.9540 B(  2-C ,  8-H ) :   0.9456
B(  2-C ,  9-H ) :   0.9425 B(  3-C ,  4-O ) :   0.8243 B(  3-C , 10-H ) :   0.9359
B(  3-C , 11-H ) :   0.9400 B( 12-C , 13-H ) :   0.9323 B( 12-C , 14-H ) :   0.9229
B( 12-C , 15-O ) :   0.8247 B( 12-C , 16-C ) :   0.8974 B( 16-C , 17-C ) :   0.8799
B( 16-C , 20-O ) :   0.8336 B( 16-C , 21-H ) :   0.9277 B( 17-C , 18-C ) :   0.9094
B( 17-C , 22-H ) :   0.9313 B( 17-C , 23-O ) :   0.9420 B( 18-C , 19-C ) :   0.9372
B( 18-C , 24-H ) :   0.9427 B( 18-C , 25-H ) :   0.9429 B( 19-C , 20-O ) :   0.8299
B( 19-C , 26-H ) :   0.9330 B( 19-C , 27-H ) :   0.9383 B( 23-O , 28-H ) :   0.7323

FINAL SINGLE POINT ENERGY      -652.856994616107

DIPOLE MOMENT
-------------
                                X             Y             Z
Electronic contribution:      0.31295      -2.25240      -1.17728
Nuclear contribution   :     -0.51013       2.85075       1.29207
                        -----------------------------------------
Total Dipole Moment    :     -0.19718       0.59835       0.11479
                        -----------------------------------------
Magnitude (a.u.)       :      0.64037
Magnitude (Debye)      :      1.62769

Rotational constants in cm-1:     0.061391     0.014550     0.013058
Rotational constants in MHz :  1840.453539   436.205928   391.483496

                             ****ORCA TERMINATED NORMALLY****
TOTAL RUN TIME: 0 days 0 hours 27 minutes 26 seconds 521 msec
