                         Program Version 4.2.0 -  RELEASE  -
|  1> # Test redundant internal optimization
|  2> #
|  3> ! RKS B3LYP  Opt TightSCF SmallPrint
|  4>
|  5> %basis
|  6>         Basis "6-31G"
|  7> end
|  8>
|  9> %geom
| 10> Constraints
| 11> { D 4  0  15  12  210.0   C } # D for Dihedral angle
| 12> { D 0  15  12  16  180.0   C } # D for Dihedral angle
| 13> { D 0  4  3  2   C } # D for Dihedral angle
| 14> { D 4  3  2  1   C } # D for Dihedral angle
| 15> { D 3  2  1  0   C } # D for Dihedral angle
| 16> { D 2  1  0  4   C } # D for Dihedral angle
| 17> { D 1  0  4  3   C } # D for Dihedral angle
| 18> { D 16  20  19  18   C } # D for Dihedral angle
| 19> { D 20  19  18  17   C } # D for Dihedral angle
| 20> { D 19  18  17  16   C } # D for Dihedral angle
| 21> { D 18  17  16  20   C } # D for Dihedral angle
| 22> { D 17  16  20  19   C } # D for Dihedral angle
| 23> { D 15  12  16  20   C } # D for Dihedral angle
| 24> end
| 25> end
| 26>
| 27>
| 28> #%pal
| 29> #nprocs 8
| 30> #end
| 31>
| 32> * xyz 0 1
| 33> C  -21.048   26.222   46.251
| 34> C  -20.361   27.558   45.944
| 35> C  -20.329   28.222   47.341
| 36> C  -20.110   27.022   48.296
| 37> O  -20.473   25.807   47.535
| 38> H  -20.833   25.428   45.533
| 39> H  -19.344   27.382   45.576
| 40> H  -20.898   28.157   45.201
| 41> H  -19.543   28.978   47.434
| 42> H  -21.289   28.710   47.548
| 43> H  -20.733   27.082   49.195
| 44> H  -19.064   26.913   48.597
| 45> C  -23.389   26.110   45.076
| 46> H  -23.052   26.792   44.286
| 47> H  -23.219   25.081   44.736
| 48> O  -22.586   26.394   46.375
| 49> C  -24.920   26.299   45.263
| 50> C  -25.689   25.900   43.999
| 51> C  -25.708   24.357   44.117
| 52> C  -25.829   24.124   45.644
| 53> O  -25.426   25.388   46.296
| 54> H  -25.116   27.316   45.609
| 55> H  -26.707   26.304   44.033
| 56> O  -25.011   26.395   42.691
| 57> H  -26.531   23.899   43.559
| 58> H  -24.770   23.938   43.735
| 59> H  -25.179   23.316   45.997
| 60> H  -26.856   23.913   45.954
| 61> H  -23.990   26.002   42.633
| 62> *
| 63>
| 64>                          ****END OF INPUT****
 Total Charge           Charge          ....    0
 Multiplicity           Mult            ....    1
 Number of Electrons    NEL             ....  102
FINAL SINGLE POINT ENERGY      -652.824715285350
FINAL SINGLE POINT ENERGY      -652.849077266087
FINAL SINGLE POINT ENERGY      -652.853493730945
FINAL SINGLE POINT ENERGY      -652.854324093289
FINAL SINGLE POINT ENERGY      -652.854498314047
FINAL SINGLE POINT ENERGY      -652.854529977389
FINAL SINGLE POINT ENERGY      -652.854536742785
FINAL SINGLE POINT ENERGY      -652.854538071351
                    ***********************HURRAY********************

CARTESIAN COORDINATES (ANGSTROEM)
---------------------------------
  C    -21.050908   26.204906   46.188716
  C    -20.391724   27.559114   45.936568
  C    -20.469586   28.218149   47.334160
  C    -20.274600   27.023130   48.290855
  O    -20.556762   25.809639   47.477480
  H    -20.788136   25.411230   45.480489
  H    -19.348989   27.408460   45.631835
  H    -20.898780   28.140455   45.160915
  H    -19.713758   28.996382   47.475337
  H    -21.458975   28.663479   47.473938
  H    -20.958170   27.036222   49.142858
  H    -19.245404   26.926287   48.649176
  C    -23.202383   26.062783   45.030920
  H    -22.895410   26.756043   44.231932
  H    -22.979580   25.034243   44.701923
  O    -22.497022   26.341691   46.263393
  C    -24.695266   26.252715   45.286894
  C    -25.575972   25.948413   44.064258
  C    -25.726984   24.399706   44.154881
  C    -25.772908   24.153317   45.678610
  O    -25.215894   25.370163   46.323475
  H    -24.844121   27.269810   45.660503
  H    -26.546138   26.433854   44.189289
  O    -25.078438   26.444257   42.796810
  H    -26.619244   24.039464   43.636023
  H    -24.851612   23.918960   43.697280
  H    -25.184690   23.284787   45.989700
  H    -26.795879   24.036437   46.047919
  H    -24.365667   25.864904   42.457862

 Multiplicity           Mult            ....    1
 Number of Electrons    NEL             ....  102
 Basis Dimension        Dim             ....  149

ORBITAL ENERGIES
----------------

  NO   OCC          E(Eh)            E(eV)
   0   2.0000     -19.152097      -521.1551
   1   2.0000     -19.137930      -520.7695
   2   2.0000     -19.135966      -520.7161
   3   2.0000     -19.135266      -520.6971
   4   2.0000     -10.276620      -279.6410
   5   2.0000     -10.246142      -278.8117
   6   2.0000     -10.232686      -278.4455
   7   2.0000     -10.230934      -278.3979
   8   2.0000     -10.228827      -278.3405
   9   2.0000     -10.220655      -278.1182
  10   2.0000     -10.196603      -277.4637
  11   2.0000     -10.184107      -277.1236
  12   2.0000     -10.182652      -277.0840
  13   2.0000      -1.050822       -28.5943
  14   2.0000      -1.034553       -28.1516
  15   2.0000      -1.015579       -27.6353
  16   2.0000      -0.992228       -26.9999
  17   2.0000      -0.785125       -21.3643
  18   2.0000      -0.782075       -21.2813
  19   2.0000      -0.767510       -20.8850
  20   2.0000      -0.728290       -19.8178
  21   2.0000      -0.680298       -18.5119
  22   2.0000      -0.612345       -16.6628
  23   2.0000      -0.596532       -16.2325
  24   2.0000      -0.587414       -15.9843
  25   2.0000      -0.579520       -15.7695
  26   2.0000      -0.528571       -14.3831
  27   2.0000      -0.510904       -13.9024
  28   2.0000      -0.500113       -13.6088
  29   2.0000      -0.487371       -13.2620
  30   2.0000      -0.466105       -12.6834
  31   2.0000      -0.459056       -12.4916
  32   2.0000      -0.449839       -12.2408
  33   2.0000      -0.432134       -11.7590
  34   2.0000      -0.427946       -11.6450
  35   2.0000      -0.419857       -11.4249
  36   2.0000      -0.402968       -10.9653
  37   2.0000      -0.398440       -10.8421
  38   2.0000      -0.378434       -10.2977
  39   2.0000      -0.371085       -10.0977
  40   2.0000      -0.354878        -9.6567
  41   2.0000      -0.352717        -9.5979
  42   2.0000      -0.349970        -9.5232
  43   2.0000      -0.331105        -9.0098
  44   2.0000      -0.316290        -8.6067
  45   2.0000      -0.308072        -8.3831
  46   2.0000      -0.305291        -8.3074
  47   2.0000      -0.272494        -7.4149
  48   2.0000      -0.257883        -7.0174
  49   2.0000      -0.246679        -6.7125
  50   2.0000      -0.240756        -6.5513
  51   0.0000       0.048209         1.3118
  52   0.0000       0.075889         2.0650
  53   0.0000       0.086995         2.3672
  54   0.0000       0.091737         2.4963
  55   0.0000       0.106878         2.9083

MULLIKEN ATOMIC CHARGES
-----------------------
   0 C :    0.297362
   1 C :   -0.264352
   2 C :   -0.298941
   3 C :   -0.001379
   4 O :   -0.502058
   5 H :    0.132554
   6 H :    0.141923
   7 H :    0.143199
   8 H :    0.140479
   9 H :    0.163778
  10 H :    0.157585
  11 H :    0.139328
  12 C :   -0.009449
  13 H :    0.127279
  14 H :    0.113870
  15 O :   -0.500655
  16 C :    0.099556
  17 C :    0.079011
  18 C :   -0.323319
  19 C :   -0.007213
  20 O :   -0.500170
  21 H :    0.162980
  22 H :    0.168847
  23 O :   -0.600502
  24 H :    0.157731
  25 H :    0.131843
  26 H :    0.147664
  27 H :    0.147921
  28 H :    0.355128
Sum of atomic charges:   -0.0000000

LOEWDIN ATOMIC CHARGES
----------------------
   0 C :    0.177592
   1 C :   -0.228014
   2 C :   -0.216617
   3 C :   -0.025109
   4 O :   -0.305928
   5 H :    0.094126
   6 H :    0.112043
   7 H :    0.114744
   8 H :    0.113682
   9 H :    0.120068
  10 H :    0.111126
  11 H :    0.101200
  12 C :   -0.050741
  13 H :    0.091823
  14 H :    0.084802
  15 O :   -0.319299
  16 C :    0.024324
  17 C :    0.034112
  18 C :   -0.241023
  19 C :   -0.028757
  20 O :   -0.308888
  21 H :    0.119744
  22 H :    0.120112
  23 O :   -0.408490
  24 H :    0.122471
  25 H :    0.102761
  26 H :    0.105078
  27 H :    0.105719
  28 H :    0.277339

  Mayer bond orders larger than 0.100000
B(  0-C ,  1-C ) :   0.9333 B(  0-C ,  4-O ) :   0.9368 B(  0-C ,  5-H ) :   0.9188
B(  0-C , 15-O ) :   0.8351 B(  1-C ,  2-C ) :   0.9549 B(  1-C ,  6-H ) :   0.9346
B(  1-C ,  7-H ) :   0.9370 B(  2-C ,  3-C ) :   0.9554 B(  2-C ,  8-H ) :   0.9451
B(  2-C ,  9-H ) :   0.9432 B(  3-C ,  4-O ) :   0.8365 B(  3-C , 10-H ) :   0.9338
B(  3-C , 11-H ) :   0.9398 B( 12-C , 13-H ) :   0.8983 B( 12-C , 14-H ) :   0.9125
B( 12-C , 15-O ) :   0.8525 B( 12-C , 16-C ) :   0.9061 B( 16-C , 17-C ) :   0.8735
B( 16-C , 20-O ) :   0.8773 B( 16-C , 21-H ) :   0.9299 B( 17-C , 18-C ) :   0.9253
B( 17-C , 22-H ) :   0.9328 B( 17-C , 23-O ) :   0.8941 B( 18-C , 19-C ) :   0.9375
B( 18-C , 24-H ) :   0.9419 B( 18-C , 25-H ) :   0.9403 B( 19-C , 20-O ) :   0.8523
B( 19-C , 26-H ) :   0.9312 B( 19-C , 27-H ) :   0.9379 B( 23-O , 28-H ) :   0.7990

FINAL SINGLE POINT ENERGY      -652.854538238358

DIPOLE MOMENT
-------------
                                X             Y             Z
Electronic contribution:     -1.93544      -1.14430       1.05107
Nuclear contribution   :      2.29452       1.05294      -2.06658
                        -----------------------------------------
Total Dipole Moment    :      0.35909      -0.09136      -1.01551
                        -----------------------------------------
Magnitude (a.u.)       :      1.08100
Magnitude (Debye)      :      2.74768

Rotational constants in cm-1:     0.057275     0.012158     0.011005
Rotational constants in MHz :  1717.064441   364.487090   329.907415

                             ****ORCA TERMINATED NORMALLY****
TOTAL RUN TIME: 0 days 0 hours 24 minutes 12 seconds 456 msec
