                         Program Version 4.2.1 -  RELEASE  -
|  1> # Test redundant internal optimization
|  2> #
|  3> ! RKS B3LYP  Opt TightSCF SmallPrint
|  4>
|  5> %basis
|  6>         Basis "6-31G"
|  7> end
|  8>
|  9> %geom
| 10> Constraints
| 11> { D 4  0  19  14  330.0   C } # D for Dihedral angle
| 12> { D 0  19  14  12  75.0   C } # D for Dihedral angle
| 13> { D 0  4  3  2   C } # D for Dihedral angle
| 14> { D 4  3  2  1   C } # D for Dihedral angle
| 15> { D 3  2  1  0   C } # D for Dihedral angle
| 16> { D 2  1  0  4   C } # D for Dihedral angle
| 17> { D 1  0  4  3   C } # D for Dihedral angle
| 18> { D 14  15  16  17   C } # D for Dihedral angle
| 19> { D 15  16  17  12   C } # D for Dihedral angle
| 20> { D 16  17  12  14   C } # D for Dihedral angle
| 21> { D 17  12  14  15   C } # D for Dihedral angle
| 22> { D 12  14  15  16   C } # D for Dihedral angle
| 23> end
| 24> end
| 25>
| 26>
| 27> #%pal
| 28> #nprocs 8
| 29> #end
| 30>
| 31> * xyz 0 1
| 32> C  -21.048   26.222   46.251
| 33> C  -20.361   27.558   45.944
| 34> C  -20.329   28.222   47.341
| 35> C  -20.110   27.022   48.296
| 36> O  -20.473   25.807   47.535
| 37> H  -20.833   25.428   45.533
| 38> H  -19.344   27.382   45.576
| 39> H  -20.898   28.157   45.201
| 40> H  -19.543   28.978   47.434
| 41> H  -21.289   28.710   47.548
| 42> H  -20.733   27.082   49.195
| 43> H  -19.064   26.913   48.597
| 44> C  -22.791   26.038   48.754
| 45> H  -22.992   25.264   49.512
| 46> C  -23.087   25.523   47.341
| 47> C  -24.627   25.642   47.279
| 48> C  -24.916   26.918   48.109
| 49> O  -23.708   27.171   48.925
| 50> H  -21.780   26.422   48.894
| 51> O  -22.472   26.381   46.366
| 52> H  -22.733   24.500   47.173
| 53> H  -25.007   25.716   46.255
| 54> H  -25.093   24.765   47.746
| 55> H  -25.779   26.802   48.774
| 56> H  -25.070   27.800   47.480
| 57> *
| 58>
| 59>                          ****END OF INPUT****
 Total Charge           Charge          ....    0
 Multiplicity           Mult            ....    1
 Number of Electrons    NEL             ....   86
FINAL SINGLE POINT ENERGY      -538.405015641303
FINAL SINGLE POINT ENERGY      -538.430425443373
FINAL SINGLE POINT ENERGY      -538.433141337971
FINAL SINGLE POINT ENERGY      -538.433591354929
FINAL SINGLE POINT ENERGY      -538.433660356281
FINAL SINGLE POINT ENERGY      -538.433681132443
                    ***********************HURRAY********************

CARTESIAN COORDINATES (ANGSTROEM)
---------------------------------
  C    -20.986954   26.205843   46.332743
  C    -20.478727   27.591727   45.933691
  C    -20.310511   28.272211   47.310703
  C    -19.849135   27.118542   48.226777
  O    -20.212556   25.861205   47.505561
  H    -20.760769   25.411454   45.611923
  H    -19.516448   27.485082   45.420081
  H    -21.180435   28.112808   45.279143
  H    -19.593046   29.098102   47.290876
  H    -21.277716   28.657208   47.648434
  H    -20.329264   27.130678   49.207739
  H    -18.763859   27.085388   48.361470
  C    -22.982954   25.873493   48.917691
  H    -23.376142   25.085851   49.579797
  C    -23.128658   25.425801   47.464018
  C    -24.620143   25.699797   47.202970
  C    -24.902737   26.975764   48.030122
  O    -23.799234   27.087313   49.010538
  H    -21.971606   26.118286   49.219230
  O    -22.426142   26.261974   46.492984
  H    -22.850293   24.372470   47.327134
  H    -24.809161   25.830505   46.135654
  H    -25.217776   24.854964   47.564776
  H    -25.855521   26.926165   48.568224
  H    -24.880212   27.880366   47.416719

 Multiplicity           Mult            ....    1
 Number of Electrons    NEL             ....   86
 Basis Dimension        Dim             ....  127

ORBITAL ENERGIES
----------------

  NO   OCC          E(Eh)            E(eV)
   0   2.0000     -19.147530      -521.0308
   1   2.0000     -19.138508      -520.7853
   2   2.0000     -19.126884      -520.4690
   3   2.0000     -10.277256      -279.6584
   4   2.0000     -10.238320      -278.5989
   5   2.0000     -10.227192      -278.2961
   6   2.0000     -10.217817      -278.0409
   7   2.0000     -10.216866      -278.0151
   8   2.0000     -10.183214      -277.0993
   9   2.0000     -10.183060      -277.0951
  10   2.0000     -10.182017      -277.0668
  11   2.0000      -1.051190       -28.6043
  12   2.0000      -1.011879       -27.5346
  13   2.0000      -0.988670       -26.9031
  14   2.0000      -0.792244       -21.5580
  15   2.0000      -0.775994       -21.1159
  16   2.0000      -0.737453       -20.0671
  17   2.0000      -0.719406       -19.5760
  18   2.0000      -0.615863       -16.7585
  19   2.0000      -0.598090       -16.2749
  20   2.0000      -0.591709       -16.1012
  21   2.0000      -0.566217       -15.4075
  22   2.0000      -0.512648       -13.9499
  23   2.0000      -0.503274       -13.6948
  24   2.0000      -0.487759       -13.2726
  25   2.0000      -0.480739       -13.0816
  26   2.0000      -0.451306       -12.2807
  27   2.0000      -0.442232       -12.0337
  28   2.0000      -0.423640       -11.5278
  29   2.0000      -0.411717       -11.2034
  30   2.0000      -0.404462       -11.0060
  31   2.0000      -0.380741       -10.3605
  32   2.0000      -0.367251        -9.9934
  33   2.0000      -0.364812        -9.9270
  34   2.0000      -0.357253        -9.7213
  35   2.0000      -0.352810        -9.6004
  36   2.0000      -0.340372        -9.2620
  37   2.0000      -0.326856        -8.8942
  38   2.0000      -0.306742        -8.3469
  39   2.0000      -0.297724        -8.1015
  40   2.0000      -0.261326        -7.1110
  41   2.0000      -0.253996        -6.9116
  42   2.0000      -0.233143        -6.3441
  43   0.0000       0.081280         2.2117
  44   0.0000       0.093617         2.5475
  45   0.0000       0.102469         2.7883
  46   0.0000       0.110781         3.0145
  47   0.0000       0.122514         3.3338

MULLIKEN ATOMIC CHARGES
-----------------------
   0 C :    0.311594
   1 C :   -0.263624
   2 C :   -0.305189
   3 C :   -0.023844
   4 O :   -0.519333
   5 H :    0.146037
   6 H :    0.143931
   7 H :    0.160339
   8 H :    0.142647
   9 H :    0.176258
  10 H :    0.149059
  11 H :    0.149318
  12 C :   -0.013448
  13 H :    0.124650
  14 C :    0.089934
  15 C :   -0.295155
  16 C :    0.007014
  17 O :   -0.526642
  18 H :    0.168297
  19 O :   -0.540481
  20 H :    0.131388
  21 H :    0.164453
  22 H :    0.140425
  23 H :    0.132456
  24 H :    0.149915
Sum of atomic charges:   -0.0000000

LOEWDIN ATOMIC CHARGES
----------------------
   0 C :    0.180020
   1 C :   -0.215564
   2 C :   -0.218704
   3 C :   -0.033346
   4 O :   -0.328492
   5 H :    0.095275
   6 H :    0.113264
   7 H :    0.125992
   8 H :    0.115372
   9 H :    0.125646
  10 H :    0.102939
  11 H :    0.105402
  12 C :   -0.047924
  13 H :    0.092786
  14 C :    0.046905
  15 C :   -0.224359
  16 C :   -0.026625
  17 O :   -0.336134
  18 H :    0.120370
  19 O :   -0.334901
  20 H :    0.099097
  21 H :    0.128609
  22 H :    0.111187
  23 H :    0.096794
  24 H :    0.106389

  Mayer bond orders larger than 0.100000
B(  0-C ,  1-C ) :   0.9417 B(  0-C ,  4-O ) :   0.9011 B(  0-C ,  5-H ) :   0.9265
B(  0-C , 19-O ) :   0.8498 B(  1-C ,  2-C ) :   0.9562 B(  1-C ,  6-H ) :   0.9381
B(  1-C ,  7-H ) :   0.9361 B(  2-C ,  3-C ) :   0.9566 B(  2-C ,  8-H ) :   0.9442
B(  2-C ,  9-H ) :   0.9377 B(  3-C ,  4-O ) :   0.8292 B(  3-C , 10-H ) :   0.9210
B(  3-C , 11-H ) :   0.9411 B( 12-C , 13-H ) :   0.9114 B( 12-C , 14-C ) :   0.9162
B( 12-C , 17-O ) :   0.8689 B( 12-C , 18-H ) :   0.9162 B( 14-C , 15-C ) :   0.9570
B( 14-C , 19-O ) :   0.8216 B( 14-C , 20-H ) :   0.9224 B( 15-C , 16-C ) :   0.9468
B( 15-C , 21-H ) :   0.9361 B( 15-C , 22-H ) :   0.9430 B( 16-C , 17-O ) :   0.8532
B( 16-C , 23-H ) :   0.9338 B( 16-C , 24-H ) :   0.9380

FINAL SINGLE POINT ENERGY      -538.433682964976

DIPOLE MOMENT
-------------
                                X             Y             Z
Electronic contribution:      0.26676      -1.89153       0.02812
Nuclear contribution   :     -0.19715       1.82246      -0.40439
                        -----------------------------------------
Total Dipole Moment    :      0.06961      -0.06907      -0.37626
                        -----------------------------------------
Magnitude (a.u.)       :      0.38883
Magnitude (Debye)      :      0.98834

Rotational constants in cm-1:     0.068168     0.025532     0.024081
Rotational constants in MHz :  2043.618229   765.428797   721.938445

                             ****ORCA TERMINATED NORMALLY****
TOTAL RUN TIME: 0 days 0 hours 8 minutes 46 seconds 922 msec
