                         Program Version 4.2.0 -  RELEASE  -
|  1> # Test redundant internal optimization
|  2> #
|  3> ! RKS B3LYP  Opt TightSCF SmallPrint
|  4>
|  5> %basis
|  6>         Basis "6-31G"
|  7> end
|  8>
|  9> %geom
| 10> Constraints
| 11> { D 4  0  15  12  270.0   C } # D for Dihedral angle
| 12> { D 0  15  12  16  300.0   C } # D for Dihedral angle
| 13> { D 0  4  3  2   C } # D for Dihedral angle
| 14> { D 4  3  2  1   C } # D for Dihedral angle
| 15> { D 3  2  1  0   C } # D for Dihedral angle
| 16> { D 2  1  0  4   C } # D for Dihedral angle
| 17> { D 1  0  4  3   C } # D for Dihedral angle
| 18> { D 16  20  19  18   C } # D for Dihedral angle
| 19> { D 20  19  18  17   C } # D for Dihedral angle
| 20> { D 19  18  17  16   C } # D for Dihedral angle
| 21> { D 18  17  16  20   C } # D for Dihedral angle
| 22> { D 17  16  20  19   C } # D for Dihedral angle
| 23> { D 15  12  16  20   C } # D for Dihedral angle
| 24> end
| 25> end
| 26>
| 27>
| 28> #%pal
| 29> #nprocs 8
| 30> #end
| 31>
| 32> * xyz 0 1
| 33> C  -21.048   26.222   46.251
| 34> C  -20.361   27.558   45.944
| 35> C  -20.329   28.222   47.341
| 36> C  -20.110   27.022   48.296
| 37> O  -20.473   25.807   47.535
| 38> H  -20.833   25.428   45.533
| 39> H  -19.344   27.382   45.576
| 40> H  -20.898   28.157   45.201
| 41> H  -19.543   28.978   47.434
| 42> H  -21.289   28.710   47.548
| 43> H  -20.733   27.082   49.195
| 44> H  -19.064   26.913   48.597
| 45> C  -23.420   25.119   46.072
| 46> H  -23.140   24.328   46.779
| 47> H  -24.491   25.323   46.192
| 48> O  -22.586   26.394   46.375
| 49> C  -23.199   24.585   44.630
| 50> C  -21.755   24.113   44.426
| 51> C  -21.781   22.722   45.102
| 52> C  -23.205   22.202   44.781
| 53> O  -24.007   23.384   44.399
| 54> H  -23.534   25.339   43.915
| 55> O  -21.447   23.981   42.910
| 56> H  -21.014   24.788   44.870
| 57> H  -20.999   22.054   44.729
| 58> H  -21.643   22.827   46.185
| 59> H  -23.676   21.712   45.640
| 60> H  -23.217   21.515   43.931
| 61> H  -22.176   23.308   42.443
| 62> *
| 63>
| 64>                          ****END OF INPUT****
 Total Charge           Charge          ....    0
 Multiplicity           Mult            ....    1
 Number of Electrons    NEL             ....  102
FINAL SINGLE POINT ENERGY      -652.783752181357
FINAL SINGLE POINT ENERGY      -652.831129412593
FINAL SINGLE POINT ENERGY      -652.852256960184
FINAL SINGLE POINT ENERGY      -652.856187913507
FINAL SINGLE POINT ENERGY      -652.856840284879
FINAL SINGLE POINT ENERGY      -652.856963899327
FINAL SINGLE POINT ENERGY      -652.856976022602
                    ***********************HURRAY********************

CARTESIAN COORDINATES (ANGSTROEM)
---------------------------------
  C    -20.839036   26.293444   46.276608
  C    -20.331959   27.724902   46.091422
  C    -20.515065   28.312534   47.511087
  C    -20.205633   27.107645   48.428378
  O    -20.326419   25.900966   47.574059
  H    -20.450056   25.567337   45.568593
  H    -19.272647   27.700715   45.810923
  H    -20.893368   28.262230   45.325024
  H    -19.852914   29.161906   47.702827
  H    -21.550270   28.640341   47.640725
  H    -20.902399   27.018178   49.266115
  H    -19.180666   27.118584   48.811824
  C    -23.123262   25.219917   45.946507
  H    -22.991823   24.443103   46.713829
  H    -24.138109   25.609277   46.041960
  O    -22.276688   26.358178   46.279128
  C    -23.029929   24.542587   44.557557
  C    -21.736964   23.835702   44.113872
  C    -21.803858   22.509993   44.927626
  C    -23.322412   22.201934   44.953751
  O    -24.022133   23.462228   44.620942
  H    -23.354583   25.238150   43.777878
  O    -21.789071   23.583441   42.679817
  H    -20.816556   24.391146   44.258938
  H    -21.217299   21.727933   44.440222
  H    -21.408318   22.665580   45.937210
  H    -23.667382   21.852812   45.931475
  H    -23.611987   21.463743   44.198875
  H    -22.684197   23.260495   42.442830

 Multiplicity           Mult            ....    1
 Number of Electrons    NEL             ....  102
 Basis Dimension        Dim             ....  149

ORBITAL ENERGIES
----------------

  NO   OCC          E(Eh)            E(eV)
   0   2.0000     -19.150957      -521.1240
   1   2.0000     -19.142997      -520.9074
   2   2.0000     -19.141869      -520.8767
   3   2.0000     -19.136534      -520.7316
   4   2.0000     -10.278856      -279.7019
   5   2.0000     -10.247136      -278.8388
   6   2.0000     -10.240249      -278.6513
   7   2.0000     -10.235662      -278.5265
   8   2.0000     -10.231751      -278.4201
   9   2.0000     -10.222758      -278.1754
  10   2.0000     -10.192178      -277.3433
  11   2.0000     -10.183306      -277.1018
  12   2.0000     -10.182727      -277.0861
  13   2.0000      -1.051327       -28.6081
  14   2.0000      -1.043169       -28.3861
  15   2.0000      -1.010754       -27.5040
  16   2.0000      -0.991790       -26.9880
  17   2.0000      -0.786961       -21.4143
  18   2.0000      -0.781120       -21.2553
  19   2.0000      -0.767787       -20.8925
  20   2.0000      -0.735415       -20.0116
  21   2.0000      -0.676976       -18.4215
  22   2.0000      -0.608416       -16.5558
  23   2.0000      -0.603119       -16.4117
  24   2.0000      -0.595653       -16.2086
  25   2.0000      -0.581351       -15.8194
  26   2.0000      -0.525592       -14.3021
  27   2.0000      -0.521913       -14.2020
  28   2.0000      -0.500162       -13.6101
  29   2.0000      -0.481943       -13.1143
  30   2.0000      -0.473107       -12.8739
  31   2.0000      -0.459992       -12.5170
  32   2.0000      -0.448289       -12.1986
  33   2.0000      -0.431392       -11.7388
  34   2.0000      -0.426775       -11.6132
  35   2.0000      -0.422731       -11.5031
  36   2.0000      -0.399474       -10.8702
  37   2.0000      -0.396831       -10.7983
  38   2.0000      -0.376513       -10.2454
  39   2.0000      -0.373699       -10.1689
  40   2.0000      -0.360121        -9.7994
  41   2.0000      -0.353872        -9.6293
  42   2.0000      -0.346997        -9.4423
  43   2.0000      -0.334850        -9.1117
  44   2.0000      -0.320054        -8.7091
  45   2.0000      -0.313930        -8.5425
  46   2.0000      -0.301556        -8.2058
  47   2.0000      -0.275680        -7.5016
  48   2.0000      -0.272126        -7.4049
  49   2.0000      -0.251559        -6.8453
  50   2.0000      -0.243566        -6.6278
  51   0.0000       0.062677         1.7055
  52   0.0000       0.072950         1.9851
  53   0.0000       0.089545         2.4366
  54   0.0000       0.099844         2.7169
  55   0.0000       0.103103         2.8056

MULLIKEN ATOMIC CHARGES
-----------------------
   0 C :    0.274729
   1 C :   -0.251230
   2 C :   -0.295395
   3 C :   -0.002400
   4 O :   -0.511819
   5 H :    0.139211
   6 H :    0.142440
   7 H :    0.153287
   8 H :    0.138636
   9 H :    0.164394
  10 H :    0.148622
  11 H :    0.140083
  12 C :    0.004964
  13 H :    0.136597
  14 H :    0.170422
  15 O :   -0.526650
  16 C :    0.034255
  17 C :    0.074789
  18 C :   -0.299377
  19 C :   -0.029252
  20 O :   -0.522930
  21 H :    0.163421
  22 O :   -0.605512
  23 H :    0.166565
  24 H :    0.165767
  25 H :    0.161651
  26 H :    0.150351
  27 H :    0.148055
  28 H :    0.366327
Sum of atomic charges:   -0.0000000

LOEWDIN ATOMIC CHARGES
----------------------
   0 C :    0.170177
   1 C :   -0.214628
   2 C :   -0.215257
   3 C :   -0.027562
   4 O :   -0.330621
   5 H :    0.094816
   6 H :    0.112248
   7 H :    0.122462
   8 H :    0.112607
   9 H :    0.120226
  10 H :    0.105833
  11 H :    0.101301
  12 C :   -0.039768
  13 H :    0.097921
  14 H :    0.126262
  15 O :   -0.328224
  16 C :    0.005556
  17 C :    0.033103
  18 C :   -0.241383
  19 C :   -0.038666
  20 O :   -0.325976
  21 H :    0.115267
  22 O :   -0.415739
  23 H :    0.116984
  24 H :    0.128403
  25 H :    0.121539
  26 H :    0.106451
  27 H :    0.103094
  28 H :    0.283574

  Mayer bond orders larger than 0.100000
B(  0-C ,  1-C ) :   0.9475 B(  0-C ,  4-O ) :   0.9139 B(  0-C ,  5-H ) :   0.8971
B(  0-C , 15-O ) :   0.8602 B(  1-C ,  2-C ) :   0.9584 B(  1-C ,  6-H ) :   0.9403
B(  1-C ,  7-H ) :   0.9369 B(  2-C ,  3-C ) :   0.9543 B(  2-C ,  8-H ) :   0.9456
B(  2-C ,  9-H ) :   0.9435 B(  3-C ,  4-O ) :   0.8376 B(  3-C , 10-H ) :   0.9356
B(  3-C , 11-H ) :   0.9403 B( 12-C , 13-H ) :   0.9235 B( 12-C , 14-H ) :   0.9338
B( 12-C , 15-O ) :   0.8452 B( 12-C , 16-C ) :   0.8774 B( 16-C , 17-C ) :   0.9103
B( 16-C , 20-O ) :   0.8256 B( 16-C , 21-H ) :   0.9243 B( 17-C , 18-C ) :   0.9147
B( 17-C , 22-O ) :   0.8807 B( 17-C , 23-H ) :   0.9131 B( 18-C , 19-C ) :   0.9392
B( 18-C , 24-H ) :   0.9368 B( 18-C , 25-H ) :   0.9303 B( 19-C , 20-O ) :   0.8355
B( 19-C , 26-H ) :   0.9353 B( 19-C , 27-H ) :   0.9376 B( 22-O , 28-H ) :   0.7919

FINAL SINGLE POINT ENERGY      -652.856982753704

DIPOLE MOMENT
-------------
                                X             Y             Z
Electronic contribution:     -2.47985      -1.73424      -2.63699
Nuclear contribution   :      2.70246       1.77105       2.92395
                        -----------------------------------------
Total Dipole Moment    :      0.22261       0.03681       0.28696
                        -----------------------------------------
Magnitude (a.u.)       :      0.36504
Magnitude (Debye)      :      0.92787

Rotational constants in cm-1:     0.056719     0.012858     0.012539
Rotational constants in MHz :  1700.398137   385.488110   375.905285

                             ****ORCA TERMINATED NORMALLY****
TOTAL RUN TIME: 0 days 0 hours 52 minutes 44 seconds 183 msec
