                         Program Version 4.2.0 -  RELEASE  -
|  1> # Test redundant internal optimization
|  2> #
|  3> ! RKS B3LYP  Opt TightSCF SmallPrint
|  4>
|  5> %basis
|  6>         Basis "6-31G"
|  7> end
|  8>
|  9> %geom
| 10> Constraints
| 11> { D 4  0  15  12  345.0   C } # D for Dihedral angle
| 12> { D 0  15  12  16  315.0   C } # D for Dihedral angle
| 13> { D 0  4  3  2   C } # D for Dihedral angle
| 14> { D 4  3  2  1   C } # D for Dihedral angle
| 15> { D 3  2  1  0   C } # D for Dihedral angle
| 16> { D 2  1  0  4   C } # D for Dihedral angle
| 17> { D 1  0  4  3   C } # D for Dihedral angle
| 18> { D 16  20  19  18   C } # D for Dihedral angle
| 19> { D 20  19  18  17   C } # D for Dihedral angle
| 20> { D 19  18  17  16   C } # D for Dihedral angle
| 21> { D 18  17  16  20   C } # D for Dihedral angle
| 22> { D 17  16  20  19   C } # D for Dihedral angle
| 23> { D 15  12  16  20   C } # D for Dihedral angle
| 24> end
| 25> end
| 26>
| 27>
| 28> #%pal
| 29> #nprocs 8
| 30> #end
| 31>
| 32> * xyz 0 1
| 33> C  -21.048   26.222   46.251
| 34> C  -20.361   27.558   45.944
| 35> C  -20.329   28.222   47.341
| 36> C  -20.110   27.022   48.296
| 37> O  -20.473   25.807   47.535
| 38> H  -20.833   25.428   45.533
| 39> H  -19.344   27.382   45.576
| 40> H  -20.898   28.157   45.201
| 41> H  -19.543   28.978   47.434
| 42> H  -21.289   28.710   47.548
| 43> H  -20.733   27.082   49.195
| 44> H  -19.064   26.913   48.597
| 45> C  -23.221   25.764   47.645
| 46> H  -22.998   26.398   48.513
| 47> H  -24.311   25.700   47.538
| 48> O  -22.586   26.394   46.375
| 49> C  -22.689   24.333   47.936
| 50> C  -23.419   23.699   49.125
| 51> C  -24.745   23.241   48.471
| 52> C  -24.306   22.817   47.047
| 53> O  -22.985   23.439   46.812
| 54> H  -21.603   24.369   48.039
| 55> O  -22.618   22.478   49.653
| 56> H  -23.574   24.396   49.956
| 57> H  -25.229   22.426   49.019
| 58> H  -25.451   24.079   48.424
| 59> H  -25.005   23.157   46.275
| 60> H  -24.174   21.735   46.956
| 61> H  -22.451   21.766   48.837
| 62> *
| 63>
| 64>                          ****END OF INPUT****
 Total Charge           Charge          ....    0
 Multiplicity           Mult            ....    1
 Number of Electrons    NEL             ....  102
FINAL SINGLE POINT ENERGY      -652.827493309433
FINAL SINGLE POINT ENERGY      -652.851029786639
FINAL SINGLE POINT ENERGY      -652.855693436902
FINAL SINGLE POINT ENERGY      -652.858242020272
FINAL SINGLE POINT ENERGY      -652.858529345131
FINAL SINGLE POINT ENERGY      -652.858585990058
FINAL SINGLE POINT ENERGY      -652.858591411666
                    ***********************HURRAY********************

CARTESIAN COORDINATES (ANGSTROEM)
---------------------------------
  C    -21.024703   26.235389   46.281142
  C    -20.489355   27.634863   45.973233
  C    -20.332704   28.231229   47.391201
  C    -19.902892   27.015167   48.241956
  O    -20.272818   25.811636   47.443558
  H    -20.836321   25.480170   45.514953
  H    -19.519947   27.548655   45.468904
  H    -21.174299   28.201670   45.339547
  H    -19.598371   29.041672   47.429231
  H    -21.294386   28.625747   47.734019
  H    -20.406796   26.962990   49.211188
  H    -18.821359   26.963775   48.396985
  C    -23.135218   25.708226   47.609776
  H    -22.994628   26.337410   48.503755
  H    -24.191120   25.746850   47.328737
  O    -22.463610   26.317777   46.474031
  C    -22.714370   24.276200   47.969218
  C    -23.534577   23.692244   49.130157
  C    -24.828548   23.231758   48.403423
  C    -24.300823   22.754044   47.026206
  O    -22.954306   23.347583   46.858381
  H    -21.644637   24.247311   48.173652
  O    -22.837958   22.575105   49.746850
  H    -23.724244   24.397645   49.940679
  H    -25.326684   22.439855   48.968418
  H    -25.524617   24.071302   48.296534
  H    -24.938545   23.073095   46.195752
  H    -24.183806   21.666607   46.977237
  H    -22.418360   22.036025   49.043277

 Multiplicity           Mult            ....    1
 Number of Electrons    NEL             ....  102
 Basis Dimension        Dim             ....  149

ORBITAL ENERGIES
----------------

  NO   OCC          E(Eh)            E(eV)
   0   2.0000     -19.149739      -521.0909
   1   2.0000     -19.136186      -520.7221
   2   2.0000     -19.134847      -520.6857
   3   2.0000     -19.134299      -520.6707
   4   2.0000     -10.276667      -279.6423
   5   2.0000     -10.238758      -278.6108
   6   2.0000     -10.231948      -278.4255
   7   2.0000     -10.230948      -278.3982
   8   2.0000     -10.226456      -278.2760
   9   2.0000     -10.222834      -278.1774
  10   2.0000     -10.189740      -277.2769
  11   2.0000     -10.186377      -277.1854
  12   2.0000     -10.184519      -277.1349
  13   2.0000      -1.052673       -28.6447
  14   2.0000      -1.030843       -28.0507
  15   2.0000      -1.001572       -27.2541
  16   2.0000      -0.989424       -26.9236
  17   2.0000      -0.791571       -21.5397
  18   2.0000      -0.778971       -21.1969
  19   2.0000      -0.762278       -20.7426
  20   2.0000      -0.734109       -19.9761
  21   2.0000      -0.671408       -18.2699
  22   2.0000      -0.602644       -16.3988
  23   2.0000      -0.601256       -16.3610
  24   2.0000      -0.598931       -16.2977
  25   2.0000      -0.567960       -15.4550
  26   2.0000      -0.518214       -14.1013
  27   2.0000      -0.512453       -13.9446
  28   2.0000      -0.496993       -13.5239
  29   2.0000      -0.485807       -13.2195
  30   2.0000      -0.470879       -12.8133
  31   2.0000      -0.460324       -12.5261
  32   2.0000      -0.446090       -12.1387
  33   2.0000      -0.440343       -11.9823
  34   2.0000      -0.416031       -11.3208
  35   2.0000      -0.408247       -11.1090
  36   2.0000      -0.399511       -10.8712
  37   2.0000      -0.389119       -10.5885
  38   2.0000      -0.374766       -10.1979
  39   2.0000      -0.367990       -10.0135
  40   2.0000      -0.360603        -9.8125
  41   2.0000      -0.359999        -9.7961
  42   2.0000      -0.351302        -9.5594
  43   2.0000      -0.334961        -9.1148
  44   2.0000      -0.321856        -8.7582
  45   2.0000      -0.309584        -8.4242
  46   2.0000      -0.296965        -8.0808
  47   2.0000      -0.268172        -7.2973
  48   2.0000      -0.261702        -7.1213
  49   2.0000      -0.252450        -6.8695
  50   2.0000      -0.232977        -6.3396
  51   0.0000       0.065796         1.7904
  52   0.0000       0.078988         2.1494
  53   0.0000       0.089965         2.4481
  54   0.0000       0.099074         2.6959
  55   0.0000       0.106851         2.9076

MULLIKEN ATOMIC CHARGES
-----------------------
   0 C :    0.307170
   1 C :   -0.259232
   2 C :   -0.305779
   3 C :   -0.016380
   4 O :   -0.517450
   5 H :    0.167059
   6 H :    0.144998
   7 H :    0.162564
   8 H :    0.146500
   9 H :    0.155972
  10 H :    0.144379
  11 H :    0.152297
  12 C :    0.015042
  13 H :    0.116957
  14 H :    0.150526
  15 O :   -0.539510
  16 C :    0.025299
  17 C :    0.079194
  18 C :   -0.299904
  19 C :   -0.029302
  20 O :   -0.519352
  21 H :    0.209023
  22 O :   -0.603168
  23 H :    0.147394
  24 H :    0.161989
  25 H :    0.143220
  26 H :    0.147426
  27 H :    0.146725
  28 H :    0.366342
Sum of atomic charges:    0.0000000

LOEWDIN ATOMIC CHARGES
----------------------
   0 C :    0.184078
   1 C :   -0.216574
   2 C :   -0.218271
   3 C :   -0.032679
   4 O :   -0.320956
   5 H :    0.109290
   6 H :    0.113794
   7 H :    0.127075
   8 H :    0.116718
   9 H :    0.115478
  10 H :    0.102233
  11 H :    0.107415
  12 C :   -0.033949
  13 H :    0.088811
  14 H :    0.112552
  15 O :   -0.334297
  16 C :   -0.007634
  17 C :    0.035863
  18 C :   -0.243157
  19 C :   -0.039094
  20 O :   -0.328883
  21 H :    0.135378
  22 O :   -0.415006
  23 H :    0.112873
  24 H :    0.125996
  25 H :    0.111705
  26 H :    0.104592
  27 H :    0.102475
  28 H :    0.284176

  Mayer bond orders larger than 0.100000
B(  0-C ,  1-C ) :   0.9369 B(  0-C ,  4-O ) :   0.8878 B(  0-C ,  5-H ) :   0.9245
B(  0-C , 15-O ) :   0.8441 B(  1-C ,  2-C ) :   0.9528 B(  1-C ,  6-H ) :   0.9366
B(  1-C ,  7-H ) :   0.9359 B(  2-C ,  3-C ) :   0.9545 B(  2-C ,  8-H ) :   0.9446
B(  2-C ,  9-H ) :   0.9456 B(  3-C ,  4-O ) :   0.8289 B(  3-C , 10-H ) :   0.9338
B(  3-C , 11-H ) :   0.9397 B( 12-C , 13-H ) :   0.9114 B( 12-C , 14-H ) :   0.9378
B( 12-C , 15-O ) :   0.8494 B( 12-C , 16-C ) :   0.8868 B( 16-C , 17-C ) :   0.8965
B( 16-C , 20-O ) :   0.8455 B( 16-C , 21-H ) :   0.8937 B( 17-C , 18-C ) :   0.9095
B( 17-C , 22-O ) :   0.8922 B( 17-C , 23-H ) :   0.9335 B( 18-C , 19-C ) :   0.9419
B( 18-C , 24-H ) :   0.9374 B( 18-C , 25-H ) :   0.9341 B( 19-C , 20-O ) :   0.8522
B( 19-C , 26-H ) :   0.9341 B( 19-C , 27-H ) :   0.9378 B( 22-O , 28-H ) :   0.7934

FINAL SINGLE POINT ENERGY      -652.858591956180

DIPOLE MOMENT
-------------
                                X             Y             Z
Electronic contribution:      0.89513      -3.85378      -0.92825
Nuclear contribution   :     -1.09694       4.69792       0.99518
                        -----------------------------------------
Total Dipole Moment    :     -0.20181       0.84414       0.06693
                        -----------------------------------------
Magnitude (a.u.)       :      0.87051
Magnitude (Debye)      :      2.21266

Rotational constants in cm-1:     0.057810     0.014290     0.013076
Rotational constants in MHz :  1733.089821   428.397910   392.017816

                             ****ORCA TERMINATED NORMALLY****
TOTAL RUN TIME: 0 days 1 hours 54 minutes 40 seconds 601 msec
