                         Program Version 4.2.0 -  RELEASE  -
|  1> # Test redundant internal optimization
|  2> #
|  3> ! RKS B3LYP  Opt TightSCF SmallPrint
|  4>
|  5> %basis
|  6>         Basis "6-31G"
|  7> end
|  8>
|  9> %geom
| 10> Constraints
| 11> { D 4  0  15  12  15.0   C } # D for Dihedral angle
| 12> { D 0  15  12  16  195.0   C } # D for Dihedral angle
| 13> { D 0  4  3  2   C } # D for Dihedral angle
| 14> { D 4  3  2  1   C } # D for Dihedral angle
| 15> { D 3  2  1  0   C } # D for Dihedral angle
| 16> { D 2  1  0  4   C } # D for Dihedral angle
| 17> { D 1  0  4  3   C } # D for Dihedral angle
| 18> { D 16  20  19  18   C } # D for Dihedral angle
| 19> { D 20  19  18  17   C } # D for Dihedral angle
| 20> { D 19  18  17  16   C } # D for Dihedral angle
| 21> { D 18  17  16  20   C } # D for Dihedral angle
| 22> { D 17  16  20  19   C } # D for Dihedral angle
| 23> { D 15  12  16  20   C } # D for Dihedral angle
| 24> end
| 25> end
| 26>
| 27>
| 28> #%pal
| 29> #nprocs 8
| 30> #end
| 31>
| 32> * xyz 0 1
| 33> C  -21.048   26.222   46.251
| 34> C  -20.361   27.558   45.944
| 35> C  -20.329   28.222   47.341
| 36> C  -20.110   27.022   48.296
| 37> O  -20.473   25.807   47.535
| 38> H  -20.833   25.428   45.533
| 39> H  -19.344   27.382   45.576
| 40> H  -20.898   28.157   45.201
| 41> H  -19.543   28.978   47.434
| 42> H  -21.289   28.710   47.548
| 43> H  -20.733   27.082   49.195
| 44> H  -19.064   26.913   48.597
| 45> C  -23.128   26.462   47.829
| 46> H  -22.647   25.681   48.432
| 47> H  -22.895   27.435   48.280
| 48> O  -22.586   26.394   46.375
| 49> C  -24.667   26.261   47.907
| 50> C  -25.405   27.265   47.014
| 51> C  -25.237   26.623   45.616
| 52> C  -25.299   25.104   45.916
| 53> O  -25.040   24.951   47.364
| 54> H  -24.977   26.274   48.953
| 55> O  -26.905   27.327   47.411
| 56> H  -24.991   28.277   47.069
| 57> H  -26.009   26.940   44.907
| 58> H  -24.262   26.893   45.192
| 59> H  -24.551   24.535   45.354
| 60> H  -26.288   24.680   45.719
| 61> H  -27.342   26.324   47.362
| 62> *
| 63>
| 64>                          ****END OF INPUT****
 Total Charge           Charge          ....    0
 Multiplicity           Mult            ....    1
 Number of Electrons    NEL             ....  102
FINAL SINGLE POINT ENERGY      -652.833545984225
FINAL SINGLE POINT ENERGY      -652.855692513485
FINAL SINGLE POINT ENERGY      -652.860383445185
FINAL SINGLE POINT ENERGY      -652.861358088086
FINAL SINGLE POINT ENERGY      -652.861467473566
FINAL SINGLE POINT ENERGY      -652.861484073474
                    ***********************HURRAY********************

CARTESIAN COORDINATES (ANGSTROEM)
---------------------------------
  C    -21.119720   26.227288   46.400127
  C    -20.441357   27.536709   45.991374
  C    -20.252746   28.239136   47.359498
  C    -19.963190   27.061470   48.317557
  O    -20.437163   25.839342   47.609927
  H    -20.989344   25.409420   45.689600
  H    -19.472954   27.311070   45.530151
  H    -21.045842   28.112646   45.287335
  H    -19.438215   28.969856   47.348950
  H    -21.170091   28.765004   47.643981
  H    -20.486348   27.138220   49.274509
  H    -18.895127   26.917730   48.502282
  C    -23.142690   26.466402   47.876352
  H    -22.701130   25.694075   48.513114
  H    -22.949843   27.451044   48.329734
  O    -22.564902   26.379764   46.543541
  C    -24.652201   26.247624   47.804729
  C    -25.456537   27.236432   46.948466
  C    -25.309268   26.621205   45.530989
  C    -25.305170   25.098463   45.812394
  O    -24.993663   24.937746   47.252274
  H    -25.026293   26.261462   48.836149
  O    -26.843681   27.283370   47.390458
  H    -25.101528   28.265608   47.012474
  H    -26.134936   26.934469   44.885527
  H    -24.358941   26.934039   45.096400
  H    -24.545934   24.570744   45.229813
  H    -26.280341   24.630477   45.640437
  H    -27.174846   26.366185   47.492859

 Multiplicity           Mult            ....    1
 Number of Electrons    NEL             ....  102
 Basis Dimension        Dim             ....  149

ORBITAL ENERGIES
----------------

  NO   OCC          E(Eh)            E(eV)
   0   2.0000     -19.154603      -521.2232
   1   2.0000     -19.143747      -520.9278
   2   2.0000     -19.133432      -520.6472
   3   2.0000     -19.131756      -520.6015
   4   2.0000     -10.284049      -279.8432
   5   2.0000     -10.237125      -278.5663
   6   2.0000     -10.233237      -278.4605
   7   2.0000     -10.230721      -278.3921
   8   2.0000     -10.229800      -278.3670
   9   2.0000     -10.218444      -278.0580
  10   2.0000     -10.197351      -277.4840
  11   2.0000     -10.191334      -277.3203
  12   2.0000     -10.172378      -276.8045
  13   2.0000      -1.059792       -28.8384
  14   2.0000      -1.029244       -28.0071
  15   2.0000      -1.001659       -27.2565
  16   2.0000      -0.992790       -27.0152
  17   2.0000      -0.795685       -21.6517
  18   2.0000      -0.777107       -21.1462
  19   2.0000      -0.761779       -20.7291
  20   2.0000      -0.736101       -20.0303
  21   2.0000      -0.672141       -18.2899
  22   2.0000      -0.609534       -16.5863
  23   2.0000      -0.601223       -16.3601
  24   2.0000      -0.593173       -16.1411
  25   2.0000      -0.568282       -15.4637
  26   2.0000      -0.524804       -14.2806
  27   2.0000      -0.512625       -13.9492
  28   2.0000      -0.498607       -13.5678
  29   2.0000      -0.487735       -13.2719
  30   2.0000      -0.471937       -12.8421
  31   2.0000      -0.457538       -12.4502
  32   2.0000      -0.448882       -12.2147
  33   2.0000      -0.437887       -11.9155
  34   2.0000      -0.423013       -11.5108
  35   2.0000      -0.408710       -11.1216
  36   2.0000      -0.402803       -10.9608
  37   2.0000      -0.383562       -10.4373
  38   2.0000      -0.378697       -10.3049
  39   2.0000      -0.369262       -10.0481
  40   2.0000      -0.366042        -9.9605
  41   2.0000      -0.359035        -9.7698
  42   2.0000      -0.349022        -9.4974
  43   2.0000      -0.336151        -9.1471
  44   2.0000      -0.323082        -8.7915
  45   2.0000      -0.310308        -8.4439
  46   2.0000      -0.297403        -8.0928
  47   2.0000      -0.269958        -7.3459
  48   2.0000      -0.263449        -7.1688
  49   2.0000      -0.251711        -6.8494
  50   2.0000      -0.238751        -6.4967
  51   0.0000       0.064493         1.7550
  52   0.0000       0.078055         2.1240
  53   0.0000       0.092256         2.5104
  54   0.0000       0.100995         2.7482
  55   0.0000       0.107905         2.9362

MULLIKEN ATOMIC CHARGES
-----------------------
   0 C :    0.304321
   1 C :   -0.255378
   2 C :   -0.314931
   3 C :   -0.016485
   4 O :   -0.507856
   5 H :    0.162908
   6 H :    0.147355
   7 H :    0.155783
   8 H :    0.150600
   9 H :    0.154579
  10 H :    0.146540
  11 H :    0.153898
  12 C :    0.007273
  13 H :    0.173817
  14 H :    0.112321
  15 O :   -0.545492
  16 C :    0.063938
  17 C :    0.076421
  18 C :   -0.286433
  19 C :   -0.015657
  20 O :   -0.525139
  21 H :    0.153737
  22 O :   -0.605390
  23 H :    0.145814
  24 H :    0.146849
  25 H :    0.170068
  26 H :    0.151402
  27 H :    0.132500
  28 H :    0.362636
Sum of atomic charges:   -0.0000000

LOEWDIN ATOMIC CHARGES
----------------------
   0 C :    0.183072
   1 C :   -0.222903
   2 C :   -0.221216
   3 C :   -0.032929
   4 O :   -0.313933
   5 H :    0.110421
   6 H :    0.115706
   7 H :    0.122746
   8 H :    0.118845
   9 H :    0.112444
  10 H :    0.103668
  11 H :    0.108980
  12 C :   -0.038163
  13 H :    0.118529
  14 H :    0.085430
  15 O :   -0.341117
  16 C :    0.015622
  17 C :    0.038542
  18 C :   -0.242095
  19 C :   -0.032157
  20 O :   -0.328423
  21 H :    0.114813
  22 O :   -0.419187
  23 H :    0.113153
  24 H :    0.117215
  25 H :    0.128333
  26 H :    0.108090
  27 H :    0.094757
  28 H :    0.281757

  Mayer bond orders larger than 0.100000
B(  0-C ,  1-C ) :   0.9252 B(  0-C ,  4-O ) :   0.9163 B(  0-C ,  5-H ) :   0.9328
B(  0-C , 15-O ) :   0.8407 B(  1-C ,  2-C ) :   0.9517 B(  1-C ,  6-H ) :   0.9342
B(  1-C ,  7-H ) :   0.9369 B(  2-C ,  3-C ) :   0.9524 B(  2-C ,  8-H ) :   0.9443
B(  2-C ,  9-H ) :   0.9431 B(  3-C ,  4-O ) :   0.8298 B(  3-C , 10-H ) :   0.9326
B(  3-C , 11-H ) :   0.9399 B( 12-C , 13-H ) :   0.9095 B( 12-C , 14-H ) :   0.9038
B( 12-C , 15-O ) :   0.8339 B( 12-C , 16-C ) :   0.9060 B( 16-C , 17-C ) :   0.9084
B( 16-C , 20-O ) :   0.8760 B( 16-C , 21-H ) :   0.9233 B( 17-C , 18-C ) :   0.9242
B( 17-C , 22-O ) :   0.8885 B( 17-C , 23-H ) :   0.9368 B( 18-C , 19-C ) :   0.9457
B( 18-C , 24-H ) :   0.9375 B( 18-C , 25-H ) :   0.9193 B( 19-C , 20-O ) :   0.8398
B( 19-C , 26-H ) :   0.9343 B( 19-C , 27-H ) :   0.9374 B( 22-O , 28-H ) :   0.7960

FINAL SINGLE POINT ENERGY      -652.861484924432

DIPOLE MOMENT
-------------
                                X             Y             Z
Electronic contribution:     -3.16912      -3.95247       1.27118
Nuclear contribution   :      4.20076       4.74096      -1.53264
                        -----------------------------------------
Total Dipole Moment    :      1.03164       0.78849      -0.26147
                        -----------------------------------------
Magnitude (a.u.)       :      1.32453
Magnitude (Debye)      :      3.36668

Rotational constants in cm-1:     0.057294     0.013701     0.013464
Rotational constants in MHz :  1717.636399   410.739045   403.633151

                             ****ORCA TERMINATED NORMALLY****
TOTAL RUN TIME: 0 days 1 hours 36 minutes 52 seconds 41 msec
