                         Program Version 4.2.0 -  RELEASE  -
|  1> # Test redundant internal optimization
|  2> #
|  3> ! RKS B3LYP  Opt TightSCF SmallPrint
|  4>
|  5> %basis
|  6>         Basis "6-31G"
|  7> end
|  8>
|  9> %geom
| 10> Constraints
| 11> { D 4  0  15  12  330.0   C } # D for Dihedral angle
| 12> { D 0  15  12  16  285.0   C } # D for Dihedral angle
| 13> { D 0  4  3  2   C } # D for Dihedral angle
| 14> { D 4  3  2  1   C } # D for Dihedral angle
| 15> { D 3  2  1  0   C } # D for Dihedral angle
| 16> { D 2  1  0  4   C } # D for Dihedral angle
| 17> { D 1  0  4  3   C } # D for Dihedral angle
| 18> { D 16  20  19  18   C } # D for Dihedral angle
| 19> { D 20  19  18  17   C } # D for Dihedral angle
| 20> { D 19  18  17  16   C } # D for Dihedral angle
| 21> { D 18  17  16  20   C } # D for Dihedral angle
| 22> { D 17  16  20  19   C } # D for Dihedral angle
| 23> { D 15  12  16  20   C } # D for Dihedral angle
| 24> end
| 25> end
| 26>
| 27>
| 28> #%pal
| 29> #nprocs 8
| 30> #end
| 31>
| 32> * xyz 0 1
| 33> C  -21.048   26.222   46.251
| 34> C  -20.361   27.558   45.944
| 35> C  -20.329   28.222   47.341
| 36> C  -20.110   27.022   48.296
| 37> O  -20.473   25.807   47.535
| 38> H  -20.833   25.428   45.533
| 39> H  -19.344   27.382   45.576
| 40> H  -20.898   28.157   45.201
| 41> H  -19.543   28.978   47.434
| 42> H  -21.289   28.710   47.548
| 43> H  -20.733   27.082   49.195
| 44> H  -19.064   26.913   48.597
| 45> C  -23.271   25.476   47.424
| 46> H  -22.687   25.488   48.353
| 47> H  -24.282   25.838   47.650
| 48> O  -22.586   26.394   46.375
| 49> C  -23.393   24.003   46.944
| 50> C  -24.123   23.914   45.599
| 51> C  -23.002   24.306   44.607
| 52> C  -21.731   23.701   45.256
| 53> O  -22.066   23.440   46.673
| 54> H  -23.838   23.403   47.740
| 55> O  -24.595   22.457   45.344
| 56> H  -24.994   24.575   45.537
| 57> H  -23.176   23.924   43.596
| 58> H  -22.920   25.398   44.543
| 59> H  -20.872   24.379   45.209
| 60> H  -21.451   22.742   44.810
| 61> H  -23.738   21.777   45.401
| 62> *
| 63>
| 64>                          ****END OF INPUT****
 Total Charge           Charge          ....    0
 Multiplicity           Mult            ....    1
 Number of Electrons    NEL             ....  102
FINAL SINGLE POINT ENERGY      -652.796315684432
FINAL SINGLE POINT ENERGY      -652.837600134016
FINAL SINGLE POINT ENERGY      -652.855776213812
FINAL SINGLE POINT ENERGY      -652.859172984813
FINAL SINGLE POINT ENERGY      -652.859691885865
FINAL SINGLE POINT ENERGY      -652.859761121154
FINAL SINGLE POINT ENERGY      -652.859778470693
FINAL SINGLE POINT ENERGY      -652.859784195687
FINAL SINGLE POINT ENERGY      -652.859785669333
                    ***********************HURRAY********************

CARTESIAN COORDINATES (ANGSTROEM)
---------------------------------
  C    -20.943292   26.401071   46.276712
  C    -20.416253   27.826057   46.112221
  C    -20.397764   28.326663   47.574512
  C    -20.016232   27.064204   48.375357
  O    -20.288134   25.913505   47.466423
  H    -20.675879   25.712119   45.476274
  H    -19.404937   27.789345   45.691188
  H    -21.053333   28.427955   45.460593
  H    -19.688992   29.145747   47.729247
  H    -21.395389   28.677598   47.854415
  H    -20.603157   26.936757   49.289024
  H    -18.951683   27.017969   48.621516
  C    -23.098740   25.550689   47.268695
  H    -22.589210   25.526334   48.238075
  H    -24.088077   26.000602   47.396632
  O    -22.391858   26.481681   46.396895
  C    -23.284914   24.095425   46.807425
  C    -24.125343   23.885060   45.539610
  C    -23.048323   23.971310   44.424791
  C    -21.808997   23.322153   45.092942
  O    -22.062635   23.337119   46.552073
  H    -23.780030   23.592374   47.648785
  O    -24.783211   22.585808   45.562897
  H    -24.929047   24.611441   45.418544
  H    -23.372410   23.448541   43.522060
  H    -22.861178   25.022585   44.186288
  H    -20.874981   23.847854   44.881501
  H    -21.680992   22.273246   44.805674
  H    -24.135008   21.904787   45.841629

 Multiplicity           Mult            ....    1
 Number of Electrons    NEL             ....  102
 Basis Dimension        Dim             ....  149

ORBITAL ENERGIES
----------------

  NO   OCC          E(Eh)            E(eV)
   0   2.0000     -19.144761      -520.9554
   1   2.0000     -19.143520      -520.9217
   2   2.0000     -19.140741      -520.8461
   3   2.0000     -19.133543      -520.6502
   4   2.0000     -10.278252      -279.6855
   5   2.0000     -10.235382      -278.5189
   6   2.0000     -10.231264      -278.4068
   7   2.0000     -10.229100      -278.3480
   8   2.0000     -10.228436      -278.3299
   9   2.0000     -10.227057      -278.2924
  10   2.0000     -10.187378      -277.2127
  11   2.0000     -10.185566      -277.1633
  12   2.0000     -10.181609      -277.0557
  13   2.0000      -1.054113       -28.6839
  14   2.0000      -1.033034       -28.1103
  15   2.0000      -1.002232       -27.2721
  16   2.0000      -0.991556       -26.9816
  17   2.0000      -0.790920       -21.5220
  18   2.0000      -0.775384       -21.0993
  19   2.0000      -0.766498       -20.8575
  20   2.0000      -0.733308       -19.9543
  21   2.0000      -0.673768       -18.3341
  22   2.0000      -0.605942       -16.4885
  23   2.0000      -0.599493       -16.3130
  24   2.0000      -0.598895       -16.2968
  25   2.0000      -0.565379       -15.3848
  26   2.0000      -0.525315       -14.2946
  27   2.0000      -0.506833       -13.7916
  28   2.0000      -0.495560       -13.4849
  29   2.0000      -0.484286       -13.1781
  30   2.0000      -0.471041       -12.8177
  31   2.0000      -0.461625       -12.5614
  32   2.0000      -0.448740       -12.2108
  33   2.0000      -0.437424       -11.9029
  34   2.0000      -0.416747       -11.3402
  35   2.0000      -0.413156       -11.2425
  36   2.0000      -0.396694       -10.7946
  37   2.0000      -0.389513       -10.5992
  38   2.0000      -0.373859       -10.1732
  39   2.0000      -0.368814       -10.0359
  40   2.0000      -0.362062        -9.8522
  41   2.0000      -0.358276        -9.7492
  42   2.0000      -0.346299        -9.4233
  43   2.0000      -0.331759        -9.0276
  44   2.0000      -0.327708        -8.9174
  45   2.0000      -0.305278        -8.3070
  46   2.0000      -0.294173        -8.0048
  47   2.0000      -0.269757        -7.3405
  48   2.0000      -0.264417        -7.1951
  49   2.0000      -0.259957        -7.0738
  50   2.0000      -0.236489        -6.4352
  51   0.0000       0.066542         1.8107
  52   0.0000       0.081925         2.2293
  53   0.0000       0.096128         2.6158
  54   0.0000       0.103393         2.8135
  55   0.0000       0.106689         2.9031

MULLIKEN ATOMIC CHARGES
-----------------------
   0 C :    0.303931
   1 C :   -0.260803
   2 C :   -0.297396
   3 C :   -0.016073
   4 O :   -0.501244
   5 H :    0.143978
   6 H :    0.143724
   7 H :    0.157913
   8 H :    0.143051
   9 H :    0.157811
  10 H :    0.145413
  11 H :    0.148739
  12 C :   -0.015401
  13 H :    0.157277
  14 H :    0.146067
  15 O :   -0.538883
  16 C :    0.074022
  17 C :    0.078414
  18 C :   -0.291561
  19 C :   -0.029482
  20 O :   -0.516560
  21 H :    0.152527
  22 O :   -0.604898
  23 H :    0.153223
  24 H :    0.153996
  25 H :    0.160669
  26 H :    0.146523
  27 H :    0.141799
  28 H :    0.363222
Sum of atomic charges:   -0.0000000

LOEWDIN ATOMIC CHARGES
----------------------
   0 C :    0.178455
   1 C :   -0.216701
   2 C :   -0.216895
   3 C :   -0.030997
   4 O :   -0.313144
   5 H :    0.095856
   6 H :    0.112995
   7 H :    0.124733
   8 H :    0.114929
   9 H :    0.116957
  10 H :    0.102991
  11 H :    0.106016
  12 C :   -0.042266
  13 H :    0.110016
  14 H :    0.114411
  15 O :   -0.339609
  16 C :    0.004564
  17 C :    0.036561
  18 C :   -0.241082
  19 C :   -0.036813
  20 O :   -0.321353
  21 H :    0.115524
  22 O :   -0.417908
  23 H :    0.116570
  24 H :    0.122457
  25 H :    0.122196
  26 H :    0.099902
  27 H :    0.099833
  28 H :    0.281801

  Mayer bond orders larger than 0.100000
B(  0-C ,  1-C ) :   0.9411 B(  0-C ,  4-O ) :   0.9184 B(  0-C ,  5-H ) :   0.9081
B(  0-C , 15-O ) :   0.8328 B(  1-C ,  2-C ) :   0.9548 B(  1-C ,  6-H ) :   0.9384
B(  1-C ,  7-H ) :   0.9355 B(  2-C ,  3-C ) :   0.9532 B(  2-C ,  8-H ) :   0.9451
B(  2-C ,  9-H ) :   0.9450 B(  3-C ,  4-O ) :   0.8347 B(  3-C , 10-H ) :   0.9341
B(  3-C , 11-H ) :   0.9403 B( 12-C , 13-H ) :   0.9162 B( 12-C , 14-H ) :   0.9296
B( 12-C , 15-O ) :   0.8670 B( 12-C , 16-C ) :   0.8840 B( 16-C , 17-C ) :   0.9073
B( 16-C , 20-O ) :   0.8705 B( 16-C , 21-H ) :   0.9152 B( 17-C , 18-C ) :   0.9203
B( 17-C , 22-O ) :   0.8904 B( 17-C , 23-H ) :   0.9349 B( 18-C , 19-C ) :   0.9432
B( 18-C , 24-H ) :   0.9374 B( 18-C , 25-H ) :   0.9256 B( 19-C , 20-O ) :   0.8451
B( 19-C , 26-H ) :   0.9203 B( 19-C , 27-H ) :   0.9376 B( 22-O , 28-H ) :   0.7957

FINAL SINGLE POINT ENERGY      -652.859784907621

DIPOLE MOMENT
-------------
                                X             Y             Z
Electronic contribution:     -2.19204      -4.49748       0.58936
Nuclear contribution   :      2.74746       5.41481      -0.64644
                        -----------------------------------------
Total Dipole Moment    :      0.55542       0.91732      -0.05708
                        -----------------------------------------
Magnitude (a.u.)       :      1.07389
Magnitude (Debye)      :      2.72960

Rotational constants in cm-1:     0.063129     0.014367     0.014287
Rotational constants in MHz :  1892.567780   430.704572   428.299225

                             ****ORCA TERMINATED NORMALLY****
TOTAL RUN TIME: 0 days 0 hours 30 minutes 9 seconds 297 msec
