                         Program Version 4.2.0 -  RELEASE  -
|  1> # Test redundant internal optimization
|  2> #
|  3> ! RKS B3LYP  Opt TightSCF SmallPrint
|  4>
|  5> %basis
|  6>         Basis "6-31G"
|  7> end
|  8>
|  9> %geom
| 10> Constraints
| 11> { D 4  0  15  12  45.0   C } # D for Dihedral angle
| 12> { D 0  15  12  16  240.0   C } # D for Dihedral angle
| 13> { D 0  4  3  2   C } # D for Dihedral angle
| 14> { D 4  3  2  1   C } # D for Dihedral angle
| 15> { D 3  2  1  0   C } # D for Dihedral angle
| 16> { D 2  1  0  4   C } # D for Dihedral angle
| 17> { D 1  0  4  3   C } # D for Dihedral angle
| 18> { D 16  20  19  18   C } # D for Dihedral angle
| 19> { D 20  19  18  17   C } # D for Dihedral angle
| 20> { D 19  18  17  16   C } # D for Dihedral angle
| 21> { D 18  17  16  20   C } # D for Dihedral angle
| 22> { D 17  16  20  19   C } # D for Dihedral angle
| 23> { D 15  12  16  20   C } # D for Dihedral angle
| 24> end
| 25> end
| 26>
| 27>
| 28> #%pal
| 29> #nprocs 8
| 30> #end
| 31>
| 32> * xyz 0 1
| 33> C  -21.048   26.222   46.251
| 34> C  -20.361   27.558   45.944
| 35> C  -20.329   28.222   47.341
| 36> C  -20.110   27.022   48.296
| 37> O  -20.473   25.807   47.535
| 38> H  -20.833   25.428   45.533
| 39> H  -19.344   27.382   45.576
| 40> H  -20.898   28.157   45.201
| 41> H  -19.543   28.978   47.434
| 42> H  -21.289   28.710   47.548
| 43> H  -20.733   27.082   49.195
| 44> H  -19.064   26.913   48.597
| 45> C  -23.065   27.161   47.638
| 46> H  -22.193   27.462   48.231
| 47> H  -23.613   28.068   47.351
| 48> O  -22.586   26.394   46.375
| 49> C  -24.000   26.309   48.540
| 50> C  -25.202   25.777   47.750
| 51> C  -24.576   24.576   47.000
| 52> C  -23.546   24.024   48.017
| 53> O  -23.307   25.102   49.001
| 54> H  -24.263   26.886   49.428
| 55> O  -26.309   25.296   48.727
| 56> H  -25.637   26.520   47.074
| 57> H  -25.318   23.825   46.708
| 58> H  -24.073   24.922   46.089
| 59> H  -22.596   23.750   47.545
| 60> H  -23.928   23.161   48.571
| 61> H  -25.896   24.549   49.414
| 62> *
| 63>
| 64>                          ****END OF INPUT****
 Total Charge           Charge          ....    0
 Multiplicity           Mult            ....    1
 Number of Electrons    NEL             ....  102
FINAL SINGLE POINT ENERGY      -652.817972871909
FINAL SINGLE POINT ENERGY      -652.844116844407
FINAL SINGLE POINT ENERGY      -652.855396184183
FINAL SINGLE POINT ENERGY      -652.857413742181
FINAL SINGLE POINT ENERGY      -652.857729809756
FINAL SINGLE POINT ENERGY      -652.857781690471
FINAL SINGLE POINT ENERGY      -652.857786747014
                    ***********************HURRAY********************

CARTESIAN COORDINATES (ANGSTROEM)
---------------------------------
  C    -21.129736   26.361321   46.403650
  C    -20.371892   27.620143   45.964720
  C    -20.068854   28.308665   47.325626
  C    -19.826990   27.102420   48.267295
  O    -20.422354   25.926211   47.581092
  H    -21.059492   25.546713   45.681023
  H    -19.442790   27.317835   45.469165
  H    -20.953870   28.241305   45.279671
  H    -19.195450   28.966169   47.274390
  H    -20.919252   28.915142   47.651884
  H    -20.293752   27.208864   49.250545
  H    -18.763252   26.883925   48.399363
  C    -23.176515   27.169464   47.697626
  H    -22.416187   27.512935   48.402196
  H    -23.738480   28.038576   47.331342
  O    -22.563319   26.510689   46.551808
  C    -24.113588   26.232914   48.467956
  C    -25.292392   25.648077   47.676799
  C    -24.632244   24.427542   46.980097
  C    -23.612273   23.935487   48.036868
  O    -23.413482   25.060703   48.981658
  H    -24.487832   26.789698   49.336240
  O    -26.369076   25.257796   48.577303
  H    -25.746745   26.350922   46.977185
  H    -25.383187   23.673885   46.727760
  H    -24.121205   24.760951   46.075714
  H    -22.644216   23.674153   47.603942
  H    -23.983436   23.087375   48.622684
  H    -25.991139   24.733120   49.314398

 Multiplicity           Mult            ....    1
 Number of Electrons    NEL             ....  102
 Basis Dimension        Dim             ....  149

ORBITAL ENERGIES
----------------

  NO   OCC          E(Eh)            E(eV)
   0   2.0000     -19.147102      -521.0191
   1   2.0000     -19.145168      -520.9665
   2   2.0000     -19.131660      -520.5989
   3   2.0000     -19.129762      -520.5473
   4   2.0000     -10.282655      -279.8053
   5   2.0000     -10.233742      -278.4743
   6   2.0000     -10.232751      -278.4473
   7   2.0000     -10.231145      -278.4036
   8   2.0000     -10.228725      -278.3378
   9   2.0000     -10.215956      -277.9903
  10   2.0000     -10.195940      -277.4456
  11   2.0000     -10.190981      -277.3107
  12   2.0000     -10.170254      -276.7467
  13   2.0000      -1.055454       -28.7204
  14   2.0000      -1.027444       -27.9582
  15   2.0000      -1.000683       -27.2300
  16   2.0000      -0.992678       -27.0121
  17   2.0000      -0.791585       -21.5401
  18   2.0000      -0.777156       -21.1475
  19   2.0000      -0.760303       -20.6889
  20   2.0000      -0.733763       -19.9667
  21   2.0000      -0.674478       -18.3535
  22   2.0000      -0.606719       -16.5097
  23   2.0000      -0.603850       -16.4316
  24   2.0000      -0.591073       -16.0839
  25   2.0000      -0.566100       -15.4044
  26   2.0000      -0.524468       -14.2715
  27   2.0000      -0.508666       -13.8415
  28   2.0000      -0.495008       -13.4699
  29   2.0000      -0.483460       -13.1556
  30   2.0000      -0.474732       -12.9181
  31   2.0000      -0.458821       -12.4852
  32   2.0000      -0.445805       -12.1310
  33   2.0000      -0.433293       -11.7905
  34   2.0000      -0.422196       -11.4885
  35   2.0000      -0.414490       -11.2788
  36   2.0000      -0.398007       -10.8303
  37   2.0000      -0.382733       -10.4147
  38   2.0000      -0.381409       -10.3787
  39   2.0000      -0.364581        -9.9207
  40   2.0000      -0.362881        -9.8745
  41   2.0000      -0.356833        -9.7099
  42   2.0000      -0.347867        -9.4659
  43   2.0000      -0.323824        -8.8117
  44   2.0000      -0.321237        -8.7413
  45   2.0000      -0.309828        -8.4309
  46   2.0000      -0.294493        -8.0136
  47   2.0000      -0.267014        -7.2658
  48   2.0000      -0.262688        -7.1481
  49   2.0000      -0.255810        -6.9609
  50   2.0000      -0.233125        -6.3437
  51   0.0000       0.068521         1.8646
  52   0.0000       0.079480         2.1627
  53   0.0000       0.093930         2.5560
  54   0.0000       0.102678         2.7940
  55   0.0000       0.108797         2.9605

MULLIKEN ATOMIC CHARGES
-----------------------
   0 C :    0.304062
   1 C :   -0.265437
   2 C :   -0.318089
   3 C :   -0.017915
   4 O :   -0.499606
   5 H :    0.160909
   6 H :    0.151572
   7 H :    0.152831
   8 H :    0.148856
   9 H :    0.149306
  10 H :    0.155687
  11 H :    0.150326
  12 C :   -0.007707
  13 H :    0.147549
  14 H :    0.136048
  15 O :   -0.534196
  16 C :    0.076421
  17 C :    0.073840
  18 C :   -0.285660
  19 C :   -0.021973
  20 O :   -0.521838
  21 H :    0.148937
  22 O :   -0.604849
  23 H :    0.148971
  24 H :    0.146252
  25 H :    0.172751
  26 H :    0.159077
  27 H :    0.132224
  28 H :    0.361649
Sum of atomic charges:   -0.0000000

LOEWDIN ATOMIC CHARGES
----------------------
   0 C :    0.178117
   1 C :   -0.226677
   2 C :   -0.224901
   3 C :   -0.034733
   4 O :   -0.312401
   5 H :    0.110227
   6 H :    0.118615
   7 H :    0.120906
   8 H :    0.117598
   9 H :    0.109760
  10 H :    0.106462
  11 H :    0.106693
  12 C :   -0.038501
  13 H :    0.108209
  14 H :    0.102499
  15 O :   -0.330706
  16 C :    0.010591
  17 C :    0.037642
  18 C :   -0.241944
  19 C :   -0.033050
  20 O :   -0.326362
  21 H :    0.112723
  22 O :   -0.419083
  23 H :    0.114284
  24 H :    0.117306
  25 H :    0.129446
  26 H :    0.111658
  27 H :    0.094486
  28 H :    0.281138

  Mayer bond orders larger than 0.100000
B(  0-C ,  1-C ) :   0.9193 B(  0-C ,  4-O ) :   0.9141 B(  0-C ,  5-H ) :   0.9359
B(  0-C , 15-O ) :   0.8700 B(  1-C ,  2-C ) :   0.9543 B(  1-C ,  6-H ) :   0.9350
B(  1-C ,  7-H ) :   0.9375 B(  2-C ,  3-C ) :   0.9479 B(  2-C ,  8-H ) :   0.9446
B(  2-C ,  9-H ) :   0.9422 B(  3-C ,  4-O ) :   0.8371 B(  3-C , 10-H ) :   0.9288
B(  3-C , 11-H ) :   0.9383 B( 12-C , 13-H ) :   0.9123 B( 12-C , 14-H ) :   0.9227
B( 12-C , 15-O ) :   0.8464 B( 12-C , 16-C ) :   0.8862 B( 16-C , 17-C ) :   0.9118
B( 16-C , 20-O ) :   0.8818 B( 16-C , 21-H ) :   0.9195 B( 17-C , 18-C ) :   0.9243
B( 17-C , 22-O ) :   0.8900 B( 17-C , 23-H ) :   0.9359 B( 18-C , 19-C ) :   0.9455
B( 18-C , 24-H ) :   0.9369 B( 18-C , 25-H ) :   0.9189 B( 19-C , 20-O ) :   0.8359
B( 19-C , 26-H ) :   0.9317 B( 19-C , 27-H ) :   0.9378 B( 22-O , 28-H ) :   0.7963

FINAL SINGLE POINT ENERGY      -652.857786259813

DIPOLE MOMENT
-------------
                                X             Y             Z
Electronic contribution:     -3.01581      -2.88206       1.61275
Nuclear contribution   :      3.97726       3.76636      -2.00548
                        -----------------------------------------
Total Dipole Moment    :      0.96145       0.88431      -0.39273
                        -----------------------------------------
Magnitude (a.u.)       :      1.36404
Magnitude (Debye)      :      3.46713

Rotational constants in cm-1:     0.060762     0.014762     0.014482
Rotational constants in MHz :  1821.609920   442.542671   434.152609

                             ****ORCA TERMINATED NORMALLY****
TOTAL RUN TIME: 0 days 0 hours 47 minutes 27 seconds 455 msec
