                         Program Version 4.2.0 -  RELEASE  -
|  1> # Test redundant internal optimization
|  2> #
|  3> ! RKS B3LYP  Opt TightSCF SmallPrint
|  4>
|  5> %basis
|  6>         Basis "6-31G"
|  7> end
|  8>
|  9> %geom
| 10> Constraints
| 11> { D 4  0  15  12  180.0   C } # D for Dihedral angle
| 12> { D 0  15  12  16  195.0   C } # D for Dihedral angle
| 13> { D 0  4  3  2   C } # D for Dihedral angle
| 14> { D 4  3  2  1   C } # D for Dihedral angle
| 15> { D 3  2  1  0   C } # D for Dihedral angle
| 16> { D 2  1  0  4   C } # D for Dihedral angle
| 17> { D 1  0  4  3   C } # D for Dihedral angle
| 18> { D 16  20  19  18   C } # D for Dihedral angle
| 19> { D 20  19  18  17   C } # D for Dihedral angle
| 20> { D 19  18  17  16   C } # D for Dihedral angle
| 21> { D 18  17  16  20   C } # D for Dihedral angle
| 22> { D 17  16  20  19   C } # D for Dihedral angle
| 23> { D 15  12  16  20   C } # D for Dihedral angle
| 24> end
| 25> end
| 26>
| 27>
| 28> #%pal
| 29> #nprocs 8
| 30> #end
| 31>
| 32> * xyz 0 1
| 33> C  -21.048   26.222   46.251
| 34> C  -20.361   27.558   45.944
| 35> C  -20.329   28.222   47.341
| 36> C  -20.110   27.022   48.296
| 37> O  -20.473   25.807   47.535
| 38> H  -20.833   25.428   45.533
| 39> H  -19.344   27.382   45.576
| 40> H  -20.898   28.157   45.201
| 41> H  -19.543   28.978   47.434
| 42> H  -21.289   28.710   47.548
| 43> H  -20.733   27.082   49.195
| 44> H  -19.064   26.913   48.597
| 45> C  -23.309   26.834   45.072
| 46> H  -22.737   27.640   44.596
| 47> H  -23.372   25.995   44.367
| 48> O  -22.586   26.394   46.375
| 49> C  -24.753   27.345   45.330
| 50> C  -24.748   28.624   46.174
| 51> C  -24.393   29.696   45.116
| 52> C  -25.099   29.177   43.838
| 53> O  -25.387   27.746   44.069
| 54> H  -25.352   26.532   45.744
| 55> O  -26.164   28.880   46.760
| 56> H  -24.034   28.591   47.003
| 57> H  -24.727   30.699   45.400
| 58> H  -23.306   29.734   44.970
| 59> H  -24.474   29.278   42.944
| 60> H  -26.055   29.675   43.659
| 61> H  -26.898   28.919   45.947
| 62> *
| 63>
| 64>                          ****END OF INPUT****
 Total Charge           Charge          ....    0
 Multiplicity           Mult            ....    1
 Number of Electrons    NEL             ....  102
FINAL SINGLE POINT ENERGY      -652.832878178445
FINAL SINGLE POINT ENERGY      -652.855867779343
FINAL SINGLE POINT ENERGY      -652.859723780463
FINAL SINGLE POINT ENERGY      -652.860390838385
FINAL SINGLE POINT ENERGY      -652.860498512713
FINAL SINGLE POINT ENERGY      -652.860512995008
                    ***********************HURRAY********************

CARTESIAN COORDINATES (ANGSTROEM)
---------------------------------
  C    -21.130593   26.236186   46.201011
  C    -20.337281   27.507174   45.900632
  C    -20.410461   28.262170   47.253197
  C    -20.367695   27.114126   48.283012
  O    -20.728272   25.885393   47.529663
  H    -20.906560   25.384332   45.550489
  H    -19.303644   27.227875   45.666524
  H    -20.723950   28.091904   45.062018
  H    -19.585051   28.968812   47.381688
  H    -21.350881   28.816179   47.326232
  H    -21.079203   27.240619   49.102508
  H    -19.367021   26.946941   48.691792
  C    -23.226851   26.826432   44.992200
  H    -22.657425   27.595095   44.452253
  H    -23.329948   25.956626   44.329136
  O    -22.573831   26.454649   46.236401
  C    -24.615269   27.357804   45.348707
  C    -24.631779   28.626257   46.213033
  C    -24.365429   29.729481   45.156102
  C    -25.098463   29.198465   43.899001
  O    -25.315808   27.747438   44.119928
  H    -25.199834   26.562739   45.818969
  O    -25.926356   28.800552   46.851616
  H    -23.904422   28.598062   47.022175
  H    -24.751823   30.692391   45.498106
  H    -23.289816   29.838160   44.976092
  H    -24.521720   29.335776   42.979116
  H    -26.083823   29.654358   43.763302
  H    -26.635790   28.584002   46.210097

 Multiplicity           Mult            ....    1
 Number of Electrons    NEL             ....  102
 Basis Dimension        Dim             ....  149

ORBITAL ENERGIES
----------------

  NO   OCC          E(Eh)            E(eV)
   0   2.0000     -19.147258      -521.0234
   1   2.0000     -19.145725      -520.9817
   2   2.0000     -19.143819      -520.9298
   3   2.0000     -19.136393      -520.7277
   4   2.0000     -10.284307      -279.8502
   5   2.0000     -10.238038      -278.5912
   6   2.0000     -10.234858      -278.5046
   7   2.0000     -10.234551      -278.4963
   8   2.0000     -10.234390      -278.4919
   9   2.0000     -10.228520      -278.3322
  10   2.0000     -10.194112      -277.3959
  11   2.0000     -10.193016      -277.3661
  12   2.0000     -10.190975      -277.3105
  13   2.0000      -1.057600       -28.7787
  14   2.0000      -1.038378       -28.2557
  15   2.0000      -1.006151       -27.3788
  16   2.0000      -0.998475       -27.1699
  17   2.0000      -0.792098       -21.5541
  18   2.0000      -0.782478       -21.2923
  19   2.0000      -0.771104       -20.9828
  20   2.0000      -0.734341       -19.9824
  21   2.0000      -0.679350       -18.4861
  22   2.0000      -0.606693       -16.5090
  23   2.0000      -0.606365       -16.5000
  24   2.0000      -0.593185       -16.1414
  25   2.0000      -0.582774       -15.8581
  26   2.0000      -0.527834       -14.3631
  27   2.0000      -0.517020       -14.0688
  28   2.0000      -0.502191       -13.6653
  29   2.0000      -0.495310       -13.4781
  30   2.0000      -0.476309       -12.9610
  31   2.0000      -0.457394       -12.4463
  32   2.0000      -0.453859       -12.3501
  33   2.0000      -0.445479       -12.1221
  34   2.0000      -0.427295       -11.6273
  35   2.0000      -0.417431       -11.3589
  36   2.0000      -0.406442       -11.0599
  37   2.0000      -0.394955       -10.7473
  38   2.0000      -0.380449       -10.3525
  39   2.0000      -0.370626       -10.0852
  40   2.0000      -0.365908        -9.9569
  41   2.0000      -0.360441        -9.8081
  42   2.0000      -0.356027        -9.6880
  43   2.0000      -0.334176        -9.0934
  44   2.0000      -0.318310        -8.6617
  45   2.0000      -0.310147        -8.4395
  46   2.0000      -0.304443        -8.2843
  47   2.0000      -0.273009        -7.4290
  48   2.0000      -0.262055        -7.1309
  49   2.0000      -0.259295        -7.0558
  50   2.0000      -0.248055        -6.7499
  51   0.0000       0.053673         1.4605
  52   0.0000       0.065443         1.7808
  53   0.0000       0.089915         2.4467
  54   0.0000       0.097227         2.6457
  55   0.0000       0.101240         2.7549

MULLIKEN ATOMIC CHARGES
-----------------------
   0 C :    0.315468
   1 C :   -0.286959
   2 C :   -0.300391
   3 C :   -0.002202
   4 O :   -0.500006
   5 H :    0.143932
   6 H :    0.152416
   7 H :    0.140484
   8 H :    0.144944
   9 H :    0.156580
  10 H :    0.157782
  11 H :    0.144519
  12 C :   -0.007920
  13 H :    0.119294
  14 H :    0.149928
  15 O :   -0.519610
  16 C :    0.058488
  17 C :    0.084622
  18 C :   -0.299153
  19 C :   -0.027514
  20 O :   -0.528178
  21 H :    0.172683
  22 O :   -0.603746
  23 H :    0.176612
  24 H :    0.161341
  25 H :    0.140431
  26 H :    0.143068
  27 H :    0.149169
  28 H :    0.363917
Sum of atomic charges:   -0.0000000

LOEWDIN ATOMIC CHARGES
----------------------
   0 C :    0.183545
   1 C :   -0.232887
   2 C :   -0.216858
   3 C :   -0.025005
   4 O :   -0.300362
   5 H :    0.098121
   6 H :    0.118605
   7 H :    0.111477
   8 H :    0.115724
   9 H :    0.113004
  10 H :    0.111256
  11 H :    0.103995
  12 C :   -0.042200
  13 H :    0.087038
  14 H :    0.105033
  15 O :   -0.335536
  16 C :    0.019836
  17 C :    0.036970
  18 C :   -0.242017
  19 C :   -0.037616
  20 O :   -0.330287
  21 H :    0.121664
  22 O :   -0.413764
  23 H :    0.124576
  24 H :    0.126790
  25 H :    0.110137
  26 H :    0.102515
  27 H :    0.103937
  28 H :    0.282310

  Mayer bond orders larger than 0.100000
B(  0-C ,  1-C ) :   0.9279 B(  0-C ,  4-O ) :   0.9408 B(  0-C ,  5-H ) :   0.9217
B(  0-C , 15-O ) :   0.8257 B(  1-C ,  2-C ) :   0.9506 B(  1-C ,  6-H ) :   0.9334
B(  1-C ,  7-H ) :   0.9301 B(  2-C ,  3-C ) :   0.9550 B(  2-C ,  8-H ) :   0.9447
B(  2-C ,  9-H ) :   0.9416 B(  3-C ,  4-O ) :   0.8345 B(  3-C , 10-H ) :   0.9339
B(  3-C , 11-H ) :   0.9394 B( 12-C , 13-H ) :   0.9091 B( 12-C , 14-H ) :   0.9160
B( 12-C , 15-O ) :   0.8311 B( 12-C , 16-C ) :   0.9082 B( 16-C , 17-C ) :   0.9119
B( 16-C , 20-O ) :   0.8423 B( 16-C , 21-H ) :   0.9238 B( 17-C , 18-C ) :   0.9118
B( 17-C , 22-O ) :   0.8893 B( 17-C , 23-H ) :   0.9196 B( 18-C , 19-C ) :   0.9411
B( 18-C , 24-H ) :   0.9382 B( 18-C , 25-H ) :   0.9349 B( 19-C , 20-O ) :   0.8443
B( 19-C , 26-H ) :   0.9361 B( 19-C , 27-H ) :   0.9377 B( 22-O , 28-H ) :   0.7948

FINAL SINGLE POINT ENERGY      -652.860516813468

DIPOLE MOMENT
-------------
                                X             Y             Z
Electronic contribution:     -4.11743      -5.15810       1.16942
Nuclear contribution   :      5.06566       6.31933      -2.06999
                        -----------------------------------------
Total Dipole Moment    :      0.94822       1.16122      -0.90057
                        -----------------------------------------
Magnitude (a.u.)       :      1.74888
Magnitude (Debye)      :      4.44531

Rotational constants in cm-1:     0.050637     0.013891     0.013379
Rotational constants in MHz :  1518.049687   416.454426   401.086695

                             ****ORCA TERMINATED NORMALLY****
TOTAL RUN TIME: 0 days 1 hours 11 minutes 43 seconds 708 msec
