                         Program Version 4.2.1 -  RELEASE  -
|  1> # Test redundant internal optimization
|  2> #
|  3> ! RKS B3LYP  Opt TightSCF SmallPrint
|  4>
|  5> %basis
|  6>         Basis "6-31G"
|  7> end
|  8>
|  9> %geom
| 10> Constraints
| 11> { D 4  0  19  14  90.0   C } # D for Dihedral angle
| 12> { D 0  19  14  12  105.0   C } # D for Dihedral angle
| 13> { D 0  4  3  2   C } # D for Dihedral angle
| 14> { D 4  3  2  1   C } # D for Dihedral angle
| 15> { D 3  2  1  0   C } # D for Dihedral angle
| 16> { D 2  1  0  4   C } # D for Dihedral angle
| 17> { D 1  0  4  3   C } # D for Dihedral angle
| 18> { D 14  15  16  17   C } # D for Dihedral angle
| 19> { D 15  16  17  12   C } # D for Dihedral angle
| 20> { D 16  17  12  14   C } # D for Dihedral angle
| 21> { D 17  12  14  15   C } # D for Dihedral angle
| 22> { D 12  14  15  16   C } # D for Dihedral angle
| 23> end
| 24> end
| 25>
| 26>
| 27> #%pal
| 28> #nprocs 8
| 29> #end
| 30>
| 31> * xyz 0 1
| 32> C  -21.048   26.222   46.251
| 33> C  -20.361   27.558   45.944
| 34> C  -20.329   28.222   47.341
| 35> C  -20.110   27.022   48.296
| 36> O  -20.473   25.807   47.535
| 37> H  -20.833   25.428   45.533
| 38> H  -19.344   27.382   45.576
| 39> H  -20.898   28.157   45.201
| 40> H  -19.543   28.978   47.434
| 41> H  -21.289   28.710   47.548
| 42> H  -20.733   27.082   49.195
| 43> H  -19.064   26.913   48.597
| 44> C  -23.469   28.438   45.530
| 45> H  -23.528   29.523   45.709
| 46> C  -22.892   27.702   46.744
| 47> C  -24.118   27.637   47.685
| 48> C  -25.304   27.459   46.705
| 49> O  -24.814   27.873   45.371
| 50> H  -22.935   28.258   44.596
| 51> O  -22.472   26.381   46.366
| 52> H  -22.038   28.220   47.195
| 53> H  -24.052   26.823   48.413
| 54> H  -24.216   28.577   48.242
| 55> H  -26.169   28.075   46.975
| 56> H  -25.624   26.416   46.621
| 57> *
| 58>
| 59>                          ****END OF INPUT****
 Total Charge           Charge          ....    0
 Multiplicity           Mult            ....    1
 Number of Electrons    NEL             ....   86
FINAL SINGLE POINT ENERGY      -538.357326616755
FINAL SINGLE POINT ENERGY      -538.418233933742
FINAL SINGLE POINT ENERGY      -538.422396807730
FINAL SINGLE POINT ENERGY      -538.423280978866
FINAL SINGLE POINT ENERGY      -538.423450363457
FINAL SINGLE POINT ENERGY      -538.423551792110
FINAL SINGLE POINT ENERGY      -538.423568883345
FINAL SINGLE POINT ENERGY      -538.423572004973
                    ***********************HURRAY********************

CARTESIAN COORDINATES (ANGSTROEM)
---------------------------------
  C    -21.125674   26.356933   46.415915
  C    -20.170356   27.467887   45.950364
  C    -19.838935   28.197725   47.288249
  C    -19.823253   27.027455   48.306451
  O    -20.542780   25.906090   47.661711
  H    -21.101327   25.481832   45.764595
  H    -19.271371   26.998944   45.538993
  H    -20.601638   28.122427   45.188448
  H    -18.872158   28.709834   47.247585
  H    -20.592186   28.948475   47.538454
  H    -20.315310   27.274383   49.252280
  H    -18.808595   26.676514   48.515716
  C    -23.701632   28.590921   45.594737
  H    -23.944867   29.643215   45.811108
  C    -23.138651   27.904337   46.838683
  C    -24.422924   27.595316   47.634207
  C    -25.456307   27.271916   46.529975
  O    -24.904385   27.825955   45.271270
  H    -23.041138   28.540228   44.726611
  O    -22.540022   26.619399   46.491085
  H    -22.452287   28.538077   47.404523
  H    -24.255972   26.763771   48.322089
  H    -24.722363   28.478822   48.210995
  H    -26.434570   27.725844   46.721029
  H    -25.577300   26.196700   46.377929

 Multiplicity           Mult            ....    1
 Number of Electrons    NEL             ....   86
 Basis Dimension        Dim             ....  127

ORBITAL ENERGIES
----------------

  NO   OCC          E(Eh)            E(eV)
   0   2.0000     -19.140834      -520.8486
   1   2.0000     -19.139793      -520.8202
   2   2.0000     -19.126725      -520.4646
   3   2.0000     -10.279408      -279.7169
   4   2.0000     -10.242844      -278.7220
   5   2.0000     -10.230285      -278.3802
   6   2.0000     -10.223486      -278.1952
   7   2.0000     -10.217351      -278.0282
   8   2.0000     -10.197545      -277.4893
   9   2.0000     -10.195911      -277.4449
  10   2.0000     -10.183863      -277.1170
  11   2.0000      -1.050684       -28.5906
  12   2.0000      -1.014054       -27.5938
  13   2.0000      -0.990590       -26.9553
  14   2.0000      -0.791895       -21.5486
  15   2.0000      -0.786301       -21.3964
  16   2.0000      -0.739521       -20.1234
  17   2.0000      -0.725377       -19.7385
  18   2.0000      -0.622460       -16.9380
  19   2.0000      -0.607831       -16.5399
  20   2.0000      -0.596554       -16.2330
  21   2.0000      -0.565921       -15.3995
  22   2.0000      -0.524856       -14.2821
  23   2.0000      -0.505255       -13.7487
  24   2.0000      -0.485872       -13.2212
  25   2.0000      -0.482594       -13.1320
  26   2.0000      -0.453401       -12.3377
  27   2.0000      -0.446517       -12.1503
  28   2.0000      -0.429307       -11.6820
  29   2.0000      -0.419639       -11.4190
  30   2.0000      -0.413411       -11.2495
  31   2.0000      -0.389102       -10.5880
  32   2.0000      -0.371936       -10.1209
  33   2.0000      -0.369133       -10.0446
  34   2.0000      -0.365010        -9.9324
  35   2.0000      -0.362655        -9.8683
  36   2.0000      -0.345630        -9.4051
  37   2.0000      -0.314851        -8.5675
  38   2.0000      -0.304502        -8.2859
  39   2.0000      -0.292125        -7.9491
  40   2.0000      -0.267341        -7.2747
  41   2.0000      -0.253393        -6.8952
  42   2.0000      -0.232359        -6.3228
  43   0.0000       0.064766         1.7624
  44   0.0000       0.087948         2.3932
  45   0.0000       0.092579         2.5192
  46   0.0000       0.108888         2.9630
  47   0.0000       0.112478         3.0607

MULLIKEN ATOMIC CHARGES
-----------------------
   0 C :    0.306721
   1 C :   -0.291824
   2 C :   -0.315736
   3 C :   -0.006859
   4 O :   -0.499693
   5 H :    0.168003
   6 H :    0.160423
   7 H :    0.148486
   8 H :    0.146438
   9 H :    0.148110
  10 H :    0.143159
  11 H :    0.147751
  12 C :    0.008282
  13 H :    0.120495
  14 C :    0.050881
  15 C :   -0.283837
  16 C :    0.003532
  17 O :   -0.518190
  18 H :    0.154380
  19 O :   -0.516309
  20 H :    0.127333
  21 H :    0.171126
  22 H :    0.135899
  23 H :    0.132206
  24 H :    0.159224
Sum of atomic charges:   -0.0000000

LOEWDIN ATOMIC CHARGES
----------------------
   0 C :    0.176422
   1 C :   -0.230650
   2 C :   -0.223888
   3 C :   -0.033276
   4 O :   -0.320518
   5 H :    0.113373
   6 H :    0.125086
   7 H :    0.116599
   8 H :    0.116189
   9 H :    0.105950
  10 H :    0.102293
  11 H :    0.104964
  12 C :   -0.043763
  13 H :    0.089621
  14 C :    0.034116
  15 C :   -0.224762
  16 C :   -0.026804
  17 O :   -0.328817
  18 H :    0.113298
  19 O :   -0.313282
  20 H :    0.097563
  21 H :    0.132126
  22 H :    0.109410
  23 H :    0.097320
  24 H :    0.111430

  Mayer bond orders larger than 0.100000
B(  0-C ,  1-C ) :   0.9198 B(  0-C ,  4-O ) :   0.8999 B(  0-C ,  5-H ) :   0.9351
B(  0-C , 19-O ) :   0.9103 B(  1-C ,  2-C ) :   0.9541 B(  1-C ,  6-H ) :   0.9349
B(  1-C ,  7-H ) :   0.9331 B(  2-C ,  3-C ) :   0.9461 B(  2-C ,  8-H ) :   0.9443
B(  2-C ,  9-H ) :   0.9355 B(  3-C ,  4-O ) :   0.8517 B(  3-C , 10-H ) :   0.9343
B(  3-C , 11-H ) :   0.9387 B( 12-C , 13-H ) :   0.9100 B( 12-C , 14-C ) :   0.9219
B( 12-C , 17-O ) :   0.8765 B( 12-C , 18-H ) :   0.9319 B( 14-C , 15-C ) :   0.9520
B( 14-C , 19-O ) :   0.8218 B( 14-C , 20-H ) :   0.9055 B( 15-C , 16-C ) :   0.9490
B( 15-C , 21-H ) :   0.9358 B( 15-C , 22-H ) :   0.9411 B( 16-C , 17-O ) :   0.8525
B( 16-C , 23-H ) :   0.9337 B( 16-C , 24-H ) :   0.9354

FINAL SINGLE POINT ENERGY      -538.423571240172

DIPOLE MOMENT
-------------
                                X             Y             Z
Electronic contribution:     -1.74140      -3.86228      -1.73781
Nuclear contribution   :      2.59711       5.06636       2.34091
                        -----------------------------------------
Total Dipole Moment    :      0.85572       1.20408       0.60310
                        -----------------------------------------
Magnitude (a.u.)       :      1.59555
Magnitude (Debye)      :      4.05557

Rotational constants in cm-1:     0.081421     0.021193     0.020088
Rotational constants in MHz :  2440.946416   635.359802   602.231392

                             ****ORCA TERMINATED NORMALLY****
TOTAL RUN TIME: 0 days 0 hours 9 minutes 40 seconds 34 msec
