                         Program Version 4.2.0 -  RELEASE  -
|  1> # Test redundant internal optimization
|  2> #
|  3> ! RKS B3LYP  Opt TightSCF SmallPrint
|  4>
|  5> %basis
|  6>         Basis "6-31G"
|  7> end
|  8>
|  9> %geom
| 10> Constraints
| 11> { D 4  0  15  12  75.0   C } # D for Dihedral angle
| 12> { D 0  15  12  16  135.0   C } # D for Dihedral angle
| 13> { D 0  4  3  2   C } # D for Dihedral angle
| 14> { D 4  3  2  1   C } # D for Dihedral angle
| 15> { D 3  2  1  0   C } # D for Dihedral angle
| 16> { D 2  1  0  4   C } # D for Dihedral angle
| 17> { D 1  0  4  3   C } # D for Dihedral angle
| 18> { D 16  20  19  18   C } # D for Dihedral angle
| 19> { D 20  19  18  17   C } # D for Dihedral angle
| 20> { D 19  18  17  16   C } # D for Dihedral angle
| 21> { D 18  17  16  20   C } # D for Dihedral angle
| 22> { D 17  16  20  19   C } # D for Dihedral angle
| 23> { D 15  12  16  20   C } # D for Dihedral angle
| 24> end
| 25> end
| 26>
| 27>
| 28> #%pal
| 29> #nprocs 8
| 30> #end
| 31>
| 32> * xyz 0 1
| 33> C  -21.048   26.222   46.251
| 34> C  -20.361   27.558   45.944
| 35> C  -20.329   28.222   47.341
| 36> C  -20.110   27.022   48.296
| 37> O  -20.473   25.807   47.535
| 38> H  -20.833   25.428   45.533
| 39> H  -19.344   27.382   45.576
| 40> H  -20.898   28.157   45.201
| 41> H  -19.543   28.978   47.434
| 42> H  -21.289   28.710   47.548
| 43> H  -20.733   27.082   49.195
| 44> H  -19.064   26.913   48.597
| 45> C  -23.049   27.675   47.122
| 46> H  -23.391   27.403   48.129
| 47> H  -22.217   28.383   47.222
| 48> O  -22.586   26.394   46.375
| 49> C  -24.210   28.408   46.394
| 50> C  -24.562   29.725   47.094
| 51> C  -23.443   30.662   46.582
| 52> C  -23.210   30.172   45.132
| 53> O  -23.793   28.816   45.048
| 54> H  -25.049   27.720   46.275
| 55> O  -25.955   30.224   46.621
| 56> H  -24.579   29.640   48.186
| 57> H  -23.722   31.720   46.625
| 58> H  -22.536   30.530   47.185
| 59> H  -22.146   30.121   44.872
| 60> H  -23.726   30.792   44.393
| 61> H  -25.961   30.317   45.529
| 62> *
| 63>
| 64>                          ****END OF INPUT****
 Total Charge           Charge          ....    0
 Multiplicity           Mult            ....    1
 Number of Electrons    NEL             ....  102
FINAL SINGLE POINT ENERGY      -652.781148858301
FINAL SINGLE POINT ENERGY      -652.826350576393
FINAL SINGLE POINT ENERGY      -652.847448028681
FINAL SINGLE POINT ENERGY      -652.851990950581
FINAL SINGLE POINT ENERGY      -652.852700258386
FINAL SINGLE POINT ENERGY      -652.852874373693
FINAL SINGLE POINT ENERGY      -652.852908820637
FINAL SINGLE POINT ENERGY      -652.852918480925
FINAL SINGLE POINT ENERGY      -652.852917994959
                    ***********************HURRAY********************

CARTESIAN COORDINATES (ANGSTROEM)
---------------------------------
  C    -21.220492   26.353945   46.395398
  C    -20.228957   27.448172   45.967600
  C    -19.806101   28.060234   47.337500
  C    -19.808864   26.819510   48.269558
  O    -20.611248   25.783846   47.579968
  H    -21.269216   25.533182   45.678088
  H    -19.372984   26.973011   45.478675
  H    -20.681619   28.166499   45.279285
  H    -18.815203   28.524456   47.293368
  H    -20.506229   28.827538   47.675950
  H    -20.247723   27.019682   49.252231
  H    -18.805479   26.406074   48.407244
  C    -23.132712   27.834900   47.236568
  H    -23.586861   27.488430   48.174103
  H    -22.354476   28.562641   47.478793
  O    -22.610932   26.688868   46.516139
  C    -24.194971   28.486044   46.351597
  C    -24.838961   29.750940   46.939016
  C    -23.795838   30.837239   46.567899
  C    -23.269412   30.363892   45.190650
  O    -23.633351   28.929788   45.069903
  H    -24.949108   27.733169   46.105870
  O    -26.129284   30.011781   46.323626
  H    -25.036604   29.691600   48.010554
  H    -24.265985   31.823071   46.530429
  H    -22.994171   30.867990   47.314842
  H    -22.183948   30.466828   45.093653
  H    -23.744285   30.888945   44.356496
  H    -26.064986   29.840723   45.359995

 Multiplicity           Mult            ....    1
 Number of Electrons    NEL             ....  102
 Basis Dimension        Dim             ....  149

ORBITAL ENERGIES
----------------

  NO   OCC          E(Eh)            E(eV)
   0   2.0000     -19.146338      -520.9984
   1   2.0000     -19.141545      -520.8679
   2   2.0000     -19.140537      -520.8405
   3   2.0000     -19.138685      -520.7901
   4   2.0000     -10.276239      -279.6307
   5   2.0000     -10.247074      -278.8371
   6   2.0000     -10.235995      -278.5356
   7   2.0000     -10.235748      -278.5289
   8   2.0000     -10.235402      -278.5194
   9   2.0000     -10.229247      -278.3520
  10   2.0000     -10.195467      -277.4328
  11   2.0000     -10.195306      -277.4284
  12   2.0000     -10.189349      -277.2663
  13   2.0000      -1.050184       -28.5770
  14   2.0000      -1.038716       -28.2649
  15   2.0000      -1.009925       -27.4815
  16   2.0000      -0.994328       -27.0570
  17   2.0000      -0.790331       -21.5060
  18   2.0000      -0.787400       -21.4263
  19   2.0000      -0.774799       -21.0833
  20   2.0000      -0.733717       -19.9655
  21   2.0000      -0.682138       -18.5619
  22   2.0000      -0.609143       -16.5756
  23   2.0000      -0.605009       -16.4631
  24   2.0000      -0.601149       -16.3581
  25   2.0000      -0.578360       -15.7380
  26   2.0000      -0.528534       -14.3822
  27   2.0000      -0.508593       -13.8395
  28   2.0000      -0.505049       -13.7431
  29   2.0000      -0.491032       -13.3616
  30   2.0000      -0.479717       -13.0538
  31   2.0000      -0.462469       -12.5844
  32   2.0000      -0.456121       -12.4117
  33   2.0000      -0.437808       -11.9134
  34   2.0000      -0.429708       -11.6930
  35   2.0000      -0.416124       -11.3233
  36   2.0000      -0.406385       -11.0583
  37   2.0000      -0.398398       -10.8410
  38   2.0000      -0.382744       -10.4150
  39   2.0000      -0.376268       -10.2388
  40   2.0000      -0.365475        -9.9451
  41   2.0000      -0.359778        -9.7900
  42   2.0000      -0.350424        -9.5355
  43   2.0000      -0.334657        -9.1065
  44   2.0000      -0.314518        -8.5585
  45   2.0000      -0.310990        -8.4625
  46   2.0000      -0.299100        -8.1389
  47   2.0000      -0.274621        -7.4728
  48   2.0000      -0.264061        -7.1855
  49   2.0000      -0.257732        -7.0132
  50   2.0000      -0.243545        -6.6272
  51   0.0000       0.048621         1.3231
  52   0.0000       0.074470         2.0264
  53   0.0000       0.081396         2.2149
  54   0.0000       0.097815         2.6617
  55   0.0000       0.100831         2.7438

MULLIKEN ATOMIC CHARGES
-----------------------
   0 C :    0.307501
   1 C :   -0.289122
   2 C :   -0.318176
   3 C :   -0.008649
   4 O :   -0.504136
   5 H :    0.169497
   6 H :    0.156462
   7 H :    0.165642
   8 H :    0.144096
   9 H :    0.142817
  10 H :    0.142379
  11 H :    0.148357
  12 C :   -0.002279
  13 H :    0.144923
  14 H :    0.119717
  15 O :   -0.513468
  16 C :    0.069660
  17 C :    0.075742
  18 C :   -0.300590
  19 C :   -0.031745
  20 O :   -0.512247
  21 H :    0.173489
  22 O :   -0.599548
  23 H :    0.153828
  24 H :    0.165436
  25 H :    0.142399
  26 H :    0.142231
  27 H :    0.149516
  28 H :    0.366268
Sum of atomic charges:   -0.0000000

LOEWDIN ATOMIC CHARGES
----------------------
   0 C :    0.178036
   1 C :   -0.230872
   2 C :   -0.224927
   3 C :   -0.034086
   4 O :   -0.323003
   5 H :    0.115156
   6 H :    0.123039
   7 H :    0.125114
   8 H :    0.114692
   9 H :    0.102931
  10 H :    0.101443
  11 H :    0.104974
  12 C :   -0.040926
  13 H :    0.107079
  14 H :    0.092837
  15 O :   -0.309409
  16 C :    0.015289
  17 C :    0.034494
  18 C :   -0.243034
  19 C :   -0.040193
  20 O :   -0.323751
  21 H :    0.122766
  22 O :   -0.412343
  23 H :    0.116285
  24 H :    0.128117
  25 H :    0.111093
  26 H :    0.100705
  27 H :    0.104267
  28 H :    0.284228

  Mayer bond orders larger than 0.100000
B(  0-C ,  1-C ) :   0.9178 B(  0-C ,  4-O ) :   0.8963 B(  0-C ,  5-H ) :   0.9359
B(  0-C , 15-O ) :   0.9058 B(  1-C ,  2-C ) :   0.9554 B(  1-C ,  6-H ) :   0.9353
B(  1-C ,  7-H ) :   0.9287 B(  2-C ,  3-C ) :   0.9460 B(  2-C ,  8-H ) :   0.9447
B(  2-C ,  9-H ) :   0.9364 B(  3-C ,  4-O ) :   0.8522 B(  3-C , 10-H ) :   0.9341
B(  3-C , 11-H ) :   0.9386 B( 12-C , 13-H ) :   0.9194 B( 12-C , 14-H ) :   0.9039
B( 12-C , 15-O ) :   0.8416 B( 12-C , 16-C ) :   0.8989 B( 16-C , 17-C ) :   0.8978
B( 16-C , 20-O ) :   0.8608 B( 16-C , 21-H ) :   0.9224 B( 17-C , 18-C ) :   0.9100
B( 17-C , 22-O ) :   0.8949 B( 17-C , 23-H ) :   0.9324 B( 18-C , 19-C ) :   0.9423
B( 18-C , 24-H ) :   0.9368 B( 18-C , 25-H ) :   0.9340 B( 19-C , 20-O ) :   0.8543
B( 19-C , 26-H ) :   0.9323 B( 19-C , 27-H ) :   0.9377 B( 22-O , 28-H ) :   0.7935

FINAL SINGLE POINT ENERGY      -652.852916023853

DIPOLE MOMENT
-------------
                                X             Y             Z
Electronic contribution:     -4.97757      -4.82853      -1.73638
Nuclear contribution   :      6.05129       6.21095       1.94995
                        -----------------------------------------
Total Dipole Moment    :      1.07372       1.38241       0.21357
                        -----------------------------------------
Magnitude (a.u.)       :      1.76339
Magnitude (Debye)      :      4.48218

Rotational constants in cm-1:     0.056936     0.013744     0.013110
Rotational constants in MHz :  1706.884106   412.048365   393.030471

                             ****ORCA TERMINATED NORMALLY****
TOTAL RUN TIME: 0 days 0 hours 28 minutes 27 seconds 43 msec
