                         Program Version 4.2.0 -  RELEASE  -
|  1> # Test redundant internal optimization
|  2> #
|  3> ! RKS B3LYP  Opt TightSCF SmallPrint
|  4>
|  5> %basis
|  6>         Basis "6-31G"
|  7> end
|  8>
|  9> %geom
| 10> Constraints
| 11> { D 4  0  15  12  60.0   C } # D for Dihedral angle
| 12> { D 0  15  12  16  90.0   C } # D for Dihedral angle
| 13> { D 0  4  3  2   C } # D for Dihedral angle
| 14> { D 4  3  2  1   C } # D for Dihedral angle
| 15> { D 3  2  1  0   C } # D for Dihedral angle
| 16> { D 2  1  0  4   C } # D for Dihedral angle
| 17> { D 1  0  4  3   C } # D for Dihedral angle
| 18> { D 16  20  19  18   C } # D for Dihedral angle
| 19> { D 20  19  18  17   C } # D for Dihedral angle
| 20> { D 19  18  17  16   C } # D for Dihedral angle
| 21> { D 18  17  16  20   C } # D for Dihedral angle
| 22> { D 17  16  20  19   C } # D for Dihedral angle
| 23> { D 15  12  16  20   C } # D for Dihedral angle
| 24> end
| 25> end
| 26>
| 27>
| 28> #%pal
| 29> #nprocs 8
| 30> #end
| 31>
| 32> * xyz 0 1
| 33> C  -21.048   26.222   46.251
| 34> C  -20.361   27.558   45.944
| 35> C  -20.329   28.222   47.341
| 36> C  -20.110   27.022   48.296
| 37> O  -20.473   25.807   47.535
| 38> H  -20.833   25.428   45.533
| 39> H  -19.344   27.382   45.576
| 40> H  -20.898   28.157   45.201
| 41> H  -19.543   28.978   47.434
| 42> H  -21.289   28.710   47.548
| 43> H  -20.733   27.082   49.195
| 44> H  -19.064   26.913   48.597
| 45> C  -23.051   27.452   47.413
| 46> H  -24.022   27.151   47.826
| 47> H  -22.332   27.519   48.241
| 48> O  -22.586   26.394   46.375
| 49> C  -23.199   28.871   46.799
| 50> C  -24.311   28.908   45.744
| 51> C  -25.579   28.989   46.627
| 52> C  -25.117   29.855   47.826
| 53> O  -23.639   29.828   47.821
| 54> H  -22.225   29.210   46.442
| 55> H  -24.212   29.807   45.126
| 56> O  -24.305   27.668   44.809
| 57> H  -26.434   29.425   46.102
| 58> H  -25.867   27.986   46.963
| 59> H  -25.480   29.471   48.785
| 60> H  -25.421   30.901   47.727
| 61> H  -24.403   26.755   45.408
| 62> *
| 63>
| 64>                          ****END OF INPUT****
 Total Charge           Charge          ....    0
 Multiplicity           Mult            ....    1
 Number of Electrons    NEL             ....  102
FINAL SINGLE POINT ENERGY      -652.801288342144
FINAL SINGLE POINT ENERGY      -652.835428695611
FINAL SINGLE POINT ENERGY      -652.853372888889
FINAL SINGLE POINT ENERGY      -652.857727127189
FINAL SINGLE POINT ENERGY      -652.859142586157
FINAL SINGLE POINT ENERGY      -652.859834127657
FINAL SINGLE POINT ENERGY      -652.860026501291
FINAL SINGLE POINT ENERGY      -652.860084839326
FINAL SINGLE POINT ENERGY      -652.860079498088
                    ***********************HURRAY********************

CARTESIAN COORDINATES (ANGSTROEM)
---------------------------------
  C    -21.196625   26.299713   46.433758
  C    -20.324471   27.455422   45.925857
  C    -19.934942   28.177591   47.250179
  C    -19.800560   26.998210   48.245361
  O    -20.518527   25.855970   47.623050
  H    -21.211511   25.447284   45.753389
  H    -19.437647   27.030824   45.444474
  H    -20.842767   28.093828   45.206078
  H    -18.998813   28.736063   47.155019
  H    -20.705642   28.881850   47.568767
  H    -20.241060   27.202783   49.225214
  H    -18.763112   26.679499   48.379675
  C    -23.187007   27.509175   47.550605
  H    -24.150037   27.082219   47.840149
  H    -22.570262   27.583366   48.451895
  O    -22.621035   26.536022   46.607576
  C    -23.370805   28.898723   46.923224
  C    -24.378687   28.942506   45.761569
  C    -25.735802   28.953730   46.522610
  C    -25.424934   29.783709   47.785273
  O    -23.935764   29.800253   47.926351
  H    -22.409357   29.325240   46.634162
  H    -24.258367   29.886545   45.220306
  O    -24.241525   27.891359   44.785062
  H    -26.535424   29.388769   45.917367
  H    -26.023825   27.924840   46.764108
  H    -25.857612   29.364621   48.698598
  H    -25.738495   30.827355   47.692458
  H    -23.793385   27.113533   45.192869

 Multiplicity           Mult            ....    1
 Number of Electrons    NEL             ....  102
 Basis Dimension        Dim             ....  149

ORBITAL ENERGIES
----------------

  NO   OCC          E(Eh)            E(eV)
   0   2.0000     -19.162264      -521.4317
   1   2.0000     -19.152711      -521.1718
   2   2.0000     -19.144812      -520.9568
   3   2.0000     -19.121380      -520.3192
   4   2.0000     -10.290380      -280.0155
   5   2.0000     -10.240070      -278.6465
   6   2.0000     -10.236987      -278.5626
   7   2.0000     -10.236794      -278.5573
   8   2.0000     -10.235336      -278.5177
   9   2.0000     -10.230653      -278.3902
  10   2.0000     -10.198876      -277.5255
  11   2.0000     -10.197773      -277.4955
  12   2.0000     -10.183427      -277.1051
  13   2.0000      -1.063150       -28.9298
  14   2.0000      -1.029374       -28.0107
  15   2.0000      -1.009029       -27.4571
  16   2.0000      -0.998005       -27.1571
  17   2.0000      -0.795926       -21.6582
  18   2.0000      -0.780133       -21.2285
  19   2.0000      -0.772584       -21.0231
  20   2.0000      -0.740553       -20.1515
  21   2.0000      -0.685618       -18.6566
  22   2.0000      -0.612352       -16.6630
  23   2.0000      -0.605245       -16.4695
  24   2.0000      -0.600984       -16.3536
  25   2.0000      -0.578915       -15.7531
  26   2.0000      -0.538371       -14.6498
  27   2.0000      -0.511063       -13.9067
  28   2.0000      -0.506517       -13.7830
  29   2.0000      -0.491224       -13.3669
  30   2.0000      -0.475183       -12.9304
  31   2.0000      -0.460491       -12.5306
  32   2.0000      -0.451450       -12.2846
  33   2.0000      -0.434570       -11.8253
  34   2.0000      -0.425962       -11.5910
  35   2.0000      -0.423375       -11.5206
  36   2.0000      -0.415429       -11.3044
  37   2.0000      -0.395045       -10.7497
  38   2.0000      -0.390852       -10.6356
  39   2.0000      -0.369844       -10.0640
  40   2.0000      -0.367678       -10.0050
  41   2.0000      -0.357174        -9.7192
  42   2.0000      -0.353138        -9.6094
  43   2.0000      -0.343353        -9.3431
  44   2.0000      -0.324413        -8.8277
  45   2.0000      -0.323845        -8.8123
  46   2.0000      -0.291947        -7.9443
  47   2.0000      -0.284559        -7.7432
  48   2.0000      -0.267970        -7.2918
  49   2.0000      -0.253648        -6.9021
  50   2.0000      -0.242325        -6.5940
  51   0.0000       0.055797         1.5183
  52   0.0000       0.068434         1.8622
  53   0.0000       0.085361         2.3228
  54   0.0000       0.093835         2.5534
  55   0.0000       0.102660         2.7935

MULLIKEN ATOMIC CHARGES
-----------------------
   0 C :    0.309417
   1 C :   -0.282013
   2 C :   -0.326875
   3 C :   -0.017540
   4 O :   -0.502775
   5 H :    0.172517
   6 H :    0.159402
   7 H :    0.160106
   8 H :    0.151947
   9 H :    0.166230
  10 H :    0.151457
  11 H :    0.152635
  12 C :   -0.047099
  13 H :    0.165060
  14 H :    0.164657
  15 O :   -0.547718
  16 C :    0.051887
  17 C :    0.118328
  18 C :   -0.308967
  19 C :   -0.018850
  20 O :   -0.523069
  21 H :    0.153295
  22 H :    0.149148
  23 O :   -0.637758
  24 H :    0.154258
  25 H :    0.148408
  26 H :    0.143379
  27 H :    0.151036
  28 H :    0.389497
Sum of atomic charges:    0.0000000

LOEWDIN ATOMIC CHARGES
----------------------
   0 C :    0.179180
   1 C :   -0.230915
   2 C :   -0.226358
   3 C :   -0.033120
   4 O :   -0.313242
   5 H :    0.116716
   6 H :    0.124594
   7 H :    0.122289
   8 H :    0.119640
   9 H :    0.115587
  10 H :    0.104853
  11 H :    0.107142
  12 C :   -0.050232
  13 H :    0.117410
  14 H :    0.114198
  15 O :   -0.330447
  16 C :    0.002999
  17 C :    0.041543
  18 C :   -0.239375
  19 C :   -0.031060
  20 O :   -0.326032
  21 H :    0.108521
  22 H :    0.107130
  23 O :   -0.431486
  24 H :    0.122534
  25 H :    0.112513
  26 H :    0.102887
  27 H :    0.106918
  28 H :    0.285615

  Mayer bond orders larger than 0.100000
B(  0-C ,  1-C ) :   0.9197 B(  0-C ,  4-O ) :   0.9217 B(  0-C ,  5-H ) :   0.9344
B(  0-C , 15-O ) :   0.8461 B(  1-C ,  2-C ) :   0.9538 B(  1-C ,  6-H ) :   0.9320
B(  1-C ,  7-H ) :   0.9301 B(  2-C ,  3-C ) :   0.9451 B(  2-C ,  8-H ) :   0.9446
B(  2-C ,  9-H ) :   0.9302 B(  3-C ,  4-O ) :   0.8354 B(  3-C , 10-H ) :   0.9320
B(  3-C , 11-H ) :   0.9386 B( 12-C , 13-H ) :   0.9366 B( 12-C , 14-H ) :   0.9219
B( 12-C , 15-O ) :   0.7989 B( 12-C , 16-C ) :   0.8791 B( 16-C , 17-C ) :   0.9057
B( 16-C , 20-O ) :   0.8525 B( 16-C , 21-H ) :   0.9186 B( 17-C , 18-C ) :   0.9000
B( 17-C , 22-H ) :   0.9335 B( 17-C , 23-O ) :   0.9336 B( 18-C , 19-C ) :   0.9389
B( 18-C , 24-H ) :   0.9443 B( 18-C , 25-H ) :   0.9425 B( 19-C , 20-O ) :   0.8291
B( 19-C , 26-H ) :   0.9345 B( 19-C , 27-H ) :   0.9383 B( 23-O , 28-H ) :   0.7279

FINAL SINGLE POINT ENERGY      -652.860077644081

DIPOLE MOMENT
-------------
                                X             Y             Z
Electronic contribution:     -0.68193      -3.07527      -0.79479
Nuclear contribution   :      1.17024       3.64927       1.18451
                        -----------------------------------------
Total Dipole Moment    :      0.48830       0.57400       0.38971
                        -----------------------------------------
Magnitude (a.u.)       :      0.84841
Magnitude (Debye)      :      2.15648

Rotational constants in cm-1:     0.051030     0.015900     0.014343
Rotational constants in MHz :  1529.837164   476.668680   429.991376

                             ****ORCA TERMINATED NORMALLY****
TOTAL RUN TIME: 0 days 1 hours 18 minutes 10 seconds 879 msec
