                         Program Version 4.2.0 -  RELEASE  -
|  1> # Test redundant internal optimization
|  2> #
|  3> ! RKS B3LYP  Opt TightSCF SmallPrint
|  4>
|  5> %basis
|  6>         Basis "6-31G"
|  7> end
|  8>
|  9> %geom
| 10> Constraints
| 11> { D 4  0  15  12  45.0   C } # D for Dihedral angle
| 12> { D 0  15  12  16  285.0   C } # D for Dihedral angle
| 13> { D 0  4  3  2   C } # D for Dihedral angle
| 14> { D 4  3  2  1   C } # D for Dihedral angle
| 15> { D 3  2  1  0   C } # D for Dihedral angle
| 16> { D 2  1  0  4   C } # D for Dihedral angle
| 17> { D 1  0  4  3   C } # D for Dihedral angle
| 18> { D 16  20  19  18   C } # D for Dihedral angle
| 19> { D 20  19  18  17   C } # D for Dihedral angle
| 20> { D 19  18  17  16   C } # D for Dihedral angle
| 21> { D 18  17  16  20   C } # D for Dihedral angle
| 22> { D 17  16  20  19   C } # D for Dihedral angle
| 23> { D 15  12  16  20   C } # D for Dihedral angle
| 24> end
| 25> end
| 26>
| 27>
| 28> #%pal
| 29> #nprocs 8
| 30> #end
| 31>
| 32> * xyz 0 1
| 33> C  -21.048   26.222   46.251
| 34> C  -20.361   27.558   45.944
| 35> C  -20.329   28.222   47.341
| 36> C  -20.110   27.022   48.296
| 37> O  -20.473   25.807   47.535
| 38> H  -20.833   25.428   45.533
| 39> H  -19.344   27.382   45.576
| 40> H  -20.898   28.157   45.201
| 41> H  -19.543   28.978   47.434
| 42> H  -21.289   28.710   47.548
| 43> H  -20.733   27.082   49.195
| 44> H  -19.064   26.913   48.597
| 45> C  -23.065   27.161   47.638
| 46> H  -22.446   28.057   47.773
| 47> H  -24.109   27.481   47.520
| 48> O  -22.586   26.394   46.375
| 49> C  -22.975   26.305   48.931
| 50> C  -23.563   27.051   50.134
| 51> C  -25.081   26.847   49.920
| 52> C  -25.162   25.424   49.313
| 53> O  -23.809   25.104   48.809
| 54> H  -21.946   25.968   49.066
| 55> O  -23.100   26.379   51.456
| 56> H  -23.277   28.108   50.166
| 57> H  -25.657   26.938   50.846
| 58> H  -25.465   27.591   49.212
| 59> H  -25.876   25.361   48.484
| 60> H  -25.416   24.665   50.058
| 61> H  -23.377   25.319   51.446
| 62> *
| 63>
| 64>                          ****END OF INPUT****
 Total Charge           Charge          ....    0
 Multiplicity           Mult            ....    1
 Number of Electrons    NEL             ....  102
FINAL SINGLE POINT ENERGY      -652.801867606822
FINAL SINGLE POINT ENERGY      -652.832443173330
FINAL SINGLE POINT ENERGY      -652.849737764675
FINAL SINGLE POINT ENERGY      -652.853051248874
FINAL SINGLE POINT ENERGY      -652.853600680636
FINAL SINGLE POINT ENERGY      -652.853689896399
FINAL SINGLE POINT ENERGY      -652.853700532957
FINAL SINGLE POINT ENERGY      -652.853701588927
                    ***********************HURRAY********************

CARTESIAN COORDINATES (ANGSTROEM)
---------------------------------
  C    -21.132328   26.338262   46.394962
  C    -20.352519   27.567903   45.905769
  C    -19.970777   28.262775   47.245855
  C    -19.728744   27.061722   48.192808
  O    -20.387258   25.892144   47.553690
  H    -21.099584   25.510691   45.684434
  H    -19.455500   27.228947   45.376428
  H    -20.944694   28.197733   45.237961
  H    -19.077656   28.888703   47.151825
  H    -20.784302   28.902809   47.599736
  H    -20.149083   27.206911   49.192821
  H    -18.668597   26.810493   48.287046
  C    -23.140080   27.184664   47.718984
  H    -22.660076   28.154109   47.914412
  H    -24.170228   27.376858   47.406597
  O    -22.557427   26.514216   46.570031
  C    -23.119891   26.340011   49.001093
  C    -23.796351   27.030361   50.194843
  C    -25.295049   26.727982   49.929698
  C    -25.257612   25.310162   49.304831
  O    -23.867694   25.089651   48.840980
  H    -22.096139   26.043751   49.231206
  O    -23.341292   26.454234   51.450431
  H    -23.581464   28.097594   50.275591
  H    -25.866580   26.770998   50.860140
  H    -25.714373   27.462745   49.233402
  H    -25.939005   25.203224   48.455049
  H    -25.484132   24.525359   50.033385
  H    -23.296565   25.478991   51.353992

 Multiplicity           Mult            ....    1
 Number of Electrons    NEL             ....  102
 Basis Dimension        Dim             ....  149

ORBITAL ENERGIES
----------------

  NO   OCC          E(Eh)            E(eV)
   0   2.0000     -19.147727      -521.0361
   1   2.0000     -19.140653      -520.8436
   2   2.0000     -19.137595      -520.7604
   3   2.0000     -19.135943      -520.7155
   4   2.0000     -10.277948      -279.6772
   5   2.0000     -10.241788      -278.6932
   6   2.0000     -10.233848      -278.4772
   7   2.0000     -10.233027      -278.4548
   8   2.0000     -10.227523      -278.3050
   9   2.0000     -10.226950      -278.2895
  10   2.0000     -10.195632      -277.4372
  11   2.0000     -10.189464      -277.2694
  12   2.0000     -10.188542      -277.2443
  13   2.0000      -1.052418       -28.6377
  14   2.0000      -1.032951       -28.1080
  15   2.0000      -1.004202       -27.3257
  16   2.0000      -0.994471       -27.0609
  17   2.0000      -0.790713       -21.5164
  18   2.0000      -0.783439       -21.3185
  19   2.0000      -0.767733       -20.8911
  20   2.0000      -0.734302       -19.9814
  21   2.0000      -0.677637       -18.4395
  22   2.0000      -0.605985       -16.4897
  23   2.0000      -0.605425       -16.4745
  24   2.0000      -0.601002       -16.3541
  25   2.0000      -0.570789       -15.5319
  26   2.0000      -0.519805       -14.1446
  27   2.0000      -0.515532       -14.0283
  28   2.0000      -0.502457       -13.6726
  29   2.0000      -0.488965       -13.3054
  30   2.0000      -0.470662       -12.8074
  31   2.0000      -0.461955       -12.5704
  32   2.0000      -0.448516       -12.2047
  33   2.0000      -0.442723       -12.0471
  34   2.0000      -0.420766       -11.4496
  35   2.0000      -0.416045       -11.3212
  36   2.0000      -0.401799       -10.9335
  37   2.0000      -0.391530       -10.6541
  38   2.0000      -0.380495       -10.3538
  39   2.0000      -0.372110       -10.1256
  40   2.0000      -0.363077        -9.8798
  41   2.0000      -0.362335        -9.8596
  42   2.0000      -0.344475        -9.3736
  43   2.0000      -0.335846        -9.1388
  44   2.0000      -0.319825        -8.7029
  45   2.0000      -0.312278        -8.4975
  46   2.0000      -0.299785        -8.1576
  47   2.0000      -0.269410        -7.3310
  48   2.0000      -0.262959        -7.1555
  49   2.0000      -0.258737        -7.0406
  50   2.0000      -0.234189        -6.3726
  51   0.0000       0.062905         1.7117
  52   0.0000       0.076109         2.0710
  53   0.0000       0.087720         2.3870
  54   0.0000       0.093059         2.5323
  55   0.0000       0.095720         2.6047

MULLIKEN ATOMIC CHARGES
-----------------------
   0 C :    0.299619
   1 C :   -0.268198
   2 C :   -0.316565
   3 C :   -0.022730
   4 O :   -0.503175
   5 H :    0.170494
   6 H :    0.152917
   7 H :    0.154186
   8 H :    0.148225
   9 H :    0.149836
  10 H :    0.144938
  11 H :    0.154556
  12 C :   -0.014298
  13 H :    0.115732
  14 H :    0.154215
  15 O :   -0.512005
  16 C :    0.053570
  17 C :    0.071421
  18 C :   -0.297614
  19 C :   -0.030795
  20 O :   -0.508039
  21 H :    0.192579
  22 O :   -0.602914
  23 H :    0.146373
  24 H :    0.162599
  25 H :    0.143114
  26 H :    0.149704
  27 H :    0.145757
  28 H :    0.366501
Sum of atomic charges:    0.0000000

LOEWDIN ATOMIC CHARGES
----------------------
   0 C :    0.177601
   1 C :   -0.226910
   2 C :   -0.223370
   3 C :   -0.037357
   4 O :   -0.318222
   5 H :    0.115226
   6 H :    0.119509
   7 H :    0.121737
   8 H :    0.117119
   9 H :    0.107685
  10 H :    0.101349
  11 H :    0.108428
  12 C :   -0.041528
  13 H :    0.088523
  14 H :    0.114307
  15 O :   -0.312640
  16 C :    0.001796
  17 C :    0.031972
  18 C :   -0.242328
  19 C :   -0.039706
  20 O :   -0.318571
  21 H :    0.128369
  22 O :   -0.415546
  23 H :    0.111548
  24 H :    0.126446
  25 H :    0.112019
  26 H :    0.105640
  27 H :    0.102369
  28 H :    0.284537

  Mayer bond orders larger than 0.100000
B(  0-C ,  1-C ) :   0.9147 B(  0-C ,  4-O ) :   0.8937 B(  0-C ,  5-H ) :   0.9356
B(  0-C , 15-O ) :   0.8922 B(  1-C ,  2-C ) :   0.9559 B(  1-C ,  6-H ) :   0.9351
B(  1-C ,  7-H ) :   0.9377 B(  2-C ,  3-C ) :   0.9476 B(  2-C ,  8-H ) :   0.9442
B(  2-C ,  9-H ) :   0.9400 B(  3-C ,  4-O ) :   0.8409 B(  3-C , 10-H ) :   0.9274
B(  3-C , 11-H ) :   0.9396 B( 12-C , 13-H ) :   0.9010 B( 12-C , 14-H ) :   0.9410
B( 12-C , 15-O ) :   0.8627 B( 12-C , 16-C ) :   0.8767 B( 16-C , 17-C ) :   0.8938
B( 16-C , 20-O ) :   0.8573 B( 16-C , 21-H ) :   0.9068 B( 17-C , 18-C ) :   0.9117
B( 17-C , 22-O ) :   0.8919 B( 17-C , 23-H ) :   0.9332 B( 18-C , 19-C ) :   0.9418
B( 18-C , 24-H ) :   0.9371 B( 18-C , 25-H ) :   0.9339 B( 19-C , 20-O ) :   0.8547
B( 19-C , 26-H ) :   0.9333 B( 19-C , 27-H ) :   0.9374 B( 22-O , 28-H ) :   0.7932

FINAL SINGLE POINT ENERGY      -652.853687445439

DIPOLE MOMENT
-------------
                                X             Y             Z
Electronic contribution:     -0.37733      -4.92553       0.13399
Nuclear contribution   :      0.38280       6.13859      -0.33489
                        -----------------------------------------
Total Dipole Moment    :      0.00547       1.21306      -0.20090
                        -----------------------------------------
Magnitude (a.u.)       :      1.22959
Magnitude (Debye)      :      3.12538

Rotational constants in cm-1:     0.051922     0.015353     0.013939
Rotational constants in MHz :  1556.585301   460.284493   417.878263

                             ****ORCA TERMINATED NORMALLY****
TOTAL RUN TIME: 0 days 0 hours 28 minutes 29 seconds 629 msec
