                         Program Version 4.2.0 -  RELEASE  -
|  1> # Test redundant internal optimization
|  2> #
|  3> ! RKS B3LYP  Opt TightSCF SmallPrint
|  4>
|  5> %basis
|  6>         Basis "6-31G"
|  7> end
|  8>
|  9> %geom
| 10> Constraints
| 11> { D 4  0  15  12  60.0   C } # D for Dihedral angle
| 12> { D 0  15  12  16  270.0   C } # D for Dihedral angle
| 13> { D 0  4  3  2   C } # D for Dihedral angle
| 14> { D 4  3  2  1   C } # D for Dihedral angle
| 15> { D 3  2  1  0   C } # D for Dihedral angle
| 16> { D 2  1  0  4   C } # D for Dihedral angle
| 17> { D 1  0  4  3   C } # D for Dihedral angle
| 18> { D 16  20  19  18   C } # D for Dihedral angle
| 19> { D 20  19  18  17   C } # D for Dihedral angle
| 20> { D 19  18  17  16   C } # D for Dihedral angle
| 21> { D 18  17  16  20   C } # D for Dihedral angle
| 22> { D 17  16  20  19   C } # D for Dihedral angle
| 23> { D 15  12  16  20   C } # D for Dihedral angle
| 24> end
| 25> end
| 26>
| 27>
| 28> #%pal
| 29> #nprocs 8
| 30> #end
| 31>
| 32> * xyz 0 1
| 33> C  -21.048   26.222   46.251
| 34> C  -20.361   27.558   45.944
| 35> C  -20.329   28.222   47.341
| 36> C  -20.110   27.022   48.296
| 37> O  -20.473   25.807   47.535
| 38> H  -20.833   25.428   45.533
| 39> H  -19.344   27.382   45.576
| 40> H  -20.898   28.157   45.201
| 41> H  -19.543   28.978   47.434
| 42> H  -21.289   28.710   47.548
| 43> H  -20.733   27.082   49.195
| 44> H  -19.064   26.913   48.597
| 45> C  -23.051   27.452   47.413
| 46> H  -22.296   28.245   47.484
| 47> H  -23.999   27.907   47.100
| 48> O  -22.586   26.394   46.375
| 49> C  -23.262   26.850   48.830
| 50> C  -24.241   25.670   48.794
| 51> C  -23.335   24.528   48.276
| 52> C  -21.961   24.849   48.916
| 53> O  -22.012   26.268   49.331
| 54> H  -23.541   27.648   49.520
| 55> O  -24.750   25.358   50.227
| 56> H  -25.108   25.850   48.151
| 57> H  -23.703   23.535   48.554
| 58> H  -23.269   24.566   47.182
| 59> H  -21.130   24.708   48.218
| 60> H  -21.772   24.257   49.816
| 61> H  -23.897   25.174   50.890
| 62> *
| 63>
| 64>                          ****END OF INPUT****
 Total Charge           Charge          ....    0
 Multiplicity           Mult            ....    1
 Number of Electrons    NEL             ....  102
FINAL SINGLE POINT ENERGY      -652.711637805902
FINAL SINGLE POINT ENERGY      -652.823939007251
FINAL SINGLE POINT ENERGY      -652.847392517670
FINAL SINGLE POINT ENERGY      -652.853812885609
FINAL SINGLE POINT ENERGY      -652.856625124188
FINAL SINGLE POINT ENERGY      -652.857757857504
FINAL SINGLE POINT ENERGY      -652.858171086128
FINAL SINGLE POINT ENERGY      -652.858317945953
FINAL SINGLE POINT ENERGY      -652.858360879696
FINAL SINGLE POINT ENERGY      -652.858367738273
                    ***********************HURRAY********************

CARTESIAN COORDINATES (ANGSTROEM)
---------------------------------
  C    -21.049218   26.493147   46.216904
  C    -20.329502   27.798511   45.849869
  C    -19.932074   28.358586   47.249238
  C    -19.618642   27.069451   48.048265
  O    -20.259301   25.957721   47.290440
  H    -21.015184   25.750163   45.418154
  H    -19.435980   27.556973   45.264140
  H    -20.961059   28.475337   45.268959
  H    -19.063101   29.022473   47.196050
  H    -20.751231   28.922988   47.701077
  H    -20.037761   27.070879   49.054765
  H    -18.548074   26.846678   48.077526
  C    -23.144902   27.368494   47.466355
  H    -22.595048   28.295428   47.662734
  H    -24.108688   27.649018   47.026274
  O    -22.485033   26.593977   46.422333
  C    -23.432512   26.682683   48.811347
  C    -24.390746   25.483439   48.758347
  C    -23.411932   24.310232   48.490424
  C    -22.144593   24.717269   49.278651
  O    -22.270007   26.183378   49.534093
  H    -23.877537   27.464218   49.442544
  O    -25.102833   25.335893   50.020352
  H    -25.170399   25.578245   48.002265
  H    -23.837178   23.359457   48.822009
  H    -23.197902   24.260333   47.419169
  H    -21.226683   24.551857   48.718953
  H    -22.086673   24.237053   50.261160
  H    -24.454209   25.346118   50.755604

 Multiplicity           Mult            ....    1
 Number of Electrons    NEL             ....  102
 Basis Dimension        Dim             ....  149

ORBITAL ENERGIES
----------------

  NO   OCC          E(Eh)            E(eV)
   0   2.0000     -19.146080      -520.9913
   1   2.0000     -19.145632      -520.9791
   2   2.0000     -19.138647      -520.7891
   3   2.0000     -19.131563      -520.5963
   4   2.0000     -10.281694      -279.7791
   5   2.0000     -10.235026      -278.5092
   6   2.0000     -10.232325      -278.4357
   7   2.0000     -10.231337      -278.4088
   8   2.0000     -10.223554      -278.1971
   9   2.0000     -10.212725      -277.9024
  10   2.0000     -10.191916      -277.3361
  11   2.0000     -10.190209      -277.2897
  12   2.0000     -10.173428      -276.8330
  13   2.0000      -1.051724       -28.6189
  14   2.0000      -1.028778       -27.9945
  15   2.0000      -1.000169       -27.2160
  16   2.0000      -0.995383       -27.0857
  17   2.0000      -0.788202       -21.4481
  18   2.0000      -0.777406       -21.1543
  19   2.0000      -0.762258       -20.7421
  20   2.0000      -0.733169       -19.9506
  21   2.0000      -0.675981       -18.3944
  22   2.0000      -0.605767       -16.4838
  23   2.0000      -0.601464       -16.3667
  24   2.0000      -0.592660       -16.1271
  25   2.0000      -0.563333       -15.3291
  26   2.0000      -0.522479       -14.2174
  27   2.0000      -0.507663       -13.8142
  28   2.0000      -0.495920       -13.4947
  29   2.0000      -0.486034       -13.2256
  30   2.0000      -0.466915       -12.7054
  31   2.0000      -0.458270       -12.4702
  32   2.0000      -0.444904       -12.1064
  33   2.0000      -0.428928       -11.6717
  34   2.0000      -0.426810       -11.6141
  35   2.0000      -0.413051       -11.2397
  36   2.0000      -0.398547       -10.8450
  37   2.0000      -0.385570       -10.4919
  38   2.0000      -0.380773       -10.3613
  39   2.0000      -0.363095        -9.8803
  40   2.0000      -0.357337        -9.7236
  41   2.0000      -0.356275        -9.6947
  42   2.0000      -0.345711        -9.4073
  43   2.0000      -0.328218        -8.9313
  44   2.0000      -0.314922        -8.5695
  45   2.0000      -0.308271        -8.3885
  46   2.0000      -0.301662        -8.2086
  47   2.0000      -0.270803        -7.3689
  48   2.0000      -0.264145        -7.1878
  49   2.0000      -0.256048        -6.9674
  50   2.0000      -0.234235        -6.3739
  51   0.0000       0.068110         1.8534
  52   0.0000       0.080086         2.1793
  53   0.0000       0.093350         2.5402
  54   0.0000       0.101661         2.7663
  55   0.0000       0.107201         2.9171

MULLIKEN ATOMIC CHARGES
-----------------------
   0 C :    0.311873
   1 C :   -0.279343
   2 C :   -0.319391
   3 C :   -0.017183
   4 O :   -0.511108
   5 H :    0.164890
   6 H :    0.154541
   7 H :    0.150937
   8 H :    0.146110
   9 H :    0.152673
  10 H :    0.181715
  11 H :    0.143185
  12 C :   -0.018750
  13 H :    0.131550
  14 H :    0.150317
  15 O :   -0.532617
  16 C :    0.088927
  17 C :    0.074694
  18 C :   -0.294442
  19 C :   -0.034080
  20 O :   -0.537065
  21 H :    0.148726
  22 O :   -0.604402
  23 H :    0.152915
  24 H :    0.146622
  25 H :    0.170364
  26 H :    0.188351
  27 H :    0.129055
  28 H :    0.360936
Sum of atomic charges:   -0.0000000

LOEWDIN ATOMIC CHARGES
----------------------
   0 C :    0.176695
   1 C :   -0.228043
   2 C :   -0.221779
   3 C :   -0.036388
   4 O :   -0.313930
   5 H :    0.112185
   6 H :    0.120560
   7 H :    0.119467
   8 H :    0.115751
   9 H :    0.108671
  10 H :    0.121893
  11 H :    0.102609
  12 C :   -0.040902
  13 H :    0.096518
  14 H :    0.115092
  15 O :   -0.332025
  16 C :    0.005548
  17 C :    0.036449
  18 C :   -0.239158
  19 C :   -0.042330
  20 O :   -0.333344
  21 H :    0.113444
  22 O :   -0.418054
  23 H :    0.116096
  24 H :    0.118785
  25 H :    0.127500
  26 H :    0.125120
  27 H :    0.092771
  28 H :    0.280800

  Mayer bond orders larger than 0.100000
B(  0-C ,  1-C ) :   0.9208 B(  0-C ,  4-O ) :   0.9069 B(  0-C ,  5-H ) :   0.9372
B(  0-C , 15-O ) :   0.8766 B(  1-C ,  2-C ) :   0.9568 B(  1-C ,  6-H ) :   0.9353
B(  1-C ,  7-H ) :   0.9378 B(  2-C ,  3-C ) :   0.9528 B(  2-C ,  8-H ) :   0.9443
B(  2-C ,  9-H ) :   0.9366 B(  3-C ,  4-O ) :   0.8172 B(  3-C , 10-H ) :   0.9144
B(  3-C , 11-H ) :   0.9390 B( 12-C , 13-H ) :   0.9107 B( 12-C , 14-H ) :   0.9285
B( 12-C , 15-O ) :   0.8627 B( 12-C , 16-C ) :   0.8815 B( 16-C , 17-C ) :   0.9066
B( 16-C , 20-O ) :   0.8741 B( 16-C , 21-H ) :   0.9147 B( 17-C , 18-C ) :   0.9252
B( 17-C , 22-O ) :   0.8899 B( 17-C , 23-H ) :   0.9353 B( 18-C , 19-C ) :   0.9505
B( 18-C , 24-H ) :   0.9382 B( 18-C , 25-H ) :   0.9221 B( 19-C , 20-O ) :   0.8176
B( 19-C , 26-H ) :   0.9072 B( 19-C , 27-H ) :   0.9381 B( 22-O , 28-H ) :   0.7976

FINAL SINGLE POINT ENERGY      -652.858366527127

DIPOLE MOMENT
-------------
                                X             Y             Z
Electronic contribution:     -2.74668      -2.24633       1.13369
Nuclear contribution   :      3.55624       2.98432      -1.48068
                        -----------------------------------------
Total Dipole Moment    :      0.80956       0.73799      -0.34700
                        -----------------------------------------
Magnitude (a.u.)       :      1.14910
Magnitude (Debye)      :      2.92078

Rotational constants in cm-1:     0.054784     0.017349     0.016362
Rotational constants in MHz :  1642.373008   520.105027   490.526832

                             ****ORCA TERMINATED NORMALLY****
TOTAL RUN TIME: 0 days 1 hours 29 minutes 41 seconds 990 msec
