                         Program Version 4.2.1 -  RELEASE  -
|  1> # Test redundant internal optimization
|  2> #
|  3> ! RKS B3LYP  Opt TightSCF SmallPrint
|  4>
|  5> %basis
|  6>         Basis "6-31G"
|  7> end
|  8>
|  9> %geom
| 10> Constraints
| 11> { D 4  0  19  14  195.0   C } # D for Dihedral angle
| 12> { D 0  19  14  12  150.0   C } # D for Dihedral angle
| 13> { D 0  4  3  2   C } # D for Dihedral angle
| 14> { D 4  3  2  1   C } # D for Dihedral angle
| 15> { D 3  2  1  0   C } # D for Dihedral angle
| 16> { D 2  1  0  4   C } # D for Dihedral angle
| 17> { D 1  0  4  3   C } # D for Dihedral angle
| 18> { D 14  15  16  17   C } # D for Dihedral angle
| 19> { D 15  16  17  12   C } # D for Dihedral angle
| 20> { D 16  17  12  14   C } # D for Dihedral angle
| 21> { D 17  12  14  15   C } # D for Dihedral angle
| 22> { D 12  14  15  16   C } # D for Dihedral angle
| 23> end
| 24> end
| 25>
| 26>
| 27> #%pal
| 28> #nprocs 8
| 29> #end
| 30>
| 31> * xyz 0 1
| 32> C  -21.048   26.222   46.251
| 33> C  -20.361   27.558   45.944
| 34> C  -20.329   28.222   47.341
| 35> C  -20.110   27.022   48.296
| 36> O  -20.473   25.807   47.535
| 37> H  -20.833   25.428   45.533
| 38> H  -19.344   27.382   45.576
| 39> H  -20.898   28.157   45.201
| 40> H  -19.543   28.978   47.434
| 41> H  -21.289   28.710   47.548
| 42> H  -20.733   27.082   49.195
| 43> H  -19.064   26.913   48.597
| 44> C  -24.581   25.885   45.256
| 45> H  -25.025   25.657   44.275
| 46> C  -23.163   26.451   45.109
| 47> C  -23.451   27.921   44.725
| 48> C  -24.731   28.253   45.532
| 49> O  -25.330   26.957   45.921
| 50> H  -24.652   25.003   45.894
| 51> O  -22.472   26.381   46.366
| 52> H  -22.567   25.924   44.356
| 53> H  -22.621   28.593   44.963
| 54> H  -23.644   27.999   43.647
| 55> H  -25.460   28.825   44.949
| 56> H  -24.512   28.796   46.457
| 57> *
| 58>
| 59>                          ****END OF INPUT****
 Total Charge           Charge          ....    0
 Multiplicity           Mult            ....    1
 Number of Electrons    NEL             ....   86
FINAL SINGLE POINT ENERGY      -538.424280755873
FINAL SINGLE POINT ENERGY      -538.428261819456
FINAL SINGLE POINT ENERGY      -538.428566876876
FINAL SINGLE POINT ENERGY      -538.428639969536
FINAL SINGLE POINT ENERGY      -538.428652226759
FINAL SINGLE POINT ENERGY      -538.428655655292
                    ***********************HURRAY********************

CARTESIAN COORDINATES (ANGSTROEM)
---------------------------------
  C    -20.985971   26.240478   46.207509
  C    -20.253330   27.558248   45.961453
  C    -20.304409   28.222991   47.360592
  C    -20.179692   27.015535   48.313499
  O    -20.521241   25.823065   47.496658
  H    -20.751981   25.443560   45.491733
  H    -19.217267   27.336074   45.677845
  H    -20.696212   28.170125   45.173233
  H    -19.505919   28.956379   47.506552
  H    -21.267021   28.724388   47.498593
  H    -20.865979   27.062562   49.162191
  H    -19.159094   26.864093   48.677013
  C    -24.570458   25.888943   45.309778
  H    -25.064111   25.626912   44.362158
  C    -23.182277   26.480628   45.055543
  C    -23.528844   27.931794   44.666380
  C    -24.756409   28.254108   45.551365
  O    -25.296404   26.954953   46.003744
  H    -24.539088   25.023383   45.971559
  O    -22.433423   26.390512   46.304684
  H    -22.641698   25.949155   44.259043
  H    -22.702249   28.624774   44.833702
  H    -23.791169   27.965950   43.601802
  H    -25.534995   28.799734   45.005854
  H    -24.484759   28.817654   46.448516

 Multiplicity           Mult            ....    1
 Number of Electrons    NEL             ....   86
 Basis Dimension        Dim             ....  127

ORBITAL ENERGIES
----------------

  NO   OCC          E(Eh)            E(eV)
   0   2.0000     -19.140526      -520.8402
   1   2.0000     -19.139204      -520.8042
   2   2.0000     -19.127109      -520.4751
   3   2.0000     -10.281447      -279.7724
   4   2.0000     -10.243248      -278.7330
   5   2.0000     -10.225066      -278.2382
   6   2.0000     -10.221661      -278.1455
   7   2.0000     -10.220239      -278.1069
   8   2.0000     -10.189646      -277.2744
   9   2.0000     -10.189497      -277.2703
  10   2.0000     -10.188414      -277.2409
  11   2.0000      -1.054246       -28.6875
  12   2.0000      -1.014457       -27.6048
  13   2.0000      -0.989393       -26.9227
  14   2.0000      -0.788955       -21.4686
  15   2.0000      -0.782532       -21.2938
  16   2.0000      -0.742973       -20.2173
  17   2.0000      -0.722794       -19.6682
  18   2.0000      -0.610216       -16.6048
  19   2.0000      -0.602233       -16.3876
  20   2.0000      -0.596529       -16.2324
  21   2.0000      -0.578690       -15.7470
  22   2.0000      -0.517854       -14.0915
  23   2.0000      -0.507645       -13.8137
  24   2.0000      -0.487889       -13.2761
  25   2.0000      -0.482099       -13.1186
  26   2.0000      -0.453281       -12.3344
  27   2.0000      -0.446352       -12.1458
  28   2.0000      -0.426324       -11.6009
  29   2.0000      -0.415117       -11.2959
  30   2.0000      -0.412592       -11.2272
  31   2.0000      -0.389137       -10.5889
  32   2.0000      -0.376293       -10.2394
  33   2.0000      -0.364574        -9.9206
  34   2.0000      -0.362514        -9.8645
  35   2.0000      -0.356515        -9.7013
  36   2.0000      -0.350573        -9.5396
  37   2.0000      -0.314918        -8.5693
  38   2.0000      -0.305865        -8.3230
  39   2.0000      -0.297400        -8.0927
  40   2.0000      -0.261296        -7.1102
  41   2.0000      -0.254324        -6.9205
  42   2.0000      -0.231074        -6.2878
  43   0.0000       0.070102         1.9076
  44   0.0000       0.081984         2.2309
  45   0.0000       0.097167         2.6441
  46   0.0000       0.111013         3.0208
  47   0.0000       0.118409         3.2221

MULLIKEN ATOMIC CHARGES
-----------------------
   0 C :    0.303554
   1 C :   -0.277796
   2 C :   -0.300630
   3 C :    0.000035
   4 O :   -0.501450
   5 H :    0.137018
   6 H :    0.146363
   7 H :    0.140521
   8 H :    0.142550
   9 H :    0.160207
  10 H :    0.158047
  11 H :    0.141543
  12 C :    0.007703
  13 H :    0.122280
  14 C :    0.055776
  15 C :   -0.296022
  16 C :    0.002364
  17 O :   -0.516540
  18 H :    0.172994
  19 O :   -0.499755
  20 H :    0.123201
  21 H :    0.149801
  22 H :    0.141342
  23 H :    0.135490
  24 H :    0.151405
Sum of atomic charges:    0.0000000

LOEWDIN ATOMIC CHARGES
----------------------
   0 C :    0.181745
   1 C :   -0.232787
   2 C :   -0.217208
   3 C :   -0.024228
   4 O :   -0.301960
   5 H :    0.094128
   6 H :    0.115126
   7 H :    0.111451
   8 H :    0.114584
   9 H :    0.117084
  10 H :    0.111426
  11 H :    0.102251
  12 C :   -0.034268
  13 H :    0.090232
  14 C :    0.035419
  15 C :   -0.237290
  16 C :   -0.028428
  17 O :   -0.326965
  18 H :    0.125985
  19 O :   -0.325763
  20 H :    0.094915
  21 H :    0.117187
  22 H :    0.112763
  23 H :    0.098214
  24 H :    0.106385

  Mayer bond orders larger than 0.100000
B(  0-C ,  1-C ) :   0.9260 B(  0-C ,  4-O ) :   0.9382 B(  0-C ,  5-H ) :   0.9185
B(  0-C , 19-O ) :   0.8419 B(  1-C ,  2-C ) :   0.9536 B(  1-C ,  6-H ) :   0.9329
B(  1-C ,  7-H ) :   0.9290 B(  2-C ,  3-C ) :   0.9550 B(  2-C ,  8-H ) :   0.9449
B(  2-C ,  9-H ) :   0.9432 B(  3-C ,  4-O ) :   0.8349 B(  3-C , 10-H ) :   0.9338
B(  3-C , 11-H ) :   0.9397 B( 12-C , 13-H ) :   0.9146 B( 12-C , 14-C ) :   0.9333
B( 12-C , 17-O ) :   0.8716 B( 12-C , 18-H ) :   0.9294 B( 14-C , 15-C ) :   0.9322
B( 14-C , 19-O ) :   0.8414 B( 14-C , 20-H ) :   0.9171 B( 15-C , 16-C ) :   0.9444
B( 15-C , 21-H ) :   0.9329 B( 15-C , 22-H ) :   0.9366 B( 16-C , 17-O ) :   0.8607
B( 16-C , 23-H ) :   0.9328 B( 16-C , 24-H ) :   0.9357

FINAL SINGLE POINT ENERGY      -538.428656004070

DIPOLE MOMENT
-------------
                                X             Y             Z
Electronic contribution:     -1.90855      -4.47155       1.96573
Nuclear contribution   :      2.83177       5.40284      -3.08760
                        -----------------------------------------
Total Dipole Moment    :      0.92321       0.93129      -1.12187
                        -----------------------------------------
Magnitude (a.u.)       :      1.72575
Magnitude (Debye)      :      4.38651

Rotational constants in cm-1:     0.075460     0.021407     0.020281
Rotational constants in MHz :  2262.220041   641.776919   607.999088

                             ****ORCA TERMINATED NORMALLY****
TOTAL RUN TIME: 0 days 0 hours 6 minutes 45 seconds 325 msec
