                         Program Version 4.2.1 -  RELEASE  -
|  1> # Test redundant internal optimization
|  2> #
|  3> ! RKS B3LYP  Opt TightSCF SmallPrint
|  4>
|  5> %basis
|  6>         Basis "6-31G"
|  7> end
|  8>
|  9> %geom
| 10> Constraints
| 11> { D 4  0  19  14  225.0   C } # D for Dihedral angle
| 12> { D 0  19  14  12  225.0   C } # D for Dihedral angle
| 13> { D 0  4  3  2   C } # D for Dihedral angle
| 14> { D 4  3  2  1   C } # D for Dihedral angle
| 15> { D 3  2  1  0   C } # D for Dihedral angle
| 16> { D 2  1  0  4   C } # D for Dihedral angle
| 17> { D 1  0  4  3   C } # D for Dihedral angle
| 18> { D 14  15  16  17   C } # D for Dihedral angle
| 19> { D 15  16  17  12   C } # D for Dihedral angle
| 20> { D 16  17  12  14   C } # D for Dihedral angle
| 21> { D 17  12  14  15   C } # D for Dihedral angle
| 22> { D 12  14  15  16   C } # D for Dihedral angle
| 23> end
| 24> end
| 25>
| 26>
| 27> #%pal
| 28> #nprocs 8
| 29> #end
| 30>
| 31> * xyz 0 1
| 32> C  -21.048   26.222   46.251
| 33> C  -20.361   27.558   45.944
| 34> C  -20.329   28.222   47.341
| 35> C  -20.110   27.022   48.296
| 36> O  -20.473   25.807   47.535
| 37> H  -20.833   25.428   45.533
| 38> H  -19.344   27.382   45.576
| 39> H  -20.898   28.157   45.201
| 40> H  -19.543   28.978   47.434
| 41> H  -21.289   28.710   47.548
| 42> H  -20.733   27.082   49.195
| 43> H  -19.064   26.913   48.597
| 44> C  -24.306   26.776   44.816
| 45> H  -25.068   26.265   44.207
| 46> C  -23.222   25.800   45.287
| 47> C  -22.345   25.669   44.020
| 48> C  -22.408   27.088   43.400
| 49> O  -23.579   27.759   44.005
| 50> H  -24.800   27.326   45.618
| 51> O  -22.472   26.381   46.366
| 52> H  -23.626   24.840   45.625
| 53> H  -21.320   25.357   44.243
| 54> H  -22.778   24.929   43.336
| 55> H  -22.529   27.066   42.312
| 56> H  -21.528   27.691   43.646
| 57> *
| 58>
| 59>                          ****END OF INPUT****
 Total Charge           Charge          ....    0
 Multiplicity           Mult            ....    1
 Number of Electrons    NEL             ....   86
FINAL SINGLE POINT ENERGY      -538.403603078414
FINAL SINGLE POINT ENERGY      -538.424734258578
FINAL SINGLE POINT ENERGY      -538.426303185288
FINAL SINGLE POINT ENERGY      -538.426566254482
FINAL SINGLE POINT ENERGY      -538.426614193486
FINAL SINGLE POINT ENERGY      -538.426624211154
                    ***********************HURRAY********************

CARTESIAN COORDINATES (ANGSTROEM)
---------------------------------
  C    -20.833841   26.239116   46.250774
  C    -20.236830   27.633183   46.056810
  C    -20.407394   28.253118   47.465434
  C    -20.188516   27.044595   48.401762
  O    -20.370634   25.838095   47.555546
  H    -20.489890   25.475099   45.551573
  H    -19.175706   27.548145   45.792607
  H    -20.758242   28.201408   45.283581
  H    -19.699819   29.064983   47.656683
  H    -21.423847   28.642910   47.570297
  H    -20.904551   27.004495   49.226762
  H    -19.171202   26.995352   48.802234
  C    -24.177359   26.872663   44.906891
  H    -25.078991   26.434836   44.454932
  C    -23.138771   25.793685   45.214347
  C    -22.512248   25.563661   43.827390
  C    -22.529658   26.972368   43.184510
  O    -23.504666   27.771118   43.958882
  H    -24.442866   27.456021   45.788101
  O    -22.278405   26.334159   46.268438
  H    -23.596623   24.875603   45.603214
  H    -21.517834   25.112662   43.847554
  H    -23.165766   24.876738   43.277149
  H    -22.840152   26.945690   42.133991
  H    -21.562186   27.478298   43.252539

 Multiplicity           Mult            ....    1
 Number of Electrons    NEL             ....   86
 Basis Dimension        Dim             ....  127

ORBITAL ENERGIES
----------------

  NO   OCC          E(Eh)            E(eV)
   0   2.0000     -19.135730      -520.7097
   1   2.0000     -19.134652      -520.6803
   2   2.0000     -19.134381      -520.6730
   3   2.0000     -10.277516      -279.6654
   4   2.0000     -10.244508      -278.7672
   5   2.0000     -10.229165      -278.3497
   6   2.0000     -10.222487      -278.1680
   7   2.0000     -10.219775      -278.0942
   8   2.0000     -10.197287      -277.4823
   9   2.0000     -10.179981      -277.0114
  10   2.0000     -10.179550      -276.9996
  11   2.0000      -1.048118       -28.5207
  12   2.0000      -1.017196       -27.6793
  13   2.0000      -0.985709       -26.8225
  14   2.0000      -0.790894       -21.5213
  15   2.0000      -0.777504       -21.1570
  16   2.0000      -0.748694       -20.3730
  17   2.0000      -0.718146       -19.5417
  18   2.0000      -0.617689       -16.8082
  19   2.0000      -0.603625       -16.4255
  20   2.0000      -0.593487       -16.1496
  21   2.0000      -0.566392       -15.4123
  22   2.0000      -0.525075       -14.2880
  23   2.0000      -0.503873       -13.7111
  24   2.0000      -0.485077       -13.1996
  25   2.0000      -0.481622       -13.1056
  26   2.0000      -0.455421       -12.3926
  27   2.0000      -0.440382       -11.9834
  28   2.0000      -0.427451       -11.6315
  29   2.0000      -0.420535       -11.4433
  30   2.0000      -0.400042       -10.8857
  31   2.0000      -0.384809       -10.4712
  32   2.0000      -0.377290       -10.2666
  33   2.0000      -0.372485       -10.1358
  34   2.0000      -0.363898        -9.9022
  35   2.0000      -0.350553        -9.5390
  36   2.0000      -0.344246        -9.3674
  37   2.0000      -0.312711        -8.5093
  38   2.0000      -0.306901        -8.3512
  39   2.0000      -0.298534        -8.1235
  40   2.0000      -0.259813        -7.0699
  41   2.0000      -0.245189        -6.6719
  42   2.0000      -0.238671        -6.4946
  43   0.0000       0.073592         2.0026
  44   0.0000       0.090241         2.4556
  45   0.0000       0.097025         2.6402
  46   0.0000       0.108697         2.9578
  47   0.0000       0.112385         3.0581

MULLIKEN ATOMIC CHARGES
-----------------------
   0 C :    0.289759
   1 C :   -0.262714
   2 C :   -0.299430
   3 C :   -0.001610
   4 O :   -0.505399
   5 H :    0.137150
   6 H :    0.136312
   7 H :    0.164259
   8 H :    0.139053
   9 H :    0.165438
  10 H :    0.151172
  11 H :    0.138606
  12 C :    0.001275
  13 H :    0.122680
  14 C :    0.100534
  15 C :   -0.333113
  16 C :    0.000131
  17 O :   -0.522560
  18 H :    0.171645
  19 O :   -0.526350
  20 H :    0.139985
  21 H :    0.152779
  22 H :    0.155848
  23 H :    0.142327
  24 H :    0.142224
Sum of atomic charges:   -0.0000000

LOEWDIN ATOMIC CHARGES
----------------------
   0 C :    0.178678
   1 C :   -0.226707
   2 C :   -0.215656
   3 C :   -0.026656
   4 O :   -0.313764
   5 H :    0.095781
   6 H :    0.109334
   7 H :    0.123477
   8 H :    0.113130
   9 H :    0.120798
  10 H :    0.107318
  11 H :    0.100564
  12 C :   -0.036190
  13 H :    0.090367
  14 C :    0.048036
  15 C :   -0.241308
  16 C :   -0.032008
  17 O :   -0.331998
  18 H :    0.124869
  19 O :   -0.332332
  20 H :    0.102709
  21 H :    0.118900
  22 H :    0.121769
  23 H :    0.101227
  24 H :    0.099664

  Mayer bond orders larger than 0.100000
B(  0-C ,  1-C ) :   0.9377 B(  0-C ,  4-O ) :   0.9281 B(  0-C ,  5-H ) :   0.9158
B(  0-C , 19-O ) :   0.8389 B(  1-C ,  2-C ) :   0.9552 B(  1-C ,  6-H ) :   0.9363
B(  1-C ,  7-H ) :   0.9279 B(  2-C ,  3-C ) :   0.9542 B(  2-C ,  8-H ) :   0.9453
B(  2-C ,  9-H ) :   0.9428 B(  3-C ,  4-O ) :   0.8375 B(  3-C , 10-H ) :   0.9351
B(  3-C , 11-H ) :   0.9400 B( 12-C , 13-H ) :   0.9142 B( 12-C , 14-C ) :   0.9221
B( 12-C , 17-O ) :   0.8626 B( 12-C , 18-H ) :   0.9306 B( 14-C , 15-C ) :   0.9400
B( 14-C , 19-O ) :   0.8479 B( 14-C , 20-H ) :   0.9254 B( 15-C , 16-C ) :   0.9400
B( 15-C , 21-H ) :   0.9296 B( 15-C , 22-H ) :   0.9340 B( 16-C , 17-O ) :   0.8625
B( 16-C , 23-H ) :   0.9331 B( 16-C , 24-H ) :   0.9303

FINAL SINGLE POINT ENERGY      -538.426624532011

DIPOLE MOMENT
-------------
                                X             Y             Z
Electronic contribution:     -1.52449      -1.62051       1.38553
Nuclear contribution   :      1.79005       1.40871      -1.93930
                        -----------------------------------------
Total Dipole Moment    :      0.26556      -0.21179      -0.55377
                        -----------------------------------------
Magnitude (a.u.)       :      0.64964
Magnitude (Debye)      :      1.65126

Rotational constants in cm-1:     0.076305     0.022388     0.021474
Rotational constants in MHz :  2287.558721   671.166429   643.760860

                             ****ORCA TERMINATED NORMALLY****
TOTAL RUN TIME: 0 days 0 hours 16 minutes 43 seconds 658 msec
