                         Program Version 4.2.1 -  RELEASE  -
|  1> # Test redundant internal optimization
|  2> #
|  3> ! RKS B3LYP  Opt TightSCF SmallPrint
|  4>
|  5> %basis
|  6>         Basis "6-31G"
|  7> end
|  8>
|  9> %geom
| 10> Constraints
| 11> { D 4  0  19  14  135.0   C } # D for Dihedral angle
| 12> { D 0  19  14  12  135.0   C } # D for Dihedral angle
| 13> { D 0  4  3  2   C } # D for Dihedral angle
| 14> { D 4  3  2  1   C } # D for Dihedral angle
| 15> { D 3  2  1  0   C } # D for Dihedral angle
| 16> { D 2  1  0  4   C } # D for Dihedral angle
| 17> { D 1  0  4  3   C } # D for Dihedral angle
| 18> { D 14  15  16  17   C } # D for Dihedral angle
| 19> { D 15  16  17  12   C } # D for Dihedral angle
| 20> { D 16  17  12  14   C } # D for Dihedral angle
| 21> { D 17  12  14  15   C } # D for Dihedral angle
| 22> { D 12  14  15  16   C } # D for Dihedral angle
| 23> end
| 24> end
| 25>
| 26>
| 27> #%pal
| 28> #nprocs 8
| 29> #end
| 30>
| 31> * xyz 0 1
| 32> C  -21.048   26.222   46.251
| 33> C  -20.361   27.558   45.944
| 34> C  -20.329   28.222   47.341
| 35> C  -20.110   27.022   48.296
| 36> O  -20.473   25.807   47.535
| 37> H  -20.833   25.428   45.533
| 38> H  -19.344   27.382   45.576
| 39> H  -20.898   28.157   45.201
| 40> H  -19.543   28.978   47.434
| 41> H  -21.289   28.710   47.548
| 42> H  -20.733   27.082   49.195
| 43> H  -19.064   26.913   48.597
| 44> C  -24.243   27.250   44.941
| 45> H  -24.488   28.063   44.239
| 46> C  -22.986   27.575   45.755
| 47> C  -23.546   28.540   46.826
| 48> C  -24.965   27.979   47.098
| 49> O  -25.300   27.109   45.949
| 50> H  -24.197   26.307   44.393
| 51> O  -22.472   26.381   46.366
| 52> H  -22.189   28.026   45.153
| 53> H  -22.931   28.574   47.731
| 54> H  -23.605   29.559   46.423
| 55> H  -25.720   28.767   47.183
| 56> H  -25.002   27.354   47.996
| 57> *
| 58>
| 59>                          ****END OF INPUT****
 Total Charge           Charge          ....    0
 Multiplicity           Mult            ....    1
 Number of Electrons    NEL             ....   86
FINAL SINGLE POINT ENERGY      -538.393889276672
FINAL SINGLE POINT ENERGY      -538.419899826003
FINAL SINGLE POINT ENERGY      -538.421287599995
FINAL SINGLE POINT ENERGY      -538.421588152856
FINAL SINGLE POINT ENERGY      -538.421610541299
FINAL SINGLE POINT ENERGY      -538.421615631201
                    ***********************HURRAY********************

CARTESIAN COORDINATES (ANGSTROEM)
---------------------------------
  C    -21.036862   26.309604   46.260823
  C    -20.115178   27.493276   45.955472
  C    -20.047451   28.215086   47.329062
  C    -20.094417   27.036477   48.328777
  O    -20.620338   25.878355   47.569164
  H    -20.887699   25.448254   45.605716
  H    -19.132971   27.090262   45.685978
  H    -20.442325   28.140586   45.138402
  H    -19.138877   28.815157   47.437452
  H    -20.906691   28.880403   47.457200
  H    -20.748612   27.225290   49.184670
  H    -19.102199   26.752903   48.691199
  C    -24.349301   27.258583   44.927975
  H    -24.706061   28.048306   44.248650
  C    -23.117435   27.727837   45.703486
  C    -23.755279   28.594501   46.809775
  C    -25.078920   27.855326   47.119648
  O    -25.340544   26.968249   45.964278
  H    -24.172838   26.337555   44.370815
  O    -22.472413   26.560145   46.287873
  H    -22.427602   28.295501   45.070751
  H    -23.108675   28.674558   47.686245
  H    -23.946333   29.603500   46.424393
  H    -25.923921   28.541414   47.245735
  H    -24.996055   27.213872   48.000460

 Multiplicity           Mult            ....    1
 Number of Electrons    NEL             ....   86
 Basis Dimension        Dim             ....  127

ORBITAL ENERGIES
----------------

  NO   OCC          E(Eh)            E(eV)
   0   2.0000     -19.139583      -520.8145
   1   2.0000     -19.136001      -520.7171
   2   2.0000     -19.125036      -520.4187
   3   2.0000     -10.282025      -279.7881
   4   2.0000     -10.243941      -278.7518
   5   2.0000     -10.228750      -278.3384
   6   2.0000     -10.220391      -278.1110
   7   2.0000     -10.218243      -278.0525
   8   2.0000     -10.197224      -277.4806
   9   2.0000     -10.196055      -277.4488
  10   2.0000     -10.186912      -277.2000
  11   2.0000      -1.050849       -28.5950
  12   2.0000      -1.012775       -27.5590
  13   2.0000      -0.987067       -26.8595
  14   2.0000      -0.792999       -21.5786
  15   2.0000      -0.784819       -21.3560
  16   2.0000      -0.741283       -20.1713
  17   2.0000      -0.725111       -19.7313
  18   2.0000      -0.621397       -16.9091
  19   2.0000      -0.604633       -16.4529
  20   2.0000      -0.597194       -16.2505
  21   2.0000      -0.565369       -15.3845
  22   2.0000      -0.526578       -14.3289
  23   2.0000      -0.506529       -13.7834
  24   2.0000      -0.491037       -13.3618
  25   2.0000      -0.481446       -13.1008
  26   2.0000      -0.452319       -12.3082
  27   2.0000      -0.444666       -12.1000
  28   2.0000      -0.430112       -11.7039
  29   2.0000      -0.423861       -11.5339
  30   2.0000      -0.407377       -11.0853
  31   2.0000      -0.385503       -10.4901
  32   2.0000      -0.377336       -10.2678
  33   2.0000      -0.367975       -10.0131
  34   2.0000      -0.365295        -9.9402
  35   2.0000      -0.358118        -9.7449
  36   2.0000      -0.354870        -9.6565
  37   2.0000      -0.315767        -8.5925
  38   2.0000      -0.301164        -8.1951
  39   2.0000      -0.290224        -7.8974
  40   2.0000      -0.264376        -7.1940
  41   2.0000      -0.251654        -6.8478
  42   2.0000      -0.228854        -6.2274
  43   0.0000       0.064571         1.7571
  44   0.0000       0.088899         2.4191
  45   0.0000       0.092480         2.5165
  46   0.0000       0.107717         2.9311
  47   0.0000       0.114770         3.1230

MULLIKEN ATOMIC CHARGES
-----------------------
   0 C :    0.321107
   1 C :   -0.304110
   2 C :   -0.306436
   3 C :   -0.001720
   4 O :   -0.493303
   5 H :    0.154850
   6 H :    0.157372
   7 H :    0.145483
   8 H :    0.146088
   9 H :    0.150389
  10 H :    0.148139
  11 H :    0.145155
  12 C :    0.015165
  13 H :    0.119239
  14 C :    0.058903
  15 C :   -0.292643
  16 C :    0.003546
  17 O :   -0.514701
  18 H :    0.162534
  19 O :   -0.520658
  20 H :    0.122031
  21 H :    0.154531
  22 H :    0.137364
  23 H :    0.132599
  24 H :    0.159074
Sum of atomic charges:   -0.0000000

LOEWDIN ATOMIC CHARGES
----------------------
   0 C :    0.185506
   1 C :   -0.233198
   2 C :   -0.219997
   3 C :   -0.028965
   4 O :   -0.307870
   5 H :    0.103797
   6 H :    0.122967
   7 H :    0.113335
   8 H :    0.116256
   9 H :    0.109813
  10 H :    0.105577
  11 H :    0.104421
  12 C :   -0.037214
  13 H :    0.088442
  14 C :    0.037675
  15 C :   -0.234304
  16 C :   -0.026971
  17 O :   -0.326363
  18 H :    0.120703
  19 O :   -0.327143
  20 H :    0.095116
  21 H :    0.119644
  22 H :    0.110324
  23 H :    0.097174
  24 H :    0.111273

  Mayer bond orders larger than 0.100000
B(  0-C ,  1-C ) :   0.9290 B(  0-C ,  4-O ) :   0.9225 B(  0-C ,  5-H ) :   0.9291
B(  0-C , 19-O ) :   0.8656 B(  1-C ,  2-C ) :   0.9510 B(  1-C ,  6-H ) :   0.9329
B(  1-C ,  7-H ) :   0.9256 B(  2-C ,  3-C ) :   0.9522 B(  2-C ,  8-H ) :   0.9454
B(  2-C ,  9-H ) :   0.9384 B(  3-C ,  4-O ) :   0.8447 B(  3-C , 10-H ) :   0.9337
B(  3-C , 11-H ) :   0.9391 B( 12-C , 13-H ) :   0.9128 B( 12-C , 14-C ) :   0.9264
B( 12-C , 17-O ) :   0.8764 B( 12-C , 18-H ) :   0.9318 B( 14-C , 15-C ) :   0.9408
B( 14-C , 19-O ) :   0.8347 B( 14-C , 20-H ) :   0.9102 B( 15-C , 16-C ) :   0.9456
B( 15-C , 21-H ) :   0.9337 B( 15-C , 22-H ) :   0.9372 B( 16-C , 17-O ) :   0.8583
B( 16-C , 23-H ) :   0.9329 B( 16-C , 24-H ) :   0.9352

FINAL SINGLE POINT ENERGY      -538.421616094080

DIPOLE MOMENT
-------------
                                X             Y             Z
Electronic contribution:     -2.24201      -5.37247      -0.54894
Nuclear contribution   :      3.40132       7.06054       0.20698
                        -----------------------------------------
Total Dipole Moment    :      1.15931       1.68808      -0.34195
                        -----------------------------------------
Magnitude (a.u.)       :      2.07618
Magnitude (Debye)      :      5.27724

Rotational constants in cm-1:     0.076804     0.021602     0.020920
Rotational constants in MHz :  2302.538366   647.624420   627.153131

                             ****ORCA TERMINATED NORMALLY****
TOTAL RUN TIME: 0 days 0 hours 7 minutes 18 seconds 809 msec
