                         Program Version 4.2.0 -  RELEASE  -
|  1> # Test redundant internal optimization
|  2> #
|  3> ! RKS B3LYP  Opt TightSCF SmallPrint
|  4>
|  5> %basis
|  6>         Basis "6-31G"
|  7> end
|  8>
|  9> %geom
| 10> Constraints
| 11> { D 4  0  15  12  330.0   C } # D for Dihedral angle
| 12> { D 0  15  12  16  180.0   C } # D for Dihedral angle
| 13> { D 0  4  3  2   C } # D for Dihedral angle
| 14> { D 4  3  2  1   C } # D for Dihedral angle
| 15> { D 3  2  1  0   C } # D for Dihedral angle
| 16> { D 2  1  0  4   C } # D for Dihedral angle
| 17> { D 1  0  4  3   C } # D for Dihedral angle
| 18> { D 16  20  19  18   C } # D for Dihedral angle
| 19> { D 20  19  18  17   C } # D for Dihedral angle
| 20> { D 19  18  17  16   C } # D for Dihedral angle
| 21> { D 18  17  16  20   C } # D for Dihedral angle
| 22> { D 17  16  20  19   C } # D for Dihedral angle
| 23> { D 15  12  16  20   C } # D for Dihedral angle
| 24> end
| 25> end
| 26>
| 27>
| 28> #%pal
| 29> #nprocs 8
| 30> #end
| 31>
| 32> * xyz 0 1
| 33> C  -21.048   26.222   46.251
| 34> C  -20.361   27.558   45.944
| 35> C  -20.329   28.222   47.341
| 36> C  -20.110   27.022   48.296
| 37> O  -20.473   25.807   47.535
| 38> H  -20.833   25.428   45.533
| 39> H  -19.344   27.382   45.576
| 40> H  -20.898   28.157   45.201
| 41> H  -19.543   28.978   47.434
| 42> H  -21.289   28.710   47.548
| 43> H  -20.733   27.082   49.195
| 44> H  -19.064   26.913   48.597
| 45> C  -23.271   25.476   47.424
| 46> H  -23.084   24.426   47.163
| 47> H  -22.857   25.659   48.424
| 48> O  -22.586   26.394   46.375
| 49> C  -24.807   25.694   47.501
| 50> C  -25.493   25.295   46.190
| 51> C  -25.550   23.755   46.321
| 52> C  -25.781   23.540   47.838
| 53> O  -25.401   24.804   48.504
| 54> H  -25.007   26.718   47.823
| 55> O  -26.925   25.895   46.134
| 56> H  -24.946   25.626   45.300
| 57> H  -26.340   23.306   45.711
| 58> H  -24.595   23.315   46.009
| 59> H  -25.173   22.724   48.243
| 60> H  -26.831   23.351   48.078
| 61> H  -27.492   25.576   47.016
| 62> *
| 63>
| 64>                          ****END OF INPUT****
 Total Charge           Charge          ....    0
 Multiplicity           Mult            ....    1
 Number of Electrons    NEL             ....  102
FINAL SINGLE POINT ENERGY      -652.839484171497
FINAL SINGLE POINT ENERGY      -652.862922589231
FINAL SINGLE POINT ENERGY      -652.866745667311
FINAL SINGLE POINT ENERGY      -652.867389222562
FINAL SINGLE POINT ENERGY      -652.867471517905
FINAL SINGLE POINT ENERGY      -652.867482787327
                    ***********************HURRAY********************

CARTESIAN COORDINATES (ANGSTROEM)
---------------------------------
  C    -21.120957   26.145190   46.317384
  C    -20.597385   27.535601   45.960465
  C    -20.514759   28.206010   47.349039
  C    -20.102629   27.046411   48.281386
  O    -20.416247   25.796045   47.530260
  H    -20.892067   25.349439   45.601038
  H    -19.605752   27.441080   45.503509
  H    -21.260850   28.059565   45.269009
  H    -19.797952   29.032464   47.374655
  H    -21.498372   28.595693   47.627277
  H    -20.650829   27.034869   49.227128
  H    -19.028659   27.021871   48.486425
  C    -23.158273   25.370380   47.505209
  H    -22.949692   24.312373   47.290509
  H    -22.756603   25.591525   48.498085
  O    -22.559810   26.228510   46.490588
  C    -24.657637   25.653716   47.478224
  C    -25.364715   25.306539   46.160455
  C    -25.548621   23.773896   46.296938
  C    -25.808640   23.582606   47.812118
  O    -25.330116   24.819187   48.480807
  H    -24.837728   26.697414   47.750271
  O    -26.643546   25.994766   46.066104
  H    -24.798005   25.608129   45.281442
  H    -26.377922   23.427351   45.675118
  H    -24.640036   23.251339   45.979386
  H    -25.275993   22.723804   48.231076
  H    -26.872839   23.481788   48.046945
  H    -27.097365   25.947440   46.934151

 Multiplicity           Mult            ....    1
 Number of Electrons    NEL             ....  102
 Basis Dimension        Dim             ....  149

ORBITAL ENERGIES
----------------

  NO   OCC          E(Eh)            E(eV)
   0   2.0000     -19.149120      -521.0741
   1   2.0000     -19.144749      -520.9551
   2   2.0000     -19.142216      -520.8862
   3   2.0000     -19.131819      -520.6033
   4   2.0000     -10.281497      -279.7737
   5   2.0000     -10.232396      -278.4376
   6   2.0000     -10.231323      -278.4085
   7   2.0000     -10.229919      -278.3703
   8   2.0000     -10.229241      -278.3518
   9   2.0000     -10.226681      -278.2821
  10   2.0000     -10.189399      -277.2676
  11   2.0000     -10.187770      -277.2233
  12   2.0000     -10.184818      -277.1430
  13   2.0000      -1.057858       -28.7858
  14   2.0000      -1.033196       -28.1147
  15   2.0000      -1.001222       -27.2446
  16   2.0000      -0.995537       -27.0899
  17   2.0000      -0.793386       -21.5891
  18   2.0000      -0.776824       -21.1384
  19   2.0000      -0.766613       -20.8606
  20   2.0000      -0.731376       -19.9018
  21   2.0000      -0.671465       -18.2715
  22   2.0000      -0.603544       -16.4233
  23   2.0000      -0.601070       -16.3559
  24   2.0000      -0.589916       -16.0524
  25   2.0000      -0.577934       -15.7264
  26   2.0000      -0.522222       -14.2104
  27   2.0000      -0.514694       -14.0055
  28   2.0000      -0.497484       -13.5372
  29   2.0000      -0.492337       -13.3972
  30   2.0000      -0.472372       -12.8539
  31   2.0000      -0.455457       -12.3936
  32   2.0000      -0.446975       -12.1628
  33   2.0000      -0.437321       -11.9001
  34   2.0000      -0.421375       -11.4662
  35   2.0000      -0.412667       -11.2293
  36   2.0000      -0.401621       -10.9287
  37   2.0000      -0.389454       -10.5976
  38   2.0000      -0.376096       -10.2341
  39   2.0000      -0.364806        -9.9269
  40   2.0000      -0.361440        -9.8353
  41   2.0000      -0.352989        -9.6053
  42   2.0000      -0.352166        -9.5829
  43   2.0000      -0.343569        -9.3490
  44   2.0000      -0.323332        -8.7983
  45   2.0000      -0.307970        -8.3803
  46   2.0000      -0.299625        -8.1532
  47   2.0000      -0.269000        -7.3199
  48   2.0000      -0.262036        -7.1304
  49   2.0000      -0.258217        -7.0264
  50   2.0000      -0.245647        -6.6844
  51   0.0000       0.068831         1.8730
  52   0.0000       0.073793         2.0080
  53   0.0000       0.094100         2.5606
  54   0.0000       0.101926         2.7736
  55   0.0000       0.104369         2.8400

MULLIKEN ATOMIC CHARGES
-----------------------
   0 C :    0.302521
   1 C :   -0.261874
   2 C :   -0.299930
   3 C :   -0.016065
   4 O :   -0.513093
   5 H :    0.148217
   6 H :    0.145610
   7 H :    0.162907
   8 H :    0.145396
   9 H :    0.159699
  10 H :    0.148219
  11 H :    0.150015
  12 C :    0.012709
  13 H :    0.128350
  14 H :    0.156823
  15 O :   -0.546727
  16 C :    0.054761
  17 C :    0.091529
  18 C :   -0.300390
  19 C :   -0.029483
  20 O :   -0.529624
  21 H :    0.162316
  22 O :   -0.605729
  23 H :    0.172361
  24 H :    0.162618
  25 H :    0.146142
  26 H :    0.146071
  27 H :    0.144800
  28 H :    0.361852
Sum of atomic charges:   -0.0000000

LOEWDIN ATOMIC CHARGES
----------------------
   0 C :    0.179026
   1 C :   -0.215762
   2 C :   -0.216881
   3 C :   -0.030909
   4 O :   -0.323428
   5 H :    0.098086
   6 H :    0.114375
   7 H :    0.126999
   8 H :    0.116216
   9 H :    0.117834
  10 H :    0.104663
  11 H :    0.106522
  12 C :   -0.035011
  13 H :    0.093582
  14 H :    0.109742
  15 O :   -0.342782
  16 C :    0.017672
  17 C :    0.038266
  18 C :   -0.241895
  19 C :   -0.038123
  20 O :   -0.331588
  21 H :    0.116464
  22 O :   -0.416381
  23 H :    0.125853
  24 H :    0.126580
  25 H :    0.114010
  26 H :    0.104040
  27 H :    0.101995
  28 H :    0.280834

  Mayer bond orders larger than 0.100000
B(  0-C ,  1-C ) :   0.9466 B(  0-C ,  4-O ) :   0.9057 B(  0-C ,  5-H ) :   0.9231
B(  0-C , 15-O ) :   0.8380 B(  1-C ,  2-C ) :   0.9539 B(  1-C ,  6-H ) :   0.9374
B(  1-C ,  7-H ) :   0.9351 B(  2-C ,  3-C ) :   0.9548 B(  2-C ,  8-H ) :   0.9445
B(  2-C ,  9-H ) :   0.9449 B(  3-C ,  4-O ) :   0.8308 B(  3-C , 10-H ) :   0.9335
B(  3-C , 11-H ) :   0.9402 B( 12-C , 13-H ) :   0.9220 B( 12-C , 14-H ) :   0.9167
B( 12-C , 15-O ) :   0.8092 B( 12-C , 16-C ) :   0.9046 B( 16-C , 17-C ) :   0.9119
B( 16-C , 20-O ) :   0.8422 B( 16-C , 21-H ) :   0.9256 B( 17-C , 18-C ) :   0.9126
B( 17-C , 22-O ) :   0.8853 B( 17-C , 23-H ) :   0.9249 B( 18-C , 19-C ) :   0.9415
B( 18-C , 24-H ) :   0.9374 B( 18-C , 25-H ) :   0.9347 B( 19-C , 20-O ) :   0.8451
B( 19-C , 26-H ) :   0.9355 B( 19-C , 27-H ) :   0.9384 B( 22-O , 28-H ) :   0.7963

FINAL SINGLE POINT ENERGY      -652.867485307408

DIPOLE MOMENT
-------------
                                X             Y             Z
Electronic contribution:     -2.63783      -0.74405       0.25328
Nuclear contribution   :      3.32118       0.71900      -0.20849
                        -----------------------------------------
Total Dipole Moment    :      0.68335      -0.02506       0.04478
                        -----------------------------------------
Magnitude (a.u.)       :      0.68527
Magnitude (Debye)      :      1.74182

Rotational constants in cm-1:     0.058930     0.012447     0.011728
Rotational constants in MHz :  1766.683972   373.160655   351.606008

                             ****ORCA TERMINATED NORMALLY****
TOTAL RUN TIME: 0 days 1 hours 34 minutes 38 seconds 609 msec
