                         Program Version 4.2.0 -  RELEASE  -
|  1> # Test redundant internal optimization
|  2> #
|  3> ! RKS B3LYP  Opt TightSCF SmallPrint
|  4>
|  5> %basis
|  6>         Basis "6-31G"
|  7> end
|  8>
|  9> %geom
| 10> Constraints
| 11> { D 4  0  15  12  240.0   C } # D for Dihedral angle
| 12> { D 0  15  12  16  285.0   C } # D for Dihedral angle
| 13> { D 0  4  3  2   C } # D for Dihedral angle
| 14> { D 4  3  2  1   C } # D for Dihedral angle
| 15> { D 3  2  1  0   C } # D for Dihedral angle
| 16> { D 2  1  0  4   C } # D for Dihedral angle
| 17> { D 1  0  4  3   C } # D for Dihedral angle
| 18> { D 16  20  19  18   C } # D for Dihedral angle
| 19> { D 20  19  18  17   C } # D for Dihedral angle
| 20> { D 19  18  17  16   C } # D for Dihedral angle
| 21> { D 18  17  16  20   C } # D for Dihedral angle
| 22> { D 17  16  20  19   C } # D for Dihedral angle
| 23> { D 15  12  16  20   C } # D for Dihedral angle
| 24> end
| 25> end
| 26>
| 27>
| 28> #%pal
| 29> #nprocs 8
| 30> #end
| 31>
| 32> * xyz 0 1
| 33> C  -21.048   26.222   46.251
| 34> C  -20.361   27.558   45.944
| 35> C  -20.329   28.222   47.341
| 36> C  -20.110   27.022   48.296
| 37> O  -20.473   25.807   47.535
| 38> H  -20.833   25.428   45.533
| 39> H  -19.344   27.382   45.576
| 40> H  -20.898   28.157   45.201
| 41> H  -19.543   28.978   47.434
| 42> H  -21.289   28.710   47.548
| 43> H  -20.733   27.082   49.195
| 44> H  -19.064   26.913   48.597
| 45> C  -23.430   25.483   45.442
| 46> H  -23.033   24.460   45.479
| 47> H  -24.476   25.457   45.774
| 48> O  -22.586   26.394   46.375
| 49> C  -23.415   25.959   43.963
| 50> C  -24.347   25.108   43.095
| 51> C  -25.731   25.711   43.436
| 52> C  -25.419   27.215   43.636
| 53> O  -23.961   27.316   43.856
| 54> H  -22.382   26.001   43.611
| 55> O  -24.014   25.316   41.592
| 56> H  -24.284   24.037   43.318
| 57> H  -26.474   25.539   42.651
| 58> H  -26.115   25.269   44.363
| 59> H  -25.943   27.641   44.499
| 60> H  -25.654   27.811   42.749
| 61> H  -24.072   26.382   41.346
| 62> *
| 63>
| 64>                          ****END OF INPUT****
 Total Charge           Charge          ....    0
 Multiplicity           Mult            ....    1
 Number of Electrons    NEL             ....  102
FINAL SINGLE POINT ENERGY      -652.832754346825
FINAL SINGLE POINT ENERGY      -652.855849311760
FINAL SINGLE POINT ENERGY      -652.859851323549
FINAL SINGLE POINT ENERGY      -652.860601660265
FINAL SINGLE POINT ENERGY      -652.860700872772
FINAL SINGLE POINT ENERGY      -652.860708669297
                    ***********************HURRAY********************

CARTESIAN COORDINATES (ANGSTROEM)
---------------------------------
  C    -21.066695   26.189296   46.168258
  C    -20.450861   27.560437   45.893700
  C    -20.445247   28.194488   47.303889
  C    -20.163236   26.988635   48.226633
  O    -20.475900   25.780764   47.419539
  H    -20.833342   25.406838   45.439139
  H    -19.428096   27.434848   45.517923
  H    -21.034432   28.131243   45.168166
  H    -19.695769   28.984823   47.408207
  H    -21.430907   28.618937   47.516450
  H    -20.785741   26.979773   49.124629
  H    -19.110363   26.908685   48.513880
  C    -23.345629   25.508363   45.480606
  H    -23.004112   24.461092   45.512806
  H    -24.334843   25.562751   45.943344
  O    -22.502290   26.339201   46.315217
  C    -23.396788   25.977039   44.022553
  C    -24.330901   25.136959   43.140955
  C    -25.714318   25.765143   43.458211
  C    -25.379213   27.264974   43.657948
  O    -23.918942   27.341016   43.901705
  H    -22.385674   25.997644   43.601818
  O    -23.984635   25.275547   41.735325
  H    -24.286735   24.065507   43.341422
  H    -26.414962   25.588208   42.638174
  H    -26.132777   25.323962   44.369621
  H    -25.905415   27.707029   44.509261
  H    -25.589735   27.865659   42.767350
  H    -23.813441   26.221140   41.539268

 Multiplicity           Mult            ....    1
 Number of Electrons    NEL             ....  102
 Basis Dimension        Dim             ....  149

ORBITAL ENERGIES
----------------

  NO   OCC          E(Eh)            E(eV)
   0   2.0000     -19.146016      -520.9896
   1   2.0000     -19.143912      -520.9323
   2   2.0000     -19.138546      -520.7863
   3   2.0000     -19.133661      -520.6534
   4   2.0000     -10.275476      -279.6099
   5   2.0000     -10.247814      -278.8572
   6   2.0000     -10.238633      -278.6074
   7   2.0000     -10.235116      -278.5117
   8   2.0000     -10.234821      -278.5036
   9   2.0000     -10.219200      -278.0786
  10   2.0000     -10.194521      -277.4070
  11   2.0000     -10.179048      -276.9860
  12   2.0000     -10.177997      -276.9574
  13   2.0000      -1.049941       -28.5703
  14   2.0000      -1.039659       -28.2906
  15   2.0000      -1.010667       -27.5016
  16   2.0000      -0.990996       -26.9664
  17   2.0000      -0.789598       -21.4861
  18   2.0000      -0.779787       -21.2191
  19   2.0000      -0.768271       -20.9057
  20   2.0000      -0.730684       -19.8829
  21   2.0000      -0.675190       -18.3729
  22   2.0000      -0.609443       -16.5838
  23   2.0000      -0.604545       -16.4505
  24   2.0000      -0.592020       -16.1097
  25   2.0000      -0.575110       -15.6495
  26   2.0000      -0.529368       -14.4048
  27   2.0000      -0.514117       -13.9898
  28   2.0000      -0.492000       -13.3880
  29   2.0000      -0.490269       -13.3409
  30   2.0000      -0.472744       -12.8640
  31   2.0000      -0.455291       -12.3891
  32   2.0000      -0.453219       -12.3327
  33   2.0000      -0.443991       -12.0816
  34   2.0000      -0.425049       -11.5662
  35   2.0000      -0.413582       -11.2541
  36   2.0000      -0.399392       -10.8680
  37   2.0000      -0.394705       -10.7405
  38   2.0000      -0.377217       -10.2646
  39   2.0000      -0.368923       -10.0389
  40   2.0000      -0.359673        -9.7872
  41   2.0000      -0.351431        -9.5629
  42   2.0000      -0.347391        -9.4530
  43   2.0000      -0.335807        -9.1378
  44   2.0000      -0.315982        -8.5983
  45   2.0000      -0.310752        -8.4560
  46   2.0000      -0.302043        -8.2190
  47   2.0000      -0.276347        -7.5198
  48   2.0000      -0.267981        -7.2921
  49   2.0000      -0.250790        -6.8243
  50   2.0000      -0.237475        -6.4620
  51   0.0000       0.061629         1.6770
  52   0.0000       0.084164         2.2902
  53   0.0000       0.087290         2.3753
  54   0.0000       0.092894         2.5278
  55   0.0000       0.097441         2.6515

MULLIKEN ATOMIC CHARGES
-----------------------
   0 C :    0.277906
   1 C :   -0.256959
   2 C :   -0.301333
   3 C :   -0.000835
   4 O :   -0.506248
   5 H :    0.136181
   6 H :    0.138158
   7 H :    0.167022
   8 H :    0.139120
   9 H :    0.166219
  10 H :    0.149541
  11 H :    0.138922
  12 C :   -0.014790
  13 H :    0.132466
  14 H :    0.154402
  15 O :   -0.498939
  16 C :    0.055491
  17 C :    0.077327
  18 C :   -0.302018
  19 C :   -0.027679
  20 O :   -0.514891
  21 H :    0.159069
  22 O :   -0.601188
  23 H :    0.155292
  24 H :    0.166466
  25 H :    0.146144
  26 H :    0.152818
  27 H :    0.147168
  28 H :    0.365166
Sum of atomic charges:   -0.0000000

LOEWDIN ATOMIC CHARGES
----------------------
   0 C :    0.173099
   1 C :   -0.221992
   2 C :   -0.216259
   3 C :   -0.026404
   4 O :   -0.318283
   5 H :    0.095633
   6 H :    0.110231
   7 H :    0.127201
   8 H :    0.112859
   9 H :    0.121235
  10 H :    0.106804
  11 H :    0.100826
  12 C :   -0.040459
  13 H :    0.097948
  14 H :    0.114581
  15 O :   -0.318844
  16 C :    0.000797
  17 C :    0.034932
  18 C :   -0.241554
  19 C :   -0.037290
  20 O :   -0.326081
  21 H :    0.112003
  22 O :   -0.414007
  23 H :    0.116730
  24 H :    0.128140
  25 H :    0.114086
  26 H :    0.107498
  27 H :    0.102974
  28 H :    0.283596

  Mayer bond orders larger than 0.100000
B(  0-C ,  1-C ) :   0.9407 B(  0-C ,  4-O ) :   0.9277 B(  0-C ,  5-H ) :   0.9177
B(  0-C , 15-O ) :   0.8413 B(  1-C ,  2-C ) :   0.9570 B(  1-C ,  6-H ) :   0.9375
B(  1-C ,  7-H ) :   0.9322 B(  2-C ,  3-C ) :   0.9547 B(  2-C ,  8-H ) :   0.9454
B(  2-C ,  9-H ) :   0.9431 B(  3-C ,  4-O ) :   0.8381 B(  3-C , 10-H ) :   0.9353
B(  3-C , 11-H ) :   0.9400 B( 12-C , 13-H ) :   0.9105 B( 12-C , 14-H ) :   0.9386
B( 12-C , 15-O ) :   0.8720 B( 12-C , 16-C ) :   0.8740 B( 16-C , 17-C ) :   0.8978
B( 16-C , 20-O ) :   0.8612 B( 16-C , 21-H ) :   0.9237 B( 17-C , 18-C ) :   0.9117
B( 17-C , 22-O ) :   0.8934 B( 17-C , 23-H ) :   0.9319 B( 18-C , 19-C ) :   0.9405
B( 18-C , 24-H ) :   0.9368 B( 18-C , 25-H ) :   0.9338 B( 19-C , 20-O ) :   0.8467
B( 19-C , 26-H ) :   0.9336 B( 19-C , 27-H ) :   0.9374 B( 22-O , 28-H ) :   0.7941

FINAL SINGLE POINT ENERGY      -652.860710634047

DIPOLE MOMENT
-------------
                                X             Y             Z
Electronic contribution:      0.30516      -2.17942      -1.18368
Nuclear contribution   :     -0.74907       2.59652       1.02938
                        -----------------------------------------
Total Dipole Moment    :     -0.44391       0.41709      -0.15430
                        -----------------------------------------
Magnitude (a.u.)       :      0.62836
Magnitude (Debye)      :      1.59716

Rotational constants in cm-1:     0.064979     0.011822     0.011523
Rotational constants in MHz :  1948.012456   354.418192   345.453244

                             ****ORCA TERMINATED NORMALLY****
TOTAL RUN TIME: 0 days 0 hours 24 minutes 20 seconds 501 msec
