                         Program Version 4.2.0 -  RELEASE  -
|  1> # Test redundant internal optimization
|  2> #
|  3> ! RKS B3LYP  Opt TightSCF SmallPrint
|  4>
|  5> %basis
|  6>         Basis "6-31G"
|  7> end
|  8>
|  9> %geom
| 10> Constraints
| 11> { D 4  0  15  12  285.0   C } # D for Dihedral angle
| 12> { D 0  15  12  16  165.0   C } # D for Dihedral angle
| 13> { D 0  4  3  2   C } # D for Dihedral angle
| 14> { D 4  3  2  1   C } # D for Dihedral angle
| 15> { D 3  2  1  0   C } # D for Dihedral angle
| 16> { D 2  1  0  4   C } # D for Dihedral angle
| 17> { D 1  0  4  3   C } # D for Dihedral angle
| 18> { D 16  20  19  18   C } # D for Dihedral angle
| 19> { D 20  19  18  17   C } # D for Dihedral angle
| 20> { D 19  18  17  16   C } # D for Dihedral angle
| 21> { D 18  17  16  20   C } # D for Dihedral angle
| 22> { D 17  16  20  19   C } # D for Dihedral angle
| 23> { D 15  12  16  20   C } # D for Dihedral angle
| 24> end
| 25> end
| 26>
| 27>
| 28> #%pal
| 29> #nprocs 8
| 30> #end
| 31>
| 32> * xyz 0 1
| 33> C  -21.048   26.222   46.251
| 34> C  -20.361   27.558   45.944
| 35> C  -20.329   28.222   47.341
| 36> C  -20.110   27.022   48.296
| 37> O  -20.473   25.807   47.535
| 38> H  -20.833   25.428   45.533
| 39> H  -19.344   27.382   45.576
| 40> H  -20.898   28.157   45.201
| 41> H  -19.543   28.978   47.434
| 42> H  -21.289   28.710   47.548
| 43> H  -20.733   27.082   49.195
| 44> H  -19.064   26.913   48.597
| 45> C  -23.396   25.070   46.435
| 46> H  -23.429   24.620   45.435
| 47> H  -22.915   24.356   47.116
| 48> O  -22.586   26.394   46.375
| 49> C  -24.855   25.280   46.925
| 50> C  -25.588   23.943   47.083
| 51> C  -25.040   23.444   48.441
| 52> C  -24.871   24.752   49.254
| 53> O  -24.865   25.858   48.273
| 54> H  -25.354   25.994   46.267
| 55> O  -27.121   24.181   47.164
| 56> H  -25.389   23.245   46.263
| 57> H  -25.710   22.731   48.933
| 58> H  -24.072   22.950   48.298
| 59> H  -23.935   24.773   49.824
| 60> H  -25.706   24.930   49.937
| 61> H  -27.342   24.878   47.979
| 62> *
| 63>
| 64>                          ****END OF INPUT****
 Total Charge           Charge          ....    0
 Multiplicity           Mult            ....    1
 Number of Electrons    NEL             ....  102
FINAL SINGLE POINT ENERGY      -652.836139195781
FINAL SINGLE POINT ENERGY      -652.861051179200
FINAL SINGLE POINT ENERGY      -652.865354455822
FINAL SINGLE POINT ENERGY      -652.866171822976
FINAL SINGLE POINT ENERGY      -652.866286880233
FINAL SINGLE POINT ENERGY      -652.866296750336
                    ***********************HURRAY********************

CARTESIAN COORDINATES (ANGSTROEM)
---------------------------------
  C    -21.103170   26.143659   46.219118
  C    -20.561372   27.551006   45.968128
  C    -20.564289   28.148998   47.393176
  C    -20.206773   26.938350   48.283039
  O    -20.469803   25.732704   47.455430
  H    -20.848654   25.384925   45.471910
  H    -19.542529   27.481526   45.569893
  H    -21.182852   28.108822   45.264802
  H    -19.852030   28.972096   47.505866
  H    -21.565760   28.516737   47.632565
  H    -20.814820   26.881909   49.189011
  H    -19.146871   26.904962   48.552998
  C    -23.249539   25.004973   46.422362
  H    -23.308205   24.558481   45.417445
  H    -22.716424   24.312477   47.086535
  O    -22.531393   26.266057   46.366881
  C    -24.653115   25.288888   46.947674
  C    -25.520562   24.032425   47.111046
  C    -25.047547   23.500307   48.489150
  C    -24.762336   24.797335   49.285899
  O    -24.628383   25.884472   48.286089
  H    -25.133611   26.024698   46.295344
  O    -26.933315   24.375906   47.121679
  H    -25.407854   23.305168   46.305558
  H    -25.819610   22.876742   48.947291
  H    -24.140376   22.897092   48.371384
  H    -23.840416   24.738025   49.872389
  H    -25.585883   25.070609   49.953233
  H    -27.061509   25.180651   47.667102

 Multiplicity           Mult            ....    1
 Number of Electrons    NEL             ....  102
 Basis Dimension        Dim             ....  149

ORBITAL ENERGIES
----------------

  NO   OCC          E(Eh)            E(eV)
   0   2.0000     -19.141304      -520.8614
   1   2.0000     -19.139408      -520.8098
   2   2.0000     -19.138031      -520.7723
   3   2.0000     -19.136449      -520.7292
   4   2.0000     -10.275746      -279.6173
   5   2.0000     -10.242615      -278.7157
   6   2.0000     -10.233394      -278.4648
   7   2.0000     -10.229640      -278.3627
   8   2.0000     -10.228842      -278.3409
   9   2.0000     -10.220780      -278.1216
  10   2.0000     -10.188967      -277.2559
  11   2.0000     -10.181421      -277.0505
  12   2.0000     -10.179590      -277.0007
  13   2.0000      -1.053086       -28.6559
  14   2.0000      -1.034717       -28.1561
  15   2.0000      -1.005188       -27.3525
  16   2.0000      -0.990751       -26.9597
  17   2.0000      -0.788810       -21.4646
  18   2.0000      -0.779570       -21.2132
  19   2.0000      -0.765388       -20.8273
  20   2.0000      -0.727090       -19.7851
  21   2.0000      -0.671397       -18.2696
  22   2.0000      -0.603560       -16.4237
  23   2.0000      -0.595246       -16.1975
  24   2.0000      -0.587777       -15.9942
  25   2.0000      -0.582880       -15.8610
  26   2.0000      -0.526733       -14.3331
  27   2.0000      -0.509630       -13.8677
  28   2.0000      -0.489114       -13.3095
  29   2.0000      -0.485420       -13.2089
  30   2.0000      -0.477837       -13.0026
  31   2.0000      -0.457570       -12.4511
  32   2.0000      -0.449567       -12.2333
  33   2.0000      -0.438529       -11.9330
  34   2.0000      -0.422010       -11.4835
  35   2.0000      -0.401512       -10.9257
  36   2.0000      -0.398801       -10.8519
  37   2.0000      -0.393124       -10.6974
  38   2.0000      -0.374277       -10.1846
  39   2.0000      -0.371210       -10.1011
  40   2.0000      -0.357802        -9.7363
  41   2.0000      -0.351771        -9.5722
  42   2.0000      -0.343850        -9.3566
  43   2.0000      -0.330160        -8.9841
  44   2.0000      -0.324262        -8.8236
  45   2.0000      -0.306285        -8.3344
  46   2.0000      -0.297012        -8.0821
  47   2.0000      -0.270573        -7.3627
  48   2.0000      -0.265050        -7.2124
  49   2.0000      -0.248771        -6.7694
  50   2.0000      -0.244097        -6.6422
  51   0.0000       0.067160         1.8275
  52   0.0000       0.087318         2.3760
  53   0.0000       0.091424         2.4878
  54   0.0000       0.100394         2.7319
  55   0.0000       0.107441         2.9236

MULLIKEN ATOMIC CHARGES
-----------------------
   0 C :    0.284821
   1 C :   -0.260245
   2 C :   -0.298809
   3 C :   -0.001342
   4 O :   -0.514428
   5 H :    0.137282
   6 H :    0.142360
   7 H :    0.156134
   8 H :    0.137827
   9 H :    0.172826
  10 H :    0.150944
  11 H :    0.139330
  12 C :    0.000036
  13 H :    0.124332
  14 H :    0.151009
  15 O :   -0.510872
  16 C :    0.060413
  17 C :    0.077494
  18 C :   -0.302759
  19 C :   -0.029598
  20 O :   -0.509698
  21 H :    0.169400
  22 O :   -0.602114
  23 H :    0.151415
  24 H :    0.163606
  25 H :    0.148234
  26 H :    0.151619
  27 H :    0.145268
  28 H :    0.365515
Sum of atomic charges:    0.0000000

LOEWDIN ATOMIC CHARGES
----------------------
   0 C :    0.171654
   1 C :   -0.214841
   2 C :   -0.215648
   3 C :   -0.026537
   4 O :   -0.332534
   5 H :    0.094779
   6 H :    0.112512
   7 H :    0.123818
   8 H :    0.111999
   9 H :    0.124484
  10 H :    0.107522
  11 H :    0.100905
  12 C :   -0.045341
  13 H :    0.094007
  14 H :    0.105064
  15 O :   -0.317590
  16 C :    0.017806
  17 C :    0.035669
  18 C :   -0.242762
  19 C :   -0.038454
  20 O :   -0.320951
  21 H :    0.120288
  22 O :   -0.414461
  23 H :    0.115086
  24 H :    0.126708
  25 H :    0.114558
  26 H :    0.106729
  27 H :    0.101815
  28 H :    0.283716

  Mayer bond orders larger than 0.100000
B(  0-C ,  1-C ) :   0.9501 B(  0-C ,  4-O ) :   0.9062 B(  0-C ,  5-H ) :   0.9193
B(  0-C , 15-O ) :   0.8655 B(  1-C ,  2-C ) :   0.9570 B(  1-C ,  6-H ) :   0.9409
B(  1-C ,  7-H ) :   0.9363 B(  2-C ,  3-C ) :   0.9565 B(  2-C ,  8-H ) :   0.9453
B(  2-C ,  9-H ) :   0.9416 B(  3-C ,  4-O ) :   0.8342 B(  3-C , 10-H ) :   0.9353
B(  3-C , 11-H ) :   0.9404 B( 12-C , 13-H ) :   0.9123 B( 12-C , 14-H ) :   0.9110
B( 12-C , 15-O ) :   0.8354 B( 12-C , 16-C ) :   0.9040 B( 16-C , 17-C ) :   0.9012
B( 16-C , 20-O ) :   0.8681 B( 16-C , 21-H ) :   0.9232 B( 17-C , 18-C ) :   0.9117
B( 17-C , 22-O ) :   0.8942 B( 17-C , 23-H ) :   0.9331 B( 18-C , 19-C ) :   0.9408
B( 18-C , 24-H ) :   0.9372 B( 18-C , 25-H ) :   0.9329 B( 19-C , 20-O ) :   0.8513
B( 19-C , 26-H ) :   0.9334 B( 19-C , 27-H ) :   0.9374 B( 22-O , 28-H ) :   0.7937

FINAL SINGLE POINT ENERGY      -652.866298755011

DIPOLE MOMENT
-------------
                                X             Y             Z
Electronic contribution:     -3.11506      -0.65882      -1.40723
Nuclear contribution   :      3.70769       0.59573       1.53345
                        -----------------------------------------
Total Dipole Moment    :      0.59263      -0.06309       0.12622
                        -----------------------------------------
Magnitude (a.u.)       :      0.60919
Magnitude (Debye)      :      1.54845

Rotational constants in cm-1:     0.060779     0.012809     0.012120
Rotational constants in MHz :  1822.106222   383.997998   363.363345

                             ****ORCA TERMINATED NORMALLY****
TOTAL RUN TIME: 0 days 0 hours 16 minutes 40 seconds 455 msec
