                         Program Version 4.2.1 -  RELEASE  -
|  1> # Test redundant internal optimization
|  2> #
|  3> ! RKS B3LYP  Opt TightSCF SmallPrint
|  4>
|  5> %basis
|  6>         Basis "6-31G"
|  7> end
|  8>
|  9> %geom
| 10> Constraints
| 11> { D 4  0  19  14  300.0   C } # D for Dihedral angle
| 12> { D 0  19  14  12  135.0   C } # D for Dihedral angle
| 13> { D 0  4  3  2   C } # D for Dihedral angle
| 14> { D 4  3  2  1   C } # D for Dihedral angle
| 15> { D 3  2  1  0   C } # D for Dihedral angle
| 16> { D 2  1  0  4   C } # D for Dihedral angle
| 17> { D 1  0  4  3   C } # D for Dihedral angle
| 18> { D 14  15  16  17   C } # D for Dihedral angle
| 19> { D 15  16  17  12   C } # D for Dihedral angle
| 20> { D 16  17  12  14   C } # D for Dihedral angle
| 21> { D 17  12  14  15   C } # D for Dihedral angle
| 22> { D 12  14  15  16   C } # D for Dihedral angle
| 23> end
| 24> end
| 25>
| 26>
| 27> #%pal
| 28> #nprocs 8
| 29> #end
| 30>
| 31> * xyz 0 1
| 32> C  -21.048   26.222   46.251
| 33> C  -20.361   27.558   45.944
| 34> C  -20.329   28.222   47.341
| 35> C  -20.110   27.022   48.296
| 36> O  -20.473   25.807   47.535
| 37> H  -20.833   25.428   45.533
| 38> H  -19.344   27.382   45.576
| 39> H  -20.898   28.157   45.201
| 40> H  -19.543   28.978   47.434
| 41> H  -21.289   28.710   47.548
| 42> H  -20.733   27.082   49.195
| 43> H  -19.064   26.913   48.597
| 44> C  -24.202   25.517   47.844
| 45> H  -24.541   24.607   48.363
| 46> C  -23.171   25.189   46.758
| 47> C  -24.075   24.683   45.609
| 48> C  -25.344   25.562   45.746
| 49> O  -25.315   26.132   47.111
| 50> H  -23.865   26.246   48.583
| 51> O  -22.472   26.381   46.366
| 52> H  -22.433   24.445   47.077
| 53> H  -23.605   24.778   44.625
| 54> H  -24.321   23.624   45.761
| 55> H  -26.268   24.990   45.616
| 56> H  -25.346   26.403   45.046
| 57> *
| 58>
| 59>                          ****END OF INPUT****
 Total Charge           Charge          ....    0
 Multiplicity           Mult            ....    1
 Number of Electrons    NEL             ....   86
FINAL SINGLE POINT ENERGY      -538.435988400879
FINAL SINGLE POINT ENERGY      -538.437812127431
FINAL SINGLE POINT ENERGY      -538.438145231014
FINAL SINGLE POINT ENERGY      -538.438165268716
FINAL SINGLE POINT ENERGY      -538.438172748313
                    ***********************HURRAY********************

CARTESIAN COORDINATES (ANGSTROEM)
---------------------------------
  C    -21.000551   26.183580   46.244545
  C    -20.409541   27.562571   45.950351
  C    -20.402955   28.207706   47.353922
  C    -20.093250   27.017871   48.289463
  O    -20.390975   25.792377   47.500235
  H    -20.751692   25.390098   45.532360
  H    -19.391415   27.443434   45.562983
  H    -21.007019   28.117462   45.224275
  H    -19.663585   29.009337   47.445339
  H    -21.392308   28.620543   47.569842
  H    -20.705295   27.013143   49.195081
  H    -19.037126   26.958064   48.568267
  C    -24.189096   25.543990   47.836458
  H    -24.562509   24.654663   48.366025
  C    -23.169308   25.148902   46.769393
  C    -24.084127   24.672848   45.624564
  C    -25.308455   25.613107   45.732334
  O    -25.261194   26.200731   47.087871
  H    -23.795165   26.265193   48.553873
  O    -22.429254   26.344138   46.354290
  H    -22.468221   24.386674   47.121790
  H    -23.582927   24.738652   44.655002
  H    -24.371171   23.627970   45.794115
  H    -26.257985   25.082356   45.601921
  H    -25.257877   26.442591   45.021701

 Multiplicity           Mult            ....    1
 Number of Electrons    NEL             ....   86
 Basis Dimension        Dim             ....  127

ORBITAL ENERGIES
----------------

  NO   OCC          E(Eh)            E(eV)
   0   2.0000     -19.142046      -520.8816
   1   2.0000     -19.141247      -520.8598
   2   2.0000     -19.124351      -520.4000
   3   2.0000     -10.278542      -279.6934
   4   2.0000     -10.234865      -278.5048
   5   2.0000     -10.226061      -278.2653
   6   2.0000     -10.217982      -278.0454
   7   2.0000     -10.217317      -278.0273
   8   2.0000     -10.184652      -277.1385
   9   2.0000     -10.184145      -277.1247
  10   2.0000     -10.183590      -277.1096
  11   2.0000      -1.054890       -28.7050
  12   2.0000      -1.011264       -27.5179
  13   2.0000      -0.988222       -26.8909
  14   2.0000      -0.791917       -21.5492
  15   2.0000      -0.774369       -21.0716
  16   2.0000      -0.738247       -20.0887
  17   2.0000      -0.719036       -19.5660
  18   2.0000      -0.607317       -16.5259
  19   2.0000      -0.596290       -16.2259
  20   2.0000      -0.595934       -16.2162
  21   2.0000      -0.572396       -15.5757
  22   2.0000      -0.520712       -14.1693
  23   2.0000      -0.501236       -13.6393
  24   2.0000      -0.482874       -13.1397
  25   2.0000      -0.476118       -12.9558
  26   2.0000      -0.453956       -12.3528
  27   2.0000      -0.436442       -11.8762
  28   2.0000      -0.426139       -11.5958
  29   2.0000      -0.416031       -11.3208
  30   2.0000      -0.405120       -11.0239
  31   2.0000      -0.381904       -10.3921
  32   2.0000      -0.369457       -10.0534
  33   2.0000      -0.366372        -9.9695
  34   2.0000      -0.356896        -9.7116
  35   2.0000      -0.352731        -9.5983
  36   2.0000      -0.341614        -9.2958
  37   2.0000      -0.330690        -8.9985
  38   2.0000      -0.300435        -8.1753
  39   2.0000      -0.294642        -8.0176
  40   2.0000      -0.266996        -7.2653
  41   2.0000      -0.254448        -6.9239
  42   2.0000      -0.229876        -6.2552
  43   0.0000       0.081401         2.2150
  44   0.0000       0.096454         2.6246
  45   0.0000       0.103241         2.8093
  46   0.0000       0.110895         3.0176
  47   0.0000       0.115800         3.1511

MULLIKEN ATOMIC CHARGES
-----------------------
   0 C :    0.281208
   1 C :   -0.260683
   2 C :   -0.299284
   3 C :   -0.006264
   4 O :   -0.515585
   5 H :    0.141410
   6 H :    0.143885
   7 H :    0.159996
   8 H :    0.141280
   9 H :    0.167609
  10 H :    0.145891
  11 H :    0.143798
  12 C :    0.010907
  13 H :    0.122475
  14 C :    0.054134
  15 C :   -0.289689
  16 C :    0.008071
  17 O :   -0.521602
  18 H :    0.158518
  19 O :   -0.514741
  20 H :    0.155808
  21 H :    0.149540
  22 H :    0.140547
  23 H :    0.130772
  24 H :    0.152000
Sum of atomic charges:   -0.0000000

LOEWDIN ATOMIC CHARGES
----------------------
   0 C :    0.171174
   1 C :   -0.213866
   2 C :   -0.216111
   3 C :   -0.028475
   4 O :   -0.333915
   5 H :    0.094369
   6 H :    0.113591
   7 H :    0.125878
   8 H :    0.113709
   9 H :    0.121698
  10 H :    0.104304
  11 H :    0.103319
  12 C :   -0.035220
  13 H :    0.090938
  14 C :    0.033721
  15 C :   -0.231480
  16 C :   -0.027381
  17 O :   -0.330989
  18 H :    0.117998
  19 O :   -0.322805
  20 H :    0.113392
  21 H :    0.120440
  22 H :    0.111685
  23 H :    0.096516
  24 H :    0.107508

  Mayer bond orders larger than 0.100000
B(  0-C ,  1-C ) :   0.9501 B(  0-C ,  4-O ) :   0.8960 B(  0-C ,  5-H ) :   0.9197
B(  0-C , 19-O ) :   0.8731 B(  1-C ,  2-C ) :   0.9556 B(  1-C ,  6-H ) :   0.9401
B(  1-C ,  7-H ) :   0.9356 B(  2-C ,  3-C ) :   0.9560 B(  2-C ,  8-H ) :   0.9450
B(  2-C ,  9-H ) :   0.9428 B(  3-C ,  4-O ) :   0.8342 B(  3-C , 10-H ) :   0.9355
B(  3-C , 11-H ) :   0.9405 B( 12-C , 13-H ) :   0.9141 B( 12-C , 14-C ) :   0.9343
B( 12-C , 17-O ) :   0.8703 B( 12-C , 18-H ) :   0.9332 B( 14-C , 15-C ) :   0.9427
B( 14-C , 19-O ) :   0.8137 B( 14-C , 20-H ) :   0.9138 B( 15-C , 16-C ) :   0.9456
B( 15-C , 21-H ) :   0.9415 B( 15-C , 22-H ) :   0.9390 B( 16-C , 17-O ) :   0.8587
B( 16-C , 23-H ) :   0.9339 B( 16-C , 24-H ) :   0.9362

FINAL SINGLE POINT ENERGY      -538.438173118673

DIPOLE MOMENT
-------------
                                X             Y             Z
Electronic contribution:     -1.06863      -1.03441       0.61236
Nuclear contribution   :      1.77675       0.80718      -0.95903
                        -----------------------------------------
Total Dipole Moment    :      0.70812      -0.22723      -0.34667
                        -----------------------------------------
Magnitude (a.u.)       :      0.82052
Magnitude (Debye)      :      2.08558

Rotational constants in cm-1:     0.080039     0.020696     0.020170
Rotational constants in MHz :  2399.497704   620.465373   604.679159

                             ****ORCA TERMINATED NORMALLY****
TOTAL RUN TIME: 0 days 0 hours 5 minutes 44 seconds 678 msec
