                         Program Version 4.2.0 -  RELEASE  -
|  1> # Test redundant internal optimization
|  2> #
|  3> ! RKS B3LYP  Opt TightSCF SmallPrint
|  4>
|  5> %basis
|  6>         Basis "6-31G"
|  7> end
|  8>
|  9> %geom
| 10> Constraints
| 11> { D 4  0  15  12  15.0   C } # D for Dihedral angle
| 12> { D 0  15  12  16  150.0   C } # D for Dihedral angle
| 13> { D 0  4  3  2   C } # D for Dihedral angle
| 14> { D 4  3  2  1   C } # D for Dihedral angle
| 15> { D 3  2  1  0   C } # D for Dihedral angle
| 16> { D 2  1  0  4   C } # D for Dihedral angle
| 17> { D 1  0  4  3   C } # D for Dihedral angle
| 18> { D 16  20  19  18   C } # D for Dihedral angle
| 19> { D 20  19  18  17   C } # D for Dihedral angle
| 20> { D 19  18  17  16   C } # D for Dihedral angle
| 21> { D 18  17  16  20   C } # D for Dihedral angle
| 22> { D 17  16  20  19   C } # D for Dihedral angle
| 23> { D 15  12  16  20   C } # D for Dihedral angle
| 24> end
| 25> end
| 26>
| 27>
| 28> #%pal
| 29> #nprocs 8
| 30> #end
| 31>
| 32> * xyz 0 1
| 33> C  -21.048   26.222   46.251
| 34> C  -20.361   27.558   45.944
| 35> C  -20.329   28.222   47.341
| 36> C  -20.110   27.022   48.296
| 37> O  -20.473   25.807   47.535
| 38> H  -20.833   25.428   45.533
| 39> H  -19.344   27.382   45.576
| 40> H  -20.898   28.157   45.201
| 41> H  -19.543   28.978   47.434
| 42> H  -21.289   28.710   47.548
| 43> H  -20.733   27.082   49.195
| 44> H  -19.064   26.913   48.597
| 45> C  -23.128   26.462   47.829
| 46> H  -23.360   25.448   48.177
| 47> H  -22.372   26.890   48.501
| 48> O  -22.586   26.394   46.375
| 49> C  -24.413   27.327   47.951
| 50> C  -24.853   27.467   49.413
| 51> C  -23.884   28.558   49.929
| 52> C  -23.710   29.483   48.698
| 53> O  -24.147   28.704   47.521
| 54> H  -25.179   26.925   47.285
| 55> O  -26.323   27.963   49.482
| 56> H  -24.777   26.531   49.976
| 57> H  -24.273   29.093   50.801
| 58> H  -22.925   28.107   50.211
| 59> H  -22.670   29.798   48.554
| 60> H  -24.345   30.372   48.751
| 61> H  -26.422   28.900   48.924
| 62> *
| 63>
| 64>                          ****END OF INPUT****
 Total Charge           Charge          ....    0
 Multiplicity           Mult            ....    1
 Number of Electrons    NEL             ....  102
FINAL SINGLE POINT ENERGY      -652.824965704933
FINAL SINGLE POINT ENERGY      -652.848866501471
FINAL SINGLE POINT ENERGY      -652.853725563568
FINAL SINGLE POINT ENERGY      -652.856555476422
FINAL SINGLE POINT ENERGY      -652.856818929253
FINAL SINGLE POINT ENERGY      -652.856871116540
FINAL SINGLE POINT ENERGY      -652.856876592012
                    ***********************HURRAY********************

CARTESIAN COORDINATES (ANGSTROEM)
---------------------------------
  C    -21.164299   26.269467   46.334962
  C    -20.486011   27.582481   45.937032
  C    -20.127864   28.185612   47.317212
  C    -19.780681   26.939891   48.164367
  O    -20.369804   25.779879   47.440150
  H    -21.124384   25.498030   45.562860
  H    -19.584190   27.361474   45.354233
  H    -21.150417   28.220379   45.350973
  H    -19.296301   28.895066   47.267393
  H    -21.000317   28.710351   47.719439
  H    -20.189335   26.970877   49.179357
  H    -18.703566   26.755561   48.222715
  C    -23.079849   26.458579   47.977201
  H    -23.360963   25.441614   48.285931
  H    -22.327703   26.823479   48.683529
  O    -22.576643   26.444794   46.619262
  C    -24.313758   27.357164   47.990081
  C    -24.979623   27.519043   49.364932
  C    -24.118648   28.642288   50.000126
  C    -23.769917   29.544935   48.790815
  O    -24.006344   28.730199   47.573219
  H    -25.025529   26.973935   47.252479
  O    -26.369252   27.922835   49.224399
  H    -25.002274   26.603978   49.958375
  H    -24.680965   29.165764   50.777520
  H    -23.216515   28.217802   50.455405
  H    -22.728960   29.882196   48.801613
  H    -24.418494   30.423427   48.721976
  H    -26.439393   28.581899   48.501442

 Multiplicity           Mult            ....    1
 Number of Electrons    NEL             ....  102
 Basis Dimension        Dim             ....  149

ORBITAL ENERGIES
----------------

  NO   OCC          E(Eh)            E(eV)
   0   2.0000     -19.149489      -521.0841
   1   2.0000     -19.144341      -520.9440
   2   2.0000     -19.139933      -520.8240
   3   2.0000     -19.134986      -520.6894
   4   2.0000     -10.277513      -279.6653
   5   2.0000     -10.245033      -278.7815
   6   2.0000     -10.234013      -278.4816
   7   2.0000     -10.233966      -278.4804
   8   2.0000     -10.233815      -278.4763
   9   2.0000     -10.232393      -278.4376
  10   2.0000     -10.192936      -277.3639
  11   2.0000     -10.190801      -277.3058
  12   2.0000     -10.182377      -277.0766
  13   2.0000      -1.053769       -28.6745
  14   2.0000      -1.037715       -28.2377
  15   2.0000      -1.008049       -27.4304
  16   2.0000      -0.991661       -26.9845
  17   2.0000      -0.790959       -21.5231
  18   2.0000      -0.784912       -21.3585
  19   2.0000      -0.771768       -21.0009
  20   2.0000      -0.734462       -19.9857
  21   2.0000      -0.675611       -18.3843
  22   2.0000      -0.607079       -16.5195
  23   2.0000      -0.604027       -16.4364
  24   2.0000      -0.595294       -16.1988
  25   2.0000      -0.579429       -15.7671
  26   2.0000      -0.528250       -14.3744
  27   2.0000      -0.510714       -13.8972
  28   2.0000      -0.499878       -13.6024
  29   2.0000      -0.491461       -13.3733
  30   2.0000      -0.477647       -12.9974
  31   2.0000      -0.462009       -12.5719
  32   2.0000      -0.452694       -12.3184
  33   2.0000      -0.444332       -12.0909
  34   2.0000      -0.417859       -11.3705
  35   2.0000      -0.412553       -11.2261
  36   2.0000      -0.405264       -11.0278
  37   2.0000      -0.396750       -10.7961
  38   2.0000      -0.376056       -10.2330
  39   2.0000      -0.372702       -10.1417
  40   2.0000      -0.362094        -9.8531
  41   2.0000      -0.358893        -9.7660
  42   2.0000      -0.348067        -9.4714
  43   2.0000      -0.339081        -9.2269
  44   2.0000      -0.324923        -8.8416
  45   2.0000      -0.310117        -8.4387
  46   2.0000      -0.306966        -8.3530
  47   2.0000      -0.273080        -7.4309
  48   2.0000      -0.263490        -7.1699
  49   2.0000      -0.251927        -6.8553
  50   2.0000      -0.240963        -6.5569
  51   0.0000       0.049231         1.3396
  52   0.0000       0.076570         2.0836
  53   0.0000       0.090002         2.4491
  54   0.0000       0.096495         2.6258
  55   0.0000       0.100716         2.7406

MULLIKEN ATOMIC CHARGES
-----------------------
   0 C :    0.298087
   1 C :   -0.253463
   2 C :   -0.326617
   3 C :   -0.020798
   4 O :   -0.510335
   5 H :    0.160074
   6 H :    0.142751
   7 H :    0.169684
   8 H :    0.146558
   9 H :    0.169918
  10 H :    0.137834
  11 H :    0.152251
  12 C :    0.014688
  13 H :    0.137631
  14 H :    0.129449
  15 O :   -0.531579
  16 C :    0.063382
  17 C :    0.075549
  18 C :   -0.291781
  19 C :   -0.033715
  20 O :   -0.512782
  21 H :    0.171696
  22 O :   -0.600164
  23 H :    0.153320
  24 H :    0.164183
  25 H :    0.138383
  26 H :    0.139745
  27 H :    0.149644
  28 H :    0.366408
Sum of atomic charges:    0.0000000

LOEWDIN ATOMIC CHARGES
----------------------
   0 C :    0.183917
   1 C :   -0.221699
   2 C :   -0.224412
   3 C :   -0.035796
   4 O :   -0.320350
   5 H :    0.107833
   6 H :    0.113037
   7 H :    0.130543
   8 H :    0.117302
   9 H :    0.117112
  10 H :    0.096679
  11 H :    0.107055
  12 C :   -0.032398
  13 H :    0.101618
  14 H :    0.095578
  15 O :   -0.330192
  16 C :    0.015174
  17 C :    0.035551
  18 C :   -0.241129
  19 C :   -0.040636
  20 O :   -0.323390
  21 H :    0.121419
  22 O :   -0.413300
  23 H :    0.116312
  24 H :    0.127432
  25 H :    0.110219
  26 H :    0.098462
  27 H :    0.103900
  28 H :    0.284160

  Mayer bond orders larger than 0.100000
B(  0-C ,  1-C ) :   0.9231 B(  0-C ,  4-O ) :   0.9106 B(  0-C ,  5-H ) :   0.9325
B(  0-C , 15-O ) :   0.8560 B(  1-C ,  2-C ) :   0.9538 B(  1-C ,  6-H ) :   0.9353
B(  1-C ,  7-H ) :   0.9337 B(  2-C ,  3-C ) :   0.9510 B(  2-C ,  8-H ) :   0.9448
B(  2-C ,  9-H ) :   0.9322 B(  3-C ,  4-O ) :   0.8348 B(  3-C , 10-H ) :   0.9291
B(  3-C , 11-H ) :   0.9390 B( 12-C , 13-H ) :   0.9170 B( 12-C , 14-H ) :   0.9116
B( 12-C , 15-O ) :   0.8345 B( 12-C , 16-C ) :   0.8967 B( 16-C , 17-C ) :   0.9002
B( 16-C , 20-O ) :   0.8576 B( 16-C , 21-H ) :   0.9220 B( 17-C , 18-C ) :   0.9109
B( 17-C , 22-O ) :   0.8959 B( 17-C , 23-H ) :   0.9326 B( 18-C , 19-C ) :   0.9415
B( 18-C , 24-H ) :   0.9370 B( 18-C , 25-H ) :   0.9343 B( 19-C , 20-O ) :   0.8560
B( 19-C , 26-H ) :   0.9277 B( 19-C , 27-H ) :   0.9374 B( 22-O , 28-H ) :   0.7932

FINAL SINGLE POINT ENERGY      -652.856867765580

DIPOLE MOMENT
-------------
                                X             Y             Z
Electronic contribution:     -4.13397      -3.51009      -2.77618
Nuclear contribution   :      5.05411       4.34064       3.36234
                        -----------------------------------------
Total Dipole Moment    :      0.92015       0.83055       0.58616
                        -----------------------------------------
Magnitude (a.u.)       :      1.37116
Magnitude (Debye)      :      3.48521

Rotational constants in cm-1:     0.053556     0.014906     0.014103
Rotational constants in MHz :  1605.579372   446.857695   422.787644

                             ****ORCA TERMINATED NORMALLY****
TOTAL RUN TIME: 0 days 0 hours 26 minutes 3 seconds 208 msec
