                         Program Version 4.2.0 -  RELEASE  -
|  1> # Test redundant internal optimization
|  2> #
|  3> ! RKS B3LYP  Opt TightSCF SmallPrint
|  4>
|  5> %basis
|  6>         Basis "6-31G"
|  7> end
|  8>
|  9> %geom
| 10> Constraints
| 11> { D 4  0  15  12  300.0   C } # D for Dihedral angle
| 12> { D 0  15  12  16  180.0   C } # D for Dihedral angle
| 13> { D 0  4  3  2   C } # D for Dihedral angle
| 14> { D 4  3  2  1   C } # D for Dihedral angle
| 15> { D 3  2  1  0   C } # D for Dihedral angle
| 16> { D 2  1  0  4   C } # D for Dihedral angle
| 17> { D 1  0  4  3   C } # D for Dihedral angle
| 18> { D 16  20  19  18   C } # D for Dihedral angle
| 19> { D 20  19  18  17   C } # D for Dihedral angle
| 20> { D 19  18  17  16   C } # D for Dihedral angle
| 21> { D 18  17  16  20   C } # D for Dihedral angle
| 22> { D 17  16  20  19   C } # D for Dihedral angle
| 23> { D 15  12  16  20   C } # D for Dihedral angle
| 24> end
| 25> end
| 26>
| 27>
| 28> #%pal
| 29> #nprocs 8
| 30> #end
| 31>
| 32> * xyz 0 1
| 33> C  -21.048   26.222   46.251
| 34> C  -20.361   27.558   45.944
| 35> C  -20.329   28.222   47.341
| 36> C  -20.110   27.022   48.296
| 37> O  -20.473   25.807   47.535
| 38> H  -20.833   25.428   45.533
| 39> H  -19.344   27.382   45.576
| 40> H  -20.898   28.157   45.201
| 41> H  -19.543   28.978   47.434
| 42> H  -21.289   28.710   47.548
| 43> H  -20.733   27.082   49.195
| 44> H  -19.064   26.913   48.597
| 45> C  -23.362   25.116   46.798
| 46> H  -23.185   24.325   46.059
| 47> H  -23.010   24.759   47.774
| 48> O  -22.586   26.394   46.375
| 49> C  -24.894   25.351   46.904
| 50> C  -25.612   24.106   47.434
| 51> C  -25.336   24.206   48.953
| 52> C  -25.361   25.732   49.215
| 53> O  -25.185   26.387   47.901
| 54> H  -25.268   25.716   45.945
| 55> O  -27.136   24.206   47.147
| 56> H  -25.239   23.174   46.995
| 57> H  -26.074   23.666   49.556
| 58> H  -24.347   23.791   49.184
| 59> H  -24.558   26.056   49.887
| 60> H  -26.320   26.071   49.619
| 61> H  -27.531   25.132   47.578
| 62> *
| 63>
| 64>                          ****END OF INPUT****
 Total Charge           Charge          ....    0
 Multiplicity           Mult            ....    1
 Number of Electrons    NEL             ....  102
FINAL SINGLE POINT ENERGY      -652.836656299467
FINAL SINGLE POINT ENERGY      -652.861712663547
FINAL SINGLE POINT ENERGY      -652.866056767016
FINAL SINGLE POINT ENERGY      -652.866887013499
FINAL SINGLE POINT ENERGY      -652.867010316485
FINAL SINGLE POINT ENERGY      -652.867022274779
FINAL SINGLE POINT ENERGY      -652.867024700985
                    ***********************HURRAY********************

CARTESIAN COORDINATES (ANGSTROEM)
---------------------------------
  C    -21.124984   26.149435   46.250022
  C    -20.573122   27.545244   45.959936
  C    -20.527742   28.164795   47.373834
  C    -20.160008   26.965886   48.275272
  O    -20.461568   25.748089   47.475668
  H    -20.893046   25.371494   45.513511
  H    -19.568595   27.454762   45.531291
  H    -21.209627   28.099943   45.267483
  H    -19.802263   28.980359   47.453193
  H    -21.517464   28.550412   47.633391
  H    -20.739832   26.933004   49.201040
  H    -19.093308   26.922979   48.515034
  C    -23.225447   25.062757   46.832843
  H    -23.077743   24.271731   46.078859
  H    -22.798360   24.716051   47.780671
  O    -22.549544   26.279326   46.415981
  C    -24.711764   25.375202   46.959195
  C    -25.554867   24.187004   47.442087
  C    -25.356836   24.261798   48.979224
  C    -25.277371   25.785182   49.247360
  O    -24.976710   26.427476   47.945016
  H    -25.074495   25.758876   46.001287
  O    -26.950033   24.356954   47.069464
  H    -25.258268   23.228108   47.015141
  H    -26.187193   23.777435   49.498876
  H    -24.427745   23.757279   49.266497
  H    -24.493486   26.048136   49.964339
  H    -26.226542   26.200299   49.601126
  H    -27.211038   25.288984   47.227357

 Multiplicity           Mult            ....    1
 Number of Electrons    NEL             ....  102
 Basis Dimension        Dim             ....  149

ORBITAL ENERGIES
----------------

  NO   OCC          E(Eh)            E(eV)
   0   2.0000     -19.142567      -520.8957
   1   2.0000     -19.140139      -520.8297
   2   2.0000     -19.139567      -520.8141
   3   2.0000     -19.138273      -520.7789
   4   2.0000     -10.276473      -279.6370
   5   2.0000     -10.242349      -278.7085
   6   2.0000     -10.232946      -278.4526
   7   2.0000     -10.229309      -278.3536
   8   2.0000     -10.228196      -278.3234
   9   2.0000     -10.223994      -278.2090
  10   2.0000     -10.188742      -277.2498
  11   2.0000     -10.182641      -277.0838
  12   2.0000     -10.181504      -277.0528
  13   2.0000      -1.054945       -28.7065
  14   2.0000      -1.034868       -28.1602
  15   2.0000      -1.005325       -27.3563
  16   2.0000      -0.991881       -26.9905
  17   2.0000      -0.789914       -21.4946
  18   2.0000      -0.780344       -21.2342
  19   2.0000      -0.766003       -20.8440
  20   2.0000      -0.728548       -19.8248
  21   2.0000      -0.671440       -18.2708
  22   2.0000      -0.604041       -16.4368
  23   2.0000      -0.597741       -16.2654
  24   2.0000      -0.588527       -16.0146
  25   2.0000      -0.580849       -15.8057
  26   2.0000      -0.527562       -14.3557
  27   2.0000      -0.508913       -13.8482
  28   2.0000      -0.490798       -13.3553
  29   2.0000      -0.487745       -13.2722
  30   2.0000      -0.476650       -12.9703
  31   2.0000      -0.458668       -12.4810
  32   2.0000      -0.448635       -12.2080
  33   2.0000      -0.442724       -12.0471
  34   2.0000      -0.418294       -11.3824
  35   2.0000      -0.404387       -11.0039
  36   2.0000      -0.399502       -10.8710
  37   2.0000      -0.393217       -10.7000
  38   2.0000      -0.372768       -10.1435
  39   2.0000      -0.370463       -10.0808
  40   2.0000      -0.360675        -9.8145
  41   2.0000      -0.354021        -9.6334
  42   2.0000      -0.345145        -9.3919
  43   2.0000      -0.334296        -9.0967
  44   2.0000      -0.324477        -8.8295
  45   2.0000      -0.306510        -8.3406
  46   2.0000      -0.297026        -8.0825
  47   2.0000      -0.270705        -7.3663
  48   2.0000      -0.263536        -7.1712
  49   2.0000      -0.254373        -6.9218
  50   2.0000      -0.244180        -6.6445
  51   0.0000       0.065787         1.7902
  52   0.0000       0.088235         2.4010
  53   0.0000       0.090218         2.4550
  54   0.0000       0.099804         2.7158
  55   0.0000       0.105892         2.8815

MULLIKEN ATOMIC CHARGES
-----------------------
   0 C :    0.291064
   1 C :   -0.263375
   2 C :   -0.299657
   3 C :   -0.005301
   4 O :   -0.517781
   5 H :    0.139709
   6 H :    0.143406
   7 H :    0.160646
   8 H :    0.139393
   9 H :    0.172904
  10 H :    0.145323
  11 H :    0.142587
  12 C :    0.007678
  13 H :    0.123316
  14 H :    0.149944
  15 O :   -0.515049
  16 C :    0.065434
  17 C :    0.078075
  18 C :   -0.295032
  19 C :   -0.028782
  20 O :   -0.512230
  21 H :    0.165304
  22 O :   -0.603216
  23 H :    0.150320
  24 H :    0.162705
  25 H :    0.146033
  26 H :    0.147853
  27 H :    0.143162
  28 H :    0.365565
Sum of atomic charges:   -0.0000000

LOEWDIN ATOMIC CHARGES
----------------------
   0 C :    0.172420
   1 C :   -0.214067
   2 C :   -0.216281
   3 C :   -0.028067
   4 O :   -0.333001
   5 H :    0.093782
   6 H :    0.113242
   7 H :    0.126207
   8 H :    0.112787
   9 H :    0.124488
  10 H :    0.104332
  11 H :    0.102394
  12 C :   -0.043904
  13 H :    0.093826
  14 H :    0.104600
  15 O :   -0.316922
  16 C :    0.019563
  17 C :    0.036418
  18 C :   -0.240724
  19 C :   -0.038457
  20 O :   -0.322185
  21 H :    0.119329
  22 O :   -0.414801
  23 H :    0.114866
  24 H :    0.126628
  25 H :    0.113865
  26 H :    0.104577
  27 H :    0.101318
  28 H :    0.283765

  Mayer bond orders larger than 0.100000
B(  0-C ,  1-C ) :   0.9517 B(  0-C ,  4-O ) :   0.8959 B(  0-C ,  5-H ) :   0.9186
B(  0-C , 15-O ) :   0.8651 B(  1-C ,  2-C ) :   0.9561 B(  1-C ,  6-H ) :   0.9403
B(  1-C ,  7-H ) :   0.9352 B(  2-C ,  3-C ) :   0.9564 B(  2-C ,  8-H ) :   0.9450
B(  2-C ,  9-H ) :   0.9417 B(  3-C ,  4-O ) :   0.8350 B(  3-C , 10-H ) :   0.9362
B(  3-C , 11-H ) :   0.9406 B( 12-C , 13-H ) :   0.9116 B( 12-C , 14-H ) :   0.9119
B( 12-C , 15-O ) :   0.8321 B( 12-C , 16-C ) :   0.9021 B( 16-C , 17-C ) :   0.9013
B( 16-C , 20-O ) :   0.8652 B( 16-C , 21-H ) :   0.9244 B( 17-C , 18-C ) :   0.9110
B( 17-C , 22-O ) :   0.8928 B( 17-C , 23-H ) :   0.9340 B( 18-C , 19-C ) :   0.9399
B( 18-C , 24-H ) :   0.9374 B( 18-C , 25-H ) :   0.9337 B( 19-C , 20-O ) :   0.8522
B( 19-C , 26-H ) :   0.9341 B( 19-C , 27-H ) :   0.9380 B( 22-O , 28-H ) :   0.7939

FINAL SINGLE POINT ENERGY      -652.867024981333

DIPOLE MOMENT
-------------
                                X             Y             Z
Electronic contribution:     -3.03385      -1.29671      -2.45515
Nuclear contribution   :      3.61164       1.43891       2.88664
                        -----------------------------------------
Total Dipole Moment    :      0.57779       0.14220       0.43149
                        -----------------------------------------
Magnitude (a.u.)       :      0.73502
Magnitude (Debye)      :      1.86826

Rotational constants in cm-1:     0.060364     0.012571     0.012036
Rotational constants in MHz :  1809.667811   376.855994   360.844746

                             ****ORCA TERMINATED NORMALLY****
TOTAL RUN TIME: 0 days 0 hours 21 minutes 51 seconds 692 msec
