                         Program Version 4.2.0 -  RELEASE  -
|  1> # Test redundant internal optimization
|  2> #
|  3> ! RKS B3LYP  Opt TightSCF SmallPrint
|  4>
|  5> %basis
|  6>         Basis "6-31G"
|  7> end
|  8>
|  9> %geom
| 10> Constraints
| 11> { D 4  0  15  12  315.0   C } # D for Dihedral angle
| 12> { D 0  15  12  16  225.0   C } # D for Dihedral angle
| 13> { D 0  4  3  2   C } # D for Dihedral angle
| 14> { D 4  3  2  1   C } # D for Dihedral angle
| 15> { D 3  2  1  0   C } # D for Dihedral angle
| 16> { D 2  1  0  4   C } # D for Dihedral angle
| 17> { D 1  0  4  3   C } # D for Dihedral angle
| 18> { D 16  20  19  18   C } # D for Dihedral angle
| 19> { D 20  19  18  17   C } # D for Dihedral angle
| 20> { D 19  18  17  16   C } # D for Dihedral angle
| 21> { D 18  17  16  20   C } # D for Dihedral angle
| 22> { D 17  16  20  19   C } # D for Dihedral angle
| 23> { D 15  12  16  20   C } # D for Dihedral angle
| 24> end
| 25> end
| 26>
| 27>
| 28> #%pal
| 29> #nprocs 8
| 30> #end
| 31>
| 32> * xyz 0 1
| 33> C  -21.048   26.222   46.251
| 34> C  -20.361   27.558   45.944
| 35> C  -20.329   28.222   47.341
| 36> C  -20.110   27.022   48.296
| 37> O  -20.473   25.807   47.535
| 38> H  -20.833   25.428   45.533
| 39> H  -19.344   27.382   45.576
| 40> H  -20.898   28.157   45.201
| 41> H  -19.543   28.978   47.434
| 42> H  -21.289   28.710   47.548
| 43> H  -20.733   27.082   49.195
| 44> H  -19.064   26.913   48.597
| 45> C  -23.319   25.255   47.135
| 46> H  -22.647   24.393   47.231
| 47> H  -23.600   25.584   48.144
| 48> O  -22.586   26.394   46.375
| 49> C  -24.613   24.787   46.413
| 50> C  -25.370   23.746   47.246
| 51> C  -26.088   24.639   48.286
| 52> C  -26.428   25.916   47.478
| 53> O  -25.558   25.901   46.282
| 54> H  -24.361   24.460   45.402
| 55> O  -26.402   23.000   46.358
| 56> H  -24.710   23.003   47.708
| 57> H  -26.978   24.164   48.710
| 58> H  -25.408   24.875   49.113
| 59> H  -26.240   26.834   48.046
| 60> H  -27.463   25.923   47.124
| 61> H  -27.074   23.726   45.885
| 62> *
| 63>
| 64>                          ****END OF INPUT****
 Total Charge           Charge          ....    0
 Multiplicity           Mult            ....    1
 Number of Electrons    NEL             ....  102
FINAL SINGLE POINT ENERGY      -652.835372917868
FINAL SINGLE POINT ENERGY      -652.859000325967
FINAL SINGLE POINT ENERGY      -652.862933358997
FINAL SINGLE POINT ENERGY      -652.863650161959
FINAL SINGLE POINT ENERGY      -652.863747355971
FINAL SINGLE POINT ENERGY      -652.863759263514
                    ***********************HURRAY********************

CARTESIAN COORDINATES (ANGSTROEM)
---------------------------------
  C    -21.130797   26.137543   46.283667
  C    -20.543136   27.504836   45.936008
  C    -20.447292   28.167407   47.326859
  C    -20.096403   26.988126   48.260874
  O    -20.453772   25.754552   47.506738
  H    -20.928531   25.330373   45.571747
  H    -19.551455   27.368070   45.490111
  H    -21.177029   28.056930   45.239107
  H    -19.695506   28.962060   47.363679
  H    -21.417500   28.595690   47.594302
  H    -20.654571   27.001623   49.200721
  H    -19.026544   26.919018   48.478579
  C    -23.234009   25.263679   47.220653
  H    -22.586328   24.385072   47.331737
  H    -23.445286   25.653817   48.223232
  O    -22.556304   26.304647   46.455818
  C    -24.518594   24.869995   46.497227
  C    -25.343875   23.807420   47.238141
  C    -26.127285   24.672604   48.260838
  C    -26.396200   25.981090   47.475794
  O    -25.442354   25.997466   46.342615
  H    -24.266955   24.540446   45.484643
  O    -26.236681   23.112346   46.324365
  H    -24.744278   23.024268   47.704389
  H    -27.042941   24.165340   48.573963
  H    -25.514393   24.857560   49.149846
  H    -26.243829   26.878120   48.083906
  H    -27.404529   26.015414   47.051423
  H    -26.643622   23.765487   45.716020

 Multiplicity           Mult            ....    1
 Number of Electrons    NEL             ....  102
 Basis Dimension        Dim             ....  149

ORBITAL ENERGIES
----------------

  NO   OCC          E(Eh)            E(eV)
   0   2.0000     -19.143634      -520.9248
   1   2.0000     -19.139465      -520.8113
   2   2.0000     -19.137968      -520.7706
   3   2.0000     -19.137877      -520.7681
   4   2.0000     -10.277024      -279.6520
   5   2.0000     -10.241559      -278.6870
   6   2.0000     -10.231165      -278.4042
   7   2.0000     -10.228405      -278.3291
   8   2.0000     -10.227509      -278.3047
   9   2.0000     -10.227317      -278.2995
  10   2.0000     -10.188439      -277.2415
  11   2.0000     -10.184971      -277.1471
  12   2.0000     -10.183586      -277.1095
  13   2.0000      -1.053812       -28.6757
  14   2.0000      -1.034239       -28.1431
  15   2.0000      -1.004629       -27.3373
  16   2.0000      -0.990441       -26.9513
  17   2.0000      -0.790596       -21.5132
  18   2.0000      -0.780587       -21.2409
  19   2.0000      -0.765381       -20.8271
  20   2.0000      -0.730536       -19.8789
  21   2.0000      -0.671420       -18.2703
  22   2.0000      -0.603520       -16.4226
  23   2.0000      -0.600311       -16.3353
  24   2.0000      -0.592413       -16.1204
  25   2.0000      -0.575940       -15.6721
  26   2.0000      -0.526598       -14.3295
  27   2.0000      -0.506877       -13.7928
  28   2.0000      -0.495009       -13.4699
  29   2.0000      -0.490614       -13.3503
  30   2.0000      -0.473318       -12.8796
  31   2.0000      -0.456875       -12.4322
  32   2.0000      -0.451815       -12.2945
  33   2.0000      -0.438161       -11.9230
  34   2.0000      -0.418722       -11.3940
  35   2.0000      -0.409927       -11.1547
  36   2.0000      -0.401344       -10.9211
  37   2.0000      -0.392303       -10.6751
  38   2.0000      -0.371075       -10.0975
  39   2.0000      -0.367841       -10.0095
  40   2.0000      -0.357471        -9.7273
  41   2.0000      -0.356597        -9.7035
  42   2.0000      -0.346920        -9.4402
  43   2.0000      -0.338546        -9.2123
  44   2.0000      -0.324580        -8.8323
  45   2.0000      -0.306270        -8.3340
  46   2.0000      -0.296879        -8.0785
  47   2.0000      -0.270143        -7.3510
  48   2.0000      -0.265709        -7.2303
  49   2.0000      -0.256586        -6.9821
  50   2.0000      -0.238030        -6.4771
  51   0.0000       0.067334         1.8322
  52   0.0000       0.083910         2.2833
  53   0.0000       0.091582         2.4921
  54   0.0000       0.102549         2.7905
  55   0.0000       0.103611         2.8194

MULLIKEN ATOMIC CHARGES
-----------------------
   0 C :    0.283468
   1 C :   -0.260533
   2 C :   -0.300274
   3 C :   -0.008677
   4 O :   -0.515953
   5 H :    0.145311
   6 H :    0.143752
   7 H :    0.165590
   8 H :    0.142160
   9 H :    0.163630
  10 H :    0.143127
  11 H :    0.145862
  12 C :   -0.002871
  13 H :    0.151043
  14 H :    0.134369
  15 O :   -0.514278
  16 C :    0.073650
  17 C :    0.078049
  18 C :   -0.299611
  19 C :   -0.022627
  20 O :   -0.512655
  21 H :    0.157785
  22 O :   -0.603283
  23 H :    0.151323
  24 H :    0.161539
  25 H :    0.145421
  26 H :    0.146042
  27 H :    0.142975
  28 H :    0.365667
Sum of atomic charges:   -0.0000000

LOEWDIN ATOMIC CHARGES
----------------------
   0 C :    0.173466
   1 C :   -0.214078
   2 C :   -0.216686
   3 C :   -0.029589
   4 O :   -0.331896
   5 H :    0.095839
   6 H :    0.113540
   7 H :    0.128598
   8 H :    0.114205
   9 H :    0.119895
  10 H :    0.103013
  11 H :    0.104198
  12 C :   -0.042002
  13 H :    0.111177
  14 H :    0.099861
  15 O :   -0.323054
  16 C :    0.014849
  17 C :    0.034821
  18 C :   -0.241864
  19 C :   -0.036887
  20 O :   -0.322308
  21 H :    0.116584
  22 O :   -0.415058
  23 H :    0.115108
  24 H :    0.126125
  25 H :    0.112977
  26 H :    0.104200
  27 H :    0.101160
  28 H :    0.283807

  Mayer bond orders larger than 0.100000
B(  0-C ,  1-C ) :   0.9496 B(  0-C ,  4-O ) :   0.8932 B(  0-C ,  5-H ) :   0.9201
B(  0-C , 15-O ) :   0.8671 B(  1-C ,  2-C ) :   0.9542 B(  1-C ,  6-H ) :   0.9391
B(  1-C ,  7-H ) :   0.9345 B(  2-C ,  3-C ) :   0.9562 B(  2-C ,  8-H ) :   0.9449
B(  2-C ,  9-H ) :   0.9440 B(  3-C ,  4-O ) :   0.8343 B(  3-C , 10-H ) :   0.9361
B(  3-C , 11-H ) :   0.9405 B( 12-C , 13-H ) :   0.9104 B( 12-C , 14-H ) :   0.9294
B( 12-C , 15-O ) :   0.8272 B( 12-C , 16-C ) :   0.8968 B( 16-C , 17-C ) :   0.8989
B( 16-C , 20-O ) :   0.8599 B( 16-C , 21-H ) :   0.9262 B( 17-C , 18-C ) :   0.9108
B( 17-C , 22-O ) :   0.8924 B( 17-C , 23-H ) :   0.9334 B( 18-C , 19-C ) :   0.9400
B( 18-C , 24-H ) :   0.9375 B( 18-C , 25-H ) :   0.9342 B( 19-C , 20-O ) :   0.8518
B( 19-C , 26-H ) :   0.9348 B( 19-C , 27-H ) :   0.9382 B( 22-O , 28-H ) :   0.7936

FINAL SINGLE POINT ENERGY      -652.863761737746

DIPOLE MOMENT
-------------
                                X             Y             Z
Electronic contribution:     -1.87750      -3.13828      -3.26734
Nuclear contribution   :      2.20102       3.75631       3.94329
                        -----------------------------------------
Total Dipole Moment    :      0.32351       0.61803       0.67596
                        -----------------------------------------
Magnitude (a.u.)       :      0.97136
Magnitude (Debye)      :      2.46900

Rotational constants in cm-1:     0.062865     0.011555     0.011314
Rotational constants in MHz :  1884.649766   346.412714   339.185850

                             ****ORCA TERMINATED NORMALLY****
TOTAL RUN TIME: 0 days 1 hours 19 minutes 21 seconds 397 msec
