                         Program Version 4.2.0 -  RELEASE  -
|  1> # Test redundant internal optimization
|  2> #
|  3> ! RKS B3LYP  Opt TightSCF SmallPrint
|  4>
|  5> %basis
|  6>         Basis "6-31G"
|  7> end
|  8>
|  9> %geom
| 10> Constraints
| 11> { D 4  0  15  12  285.0   C } # D for Dihedral angle
| 12> { D 0  15  12  16  240.0   C } # D for Dihedral angle
| 13> { D 0  4  3  2   C } # D for Dihedral angle
| 14> { D 4  3  2  1   C } # D for Dihedral angle
| 15> { D 3  2  1  0   C } # D for Dihedral angle
| 16> { D 2  1  0  4   C } # D for Dihedral angle
| 17> { D 1  0  4  3   C } # D for Dihedral angle
| 18> { D 16  20  19  18   C } # D for Dihedral angle
| 19> { D 20  19  18  17   C } # D for Dihedral angle
| 20> { D 19  18  17  16   C } # D for Dihedral angle
| 21> { D 18  17  16  20   C } # D for Dihedral angle
| 22> { D 17  16  20  19   C } # D for Dihedral angle
| 23> { D 15  12  16  20   C } # D for Dihedral angle
| 24> end
| 25> end
| 26>
| 27>
| 28> #%pal
| 29> #nprocs 8
| 30> #end
| 31>
| 32> * xyz 0 1
| 33> C  -21.048   26.222   46.251
| 34> C  -20.361   27.558   45.944
| 35> C  -20.329   28.222   47.341
| 36> C  -20.110   27.022   48.296
| 37> O  -20.473   25.807   47.535
| 38> H  -20.833   25.428   45.533
| 39> H  -19.344   27.382   45.576
| 40> H  -20.898   28.157   45.201
| 41> H  -19.543   28.978   47.434
| 42> H  -21.289   28.710   47.548
| 43> H  -20.733   27.082   49.195
| 44> H  -19.064   26.913   48.597
| 45> C  -23.396   25.070   46.435
| 46> H  -22.704   24.220   46.386
| 47> H  -23.954   25.004   47.378
| 48> O  -22.586   26.394   46.375
| 49> C  -24.417   24.937   45.272
| 50> C  -25.365   26.141   45.222
| 51> C  -24.481   27.207   44.530
| 52> C  -23.645   26.373   43.527
| 53> O  -23.727   24.967   43.978
| 54> H  -24.919   23.970   45.345
| 55> O  -26.605   25.807   44.350
| 56> H  -25.713   26.456   46.212
| 57> H  -25.067   27.989   44.036
| 58> H  -23.829   27.692   45.267
| 59> H  -22.595   26.681   43.498
| 60> H  -24.053   26.410   42.512
| 61> H  -26.280   25.489   43.353
| 62> *
| 63>
| 64>                          ****END OF INPUT****
 Total Charge           Charge          ....    0
 Multiplicity           Mult            ....    1
 Number of Electrons    NEL             ....  102
FINAL SINGLE POINT ENERGY      -652.839892574096
FINAL SINGLE POINT ENERGY      -652.863377999795
FINAL SINGLE POINT ENERGY      -652.867615953568
FINAL SINGLE POINT ENERGY      -652.868956179926
FINAL SINGLE POINT ENERGY      -652.869070927845
FINAL SINGLE POINT ENERGY      -652.869087550092
FINAL SINGLE POINT ENERGY      -652.869087565677
                    ***********************HURRAY********************

CARTESIAN COORDINATES (ANGSTROEM)
---------------------------------
  C    -21.062679   26.157467   46.259603
  C    -20.418454   27.513108   45.969609
  C    -20.388157   28.157309   47.375140
  C    -20.125748   26.951718   48.305404
  O    -20.470364   25.744544   47.512019
  H    -20.859189   25.359717   45.540397
  H    -19.403641   27.352572   45.588464
  H    -20.983592   28.095233   45.238790
  H    -19.617897   28.929087   47.468476
  H    -21.360210   28.609177   47.593633
  H    -20.738496   26.966868   49.210236
  H    -19.072676   26.851638   48.584502
  C    -23.299915   25.155978   46.452794
  H    -22.648689   24.275290   46.421224
  H    -23.826190   25.155479   47.415295
  O    -22.488220   26.367794   46.376700
  C    -24.305077   25.066717   45.307569
  C    -25.340341   26.195120   45.186352
  C    -24.541589   27.272690   44.405822
  C    -23.658049   26.431556   43.452676
  O    -23.632867   25.054727   44.004791
  H    -24.822918   24.104130   45.402059
  O    -26.513132   25.737409   44.455668
  H    -25.719063   26.548859   46.145478
  H    -25.217784   27.949188   43.876084
  H    -23.922918   27.838492   45.104915
  H    -22.632771   26.806674   43.391767
  H    -24.070028   26.362843   42.440214
  H    -26.220345   25.276619   43.641319

 Multiplicity           Mult            ....    1
 Number of Electrons    NEL             ....  102
 Basis Dimension        Dim             ....  149

ORBITAL ENERGIES
----------------

  NO   OCC          E(Eh)            E(eV)
   0   2.0000     -19.148578      -521.0593
   1   2.0000     -19.141253      -520.8600
   2   2.0000     -19.140817      -520.8481
   3   2.0000     -19.134636      -520.6799
   4   2.0000     -10.280166      -279.7375
   5   2.0000     -10.236865      -278.5593
   6   2.0000     -10.233024      -278.4547
   7   2.0000     -10.231223      -278.4057
   8   2.0000     -10.226515      -278.2776
   9   2.0000     -10.226395      -278.2744
  10   2.0000     -10.188374      -277.2398
  11   2.0000     -10.187486      -277.2156
  12   2.0000     -10.177993      -276.9573
  13   2.0000      -1.056807       -28.7572
  14   2.0000      -1.033118       -28.1126
  15   2.0000      -1.004104       -27.3231
  16   2.0000      -0.994122       -27.0514
  17   2.0000      -0.791597       -21.5405
  18   2.0000      -0.775740       -21.1090
  19   2.0000      -0.765335       -20.8258
  20   2.0000      -0.731819       -19.9138
  21   2.0000      -0.674178       -18.3453
  22   2.0000      -0.601872       -16.3778
  23   2.0000      -0.598410       -16.2836
  24   2.0000      -0.597178       -16.2500
  25   2.0000      -0.576966       -15.7000
  26   2.0000      -0.525853       -14.3092
  27   2.0000      -0.507113       -13.7993
  28   2.0000      -0.495391       -13.4803
  29   2.0000      -0.490419       -13.3450
  30   2.0000      -0.468738       -12.7550
  31   2.0000      -0.462325       -12.5805
  32   2.0000      -0.448201       -12.1962
  33   2.0000      -0.436765       -11.8850
  34   2.0000      -0.424358       -11.5474
  35   2.0000      -0.410840       -11.1795
  36   2.0000      -0.399308       -10.8657
  37   2.0000      -0.389870       -10.6089
  38   2.0000      -0.378390       -10.2965
  39   2.0000      -0.363521        -9.8919
  40   2.0000      -0.360691        -9.8149
  41   2.0000      -0.357299        -9.7226
  42   2.0000      -0.347534        -9.4569
  43   2.0000      -0.334768        -9.1095
  44   2.0000      -0.323467        -8.8020
  45   2.0000      -0.306162        -8.3311
  46   2.0000      -0.299566        -8.1516
  47   2.0000      -0.278262        -7.5719
  48   2.0000      -0.265110        -7.2140
  49   2.0000      -0.255971        -6.9653
  50   2.0000      -0.241373        -6.5681
  51   0.0000       0.064456         1.7539
  52   0.0000       0.084701         2.3048
  53   0.0000       0.090214         2.4549
  54   0.0000       0.104785         2.8513
  55   0.0000       0.107091         2.9141

MULLIKEN ATOMIC CHARGES
-----------------------
   0 C :    0.282352
   1 C :   -0.267443
   2 C :   -0.299844
   3 C :   -0.002182
   4 O :   -0.511106
   5 H :    0.160467
   6 H :    0.148494
   7 H :    0.153429
   8 H :    0.142256
   9 H :    0.160517
  10 H :    0.147531
  11 H :    0.143440
  12 C :   -0.005285
  13 H :    0.157559
  14 H :    0.142319
  15 O :   -0.527162
  16 C :    0.070788
  17 C :    0.078034
  18 C :   -0.284555
  19 C :   -0.025538
  20 O :   -0.531558
  21 H :    0.154783
  22 O :   -0.602581
  23 H :    0.152010
  24 H :    0.147529
  25 H :    0.172300
  26 H :    0.142598
  27 H :    0.138833
  28 H :    0.362014
Sum of atomic charges:   -0.0000000

LOEWDIN ATOMIC CHARGES
----------------------
   0 C :    0.171411
   1 C :   -0.215911
   2 C :   -0.216296
   3 C :   -0.027288
   4 O :   -0.328553
   5 H :    0.104998
   6 H :    0.115954
   7 H :    0.119975
   8 H :    0.113815
   9 H :    0.118028
  10 H :    0.105738
  11 H :    0.103189
  12 C :   -0.035216
  13 H :    0.114545
  14 H :    0.107216
  15 O :   -0.331084
  16 C :    0.008974
  17 C :    0.039153
  18 C :   -0.241185
  19 C :   -0.035024
  20 O :   -0.335106
  21 H :    0.115557
  22 O :   -0.416761
  23 H :    0.116588
  24 H :    0.118556
  25 H :    0.128243
  26 H :    0.101668
  27 H :    0.097428
  28 H :    0.281389

  Mayer bond orders larger than 0.100000
B(  0-C ,  1-C ) :   0.9491 B(  0-C ,  4-O ) :   0.9057 B(  0-C ,  5-H ) :   0.9155
B(  0-C , 15-O ) :   0.8495 B(  1-C ,  2-C ) :   0.9552 B(  1-C ,  6-H ) :   0.9398
B(  1-C ,  7-H ) :   0.9359 B(  2-C ,  3-C ) :   0.9554 B(  2-C ,  8-H ) :   0.9452
B(  2-C ,  9-H ) :   0.9447 B(  3-C ,  4-O ) :   0.8377 B(  3-C , 10-H ) :   0.9356
B(  3-C , 11-H ) :   0.9403 B( 12-C , 13-H ) :   0.9187 B( 12-C , 14-H ) :   0.9240
B( 12-C , 15-O ) :   0.8437 B( 12-C , 16-C ) :   0.8960 B( 16-C , 17-C ) :   0.9104
B( 16-C , 20-O ) :   0.8642 B( 16-C , 21-H ) :   0.9194 B( 17-C , 18-C ) :   0.9242
B( 17-C , 22-O ) :   0.8907 B( 17-C , 23-H ) :   0.9356 B( 18-C , 19-C ) :   0.9448
B( 18-C , 24-H ) :   0.9375 B( 18-C , 25-H ) :   0.9191 B( 19-C , 20-O ) :   0.8413
B( 19-C , 26-H ) :   0.9333 B( 19-C , 27-H ) :   0.9369 B( 22-O , 28-H ) :   0.7965

FINAL SINGLE POINT ENERGY      -652.869085611347

DIPOLE MOMENT
-------------
                                X             Y             Z
Electronic contribution:     -2.89809      -4.85853      -0.78652
Nuclear contribution   :      3.58909       5.66131       0.80744
                        -----------------------------------------
Total Dipole Moment    :      0.69099       0.80278       0.02093
                        -----------------------------------------
Magnitude (a.u.)       :      1.05942
Magnitude (Debye)      :      2.69282

Rotational constants in cm-1:     0.060894     0.013705     0.013137
Rotational constants in MHz :  1825.551933   410.857076   393.842853

                             ****ORCA TERMINATED NORMALLY****
TOTAL RUN TIME: 0 days 0 hours 51 minutes 29 seconds 211 msec
