                         Program Version 4.2.0 -  RELEASE  -
|  1> # Test redundant internal optimization
|  2> #
|  3> ! RKS B3LYP  Opt TightSCF SmallPrint
|  4>
|  5> %basis
|  6>         Basis "6-31G"
|  7> end
|  8>
|  9> %geom
| 10> Constraints
| 11> { D 4  0  15  12  15.0   C } # D for Dihedral angle
| 12> { D 0  15  12  16  270.0   C } # D for Dihedral angle
| 13> { D 0  4  3  2   C } # D for Dihedral angle
| 14> { D 4  3  2  1   C } # D for Dihedral angle
| 15> { D 3  2  1  0   C } # D for Dihedral angle
| 16> { D 2  1  0  4   C } # D for Dihedral angle
| 17> { D 1  0  4  3   C } # D for Dihedral angle
| 18> { D 16  20  19  18   C } # D for Dihedral angle
| 19> { D 20  19  18  17   C } # D for Dihedral angle
| 20> { D 19  18  17  16   C } # D for Dihedral angle
| 21> { D 18  17  16  20   C } # D for Dihedral angle
| 22> { D 17  16  20  19   C } # D for Dihedral angle
| 23> { D 15  12  16  20   C } # D for Dihedral angle
| 24> end
| 25> end
| 26>
| 27>
| 28> #%pal
| 29> #nprocs 8
| 30> #end
| 31>
| 32> * xyz 0 1
| 33> C  -21.048   26.222   46.251
| 34> C  -20.361   27.558   45.944
| 35> C  -20.329   28.222   47.341
| 36> C  -20.110   27.022   48.296
| 37> O  -20.473   25.807   47.535
| 38> H  -20.833   25.428   45.533
| 39> H  -19.344   27.382   45.576
| 40> H  -20.898   28.157   45.201
| 41> H  -19.543   28.978   47.434
| 42> H  -21.289   28.710   47.548
| 43> H  -20.733   27.082   49.195
| 44> H  -19.064   26.913   48.597
| 45> C  -23.128   26.462   47.829
| 46> H  -22.365   26.910   48.479
| 47> H  -24.028   27.089   47.875
| 48> O  -22.586   26.394   46.375
| 49> C  -23.496   25.064   48.399
| 50> C  -24.495   24.338   47.490
| 51> C  -23.569   23.807   46.369
| 52> C  -22.260   23.467   47.125
| 53> O  -22.319   24.190   48.414
| 54> H  -23.825   25.175   49.434
| 55> H  -24.960   23.507   48.032
| 56> O  -25.619   25.265   46.954
| 57> H  -23.988   22.940   45.848
| 58> H  -23.392   24.593   45.624
| 59> H  -21.366   23.781   46.577
| 60> H  -22.177   22.401   47.357
| 61> H  -25.175   26.105   46.408
| 62> *
| 63>
| 64>                          ****END OF INPUT****
 Total Charge           Charge          ....    0
 Multiplicity           Mult            ....    1
 Number of Electrons    NEL             ....  102
FINAL SINGLE POINT ENERGY      -652.814761397723
FINAL SINGLE POINT ENERGY      -652.842421074836
FINAL SINGLE POINT ENERGY      -652.852599434464
FINAL SINGLE POINT ENERGY      -652.855097277286
FINAL SINGLE POINT ENERGY      -652.855490548843
FINAL SINGLE POINT ENERGY      -652.855560888849
FINAL SINGLE POINT ENERGY      -652.855566549669
                    ***********************HURRAY********************

CARTESIAN COORDINATES (ANGSTROEM)
---------------------------------
  C    -21.056872   26.395369   46.304918
  C    -20.441977   27.761973   45.998643
  C    -20.194911   28.329697   47.419800
  C    -19.816353   27.069954   48.231839
  O    -20.296628   25.914321   47.424829
  H    -20.938513   25.661007   45.505681
  H    -19.494854   27.619433   45.464955
  H    -21.102646   28.384341   45.391300
  H    -19.404484   29.086231   47.438401
  H    -21.109581   28.790869   47.807120
  H    -20.282776   27.023580   49.219085
  H    -18.735012   26.944669   48.339850
  C    -23.142217   26.457299   47.813664
  H    -22.505226   26.927651   48.570794
  H    -24.048855   27.060805   47.705374
  O    -22.499938   26.500258   46.504323
  C    -23.553141   25.068185   48.319625
  C    -24.558939   24.351132   47.402233
  C    -23.616763   23.640432   46.379489
  C    -22.401331   23.262440   47.256033
  O    -22.480088   24.103905   48.474726
  H    -23.975578   25.223796   49.320569
  H    -25.135397   23.622315   47.976395
  O    -25.549599   25.217844   46.797461
  H    -24.091313   22.772153   45.914385
  H    -23.337703   24.358904   45.603514
  H    -21.439585   23.447830   46.771037
  H    -22.437505   22.220257   47.589839
  H    -25.125217   25.752351   46.094116

 Multiplicity           Mult            ....    1
 Number of Electrons    NEL             ....  102
 Basis Dimension        Dim             ....  149

ORBITAL ENERGIES
----------------

  NO   OCC          E(Eh)            E(eV)
   0   2.0000     -19.149566      -521.0862
   1   2.0000     -19.143191      -520.9127
   2   2.0000     -19.135151      -520.6939
   3   2.0000     -19.127005      -520.4723
   4   2.0000     -10.283608      -279.8312
   5   2.0000     -10.232635      -278.4441
   6   2.0000     -10.231276      -278.4072
   7   2.0000     -10.230017      -278.3729
   8   2.0000     -10.223695      -278.2009
   9   2.0000     -10.216645      -278.0090
  10   2.0000     -10.193940      -277.3912
  11   2.0000     -10.188501      -277.2432
  12   2.0000     -10.177334      -276.9393
  13   2.0000      -1.055503       -28.7217
  14   2.0000      -1.022493       -27.8234
  15   2.0000      -1.004665       -27.3383
  16   2.0000      -0.993837       -27.0437
  17   2.0000      -0.791785       -21.5456
  18   2.0000      -0.770990       -20.9797
  19   2.0000      -0.763314       -20.7708
  20   2.0000      -0.733366       -19.9559
  21   2.0000      -0.675881       -18.3916
  22   2.0000      -0.606032       -16.4910
  23   2.0000      -0.602244       -16.3879
  24   2.0000      -0.597453       -16.2575
  25   2.0000      -0.556619       -15.1464
  26   2.0000      -0.527913       -14.3652
  27   2.0000      -0.507094       -13.7987
  28   2.0000      -0.495901       -13.4942
  29   2.0000      -0.486237       -13.2312
  30   2.0000      -0.470197       -12.7947
  31   2.0000      -0.459518       -12.5041
  32   2.0000      -0.435486       -11.8502
  33   2.0000      -0.428734       -11.6664
  34   2.0000      -0.420870       -11.4524
  35   2.0000      -0.412502       -11.2247
  36   2.0000      -0.403041       -10.9673
  37   2.0000      -0.389913       -10.6101
  38   2.0000      -0.378910       -10.3107
  39   2.0000      -0.369979       -10.0677
  40   2.0000      -0.361923        -9.8484
  41   2.0000      -0.355668        -9.6782
  42   2.0000      -0.345418        -9.3993
  43   2.0000      -0.329998        -8.9797
  44   2.0000      -0.318112        -8.6563
  45   2.0000      -0.310263        -8.4427
  46   2.0000      -0.299276        -8.1437
  47   2.0000      -0.265113        -7.2141
  48   2.0000      -0.260467        -7.0877
  49   2.0000      -0.256516        -6.9801
  50   2.0000      -0.225643        -6.1401
  51   0.0000       0.064853         1.7647
  52   0.0000       0.086074         2.3422
  53   0.0000       0.092808         2.5254
  54   0.0000       0.095984         2.6119
  55   0.0000       0.105991         2.8842

MULLIKEN ATOMIC CHARGES
-----------------------
   0 C :    0.311011
   1 C :   -0.259084
   2 C :   -0.313845
   3 C :   -0.016854
   4 O :   -0.496968
   5 H :    0.152487
   6 H :    0.146647
   7 H :    0.155857
   8 H :    0.149715
   9 H :    0.152609
  10 H :    0.154061
  11 H :    0.151947
  12 C :   -0.034524
  13 H :    0.141107
  14 H :    0.155942
  15 O :   -0.557893
  16 C :    0.103754
  17 C :    0.089565
  18 C :   -0.315429
  19 C :   -0.008439
  20 O :   -0.509804
  21 H :    0.141339
  22 H :    0.158445
  23 O :   -0.610702
  24 H :    0.142578
  25 H :    0.157222
  26 H :    0.152811
  27 H :    0.139839
  28 H :    0.366608
Sum of atomic charges:    0.0000000

LOEWDIN ATOMIC CHARGES
----------------------
   0 C :    0.181515
   1 C :   -0.222211
   2 C :   -0.221598
   3 C :   -0.031954
   4 O :   -0.304511
   5 H :    0.103206
   6 H :    0.114679
   7 H :    0.122936
   8 H :    0.118301
   9 H :    0.112426
  10 H :    0.106193
  11 H :    0.107573
  12 C :   -0.047190
  13 H :    0.102078
  14 H :    0.115881
  15 O :   -0.354359
  16 C :    0.010062
  17 C :    0.035689
  18 C :   -0.242809
  19 C :   -0.027040
  20 O :   -0.313583
  21 H :    0.111720
  22 H :    0.114380
  23 O :   -0.413397
  24 H :    0.114853
  25 H :    0.116617
  26 H :    0.106659
  27 H :    0.100462
  28 H :    0.283423

  Mayer bond orders larger than 0.100000
B(  0-C ,  1-C ) :   0.9297 B(  0-C ,  4-O ) :   0.9263 B(  0-C ,  5-H ) :   0.9307
B(  0-C , 15-O ) :   0.8276 B(  1-C ,  2-C ) :   0.9540 B(  1-C ,  6-H ) :   0.9348
B(  1-C ,  7-H ) :   0.9369 B(  2-C ,  3-C ) :   0.9499 B(  2-C ,  8-H ) :   0.9444
B(  2-C ,  9-H ) :   0.9447 B(  3-C ,  4-O ) :   0.8304 B(  3-C , 10-H ) :   0.9291
B(  3-C , 11-H ) :   0.9390 B( 12-C , 13-H ) :   0.9224 B( 12-C , 14-H ) :   0.9191
B( 12-C , 15-O ) :   0.8419 B( 12-C , 16-C ) :   0.8841 B( 16-C , 17-C ) :   0.8867
B( 16-C , 20-O ) :   0.8909 B( 16-C , 21-H ) :   0.9218 B( 17-C , 18-C ) :   0.9308
B( 17-C , 22-H ) :   0.9378 B( 17-C , 23-O ) :   0.8975 B( 18-C , 19-C ) :   0.9452
B( 18-C , 24-H ) :   0.9414 B( 18-C , 25-H ) :   0.9297 B( 19-C , 20-O ) :   0.8366
B( 19-C , 26-H ) :   0.9254 B( 19-C , 27-H ) :   0.9388 B( 23-O , 28-H ) :   0.7916

FINAL SINGLE POINT ENERGY      -652.855565355278

DIPOLE MOMENT
-------------
                                X             Y             Z
Electronic contribution:     -2.56505      -2.68809       0.83592
Nuclear contribution   :      3.33269       3.51942      -1.23999
                        -----------------------------------------
Total Dipole Moment    :      0.76764       0.83133      -0.40407
                        -----------------------------------------
Magnitude (a.u.)       :      1.20152
Magnitude (Debye)      :      3.05403

Rotational constants in cm-1:     0.050416     0.017539     0.015991
Rotational constants in MHz :  1511.446707   525.814159   479.406867

                             ****ORCA TERMINATED NORMALLY****
TOTAL RUN TIME: 0 days 0 hours 26 minutes 9 seconds 766 msec
