                         Program Version 4.2.0 -  RELEASE  -
|  1> # Test redundant internal optimization
|  2> #
|  3> ! RKS B3LYP  Opt TightSCF SmallPrint
|  4>
|  5> %basis
|  6>         Basis "6-31G"
|  7> end
|  8>
|  9> %geom
| 10> Constraints
| 11> { D 4  0  15  12  330.0   C } # D for Dihedral angle
| 12> { D 0  15  12  16  270.0   C } # D for Dihedral angle
| 13> { D 0  4  3  2   C } # D for Dihedral angle
| 14> { D 4  3  2  1   C } # D for Dihedral angle
| 15> { D 3  2  1  0   C } # D for Dihedral angle
| 16> { D 2  1  0  4   C } # D for Dihedral angle
| 17> { D 1  0  4  3   C } # D for Dihedral angle
| 18> { D 16  20  19  18   C } # D for Dihedral angle
| 19> { D 20  19  18  17   C } # D for Dihedral angle
| 20> { D 19  18  17  16   C } # D for Dihedral angle
| 21> { D 18  17  16  20   C } # D for Dihedral angle
| 22> { D 17  16  20  19   C } # D for Dihedral angle
| 23> { D 15  12  16  20   C } # D for Dihedral angle
| 24> end
| 25> end
| 26>
| 27>
| 28> #%pal
| 29> #nprocs 8
| 30> #end
| 31>
| 32> * xyz 0 1
| 33> C  -21.048   26.222   46.251
| 34> C  -20.361   27.558   45.944
| 35> C  -20.329   28.222   47.341
| 36> C  -20.110   27.022   48.296
| 37> O  -20.473   25.807   47.535
| 38> H  -20.833   25.428   45.533
| 39> H  -19.344   27.382   45.576
| 40> H  -20.898   28.157   45.201
| 41> H  -19.543   28.978   47.434
| 42> H  -21.289   28.710   47.548
| 43> H  -20.733   27.082   49.195
| 44> H  -19.064   26.913   48.597
| 45> C  -23.271   25.476   47.424
| 46> H  -22.568   25.273   48.241
| 47> H  -24.155   25.969   47.847
| 48> O  -22.586   26.394   46.375
| 49> C  -23.729   24.117   46.825
| 50> C  -22.531   23.282   46.360
| 51> C  -22.020   22.695   47.698
| 52> C  -23.324   22.467   48.503
| 53> O  -24.367   23.292   47.856
| 54> H  -24.478   24.301   46.053
| 55> O  -23.008   22.148   45.411
| 56> H  -21.771   23.872   45.837
| 57> H  -21.445   21.774   47.565
| 58> H  -21.375   23.422   48.205
| 59> H  -23.228   22.768   49.551
| 60> H  -23.663   21.428   48.462
| 61> H  -23.770   21.542   45.915
| 62> *
| 63>
| 64>                          ****END OF INPUT****
 Total Charge           Charge          ....    0
 Multiplicity           Mult            ....    1
 Number of Electrons    NEL             ....  102
FINAL SINGLE POINT ENERGY      -652.837821116679
FINAL SINGLE POINT ENERGY      -652.860738790841
FINAL SINGLE POINT ENERGY      -652.865118292860
FINAL SINGLE POINT ENERGY      -652.865814576273
FINAL SINGLE POINT ENERGY      -652.865915086995
FINAL SINGLE POINT ENERGY      -652.865929109064
                    ***********************HURRAY********************

CARTESIAN COORDINATES (ANGSTROEM)
---------------------------------
  C    -21.007372   26.204194   46.282027
  C    -20.450600   27.596204   45.982254
  C    -20.428486   28.235590   47.388897
  C    -20.075924   27.050129   48.313439
  O    -20.366476   25.820042   47.520477
  H    -20.745151   25.433508   45.553063
  H    -19.438851   27.500437   45.571996
  H    -21.075890   28.140309   45.271712
  H    -19.703328   29.051004   47.469094
  H    -21.420156   28.630492   47.627474
  H    -20.670136   27.024726   49.230595
  H    -19.013641   27.006598   48.568821
  C    -23.160133   25.479681   47.351877
  H    -22.537380   25.327053   48.238792
  H    -24.044453   26.053466   47.636750
  O    -22.451691   26.320415   46.390085
  C    -23.620410   24.125660   46.792532
  C    -22.523520   23.150311   46.339278
  C    -22.031881   22.577870   47.696113
  C    -23.327670   22.522091   48.543125
  O    -24.306612   23.417837   47.881624
  H    -24.350568   24.278661   45.992777
  O    -23.088456   22.114307   45.483821
  H    -21.732324   23.603174   45.747477
  H    -21.571560   21.596406   47.558496
  H    -21.289974   23.255303   48.132252
  H    -23.177039   22.860074   49.573151
  H    -23.771901   21.521888   48.566603
  H    -23.932419   21.803571   45.874399

 Multiplicity           Mult            ....    1
 Number of Electrons    NEL             ....  102
 Basis Dimension        Dim             ....  149

ORBITAL ENERGIES
----------------

  NO   OCC          E(Eh)            E(eV)
   0   2.0000     -19.155415      -521.2454
   1   2.0000     -19.143722      -520.9272
   2   2.0000     -19.141441      -520.8651
   3   2.0000     -19.132911      -520.6330
   4   2.0000     -10.283605      -279.8311
   5   2.0000     -10.235455      -278.5209
   6   2.0000     -10.235137      -278.5122
   7   2.0000     -10.228076      -278.3201
   8   2.0000     -10.227618      -278.3076
   9   2.0000     -10.224214      -278.2150
  10   2.0000     -10.191490      -277.3245
  11   2.0000     -10.188897      -277.2540
  12   2.0000     -10.180695      -277.0308
  13   2.0000      -1.059510       -28.8307
  14   2.0000      -1.032886       -28.1062
  15   2.0000      -1.001423       -27.2501
  16   2.0000      -0.995460       -27.0879
  17   2.0000      -0.794593       -21.6220
  18   2.0000      -0.773232       -21.0407
  19   2.0000      -0.764521       -20.8037
  20   2.0000      -0.736321       -20.0363
  21   2.0000      -0.672990       -18.3130
  22   2.0000      -0.606418       -16.5015
  23   2.0000      -0.598121       -16.2757
  24   2.0000      -0.595875       -16.2146
  25   2.0000      -0.575878       -15.6704
  26   2.0000      -0.523312       -14.2400
  27   2.0000      -0.515560       -14.0291
  28   2.0000      -0.503387       -13.6979
  29   2.0000      -0.483794       -13.1647
  30   2.0000      -0.470684       -12.8080
  31   2.0000      -0.458659       -12.4808
  32   2.0000      -0.453160       -12.3311
  33   2.0000      -0.431220       -11.7341
  34   2.0000      -0.418277       -11.3819
  35   2.0000      -0.413789       -11.2598
  36   2.0000      -0.407053       -11.0765
  37   2.0000      -0.388216       -10.5639
  38   2.0000      -0.376683       -10.2501
  39   2.0000      -0.364550        -9.9199
  40   2.0000      -0.363219        -9.8837
  41   2.0000      -0.357635        -9.7318
  42   2.0000      -0.352188        -9.5835
  43   2.0000      -0.335208        -9.1215
  44   2.0000      -0.325754        -8.8642
  45   2.0000      -0.304000        -8.2723
  46   2.0000      -0.302275        -8.2253
  47   2.0000      -0.273988        -7.4556
  48   2.0000      -0.269983        -7.3466
  49   2.0000      -0.262812        -7.1515
  50   2.0000      -0.236467        -6.4346
  51   0.0000       0.069354         1.8872
  52   0.0000       0.073950         2.0123
  53   0.0000       0.093896         2.5550
  54   0.0000       0.097578         2.6552
  55   0.0000       0.108430         2.9505

MULLIKEN ATOMIC CHARGES
-----------------------
   0 C :    0.292362
   1 C :   -0.259601
   2 C :   -0.299832
   3 C :   -0.013902
   4 O :   -0.519211
   5 H :    0.154431
   6 H :    0.145323
   7 H :    0.164890
   8 H :    0.145724
   9 H :    0.162260
  10 H :    0.147293
  11 H :    0.150597
  12 C :   -0.024121
  13 H :    0.150918
  14 H :    0.161590
  15 O :   -0.531856
  16 C :    0.056012
  17 C :    0.084157
  18 C :   -0.308202
  19 C :   -0.032299
  20 O :   -0.527003
  21 H :    0.161540
  22 O :   -0.605498
  23 H :    0.159296
  24 H :    0.157779
  25 H :    0.172901
  26 H :    0.146619
  27 H :    0.144396
  28 H :    0.363439
Sum of atomic charges:   -0.0000000

LOEWDIN ATOMIC CHARGES
----------------------
   0 C :    0.175176
   1 C :   -0.214721
   2 C :   -0.216265
   3 C :   -0.029676
   4 O :   -0.327606
   5 H :    0.096442
   6 H :    0.113890
   7 H :    0.128450
   8 H :    0.116423
   9 H :    0.119284
  10 H :    0.104513
  11 H :    0.106955
  12 C :   -0.046396
  13 H :    0.105993
  14 H :    0.118755
  15 O :   -0.335444
  16 C :    0.008961
  17 C :    0.037005
  18 C :   -0.245130
  19 C :   -0.039213
  20 O :   -0.331717
  21 H :    0.115570
  22 O :   -0.417719
  23 H :    0.118019
  24 H :    0.124817
  25 H :    0.126861
  26 H :    0.103728
  27 H :    0.101147
  28 H :    0.281899

  Mayer bond orders larger than 0.100000
B(  0-C ,  1-C ) :   0.9425 B(  0-C ,  4-O ) :   0.8972 B(  0-C ,  5-H ) :   0.9104
B(  0-C , 15-O ) :   0.8506 B(  1-C ,  2-C ) :   0.9537 B(  1-C ,  6-H ) :   0.9377
B(  1-C ,  7-H ) :   0.9348 B(  2-C ,  3-C ) :   0.9556 B(  2-C ,  8-H ) :   0.9445
B(  2-C ,  9-H ) :   0.9440 B(  3-C ,  4-O ) :   0.8250 B(  3-C , 10-H ) :   0.9347
B(  3-C , 11-H ) :   0.9405 B( 12-C , 13-H ) :   0.9160 B( 12-C , 14-H ) :   0.9346
B( 12-C , 15-O ) :   0.8386 B( 12-C , 16-C ) :   0.8827 B( 16-C , 17-C ) :   0.9155
B( 16-C , 20-O ) :   0.8324 B( 16-C , 21-H ) :   0.9270 B( 17-C , 18-C ) :   0.9150
B( 17-C , 22-O ) :   0.8889 B( 17-C , 23-H ) :   0.9234 B( 18-C , 19-C ) :   0.9415
B( 18-C , 24-H ) :   0.9382 B( 18-C , 25-H ) :   0.9215 B( 19-C , 20-O ) :   0.8397
B( 19-C , 26-H ) :   0.9354 B( 19-C , 27-H ) :   0.9382 B( 22-O , 28-H ) :   0.7949

FINAL SINGLE POINT ENERGY      -652.865930749298

DIPOLE MOMENT
-------------
                                X             Y             Z
Electronic contribution:     -3.72564      -3.00971      -2.51010
Nuclear contribution   :      4.50378       3.72632       3.24784
                        -----------------------------------------
Total Dipole Moment    :      0.77814       0.71662       0.73774
                        -----------------------------------------
Magnitude (a.u.)       :      1.28969
Magnitude (Debye)      :      3.27813

Rotational constants in cm-1:     0.054026     0.014492     0.014066
Rotational constants in MHz :  1619.645989   434.455828   421.691597

                             ****ORCA TERMINATED NORMALLY****
TOTAL RUN TIME: 0 days 0 hours 29 minutes 38 seconds 507 msec
