                         Program Version 4.2.0 -  RELEASE  -
|  1> # Test redundant internal optimization
|  2> #
|  3> ! RKS B3LYP  Opt TightSCF SmallPrint
|  4>
|  5> %basis
|  6>         Basis "6-31G"
|  7> end
|  8>
|  9> %geom
| 10> Constraints
| 11> { D 4  0  15  12  240.0   C } # D for Dihedral angle
| 12> { D 0  15  12  16  240.0   C } # D for Dihedral angle
| 13> { D 0  4  3  2   C } # D for Dihedral angle
| 14> { D 4  3  2  1   C } # D for Dihedral angle
| 15> { D 3  2  1  0   C } # D for Dihedral angle
| 16> { D 2  1  0  4   C } # D for Dihedral angle
| 17> { D 1  0  4  3   C } # D for Dihedral angle
| 18> { D 16  20  19  18   C } # D for Dihedral angle
| 19> { D 20  19  18  17   C } # D for Dihedral angle
| 20> { D 19  18  17  16   C } # D for Dihedral angle
| 21> { D 18  17  16  20   C } # D for Dihedral angle
| 22> { D 17  16  20  19   C } # D for Dihedral angle
| 23> { D 15  12  16  20   C } # D for Dihedral angle
| 24> end
| 25> end
| 26>
| 27>
| 28> #%pal
| 29> #nprocs 8
| 30> #end
| 31>
| 32> * xyz 0 1
| 33> C  -21.048   26.222   46.251
| 34> C  -20.361   27.558   45.944
| 35> C  -20.329   28.222   47.341
| 36> C  -20.110   27.022   48.296
| 37> O  -20.473   25.807   47.535
| 38> H  -20.833   25.428   45.533
| 39> H  -19.344   27.382   45.576
| 40> H  -20.898   28.157   45.201
| 41> H  -19.543   28.978   47.434
| 42> H  -21.289   28.710   47.548
| 43> H  -20.733   27.082   49.195
| 44> H  -19.064   26.913   48.597
| 45> C  -23.430   25.483   45.442
| 46> H  -22.757   24.852   44.848
| 47> H  -24.082   24.827   46.033
| 48> O  -22.586   26.394   46.375
| 49> C  -24.330   26.291   44.467
| 50> C  -25.232   25.364   43.645
| 51> C  -26.355   25.038   44.657
| 52> C  -26.504   26.359   45.453
| 53> O  -25.268   27.134   45.216
| 54> H  -23.704   26.958   43.872
| 55> O  -25.803   26.126   42.418
| 56> H  -24.713   24.469   43.284
| 57> H  -27.289   24.735   44.173
| 58> H  -26.041   24.222   45.319
| 59> H  -26.620   26.189   46.530
| 60> H  -27.341   26.968   45.098
| 61> H  -26.328   27.027   42.756
| 62> *
| 63>
| 64>                          ****END OF INPUT****
 Total Charge           Charge          ....    0
 Multiplicity           Mult            ....    1
 Number of Electrons    NEL             ....  102
FINAL SINGLE POINT ENERGY      -652.831762018607
FINAL SINGLE POINT ENERGY      -652.854321781817
FINAL SINGLE POINT ENERGY      -652.858172433325
FINAL SINGLE POINT ENERGY      -652.858847002195
FINAL SINGLE POINT ENERGY      -652.858927994565
FINAL SINGLE POINT ENERGY      -652.858939532361
                    ***********************HURRAY********************

CARTESIAN COORDINATES (ANGSTROEM)
---------------------------------
  C    -21.067370   26.164860   46.173030
  C    -20.488172   27.548951   45.881546
  C    -20.525457   28.212123   47.279673
  C    -20.222965   27.031847   48.228743
  O    -20.485836   25.801327   47.440407
  H    -20.800447   25.379071   45.458767
  H    -19.455486   27.444668   45.526930
  H    -21.068454   28.091587   45.132198
  H    -19.801597   29.026242   47.380359
  H    -21.527202   28.609495   47.467200
  H    -20.860414   27.020780   49.116118
  H    -19.173277   26.989424   48.534963
  C    -23.338912   25.407336   45.470876
  H    -22.713869   24.744704   44.851905
  H    -23.936631   24.782058   46.144732
  O    -22.508632   26.268401   46.290404
  C    -24.243408   26.241879   44.563417
  C    -25.195373   25.403748   43.697467
  C    -26.354552   25.115566   44.687527
  C    -26.426205   26.415448   45.527715
  O    -25.134279   27.116423   45.330527
  H    -23.624158   26.899393   43.945722
  O    -25.648200   26.164138   42.543420
  H    -24.743922   24.500213   43.285296
  H    -27.279930   24.903150   44.146688
  H    -26.114428   24.248774   45.313457
  H    -26.566330   26.222215   46.595410
  H    -27.216657   27.092846   45.188953
  H    -25.885838   27.070333   42.833548

 Multiplicity           Mult            ....    1
 Number of Electrons    NEL             ....  102
 Basis Dimension        Dim             ....  149

ORBITAL ENERGIES
----------------

  NO   OCC          E(Eh)            E(eV)
   0   2.0000     -19.142228      -520.8865
   1   2.0000     -19.141176      -520.8579
   2   2.0000     -19.138886      -520.7956
   3   2.0000     -19.134924      -520.6878
   4   2.0000     -10.278213      -279.6844
   5   2.0000     -10.245353      -278.7902
   6   2.0000     -10.235737      -278.5286
   7   2.0000     -10.235384      -278.5190
   8   2.0000     -10.231575      -278.4153
   9   2.0000     -10.220174      -278.1051
  10   2.0000     -10.191908      -277.3359
  11   2.0000     -10.181402      -277.0500
  12   2.0000     -10.180294      -277.0199
  13   2.0000      -1.050146       -28.5759
  14   2.0000      -1.037406       -28.2292
  15   2.0000      -1.007931       -27.4272
  16   2.0000      -0.991603       -26.9829
  17   2.0000      -0.788524       -21.4568
  18   2.0000      -0.780579       -21.2406
  19   2.0000      -0.767826       -20.8936
  20   2.0000      -0.729689       -19.8558
  21   2.0000      -0.674942       -18.3661
  22   2.0000      -0.606929       -16.5154
  23   2.0000      -0.596706       -16.2372
  24   2.0000      -0.593596       -16.1526
  25   2.0000      -0.582404       -15.8480
  26   2.0000      -0.526670       -14.3314
  27   2.0000      -0.512948       -13.9580
  28   2.0000      -0.495211       -13.4754
  29   2.0000      -0.488216       -13.2850
  30   2.0000      -0.472886       -12.8679
  31   2.0000      -0.457255       -12.4426
  32   2.0000      -0.450630       -12.2623
  33   2.0000      -0.443467       -12.0673
  34   2.0000      -0.426511       -11.6060
  35   2.0000      -0.410886       -11.1808
  36   2.0000      -0.397418       -10.8143
  37   2.0000      -0.394651       -10.7390
  38   2.0000      -0.374678       -10.1955
  39   2.0000      -0.366732        -9.9793
  40   2.0000      -0.362583        -9.8664
  41   2.0000      -0.352885        -9.6025
  42   2.0000      -0.347528        -9.4567
  43   2.0000      -0.332217        -9.0401
  44   2.0000      -0.314108        -8.5473
  45   2.0000      -0.310565        -8.4509
  46   2.0000      -0.301176        -8.1954
  47   2.0000      -0.273476        -7.4417
  48   2.0000      -0.265789        -7.2325
  49   2.0000      -0.253594        -6.9006
  50   2.0000      -0.235737        -6.4147
  51   0.0000       0.064357         1.7512
  52   0.0000       0.078947         2.1483
  53   0.0000       0.088162         2.3990
  54   0.0000       0.093979         2.5573
  55   0.0000       0.101067         2.7502

MULLIKEN ATOMIC CHARGES
-----------------------
   0 C :    0.277725
   1 C :   -0.251326
   2 C :   -0.300788
   3 C :   -0.000502
   4 O :   -0.502878
   5 H :    0.137002
   6 H :    0.140443
   7 H :    0.147838
   8 H :    0.139016
   9 H :    0.170637
  10 H :    0.151419
  11 H :    0.139007
  12 C :    0.004010
  13 H :    0.120347
  14 H :    0.145872
  15 O :   -0.504303
  16 C :    0.070034
  17 C :    0.076241
  18 C :   -0.292930
  19 C :   -0.035093
  20 O :   -0.508562
  21 H :    0.156497
  22 O :   -0.601642
  23 H :    0.149726
  24 H :    0.162444
  25 H :    0.143649
  26 H :    0.153838
  27 H :    0.146696
  28 H :    0.365585
Sum of atomic charges:   -0.0000000

LOEWDIN ATOMIC CHARGES
----------------------
   0 C :    0.175260
   1 C :   -0.221258
   2 C :   -0.216492
   3 C :   -0.026258
   4 O :   -0.317716
   5 H :    0.095521
   6 H :    0.111245
   7 H :    0.118432
   8 H :    0.112900
   9 H :    0.123466
  10 H :    0.107834
  11 H :    0.100789
  12 C :   -0.035228
  13 H :    0.095175
  14 H :    0.105208
  15 O :   -0.320273
  16 C :    0.010293
  17 C :    0.034065
  18 C :   -0.240022
  19 C :   -0.039697
  20 O :   -0.321565
  21 H :    0.114311
  22 O :   -0.414275
  23 H :    0.114456
  24 H :    0.126772
  25 H :    0.113021
  26 H :    0.107807
  27 H :    0.102576
  28 H :    0.283652

  Mayer bond orders larger than 0.100000
B(  0-C ,  1-C ) :   0.9420 B(  0-C ,  4-O ) :   0.9315 B(  0-C ,  5-H ) :   0.9166
B(  0-C , 15-O ) :   0.8494 B(  1-C ,  2-C ) :   0.9582 B(  1-C ,  6-H ) :   0.9368
B(  1-C ,  7-H ) :   0.9373 B(  2-C ,  3-C ) :   0.9545 B(  2-C ,  8-H ) :   0.9452
B(  2-C ,  9-H ) :   0.9418 B(  3-C ,  4-O ) :   0.8374 B(  3-C , 10-H ) :   0.9350
B(  3-C , 11-H ) :   0.9399 B( 12-C , 13-H ) :   0.9122 B( 12-C , 14-H ) :   0.9289
B( 12-C , 15-O ) :   0.8543 B( 12-C , 16-C ) :   0.8888 B( 16-C , 17-C ) :   0.8964
B( 16-C , 20-O ) :   0.8681 B( 16-C , 21-H ) :   0.9266 B( 17-C , 18-C ) :   0.9118
B( 17-C , 22-O ) :   0.8923 B( 17-C , 23-H ) :   0.9332 B( 18-C , 19-C ) :   0.9405
B( 18-C , 24-H ) :   0.9374 B( 18-C , 25-H ) :   0.9341 B( 19-C , 20-O ) :   0.8509
B( 19-C , 26-H ) :   0.9332 B( 19-C , 27-H ) :   0.9371 B( 22-O , 28-H ) :   0.7935

FINAL SINGLE POINT ENERGY      -652.858940543508

DIPOLE MOMENT
-------------
                                X             Y             Z
Electronic contribution:     -0.78780      -0.89427      -1.13954
Nuclear contribution   :      0.70522       0.90806       1.07326
                        -----------------------------------------
Total Dipole Moment    :     -0.08258       0.01380      -0.06627
                        -----------------------------------------
Magnitude (a.u.)       :      0.10678
Magnitude (Debye)      :      0.27142

Rotational constants in cm-1:     0.064667     0.011174     0.011010
Rotational constants in MHz :  1938.657676   334.977398   330.076474

                             ****ORCA TERMINATED NORMALLY****
TOTAL RUN TIME: 0 days 1 hours 54 minutes 9 seconds 201 msec
