                         Program Version 4.2.1 -  RELEASE  -
|  1> # Test redundant internal optimization
|  2> #
|  3> ! RKS B3LYP  Opt TightSCF SmallPrint
|  4>
|  5> %basis
|  6>         Basis "6-31G"
|  7> end
|  8>
|  9> %geom
| 10> Constraints
| 11> { D 4  0  19  14  180.0   C } # D for Dihedral angle
| 12> { D 0  19  14  12  90.0   C } # D for Dihedral angle
| 13> { D 0  4  3  2   C } # D for Dihedral angle
| 14> { D 4  3  2  1   C } # D for Dihedral angle
| 15> { D 3  2  1  0   C } # D for Dihedral angle
| 16> { D 2  1  0  4   C } # D for Dihedral angle
| 17> { D 1  0  4  3   C } # D for Dihedral angle
| 18> { D 14  15  16  17   C } # D for Dihedral angle
| 19> { D 15  16  17  12   C } # D for Dihedral angle
| 20> { D 16  17  12  14   C } # D for Dihedral angle
| 21> { D 17  12  14  15   C } # D for Dihedral angle
| 22> { D 12  14  15  16   C } # D for Dihedral angle
| 23> end
| 24> end
| 25>
| 26>
| 27> #%pal
| 28> #nprocs 8
| 29> #end
| 30>
| 31> * xyz 0 1
| 32> C  -21.048   26.222   46.251
| 33> C  -20.361   27.558   45.944
| 34> C  -20.329   28.222   47.341
| 35> C  -20.110   27.022   48.296
| 36> O  -20.473   25.807   47.535
| 37> H  -20.833   25.428   45.533
| 38> H  -19.344   27.382   45.576
| 39> H  -20.898   28.157   45.201
| 40> H  -19.543   28.978   47.434
| 41> H  -21.289   28.710   47.548
| 42> H  -20.733   27.082   49.195
| 43> H  -19.064   26.913   48.597
| 44> C  -23.544   25.555   44.343
| 45> H  -23.774   25.820   43.299
| 46> C  -23.122   26.788   45.152
| 47> C  -24.488   27.445   45.457
| 48> C  -25.431   26.230   45.643
| 49> O  -24.749   25.071   45.025
| 50> H  -22.821   24.738   44.353
| 51> O  -22.472   26.381   46.366
| 52> H  -22.445   27.451   44.602
| 53> H  -24.461   28.092   46.340
| 54> H  -24.812   28.057   44.605
| 55> H  -26.403   26.374   45.160
| 56> H  -25.592   25.984   46.697
| 57> *
| 58>
| 59>                          ****END OF INPUT****
 Total Charge           Charge          ....    0
 Multiplicity           Mult            ....    1
 Number of Electrons    NEL             ....   86
FINAL SINGLE POINT ENERGY      -538.424037557584
FINAL SINGLE POINT ENERGY      -538.428334391522
FINAL SINGLE POINT ENERGY      -538.428680100203
FINAL SINGLE POINT ENERGY      -538.428747644750
FINAL SINGLE POINT ENERGY      -538.428761700689
FINAL SINGLE POINT ENERGY      -538.428764579498
                    ***********************HURRAY********************

CARTESIAN COORDINATES (ANGSTROEM)
---------------------------------
  C    -20.996605   26.223829   46.222038
  C    -20.246630   27.526885   45.948539
  C    -20.325123   28.239976   47.323062
  C    -20.233593   27.065265   48.318884
  O    -20.565952   25.847337   47.536051
  H    -20.755400   25.396354   45.547667
  H    -19.207790   27.288016   45.692315
  H    -20.664383   28.124742   45.134430
  H    -19.522137   28.970067   47.461807
  H    -21.284333   28.756832   47.419969
  H    -20.938131   27.147349   49.150102
  H    -19.223195   26.917813   48.711350
  C    -23.603230   25.585903   44.267908
  H    -23.906431   25.886171   43.252919
  C    -23.139682   26.802145   45.071317
  C    -24.483409   27.421547   45.501697
  C    -25.388640   26.187947   45.730536
  O    -24.736629   25.060758   45.027042
  H    -22.859801   24.787996   44.201335
  O    -22.443586   26.411083   46.290480
  H    -22.533739   27.495104   44.474684
  H    -24.358888   28.031261   46.399363
  H    -24.871558   28.055217   44.695377
  H    -26.398243   26.326020   45.328311
  H    -25.451891   25.911383   46.785814

 Multiplicity           Mult            ....    1
 Number of Electrons    NEL             ....   86
 Basis Dimension        Dim             ....  127

ORBITAL ENERGIES
----------------

  NO   OCC          E(Eh)            E(eV)
   0   2.0000     -19.140457      -520.8383
   1   2.0000     -19.139436      -520.8105
   2   2.0000     -19.125809      -520.4397
   3   2.0000     -10.280839      -279.7558
   4   2.0000     -10.241927      -278.6970
   5   2.0000     -10.225724      -278.2561
   6   2.0000     -10.222243      -278.1614
   7   2.0000     -10.217836      -278.0414
   8   2.0000     -10.190979      -277.3106
   9   2.0000     -10.189504      -277.2705
  10   2.0000     -10.186251      -277.1820
  11   2.0000      -1.054143       -28.6847
  12   2.0000      -1.013837       -27.5879
  13   2.0000      -0.988709       -26.9041
  14   2.0000      -0.789890       -21.4940
  15   2.0000      -0.781545       -21.2669
  16   2.0000      -0.737795       -20.0764
  17   2.0000      -0.725730       -19.7481
  18   2.0000      -0.616811       -16.7843
  19   2.0000      -0.602031       -16.3821
  20   2.0000      -0.593609       -16.1529
  21   2.0000      -0.568854       -15.4793
  22   2.0000      -0.527731       -14.3603
  23   2.0000      -0.500567       -13.6211
  24   2.0000      -0.491705       -13.3800
  25   2.0000      -0.479423       -13.0458
  26   2.0000      -0.450893       -12.2694
  27   2.0000      -0.446908       -12.1610
  28   2.0000      -0.432460       -11.7678
  29   2.0000      -0.420387       -11.4393
  30   2.0000      -0.404305       -11.0017
  31   2.0000      -0.379360       -10.3229
  32   2.0000      -0.374993       -10.2041
  33   2.0000      -0.365161        -9.9365
  34   2.0000      -0.364238        -9.9114
  35   2.0000      -0.355369        -9.6701
  36   2.0000      -0.352449        -9.5906
  37   2.0000      -0.314082        -8.5466
  38   2.0000      -0.304905        -8.2969
  39   2.0000      -0.300022        -8.1640
  40   2.0000      -0.258087        -7.0229
  41   2.0000      -0.254038        -6.9127
  42   2.0000      -0.231955        -6.3118
  43   0.0000       0.071950         1.9579
  44   0.0000       0.098239         2.6732
  45   0.0000       0.100470         2.7339
  46   0.0000       0.102095         2.7781
  47   0.0000       0.116524         3.1708

MULLIKEN ATOMIC CHARGES
-----------------------
   0 C :    0.308055
   1 C :   -0.284626
   2 C :   -0.296496
   3 C :   -0.000192
   4 O :   -0.499349
   5 H :    0.141643
   6 H :    0.149842
   7 H :    0.142249
   8 H :    0.142802
   9 H :    0.156084
  10 H :    0.154675
  11 H :    0.142533
  12 C :    0.004186
  13 H :    0.120841
  14 C :    0.049801
  15 C :   -0.288804
  16 C :    0.005006
  17 O :   -0.514651
  18 H :    0.157947
  19 O :   -0.503433
  20 H :    0.120234
  21 H :    0.160815
  22 H :    0.138519
  23 H :    0.133059
  24 H :    0.159258
Sum of atomic charges:   -0.0000000

LOEWDIN ATOMIC CHARGES
----------------------
   0 C :    0.182407
   1 C :   -0.233258
   2 C :   -0.216513
   3 C :   -0.024931
   4 O :   -0.300563
   5 H :    0.096187
   6 H :    0.116873
   7 H :    0.111797
   8 H :    0.114603
   9 H :    0.115328
  10 H :    0.109718
  11 H :    0.102890
  12 C :   -0.046430
  13 H :    0.089847
  14 C :    0.031729
  15 C :   -0.224084
  16 C :   -0.026592
  17 O :   -0.326496
  18 H :    0.115552
  19 O :   -0.325759
  20 H :    0.091944
  21 H :    0.126413
  22 H :    0.110624
  23 H :    0.097321
  24 H :    0.111394

  Mayer bond orders larger than 0.100000
B(  0-C ,  1-C ) :   0.9285 B(  0-C ,  4-O ) :   0.9383 B(  0-C ,  5-H ) :   0.9197
B(  0-C , 19-O ) :   0.8350 B(  1-C ,  2-C ) :   0.9505 B(  1-C ,  6-H ) :   0.9335
B(  1-C ,  7-H ) :   0.9295 B(  2-C ,  3-C ) :   0.9556 B(  2-C ,  8-H ) :   0.9449
B(  2-C ,  9-H ) :   0.9453 B(  3-C ,  4-O ) :   0.8361 B(  3-C , 10-H ) :   0.9343
B(  3-C , 11-H ) :   0.9396 B( 12-C , 13-H ) :   0.9094 B( 12-C , 14-C ) :   0.9108
B( 12-C , 17-O ) :   0.8783 B( 12-C , 18-H ) :   0.9322 B( 14-C , 15-C ) :   0.9564
B( 14-C , 19-O ) :   0.8405 B( 14-C , 20-H ) :   0.9107 B( 15-C , 16-C ) :   0.9482
B( 15-C , 21-H ) :   0.9370 B( 15-C , 22-H ) :   0.9421 B( 16-C , 17-O ) :   0.8546
B( 16-C , 23-H ) :   0.9330 B( 16-C , 24-H ) :   0.9354

FINAL SINGLE POINT ENERGY      -538.428765011443

DIPOLE MOMENT
-------------
                                X             Y             Z
Electronic contribution:     -0.74029      -5.04080       0.70514
Nuclear contribution   :      1.32361       6.73328      -1.29105
                        -----------------------------------------
Total Dipole Moment    :      0.58332       1.69248      -0.58590
                        -----------------------------------------
Magnitude (a.u.)       :      1.88363
Magnitude (Debye)      :      4.78780

Rotational constants in cm-1:     0.083162     0.019870     0.019535
Rotational constants in MHz :  2493.124240   595.686840   585.655397

                             ****ORCA TERMINATED NORMALLY****
TOTAL RUN TIME: 0 days 0 hours 13 minutes 40 seconds 317 msec
