                         Program Version 4.2.0 -  RELEASE  -
|  1> # Test redundant internal optimization
|  2> #
|  3> ! RKS B3LYP  Opt TightSCF SmallPrint
|  4>
|  5> %basis
|  6>         Basis "6-31G"
|  7> end
|  8>
|  9> %geom
| 10> Constraints
| 11> { D 4  0  15  12  315.0   C } # D for Dihedral angle
| 12> { D 0  15  12  16  45.0   C } # D for Dihedral angle
| 13> { D 0  4  3  2   C } # D for Dihedral angle
| 14> { D 4  3  2  1   C } # D for Dihedral angle
| 15> { D 3  2  1  0   C } # D for Dihedral angle
| 16> { D 2  1  0  4   C } # D for Dihedral angle
| 17> { D 1  0  4  3   C } # D for Dihedral angle
| 18> { D 16  20  19  18   C } # D for Dihedral angle
| 19> { D 20  19  18  17   C } # D for Dihedral angle
| 20> { D 19  18  17  16   C } # D for Dihedral angle
| 21> { D 18  17  16  20   C } # D for Dihedral angle
| 22> { D 17  16  20  19   C } # D for Dihedral angle
| 23> { D 15  12  16  20   C } # D for Dihedral angle
| 24> end
| 25> end
| 26>
| 27>
| 28> #%pal
| 29> #nprocs 8
| 30> #end
| 31>
| 32> * xyz 0 1
| 33> C  -21.048   26.222   46.251
| 34> C  -20.361   27.558   45.944
| 35> C  -20.329   28.222   47.341
| 36> C  -20.110   27.022   48.296
| 37> O  -20.473   25.807   47.535
| 38> H  -20.833   25.428   45.533
| 39> H  -19.344   27.382   45.576
| 40> H  -20.898   28.157   45.201
| 41> H  -19.543   28.978   47.434
| 42> H  -21.289   28.710   47.548
| 43> H  -20.733   27.082   49.195
| 44> H  -19.064   26.913   48.597
| 45> C  -23.319   25.255   47.135
| 46> H  -24.333   25.585   47.393
| 47> H  -23.400   24.361   46.502
| 48> O  -22.586   26.394   46.375
| 49> C  -22.591   24.841   48.444
| 50> C  -22.582   25.988   49.461
| 51> C  -24.012   25.901   50.046
| 52> C  -24.298   24.378   50.049
| 53> O  -23.324   23.765   49.120
| 54> H  -21.604   24.449   48.196
| 55> O  -21.521   25.714   50.563
| 56> H  -22.366   26.963   49.010
| 57> H  -24.090   26.342   51.044
| 58> H  -24.718   26.425   49.392
| 59> H  -25.313   24.141   49.713
| 60> H  -24.136   23.925   51.031
| 61> H  -21.718   24.742   51.030
| 62> *
| 63>
| 64>                          ****END OF INPUT****
 Total Charge           Charge          ....    0
 Multiplicity           Mult            ....    1
 Number of Electrons    NEL             ....  102
FINAL SINGLE POINT ENERGY      -652.818336730489
FINAL SINGLE POINT ENERGY      -652.841029365311
FINAL SINGLE POINT ENERGY      -652.857974533807
FINAL SINGLE POINT ENERGY      -652.861257784174
FINAL SINGLE POINT ENERGY      -652.861989133967
FINAL SINGLE POINT ENERGY      -652.862122830230
FINAL SINGLE POINT ENERGY      -652.862138738911
FINAL SINGLE POINT ENERGY      -652.862143490916
                    ***********************HURRAY********************

CARTESIAN COORDINATES (ANGSTROEM)
---------------------------------
  C    -20.995163   26.210153   46.320382
  C    -20.507702   27.596188   45.893414
  C    -20.323762   28.302062   47.258514
  C    -19.834524   27.162295   48.182856
  O    -20.199261   25.894726   47.481955
  H    -20.760510   25.411258   45.605614
  H    -19.550599   27.490523   45.370935
  H    -21.221735   28.099561   45.238620
  H    -19.609075   29.129469   47.213008
  H    -21.285049   28.698788   47.600381
  H    -20.275400   27.159279   49.179563
  H    -18.744552   27.145262   48.280701
  C    -23.167036   25.230260   47.219134
  H    -24.161477   25.665472   47.344768
  H    -23.270355   24.337095   46.585842
  O    -22.434265   26.260363   46.479478
  C    -22.608514   24.759607   48.570712
  C    -22.603550   25.856917   49.647142
  C    -24.097131   25.889391   50.075058
  C    -24.520795   24.402012   49.963280
  O    -23.511051   23.735626   49.108561
  H    -21.626763   24.303234   48.455720
  O    -21.718460   25.539500   50.752786
  H    -22.271554   26.819891   49.266995
  H    -24.197336   26.283916   51.089100
  H    -24.674491   26.527250   49.398246
  H    -25.510442   24.273145   49.513545
  H    -24.509358   23.891002   50.930779
  H    -21.746092   24.575756   50.927912

 Multiplicity           Mult            ....    1
 Number of Electrons    NEL             ....  102
 Basis Dimension        Dim             ....  149

ORBITAL ENERGIES
----------------

  NO   OCC          E(Eh)            E(eV)
   0   2.0000     -19.148353      -521.0532
   1   2.0000     -19.144797      -520.9564
   2   2.0000     -19.142134      -520.8840
   3   2.0000     -19.137577      -520.7599
   4   2.0000     -10.279603      -279.7222
   5   2.0000     -10.235596      -278.5247
   6   2.0000     -10.229044      -278.3464
   7   2.0000     -10.228892      -278.3423
   8   2.0000     -10.227776      -278.3119
   9   2.0000     -10.225203      -278.2419
  10   2.0000     -10.187782      -277.2236
  11   2.0000     -10.186016      -277.1756
  12   2.0000     -10.185846      -277.1710
  13   2.0000      -1.052377       -28.6366
  14   2.0000      -1.034173       -28.1413
  15   2.0000      -1.005794       -27.3690
  16   2.0000      -0.995531       -27.0898
  17   2.0000      -0.790797       -21.5187
  18   2.0000      -0.777611       -21.1599
  19   2.0000      -0.763368       -20.7723
  20   2.0000      -0.731729       -19.9114
  21   2.0000      -0.674738       -18.3606
  22   2.0000      -0.601198       -16.3594
  23   2.0000      -0.600680       -16.3453
  24   2.0000      -0.599269       -16.3069
  25   2.0000      -0.572612       -15.5816
  26   2.0000      -0.521644       -14.1946
  27   2.0000      -0.517452       -14.0806
  28   2.0000      -0.493579       -13.4310
  29   2.0000      -0.484526       -13.1846
  30   2.0000      -0.472301       -12.8520
  31   2.0000      -0.458954       -12.4888
  32   2.0000      -0.442929       -12.0527
  33   2.0000      -0.436465       -11.8768
  34   2.0000      -0.415849       -11.3158
  35   2.0000      -0.412254       -11.2180
  36   2.0000      -0.404619       -11.0102
  37   2.0000      -0.389548       -10.6001
  38   2.0000      -0.374414       -10.1883
  39   2.0000      -0.367729       -10.0064
  40   2.0000      -0.358296        -9.7497
  41   2.0000      -0.357690        -9.7332
  42   2.0000      -0.349561        -9.5120
  43   2.0000      -0.338351        -9.2070
  44   2.0000      -0.325588        -8.8597
  45   2.0000      -0.305252        -8.3063
  46   2.0000      -0.302358        -8.2276
  47   2.0000      -0.269455        -7.3323
  48   2.0000      -0.265968        -7.2373
  49   2.0000      -0.258449        -7.0327
  50   2.0000      -0.240003        -6.5308
  51   0.0000       0.066133         1.7996
  52   0.0000       0.077428         2.1069
  53   0.0000       0.095233         2.5914
  54   0.0000       0.098914         2.6916
  55   0.0000       0.102914         2.8004

MULLIKEN ATOMIC CHARGES
-----------------------
   0 C :    0.304270
   1 C :   -0.265628
   2 C :   -0.305364
   3 C :   -0.030133
   4 O :   -0.516735
   5 H :    0.144991
   6 H :    0.148507
   7 H :    0.161738
   8 H :    0.145479
   9 H :    0.156124
  10 H :    0.176258
  11 H :    0.149754
  12 C :   -0.009206
  13 H :    0.147867
  14 H :    0.147617
  15 O :   -0.535262
  16 C :    0.035008
  17 C :    0.105437
  18 C :   -0.304254
  19 C :   -0.023278
  20 O :   -0.528384
  21 H :    0.192192
  22 O :   -0.614032
  23 H :    0.153298
  24 H :    0.158493
  25 H :    0.148292
  26 H :    0.142855
  27 H :    0.147145
  28 H :    0.366952
Sum of atomic charges:   -0.0000000

LOEWDIN ATOMIC CHARGES
----------------------
   0 C :    0.176063
   1 C :   -0.213792
   2 C :   -0.217521
   3 C :   -0.036026
   4 O :   -0.321451
   5 H :    0.093382
   6 H :    0.115733
   7 H :    0.126445
   8 H :    0.116101
   9 H :    0.113981
  10 H :    0.117030
  11 H :    0.106319
  12 C :   -0.039273
  13 H :    0.110931
  14 H :    0.103861
  15 O :   -0.336556
  16 C :    0.000767
  17 C :    0.036509
  18 C :   -0.241562
  19 C :   -0.036938
  20 O :   -0.329859
  21 H :    0.128733
  22 O :   -0.416240
  23 H :    0.112600
  24 H :    0.125753
  25 H :    0.114233
  26 H :    0.102077
  27 H :    0.103269
  28 H :    0.285432

  Mayer bond orders larger than 0.100000
B(  0-C ,  1-C ) :   0.9425 B(  0-C ,  4-O ) :   0.9002 B(  0-C ,  5-H ) :   0.9236
B(  0-C , 15-O ) :   0.8570 B(  1-C ,  2-C ) :   0.9561 B(  1-C ,  6-H ) :   0.9393
B(  1-C ,  7-H ) :   0.9364 B(  2-C ,  3-C ) :   0.9534 B(  2-C ,  8-H ) :   0.9444
B(  2-C ,  9-H ) :   0.9443 B(  3-C ,  4-O ) :   0.8196 B(  3-C , 10-H ) :   0.9143
B(  3-C , 11-H ) :   0.9408 B( 12-C , 13-H ) :   0.9384 B( 12-C , 14-H ) :   0.9191
B( 12-C , 15-O ) :   0.8367 B( 12-C , 16-C ) :   0.8858 B( 16-C , 17-C ) :   0.9116
B( 16-C , 20-O ) :   0.8207 B( 16-C , 21-H ) :   0.9112 B( 17-C , 18-C ) :   0.9104
B( 17-C , 22-O ) :   0.8759 B( 17-C , 23-H ) :   0.9216 B( 18-C , 19-C ) :   0.9413
B( 18-C , 24-H ) :   0.9388 B( 18-C , 25-H ) :   0.9347 B( 19-C , 20-O ) :   0.8441
B( 19-C , 26-H ) :   0.9359 B( 19-C , 27-H ) :   0.9387 B( 22-O , 28-H ) :   0.7947

FINAL SINGLE POINT ENERGY      -652.862143994097

DIPOLE MOMENT
-------------
                                X             Y             Z
Electronic contribution:      0.53345      -4.49652      -0.11321
Nuclear contribution   :     -0.75362       5.16664       0.03629
                        -----------------------------------------
Total Dipole Moment    :     -0.22017       0.67012      -0.07692
                        -----------------------------------------
Magnitude (a.u.)       :      0.70954
Magnitude (Debye)      :      1.80351

Rotational constants in cm-1:     0.049463     0.017544     0.015306
Rotational constants in MHz :  1482.863475   525.947307   458.862144

                             ****ORCA TERMINATED NORMALLY****
TOTAL RUN TIME: 0 days 1 hours 9 minutes 6 seconds 725 msec
