                         Program Version 4.2.1 -  RELEASE  -
|  1> # Test redundant internal optimization
|  2> #
|  3> ! RKS B3LYP  Opt TightSCF SmallPrint
|  4>
|  5> %basis
|  6>         Basis "6-31G"
|  7> end
|  8>
|  9> %geom
| 10> Constraints
| 11> { D 4  0  19  14  0.0   C } # D for Dihedral angle
| 12> { D 0  19  14  12  120.0   C } # D for Dihedral angle
| 13> { D 0  4  3  2   C } # D for Dihedral angle
| 14> { D 4  3  2  1   C } # D for Dihedral angle
| 15> { D 3  2  1  0   C } # D for Dihedral angle
| 16> { D 2  1  0  4   C } # D for Dihedral angle
| 17> { D 1  0  4  3   C } # D for Dihedral angle
| 18> { D 14  15  16  17   C } # D for Dihedral angle
| 19> { D 15  16  17  12   C } # D for Dihedral angle
| 20> { D 16  17  12  14   C } # D for Dihedral angle
| 21> { D 17  12  14  15   C } # D for Dihedral angle
| 22> { D 12  14  15  16   C } # D for Dihedral angle
| 23> end
| 24> end
| 25>
| 26>
| 27> #%pal
| 28> #nprocs 8
| 29> #end
| 30>
| 31> * xyz 0 1
| 32> C  -21.048   26.222   46.251
| 33> C  -20.361   27.558   45.944
| 34> C  -20.329   28.222   47.341
| 35> C  -20.110   27.022   48.296
| 36> O  -20.473   25.807   47.535
| 37> H  -20.833   25.428   45.533
| 38> H  -19.344   27.382   45.576
| 39> H  -20.898   28.157   45.201
| 40> H  -19.543   28.978   47.434
| 41> H  -21.289   28.710   47.548
| 42> H  -20.733   27.082   49.195
| 43> H  -19.064   26.913   48.597
| 44> C  -23.692   27.351   48.236
| 45> H  -23.842   27.270   49.324
| 46> C  -22.995   26.105   47.675
| 47> C  -24.166   25.099   47.595
| 48> C  -25.374   25.994   47.219
| 49> O  -24.984   27.384   47.542
| 50> H  -23.185   28.291   48.013
| 51> O  -22.472   26.381   46.366
| 52> H  -22.173   25.751   48.308
| 53> H  -23.994   24.303   46.865
| 54> H  -24.326   24.627   48.573
| 55> H  -26.279   25.736   47.780
| 56> H  -25.600   25.963   46.149
| 57> *
| 58>
| 59>                          ****END OF INPUT****
 Total Charge           Charge          ....    0
 Multiplicity           Mult            ....    1
 Number of Electrons    NEL             ....   86
FINAL SINGLE POINT ENERGY      -538.421429676242
FINAL SINGLE POINT ENERGY      -538.428532922926
FINAL SINGLE POINT ENERGY      -538.430058987002
FINAL SINGLE POINT ENERGY      -538.430439697117
FINAL SINGLE POINT ENERGY      -538.430466346461
FINAL SINGLE POINT ENERGY      -538.430476839171
                    ***********************HURRAY********************

CARTESIAN COORDINATES (ANGSTROEM)
---------------------------------
  C    -21.022769   26.226190   46.341986
  C    -20.402806   27.567203   45.944679
  C    -20.218075   28.250903   47.320823
  C    -19.866668   27.071884   48.255044
  O    -20.304814   25.841694   47.535114
  H    -20.857683   25.423739   45.618921
  H    -19.435997   27.387260   45.460796
  H    -21.047225   28.129277   45.265797
  H    -19.434129   29.014465   47.309194
  H    -21.151171   28.732261   47.628604
  H    -20.377188   27.115211   49.221361
  H    -18.791279   26.964988   48.421657
  C    -23.834109   27.322373   48.297342
  H    -24.081885   27.222386   49.365799
  C    -23.093284   26.079974   47.799349
  C    -24.253528   25.088530   47.590933
  C    -25.411763   25.989778   47.103254
  O    -25.046121   27.375144   47.479252
  H    -23.290805   28.254265   48.132724
  O    -22.468107   26.342935   46.505334
  H    -22.341839   25.706596   48.499256
  H    -23.981429   24.313428   46.871178
  H    -24.502884   24.607612   48.544406
  H    -26.370323   25.734348   47.567639
  H    -25.521119   25.973555   46.015557

 Multiplicity           Mult            ....    1
 Number of Electrons    NEL             ....   86
 Basis Dimension        Dim             ....  127

ORBITAL ENERGIES
----------------

  NO   OCC          E(Eh)            E(eV)
   0   2.0000     -19.154016      -521.2073
   1   2.0000     -19.134425      -520.6742
   2   2.0000     -19.123247      -520.3700
   3   2.0000     -10.280332      -279.7420
   4   2.0000     -10.235685      -278.5272
   5   2.0000     -10.233822      -278.4764
   6   2.0000     -10.218718      -278.0655
   7   2.0000     -10.214588      -277.9531
   8   2.0000     -10.193031      -277.3665
   9   2.0000     -10.186423      -277.1867
  10   2.0000     -10.179188      -276.9898
  11   2.0000      -1.055804       -28.7299
  12   2.0000      -1.010898       -27.5079
  13   2.0000      -0.986304       -26.8387
  14   2.0000      -0.793896       -21.6030
  15   2.0000      -0.777880       -21.1672
  16   2.0000      -0.739183       -20.1142
  17   2.0000      -0.721167       -19.6240
  18   2.0000      -0.614893       -16.7321
  19   2.0000      -0.603526       -16.4228
  20   2.0000      -0.593761       -16.1570
  21   2.0000      -0.563545       -15.3348
  22   2.0000      -0.521757       -14.1977
  23   2.0000      -0.503343       -13.6967
  24   2.0000      -0.488750       -13.2996
  25   2.0000      -0.481886       -13.1128
  26   2.0000      -0.452051       -12.3009
  27   2.0000      -0.433597       -11.7988
  28   2.0000      -0.432832       -11.7780
  29   2.0000      -0.415430       -11.3044
  30   2.0000      -0.410798       -11.1784
  31   2.0000      -0.379974       -10.3396
  32   2.0000      -0.371112       -10.0985
  33   2.0000      -0.362478        -9.8635
  34   2.0000      -0.360755        -9.8167
  35   2.0000      -0.357564        -9.7298
  36   2.0000      -0.345705        -9.4071
  37   2.0000      -0.332129        -9.0377
  38   2.0000      -0.303733        -8.2650
  39   2.0000      -0.296386        -8.0651
  40   2.0000      -0.268892        -7.3169
  41   2.0000      -0.249868        -6.7992
  42   2.0000      -0.226793        -6.1714
  43   0.0000       0.071574         1.9476
  44   0.0000       0.093088         2.5331
  45   0.0000       0.096519         2.6264
  46   0.0000       0.103870         2.8264
  47   0.0000       0.112094         3.0502

MULLIKEN ATOMIC CHARGES
-----------------------
   0 C :    0.303714
   1 C :   -0.257540
   2 C :   -0.313517
   3 C :   -0.019191
   4 O :   -0.512966
   5 H :    0.155367
   6 H :    0.144414
   7 H :    0.165763
   8 H :    0.149229
   9 H :    0.157845
  10 H :    0.142588
  11 H :    0.153855
  12 C :    0.002337
  13 H :    0.120210
  14 C :    0.048660
  15 C :   -0.281848
  16 C :    0.003448
  17 O :   -0.522488
  18 H :    0.154063
  19 O :   -0.533508
  20 H :    0.161612
  21 H :    0.156931
  22 H :    0.137283
  23 H :    0.130133
  24 H :    0.153605
Sum of atomic charges:   -0.0000000

LOEWDIN ATOMIC CHARGES
----------------------
   0 C :    0.184572
   1 C :   -0.220504
   2 C :   -0.220241
   3 C :   -0.033109
   4 O :   -0.319272
   5 H :    0.103672
   6 H :    0.114027
   7 H :    0.128511
   8 H :    0.118348
   9 H :    0.113486
  10 H :    0.101324
  11 H :    0.108545
  12 C :   -0.044085
  13 H :    0.089260
  14 C :    0.033493
  15 C :   -0.226557
  16 C :   -0.028406
  17 O :   -0.332074
  18 H :    0.111214
  19 O :   -0.336522
  20 H :    0.114310
  21 H :    0.125234
  22 H :    0.110338
  23 H :    0.096151
  24 H :    0.108283

  Mayer bond orders larger than 0.100000
B(  0-C ,  1-C ) :   0.9291 B(  0-C ,  4-O ) :   0.9056 B(  0-C ,  5-H ) :   0.9301
B(  0-C , 19-O ) :   0.8553 B(  1-C ,  2-C ) :   0.9536 B(  1-C ,  6-H ) :   0.9349
B(  1-C ,  7-H ) :   0.9347 B(  2-C ,  3-C ) :   0.9528 B(  2-C ,  8-H ) :   0.9442
B(  2-C ,  9-H ) :   0.9370 B(  3-C ,  4-O ) :   0.8288 B(  3-C , 10-H ) :   0.9338
B(  3-C , 11-H ) :   0.9405 B( 12-C , 13-H ) :   0.9116 B( 12-C , 14-C ) :   0.9229
B( 12-C , 17-O ) :   0.8719 B( 12-C , 18-H ) :   0.9276 B( 14-C , 15-C ) :   0.9479
B( 14-C , 19-O ) :   0.8245 B( 14-C , 20-H ) :   0.9048 B( 15-C , 16-C ) :   0.9475
B( 15-C , 21-H ) :   0.9402 B( 15-C , 22-H ) :   0.9407 B( 16-C , 17-O ) :   0.8556
B( 16-C , 23-H ) :   0.9342 B( 16-C , 24-H ) :   0.9364

FINAL SINGLE POINT ENERGY      -538.430477861295

DIPOLE MOMENT
-------------
                                X             Y             Z
Electronic contribution:     -0.94551      -1.40606      -1.29477
Nuclear contribution   :      1.78120       1.38096       1.71938
                        -----------------------------------------
Total Dipole Moment    :      0.83569      -0.02510       0.42462
                        -----------------------------------------
Magnitude (a.u.)       :      0.93772
Magnitude (Debye)      :      2.38349

Rotational constants in cm-1:     0.077494     0.022287     0.021382
Rotational constants in MHz :  2323.202626   668.153346   641.014108

                             ****ORCA TERMINATED NORMALLY****
TOTAL RUN TIME: 0 days 0 hours 7 minutes 41 seconds 193 msec
