                         Program Version 4.2.0 -  RELEASE  -
|  1> # Test redundant internal optimization
|  2> #
|  3> ! RKS B3LYP  Opt TightSCF SmallPrint
|  4>
|  5> %basis
|  6>         Basis "6-31G"
|  7> end
|  8>
|  9> %geom
| 10> Constraints
| 11> { D 4  0  15  12  90.0   C } # D for Dihedral angle
| 12> { D 0  15  12  16  180.0   C } # D for Dihedral angle
| 13> { D 0  4  3  2   C } # D for Dihedral angle
| 14> { D 4  3  2  1   C } # D for Dihedral angle
| 15> { D 3  2  1  0   C } # D for Dihedral angle
| 16> { D 2  1  0  4   C } # D for Dihedral angle
| 17> { D 1  0  4  3   C } # D for Dihedral angle
| 18> { D 16  20  19  18   C } # D for Dihedral angle
| 19> { D 20  19  18  17   C } # D for Dihedral angle
| 20> { D 19  18  17  16   C } # D for Dihedral angle
| 21> { D 18  17  16  20   C } # D for Dihedral angle
| 22> { D 17  16  20  19   C } # D for Dihedral angle
| 23> { D 15  12  16  20   C } # D for Dihedral angle
| 24> end
| 25> end
| 26>
| 27>
| 28> #%pal
| 29> #nprocs 8
| 30> #end
| 31>
| 32> * xyz 0 1
| 33> C  -21.048   26.222   46.251
| 34> C  -20.361   27.558   45.944
| 35> C  -20.329   28.222   47.341
| 36> C  -20.110   27.022   48.296
| 37> O  -20.473   25.807   47.535
| 38> H  -20.833   25.428   45.533
| 39> H  -19.344   27.382   45.576
| 40> H  -20.898   28.157   45.201
| 41> H  -19.543   28.978   47.434
| 42> H  -21.289   28.710   47.548
| 43> H  -20.733   27.082   49.195
| 44> H  -19.064   26.913   48.597
| 45> C  -23.061   27.816   46.783
| 46> H  -22.628   28.076   47.757
| 47> H  -22.724   28.559   46.049
| 48> O  -22.586   26.394   46.375
| 49> C  -24.607   27.924   46.891
| 50> C  -25.288   27.487   45.588
| 51> C  -25.234   25.945   45.709
| 52> C  -25.420   25.705   47.228
| 53> O  -25.118   26.989   47.897
| 54> H  -24.873   28.929   47.224
| 55> O  -26.759   27.984   45.564
| 56> H  -24.782   27.861   44.691
| 57> H  -26.002   25.445   45.110
| 58> H  -24.257   25.575   45.376
| 59> H  -24.749   24.931   47.616
| 60> H  -26.450   25.442   47.486
| 61> H  -27.285   27.621   46.453
| 62> *
| 63>
| 64>                          ****END OF INPUT****
 Total Charge           Charge          ....    0
 Multiplicity           Mult            ....    1
 Number of Electrons    NEL             ....  102
FINAL SINGLE POINT ENERGY      -652.814169523628
FINAL SINGLE POINT ENERGY      -652.841107588196
FINAL SINGLE POINT ENERGY      -652.855132131175
FINAL SINGLE POINT ENERGY      -652.857605608605
FINAL SINGLE POINT ENERGY      -652.857942558698
FINAL SINGLE POINT ENERGY      -652.857990550089
FINAL SINGLE POINT ENERGY      -652.857996154757
FINAL SINGLE POINT ENERGY      -652.857995475193
                    ***********************HURRAY********************

CARTESIAN COORDINATES (ANGSTROEM)
---------------------------------
  C    -21.196916   26.373515   46.419334
  C    -20.304664   27.537734   45.968108
  C    -20.015765   28.266711   47.312144
  C    -19.936642   27.091664   48.320009
  O    -20.595215   25.939179   47.658492
  H    -21.147693   25.506759   45.758660
  H    -19.383000   27.122700   45.548575
  H    -20.769605   28.178289   45.213238
  H    -19.081916   28.836494   47.278595
  H    -20.818176   28.962911   47.566830
  H    -20.447262   27.298758   49.264896
  H    -18.906036   26.791045   48.529242
  C    -23.173633   27.899342   46.870926
  H    -22.849445   28.183203   47.879213
  H    -22.857516   28.676536   46.159886
  O    -22.620637   26.603873   46.512230
  C    -24.700447   27.821827   46.883730
  C    -25.389131   27.433435   45.566492
  C    -25.313594   25.883359   45.614974
  C    -25.481939   25.575014   47.123063
  O    -25.188522   26.837591   47.844977
  H    -25.067751   28.799688   47.217831
  O    -26.759702   27.922941   45.547157
  H    -24.919582   27.862351   44.680421
  H    -26.100199   25.439510   44.998129
  H    -24.336096   25.554014   45.262813
  H    -24.785390   24.808680   47.470580
  H    -26.503769   25.284942   47.389509
  H    -27.197758   27.671936   46.387946

 Multiplicity           Mult            ....    1
 Number of Electrons    NEL             ....  102
 Basis Dimension        Dim             ....  149

ORBITAL ENERGIES
----------------

  NO   OCC          E(Eh)            E(eV)
   0   2.0000     -19.150310      -521.1064
   1   2.0000     -19.142367      -520.8903
   2   2.0000     -19.134953      -520.6885
   3   2.0000     -19.133227      -520.6416
   4   2.0000     -10.283728      -279.8345
   5   2.0000     -10.237194      -278.5682
   6   2.0000     -10.234960      -278.5074
   7   2.0000     -10.233667      -278.4722
   8   2.0000     -10.230845      -278.3955
   9   2.0000     -10.218159      -278.0503
  10   2.0000     -10.198135      -277.5054
  11   2.0000     -10.197010      -277.4747
  12   2.0000     -10.172563      -276.8095
  13   2.0000      -1.055875       -28.7318
  14   2.0000      -1.030638       -28.0451
  15   2.0000      -1.004097       -27.3229
  16   2.0000      -0.995807       -27.0973
  17   2.0000      -0.793409       -21.5898
  18   2.0000      -0.780565       -21.2403
  19   2.0000      -0.762984       -20.7618
  20   2.0000      -0.735172       -20.0050
  21   2.0000      -0.678872       -18.4730
  22   2.0000      -0.609228       -16.5779
  23   2.0000      -0.603486       -16.4217
  24   2.0000      -0.594341       -16.1728
  25   2.0000      -0.568985       -15.4829
  26   2.0000      -0.524019       -14.2593
  27   2.0000      -0.512181       -13.9371
  28   2.0000      -0.504149       -13.7186
  29   2.0000      -0.483619       -13.1599
  30   2.0000      -0.475646       -12.9430
  31   2.0000      -0.457395       -12.4464
  32   2.0000      -0.449698       -12.2369
  33   2.0000      -0.435492       -11.8503
  34   2.0000      -0.425496       -11.5783
  35   2.0000      -0.419275       -11.4090
  36   2.0000      -0.404148       -10.9974
  37   2.0000      -0.388091       -10.5605
  38   2.0000      -0.383742       -10.4422
  39   2.0000      -0.365679        -9.9506
  40   2.0000      -0.364032        -9.9058
  41   2.0000      -0.359965        -9.7952
  42   2.0000      -0.350614        -9.5407
  43   2.0000      -0.326358        -8.8806
  44   2.0000      -0.317458        -8.6385
  45   2.0000      -0.305222        -8.3055
  46   2.0000      -0.296652        -8.0723
  47   2.0000      -0.274677        -7.4743
  48   2.0000      -0.262982        -7.1561
  49   2.0000      -0.256958        -6.9922
  50   2.0000      -0.239925        -6.5287
  51   0.0000       0.065925         1.7939
  52   0.0000       0.075800         2.0626
  53   0.0000       0.086901         2.3647
  54   0.0000       0.101659         2.7663
  55   0.0000       0.108672         2.9571

MULLIKEN ATOMIC CHARGES
-----------------------
   0 C :    0.310476
   1 C :   -0.294408
   2 C :   -0.312199
   3 C :   -0.008307
   4 O :   -0.496911
   5 H :    0.162405
   6 H :    0.159760
   7 H :    0.148336
   8 H :    0.147278
   9 H :    0.148759
  10 H :    0.150569
  11 H :    0.147174
  12 C :    0.009590
  13 H :    0.147247
  14 H :    0.123324
  15 O :   -0.526949
  16 C :    0.068307
  17 C :    0.076434
  18 C :   -0.280992
  19 C :   -0.016340
  20 O :   -0.526831
  21 H :    0.151515
  22 O :   -0.605126
  23 H :    0.144920
  24 H :    0.146856
  25 H :    0.170646
  26 H :    0.161024
  27 H :    0.130584
  28 H :    0.362857
Sum of atomic charges:   -0.0000000

LOEWDIN ATOMIC CHARGES
----------------------
   0 C :    0.175193
   1 C :   -0.230588
   2 C :   -0.223487
   3 C :   -0.031879
   4 O :   -0.317251
   5 H :    0.110766
   6 H :    0.124607
   7 H :    0.116473
   8 H :    0.116741
   9 H :    0.110001
  10 H :    0.105971
  11 H :    0.104853
  12 C :   -0.038523
  13 H :    0.103787
  14 H :    0.092104
  15 O :   -0.319597
  16 C :    0.016668
  17 C :    0.039199
  18 C :   -0.240079
  19 C :   -0.031557
  20 O :   -0.328482
  21 H :    0.114130
  22 O :   -0.418076
  23 H :    0.112862
  24 H :    0.117386
  25 H :    0.129163
  26 H :    0.113168
  27 H :    0.094468
  28 H :    0.281976

  Mayer bond orders larger than 0.100000
B(  0-C ,  1-C ) :   0.9253 B(  0-C ,  4-O ) :   0.9124 B(  0-C ,  5-H ) :   0.9362
B(  0-C , 15-O ) :   0.8860 B(  1-C ,  2-C ) :   0.9529 B(  1-C ,  6-H ) :   0.9349
B(  1-C ,  7-H ) :   0.9338 B(  2-C ,  3-C ) :   0.9480 B(  2-C ,  8-H ) :   0.9452
B(  2-C ,  9-H ) :   0.9400 B(  3-C ,  4-O ) :   0.8457 B(  3-C , 10-H ) :   0.9334
B(  3-C , 11-H ) :   0.9387 B( 12-C , 13-H ) :   0.9099 B( 12-C , 14-H ) :   0.9044
B( 12-C , 15-O ) :   0.8436 B( 12-C , 16-C ) :   0.9038 B( 16-C , 17-C ) :   0.9079
B( 16-C , 20-O ) :   0.8808 B( 16-C , 21-H ) :   0.9235 B( 17-C , 18-C ) :   0.9242
B( 17-C , 22-O ) :   0.8882 B( 17-C , 23-H ) :   0.9370 B( 18-C , 19-C ) :   0.9458
B( 18-C , 24-H ) :   0.9371 B( 18-C , 25-H ) :   0.9199 B( 19-C , 20-O ) :   0.8346
B( 19-C , 26-H ) :   0.9330 B( 19-C , 27-H ) :   0.9382 B( 22-O , 28-H ) :   0.7960

FINAL SINGLE POINT ENERGY      -652.857994154448

DIPOLE MOMENT
-------------
                                X             Y             Z
Electronic contribution:     -3.92573      -1.94674       0.95249
Nuclear contribution   :      5.00162       2.58641      -1.26219
                        -----------------------------------------
Total Dipole Moment    :      1.07589       0.63967      -0.30970
                        -----------------------------------------
Magnitude (a.u.)       :      1.28943
Magnitude (Debye)      :      3.27747

Rotational constants in cm-1:     0.060115     0.013507     0.012982
Rotational constants in MHz :  1802.199766   404.915020   389.188360

                             ****ORCA TERMINATED NORMALLY****
TOTAL RUN TIME: 0 days 0 hours 31 minutes 33 seconds 381 msec
