                         Program Version 4.2.0 -  RELEASE  -
|  1> # Test redundant internal optimization
|  2> #
|  3> ! RKS B3LYP  Opt TightSCF SmallPrint
|  4>
|  5> %basis
|  6>         Basis "6-31G"
|  7> end
|  8>
|  9> %geom
| 10> Constraints
| 11> { D 4  0  15  12  210.0   C } # D for Dihedral angle
| 12> { D 0  15  12  16  75.0   C } # D for Dihedral angle
| 13> { D 0  4  3  2   C } # D for Dihedral angle
| 14> { D 4  3  2  1   C } # D for Dihedral angle
| 15> { D 3  2  1  0   C } # D for Dihedral angle
| 16> { D 2  1  0  4   C } # D for Dihedral angle
| 17> { D 1  0  4  3   C } # D for Dihedral angle
| 18> { D 16  20  19  18   C } # D for Dihedral angle
| 19> { D 20  19  18  17   C } # D for Dihedral angle
| 20> { D 19  18  17  16   C } # D for Dihedral angle
| 21> { D 18  17  16  20   C } # D for Dihedral angle
| 22> { D 17  16  20  19   C } # D for Dihedral angle
| 23> { D 15  12  16  20   C } # D for Dihedral angle
| 24> end
| 25> end
| 26>
| 27>
| 28> #%pal
| 29> #nprocs 8
| 30> #end
| 31>
| 32> * xyz 0 1
| 33> C  -21.048   26.222   46.251
| 34> C  -20.361   27.558   45.944
| 35> C  -20.329   28.222   47.341
| 36> C  -20.110   27.022   48.296
| 37> O  -20.473   25.807   47.535
| 38> H  -20.833   25.428   45.533
| 39> H  -19.344   27.382   45.576
| 40> H  -20.898   28.157   45.201
| 41> H  -19.543   28.978   47.434
| 42> H  -21.289   28.710   47.548
| 43> H  -20.733   27.082   49.195
| 44> H  -19.064   26.913   48.597
| 45> C  -23.389   26.110   45.076
| 46> H  -24.402   26.518   45.181
| 47> H  -22.911   26.596   44.215
| 48> O  -22.586   26.394   46.375
| 49> C  -23.503   24.593   44.760
| 50> C  -22.121   23.934   44.688
| 51> C  -21.782   23.753   46.187
| 52> C  -23.160   23.444   46.824
| 53> O  -24.182   23.891   45.853
| 54> H  -24.114   24.459   43.865
| 55> H  -22.194   22.962   44.188
| 56> O  -21.072   24.796   43.934
| 57> H  -21.052   22.956   46.364
| 58> H  -21.368   24.683   46.594
| 59> H  -23.311   23.969   47.773
| 60> H  -23.315   22.373   46.984
| 61> H  -20.983   25.774   44.417
| 62> *
| 63>
| 64>                          ****END OF INPUT****
 Total Charge           Charge          ....    0
 Multiplicity           Mult            ....    1
 Number of Electrons    NEL             ....  102
FINAL SINGLE POINT ENERGY      -652.737687650858
FINAL SINGLE POINT ENERGY      -652.817628263032
FINAL SINGLE POINT ENERGY      -652.840367931102
FINAL SINGLE POINT ENERGY      -652.846451773776
FINAL SINGLE POINT ENERGY      -652.847347039128
FINAL SINGLE POINT ENERGY      -652.847584527821
FINAL SINGLE POINT ENERGY      -652.847632735912
FINAL SINGLE POINT ENERGY      -652.847652426935
FINAL SINGLE POINT ENERGY      -652.847658779609
FINAL SINGLE POINT ENERGY      -652.847665632597
FINAL SINGLE POINT ENERGY      -652.850053920425
FINAL SINGLE POINT ENERGY      -652.850055176699
FINAL SINGLE POINT ENERGY      -652.850896619309
FINAL SINGLE POINT ENERGY      -652.851719514765
FINAL SINGLE POINT ENERGY      -652.852430645437
FINAL SINGLE POINT ENERGY      -652.852923736698
FINAL SINGLE POINT ENERGY      -652.853139720464
FINAL SINGLE POINT ENERGY      -652.853159234809
FINAL SINGLE POINT ENERGY      -652.853160839495
                    ***********************HURRAY********************

CARTESIAN COORDINATES (ANGSTROEM)
---------------------------------
  C    -20.940265   26.438606   46.389555
  C    -20.303614   27.784820   46.044979
  C    -20.420408   28.549866   47.387662
  C    -20.218224   27.432564   48.434109
  O    -20.460276   26.157007   47.713828
  H    -20.656683   25.633925   45.719298
  H    -19.252419   27.634509   45.769593
  H    -20.810297   28.287938   45.217068
  H    -19.682491   29.352081   47.484281
  H    -21.421092   28.981579   47.476357
  H    -20.915928   27.496513   49.272936
  H    -19.193622   27.386969   48.816224
  C    -23.183548   26.238088   45.294957
  H    -24.163614   26.668843   45.515524
  H    -22.784438   26.726926   44.392881
  O    -22.389967   26.598526   46.457456
  C    -23.437847   24.758945   44.944923
  C    -22.283204   23.815067   44.561505
  C    -21.824810   23.271203   45.956139
  C    -23.167855   23.186982   46.723846
  O    -24.130241   24.037107   45.997359
  H    -24.147966   24.815694   44.107121
  H    -22.689955   22.995590   43.954669
  O    -21.269807   24.539855   43.815857
  H    -21.340066   22.291654   45.875623
  H    -21.132933   23.953337   46.445426
  H    -23.075759   23.553819   47.749774
  H    -23.580459   22.173103   46.737657
  H    -20.592213   23.924886   43.472393

 Multiplicity           Mult            ....    1
 Number of Electrons    NEL             ....  102
 Basis Dimension        Dim             ....  149

ORBITAL ENERGIES
----------------

  NO   OCC          E(Eh)            E(eV)
   0   2.0000     -19.156943      -521.2869
   1   2.0000     -19.132921      -520.6332
   2   2.0000     -19.130249      -520.5605
   3   2.0000     -19.129442      -520.5386
   4   2.0000     -10.262431      -279.2550
   5   2.0000     -10.248249      -278.8690
   6   2.0000     -10.231022      -278.4003
   7   2.0000     -10.220626      -278.1174
   8   2.0000     -10.219706      -278.0923
   9   2.0000     -10.218045      -278.0471
  10   2.0000     -10.182495      -277.0798
  11   2.0000     -10.176845      -276.9260
  12   2.0000     -10.174703      -276.8678
  13   2.0000      -1.043004       -28.3816
  14   2.0000      -1.035097       -28.1664
  15   2.0000      -1.015035       -27.6205
  16   2.0000      -0.982348       -26.7310
  17   2.0000      -0.777061       -21.1449
  18   2.0000      -0.773611       -21.0510
  19   2.0000      -0.761373       -20.7180
  20   2.0000      -0.725245       -19.7349
  21   2.0000      -0.672125       -18.2895
  22   2.0000      -0.604076       -16.4377
  23   2.0000      -0.591999       -16.1091
  24   2.0000      -0.589071       -16.0294
  25   2.0000      -0.559133       -15.2148
  26   2.0000      -0.527064       -14.3421
  27   2.0000      -0.508941       -13.8490
  28   2.0000      -0.490880       -13.3575
  29   2.0000      -0.481409       -13.0998
  30   2.0000      -0.460110       -12.5202
  31   2.0000      -0.452217       -12.3055
  32   2.0000      -0.440286       -11.9808
  33   2.0000      -0.430797       -11.7226
  34   2.0000      -0.422901       -11.5077
  35   2.0000      -0.410487       -11.1699
  36   2.0000      -0.396806       -10.7976
  37   2.0000      -0.391335       -10.6488
  38   2.0000      -0.370841       -10.0911
  39   2.0000      -0.362719        -9.8701
  40   2.0000      -0.354935        -9.6583
  41   2.0000      -0.347577        -9.4581
  42   2.0000      -0.342044        -9.3075
  43   2.0000      -0.330612        -8.9964
  44   2.0000      -0.306926        -8.3519
  45   2.0000      -0.298214        -8.1148
  46   2.0000      -0.293220        -7.9789
  47   2.0000      -0.276593        -7.5265
  48   2.0000      -0.257967        -7.0196
  49   2.0000      -0.248278        -6.7560
  50   2.0000      -0.225987        -6.1494
  51   0.0000       0.048374         1.3163
  52   0.0000       0.080848         2.2000
  53   0.0000       0.097974         2.6660
  54   0.0000       0.113265         3.0821
  55   0.0000       0.118717         3.2305

MULLIKEN ATOMIC CHARGES
-----------------------
   0 C :    0.275474
   1 C :   -0.255231
   2 C :   -0.296846
   3 C :    0.002891
   4 O :   -0.522328
   5 H :    0.166889
   6 H :    0.135822
   7 H :    0.143548
   8 H :    0.136027
   9 H :    0.161748
  10 H :    0.151404
  11 H :    0.136548
  12 C :   -0.003903
  13 H :    0.162315
  14 H :    0.129728
  15 O :   -0.514029
  16 C :    0.098373
  17 C :    0.069604
  18 C :   -0.334738
  19 C :   -0.004426
  20 O :   -0.518897
  21 H :    0.145362
  22 H :    0.145336
  23 O :   -0.609063
  24 H :    0.132634
  25 H :    0.197269
  26 H :    0.165167
  27 H :    0.137339
  28 H :    0.365984
Sum of atomic charges:   -0.0000000

LOEWDIN ATOMIC CHARGES
----------------------
   0 C :    0.163549
   1 C :   -0.222690
   2 C :   -0.217307
   3 C :   -0.024293
   4 O :   -0.317447
   5 H :    0.108480
   6 H :    0.108633
   7 H :    0.115467
   8 H :    0.111410
   9 H :    0.119351
  10 H :    0.107803
  11 H :    0.099470
  12 C :   -0.038516
  13 H :    0.122316
  14 H :    0.097176
  15 O :   -0.331990
  16 C :    0.021757
  17 C :    0.029756
  18 C :   -0.250422
  19 C :   -0.023868
  20 O :   -0.320137
  21 H :    0.112555
  22 H :    0.101354
  23 O :   -0.416783
  24 H :    0.109542
  25 H :    0.135210
  26 H :    0.113919
  27 H :    0.098169
  28 H :    0.287534

  Mayer bond orders larger than 0.100000
B(  0-C ,  1-C ) :   0.9371 B(  0-C ,  4-O ) :   0.9022 B(  0-C ,  5-H ) :   0.8825
B(  0-C , 15-O ) :   0.8343 B(  1-C ,  2-C ) :   0.9534 B(  1-C ,  6-H ) :   0.9370
B(  1-C ,  7-H ) :   0.9389 B(  2-C ,  3-C ) :   0.9559 B(  2-C ,  8-H ) :   0.9458
B(  2-C ,  9-H ) :   0.9434 B(  3-C ,  4-O ) :   0.8349 B(  3-C , 10-H ) :   0.9351
B(  3-C , 11-H ) :   0.9405 B( 12-C , 13-H ) :   0.9340 B( 12-C , 14-H ) :   0.9065
B( 12-C , 15-O ) :   0.8906 B( 12-C , 16-C ) :   0.8937 B( 16-C , 17-C ) :   0.9215
B( 16-C , 20-O ) :   0.8750 B( 16-C , 21-H ) :   0.9189 B( 17-C , 18-C ) :   0.9229
B( 17-C , 22-H ) :   0.9241 B( 17-C , 23-O ) :   0.8647 B( 18-C , 19-C ) :   0.9433
B( 18-C , 24-H ) :   0.9430 B( 18-C , 25-H ) :   0.9161 B( 19-C , 20-O ) :   0.8408
B( 19-C , 26-H ) :   0.9289 B( 19-C , 27-H ) :   0.9370 B( 23-O , 28-H ) :   0.8003

FINAL SINGLE POINT ENERGY      -652.853160783950

DIPOLE MOMENT
-------------
                                X             Y             Z
Electronic contribution:     -2.82726      -2.56540      -0.90714
Nuclear contribution   :      3.80689       2.26954       0.06938
                        -----------------------------------------
Total Dipole Moment    :      0.97963      -0.29586      -0.83776
                        -----------------------------------------
Magnitude (a.u.)       :      1.32251
Magnitude (Debye)      :      3.36156

Rotational constants in cm-1:     0.046677     0.016704     0.015971
Rotational constants in MHz :  1399.346551   500.767155   478.805206

                             ****ORCA TERMINATED NORMALLY****
TOTAL RUN TIME: 0 days 1 hours 31 minutes 22 seconds 289 msec
