                         Program Version 4.2.0 -  RELEASE  -
|  1> # Test redundant internal optimization
|  2> #
|  3> ! RKS B3LYP  Opt TightSCF SmallPrint
|  4>
|  5> %basis
|  6>         Basis "6-31G"
|  7> end
|  8>
|  9> %geom
| 10> Constraints
| 11> { D 4  0  15  12  120.0   C } # D for Dihedral angle
| 12> { D 0  15  12  16  135.0   C } # D for Dihedral angle
| 13> { D 0  4  3  2   C } # D for Dihedral angle
| 14> { D 4  3  2  1   C } # D for Dihedral angle
| 15> { D 3  2  1  0   C } # D for Dihedral angle
| 16> { D 2  1  0  4   C } # D for Dihedral angle
| 17> { D 1  0  4  3   C } # D for Dihedral angle
| 18> { D 16  20  19  18   C } # D for Dihedral angle
| 19> { D 20  19  18  17   C } # D for Dihedral angle
| 20> { D 19  18  17  16   C } # D for Dihedral angle
| 21> { D 18  17  16  20   C } # D for Dihedral angle
| 22> { D 17  16  20  19   C } # D for Dihedral angle
| 23> { D 15  12  16  20   C } # D for Dihedral angle
| 24> end
| 25> end
| 26>
| 27>
| 28> #%pal
| 29> #nprocs 8
| 30> #end
| 31>
| 32> * xyz 0 1
| 33> C  -21.048   26.222   46.251
| 34> C  -20.361   27.558   45.944
| 35> C  -20.329   28.222   47.341
| 36> C  -20.110   27.022   48.296
| 37> O  -20.473   25.807   47.535
| 38> H  -20.833   25.428   45.533
| 39> H  -19.344   27.382   45.576
| 40> H  -20.898   28.157   45.201
| 41> H  -19.543   28.978   47.434
| 42> H  -21.289   28.710   47.548
| 43> H  -20.733   27.082   49.195
| 44> H  -19.064   26.913   48.597
| 45> C  -23.119   27.818   46.058
| 46> H  -23.379   28.324   46.996
| 47> H  -22.348   28.412   45.549
| 48> O  -22.586   26.394   46.375
| 49> C  -24.378   27.799   45.147
| 50> C  -24.116   27.026   43.850
| 51> C  -24.249   25.559   44.327
| 52> C  -25.363   25.639   45.400
| 53> O  -25.467   27.061   45.794
| 54> H  -24.728   28.822   45.000
| 55> H  -24.887   27.263   43.109
| 56> O  -22.726   27.331   43.227
| 57> H  -24.501   24.870   43.515
| 58> H  -23.306   25.221   44.774
| 59> H  -25.137   25.036   46.286
| 60> H  -26.341   25.341   45.010
| 61> H  -21.939   27.101   43.953
| 62> *
| 63>
| 64>                          ****END OF INPUT****
 Total Charge           Charge          ....    0
 Multiplicity           Mult            ....    1
 Number of Electrons    NEL             ....  102
FINAL SINGLE POINT ENERGY      -652.811443004020
FINAL SINGLE POINT ENERGY      -652.837768165232
FINAL SINGLE POINT ENERGY      -652.848206793391
FINAL SINGLE POINT ENERGY      -652.850459209871
FINAL SINGLE POINT ENERGY      -652.851069727331
FINAL SINGLE POINT ENERGY      -652.851175744782
FINAL SINGLE POINT ENERGY      -652.851192585767
FINAL SINGLE POINT ENERGY      -652.851193157842
                    ***********************HURRAY********************

CARTESIAN COORDINATES (ANGSTROEM)
---------------------------------
  C    -21.133062   26.339352   46.368244
  C    -20.228973   27.517376   45.994441
  C    -20.095548   28.265397   47.348203
  C    -20.091534   27.108117   48.374165
  O    -20.652645   25.932825   47.664545
  H    -21.016450   25.460097   45.730187
  H    -19.259314   27.109469   45.688813
  H    -20.597957   28.143619   45.178050
  H    -19.185396   28.870034   47.399320
  H    -20.951221   28.930090   47.506755
  H    -20.703908   27.314067   49.255973
  H    -19.082345   26.832105   48.692638
  C    -23.186885   27.870365   46.118696
  H    -23.501129   28.331226   47.062651
  H    -22.497151   28.549091   45.607455
  O    -22.566665   26.586526   46.426682
  C    -24.416965   27.706451   45.229678
  C    -24.172682   27.057188   43.857628
  C    -24.261252   25.537929   44.199434
  C    -25.346239   25.504123   45.298288
  O    -25.464634   26.888468   45.821614
  H    -24.845177   28.710839   45.115682
  H    -24.964713   27.350476   43.164833
  O    -22.935095   27.468575   43.217806
  H    -24.524240   24.932647   43.326963
  H    -23.301913   25.201261   44.599069
  H    -25.083778   24.839680   46.125321
  H    -26.330029   25.228102   44.906303
  H    -22.198100   26.912504   43.541561

 Multiplicity           Mult            ....    1
 Number of Electrons    NEL             ....  102
 Basis Dimension        Dim             ....  149

ORBITAL ENERGIES
----------------

  NO   OCC          E(Eh)            E(eV)
   0   2.0000     -19.147359      -521.0261
   1   2.0000     -19.145553      -520.9770
   2   2.0000     -19.143034      -520.9084
   3   2.0000     -19.131642      -520.5984
   4   2.0000     -10.288720      -279.9703
   5   2.0000     -10.239924      -278.6425
   6   2.0000     -10.231687      -278.4184
   7   2.0000     -10.231021      -278.4002
   8   2.0000     -10.229555      -278.3603
   9   2.0000     -10.220487      -278.1136
  10   2.0000     -10.201521      -277.5975
  11   2.0000     -10.198526      -277.5160
  12   2.0000     -10.183744      -277.1138
  13   2.0000      -1.055003       -28.7081
  14   2.0000      -1.029878       -28.0244
  15   2.0000      -1.011734       -27.5307
  16   2.0000      -0.995362       -27.0852
  17   2.0000      -0.796607       -21.6768
  18   2.0000      -0.776320       -21.1247
  19   2.0000      -0.768890       -20.9226
  20   2.0000      -0.737596       -20.0710
  21   2.0000      -0.683471       -18.5982
  22   2.0000      -0.610460       -16.6115
  23   2.0000      -0.606184       -16.4951
  24   2.0000      -0.602397       -16.3920
  25   2.0000      -0.561144       -15.2695
  26   2.0000      -0.526587       -14.3292
  27   2.0000      -0.515316       -14.0225
  28   2.0000      -0.509563       -13.8659
  29   2.0000      -0.494654       -13.4602
  30   2.0000      -0.471608       -12.8331
  31   2.0000      -0.457566       -12.4510
  32   2.0000      -0.441908       -12.0249
  33   2.0000      -0.434240       -11.8163
  34   2.0000      -0.428073       -11.6484
  35   2.0000      -0.416950       -11.3458
  36   2.0000      -0.410994       -11.1837
  37   2.0000      -0.400095       -10.8871
  38   2.0000      -0.388079       -10.5602
  39   2.0000      -0.369654       -10.0588
  40   2.0000      -0.367887       -10.0107
  41   2.0000      -0.363035        -9.8787
  42   2.0000      -0.349690        -9.5155
  43   2.0000      -0.323492        -8.8027
  44   2.0000      -0.318333        -8.6623
  45   2.0000      -0.313796        -8.5388
  46   2.0000      -0.298649        -8.1267
  47   2.0000      -0.272873        -7.4253
  48   2.0000      -0.265599        -7.2273
  49   2.0000      -0.257939        -7.0189
  50   2.0000      -0.234579        -6.3832
  51   0.0000       0.048828         1.3287
  52   0.0000       0.074054         2.0151
  53   0.0000       0.085013         2.3133
  54   0.0000       0.094938         2.5834
  55   0.0000       0.103347         2.8122

MULLIKEN ATOMIC CHARGES
-----------------------
   0 C :    0.315326
   1 C :   -0.317949
   2 C :   -0.305367
   3 C :   -0.004572
   4 O :   -0.495030
   5 H :    0.146774
   6 H :    0.159547
   7 H :    0.153778
   8 H :    0.149101
   9 H :    0.155648
  10 H :    0.153531
  11 H :    0.146063
  12 C :   -0.014906
  13 H :    0.154043
  14 H :    0.141269
  15 O :   -0.536124
  16 C :    0.098033
  17 C :    0.079859
  18 C :   -0.314944
  19 C :   -0.001251
  20 O :   -0.518333
  21 H :    0.145070
  22 H :    0.162881
  23 O :   -0.611970
  24 H :    0.145339
  25 H :    0.156431
  26 H :    0.159641
  27 H :    0.138711
  28 H :    0.359402
Sum of atomic charges:    0.0000000

LOEWDIN ATOMIC CHARGES
----------------------
   0 C :    0.175085
   1 C :   -0.238028
   2 C :   -0.218864
   3 C :   -0.028640
   4 O :   -0.311321
   5 H :    0.098673
   6 H :    0.124151
   7 H :    0.116811
   8 H :    0.118092
   9 H :    0.112954
  10 H :    0.108544
  11 H :    0.104669
  12 C :   -0.044812
  13 H :    0.109243
  14 H :    0.103291
  15 O :   -0.334164
  16 C :    0.017189
  17 C :    0.036070
  18 C :   -0.240167
  19 C :   -0.022901
  20 O :   -0.320534
  21 H :    0.112502
  22 H :    0.116097
  23 O :   -0.415088
  24 H :    0.114855
  25 H :    0.117258
  26 H :    0.111973
  27 H :    0.100078
  28 H :    0.276986

  Mayer bond orders larger than 0.100000
B(  0-C ,  1-C ) :   0.9306 B(  0-C ,  4-O ) :   0.9205 B(  0-C ,  5-H ) :   0.9288
B(  0-C , 15-O ) :   0.8665 B(  1-C ,  2-C ) :   0.9503 B(  1-C ,  6-H ) :   0.9321
B(  1-C ,  7-H ) :   0.9218 B(  2-C ,  3-C ) :   0.9500 B(  2-C ,  8-H ) :   0.9453
B(  2-C ,  9-H ) :   0.9416 B(  3-C ,  4-O ) :   0.8424 B(  3-C , 10-H ) :   0.9337
B(  3-C , 11-H ) :   0.9393 B( 12-C , 13-H ) :   0.9242 B( 12-C , 14-H ) :   0.8931
B( 12-C , 15-O ) :   0.8403 B( 12-C , 16-C ) :   0.9059 B( 16-C , 17-C ) :   0.8857
B( 16-C , 20-O ) :   0.8826 B( 16-C , 21-H ) :   0.9258 B( 17-C , 18-C ) :   0.9407
B( 17-C , 22-H ) :   0.9342 B( 17-C , 23-O ) :   0.8910 B( 18-C , 19-C ) :   0.9455
B( 18-C , 24-H ) :   0.9399 B( 18-C , 25-H ) :   0.9269 B( 19-C , 20-O ) :   0.8385
B( 19-C , 26-H ) :   0.9302 B( 19-C , 27-H ) :   0.9379 B( 23-O , 28-H ) :   0.7939

FINAL SINGLE POINT ENERGY      -652.851191505951

DIPOLE MOMENT
-------------
                                X             Y             Z
Electronic contribution:     -3.12357      -1.70423       0.09057
Nuclear contribution   :      4.14472       2.12613      -0.39129
                        -----------------------------------------
Total Dipole Moment    :      1.02115       0.42191      -0.30072
                        -----------------------------------------
Magnitude (a.u.)       :      1.14507
Magnitude (Debye)      :      2.91054

Rotational constants in cm-1:     0.050490     0.015648     0.014520
Rotational constants in MHz :  1513.650054   469.111928   435.311516

                             ****ORCA TERMINATED NORMALLY****
TOTAL RUN TIME: 0 days 0 hours 42 minutes 16 seconds 178 msec
