                         Program Version 4.2.0 -  RELEASE  -
|  1> # Test redundant internal optimization
|  2> #
|  3> ! RKS B3LYP  Opt TightSCF SmallPrint
|  4>
|  5> %basis
|  6>         Basis "6-31G"
|  7> end
|  8>
|  9> %geom
| 10> Constraints
| 11> { D 4  0  15  12  180.0   C } # D for Dihedral angle
| 12> { D 0  15  12  16  150.0   C } # D for Dihedral angle
| 13> { D 0  4  3  2   C } # D for Dihedral angle
| 14> { D 4  3  2  1   C } # D for Dihedral angle
| 15> { D 3  2  1  0   C } # D for Dihedral angle
| 16> { D 2  1  0  4   C } # D for Dihedral angle
| 17> { D 1  0  4  3   C } # D for Dihedral angle
| 18> { D 16  20  19  18   C } # D for Dihedral angle
| 19> { D 20  19  18  17   C } # D for Dihedral angle
| 20> { D 19  18  17  16   C } # D for Dihedral angle
| 21> { D 18  17  16  20   C } # D for Dihedral angle
| 22> { D 17  16  20  19   C } # D for Dihedral angle
| 23> { D 15  12  16  20   C } # D for Dihedral angle
| 24> end
| 25> end
| 26>
| 27>
| 28> #%pal
| 29> #nprocs 8
| 30> #end
| 31>
| 32> * xyz 0 1
| 33> C  -21.048   26.222   46.251
| 34> C  -20.361   27.558   45.944
| 35> C  -20.329   28.222   47.341
| 36> C  -20.110   27.022   48.296
| 37> O  -20.473   25.807   47.535
| 38> H  -20.833   25.428   45.533
| 39> H  -19.344   27.382   45.576
| 40> H  -20.898   28.157   45.201
| 41> H  -19.543   28.978   47.434
| 42> H  -21.289   28.710   47.548
| 43> H  -20.733   27.082   49.195
| 44> H  -19.064   26.913   48.597
| 45> C  -23.309   26.834   45.072
| 46> H  -23.337   27.929   45.026
| 47> H  -22.767   26.467   44.190
| 48> O  -22.586   26.394   46.375
| 49> C  -24.767   26.303   44.986
| 50> C  -24.814   24.778   45.134
| 51> C  -24.680   24.608   46.667
| 52> C  -25.449   25.832   47.225
| 53> O  -25.561   26.801   46.113
| 54> H  -25.232   26.683   44.074
| 55> H  -25.780   24.397   44.787
| 56> O  -23.689   24.052   44.348
| 57> H  -25.089   23.659   47.026
| 58> H  -23.624   24.650   46.959
| 59> H  -24.930   26.306   48.065
| 60> H  -26.467   25.579   47.535
| 61> H  -22.712   24.420   44.680
| 62> *
| 63>
| 64>                          ****END OF INPUT****
 Total Charge           Charge          ....    0
 Multiplicity           Mult            ....    1
 Number of Electrons    NEL             ....  102
FINAL SINGLE POINT ENERGY      -652.829671172305
FINAL SINGLE POINT ENERGY      -652.853304068304
FINAL SINGLE POINT ENERGY      -652.857854083881
FINAL SINGLE POINT ENERGY      -652.859982081358
FINAL SINGLE POINT ENERGY      -652.860284512214
FINAL SINGLE POINT ENERGY      -652.860351023906
FINAL SINGLE POINT ENERGY      -652.860355327761
                    ***********************HURRAY********************

CARTESIAN COORDINATES (ANGSTROEM)
---------------------------------
  C    -21.058382   26.277187   46.182710
  C    -20.332528   27.592885   45.910852
  C    -20.353111   28.265657   47.305365
  C    -20.206667   27.068344   48.265851
  O    -20.566367   25.866837   47.463283
  H    -20.848371   25.473880   45.466432
  H    -19.305109   27.374767   45.596555
  H    -20.803796   28.201487   45.134665
  H    -19.550689   28.999286   47.426889
  H    -21.311027   28.770845   47.460601
  H    -20.874824   27.120417   49.128329
  H    -19.179023   26.916038   48.607362
  C    -23.201850   26.877279   45.104288
  H    -23.225970   27.972527   45.057943
  H    -22.689498   26.495888   44.208415
  O    -22.501286   26.454880   46.314188
  C    -24.632118   26.346782   45.091040
  C    -24.773939   24.815520   45.134511
  C    -24.708087   24.529685   46.667117
  C    -25.424581   25.757425   47.269773
  O    -25.434179   26.805028   46.215767
  H    -25.107347   26.758081   44.191558
  H    -25.741013   24.524992   44.718099
  O    -23.788236   24.102645   44.345149
  H    -25.195322   23.586262   46.930760
  H    -23.662746   24.503060   46.982426
  H    -24.908957   26.152214   48.148531
  H    -26.469874   25.553801   47.520710
  H    -22.963103   24.009302   44.863831

 Multiplicity           Mult            ....    1
 Number of Electrons    NEL             ....  102
 Basis Dimension        Dim             ....  149

ORBITAL ENERGIES
----------------

  NO   OCC          E(Eh)            E(eV)
   0   2.0000     -19.148369      -521.0536
   1   2.0000     -19.148344      -521.0529
   2   2.0000     -19.140377      -520.8361
   3   2.0000     -19.130721      -520.5734
   4   2.0000     -10.288541      -279.9654
   5   2.0000     -10.234860      -278.5047
   6   2.0000     -10.231439      -278.4116
   7   2.0000     -10.230933      -278.3979
   8   2.0000     -10.228517      -278.3321
   9   2.0000     -10.217612      -278.0354
  10   2.0000     -10.193430      -277.3773
  11   2.0000     -10.191873      -277.3350
  12   2.0000     -10.176237      -276.9095
  13   2.0000      -1.061116       -28.8744
  14   2.0000      -1.026148       -27.9229
  15   2.0000      -1.008756       -27.4497
  16   2.0000      -0.997896       -27.1541
  17   2.0000      -0.792423       -21.5629
  18   2.0000      -0.771908       -21.0047
  19   2.0000      -0.763571       -20.7778
  20   2.0000      -0.735557       -20.0155
  21   2.0000      -0.678266       -18.4566
  22   2.0000      -0.607317       -16.5259
  23   2.0000      -0.600291       -16.3348
  24   2.0000      -0.598352       -16.2820
  25   2.0000      -0.565151       -15.3786
  26   2.0000      -0.530157       -14.4263
  27   2.0000      -0.504684       -13.7331
  28   2.0000      -0.504076       -13.7166
  29   2.0000      -0.490685       -13.3522
  30   2.0000      -0.473146       -12.8749
  31   2.0000      -0.457766       -12.4564
  32   2.0000      -0.447744       -12.1837
  33   2.0000      -0.425375       -11.5750
  34   2.0000      -0.423859       -11.5338
  35   2.0000      -0.414440       -11.2775
  36   2.0000      -0.405104       -11.0234
  37   2.0000      -0.398683       -10.8487
  38   2.0000      -0.382947       -10.4205
  39   2.0000      -0.366565        -9.9747
  40   2.0000      -0.362480        -9.8636
  41   2.0000      -0.357765        -9.7353
  42   2.0000      -0.350220        -9.5300
  43   2.0000      -0.325333        -8.8528
  44   2.0000      -0.315374        -8.5818
  45   2.0000      -0.309187        -8.4134
  46   2.0000      -0.308503        -8.3948
  47   2.0000      -0.266752        -7.2587
  48   2.0000      -0.262730        -7.1492
  49   2.0000      -0.260590        -7.0910
  50   2.0000      -0.235638        -6.4120
  51   0.0000       0.053230         1.4485
  52   0.0000       0.081540         2.2188
  53   0.0000       0.091280         2.4839
  54   0.0000       0.097987         2.6664
  55   0.0000       0.108347         2.9483

MULLIKEN ATOMIC CHARGES
-----------------------
   0 C :    0.298195
   1 C :   -0.277919
   2 C :   -0.299416
   3 C :   -0.001879
   4 O :   -0.506590
   5 H :    0.133545
   6 H :    0.149354
   7 H :    0.148186
   8 H :    0.145486
   9 H :    0.165395
  10 H :    0.156499
  11 H :    0.144819
  12 C :   -0.022612
  13 H :    0.149619
  14 H :    0.133218
  15 O :   -0.518415
  16 C :    0.098601
  17 C :    0.089173
  18 C :   -0.316093
  19 C :   -0.000620
  20 O :   -0.524200
  21 H :    0.143350
  22 H :    0.157681
  23 O :   -0.612772
  24 H :    0.138930
  25 H :    0.175365
  26 H :    0.150463
  27 H :    0.139695
  28 H :    0.362945
Sum of atomic charges:   -0.0000000

LOEWDIN ATOMIC CHARGES
----------------------
   0 C :    0.176163
   1 C :   -0.230777
   2 C :   -0.216256
   3 C :   -0.023655
   4 O :   -0.306001
   5 H :    0.090719
   6 H :    0.116777
   7 H :    0.116530
   8 H :    0.116245
   9 H :    0.120451
  10 H :    0.110831
  11 H :    0.104173
  12 C :   -0.050714
  13 H :    0.104954
  14 H :    0.100218
  15 O :   -0.338268
  16 C :    0.020695
  17 C :    0.038330
  18 C :   -0.242363
  19 C :   -0.022787
  20 O :   -0.324295
  21 H :    0.111844
  22 H :    0.114140
  23 O :   -0.413933
  24 H :    0.112726
  25 H :    0.126118
  26 H :    0.107697
  27 H :    0.100081
  28 H :    0.280356

  Mayer bond orders larger than 0.100000
B(  0-C ,  1-C ) :   0.9295 B(  0-C ,  4-O ) :   0.9406 B(  0-C ,  5-H ) :   0.9166
B(  0-C , 15-O ) :   0.8309 B(  1-C ,  2-C ) :   0.9516 B(  1-C ,  6-H ) :   0.9338
B(  1-C ,  7-H ) :   0.9317 B(  2-C ,  3-C ) :   0.9563 B(  2-C ,  8-H ) :   0.9447
B(  2-C ,  9-H ) :   0.9435 B(  3-C ,  4-O ) :   0.8292 B(  3-C , 10-H ) :   0.9346
B(  3-C , 11-H ) :   0.9397 B( 12-C , 13-H ) :   0.9199 B( 12-C , 14-H ) :   0.9016
B( 12-C , 15-O ) :   0.8326 B( 12-C , 16-C ) :   0.9109 B( 16-C , 17-C ) :   0.8851
B( 16-C , 20-O ) :   0.8821 B( 16-C , 21-H ) :   0.9283 B( 17-C , 18-C ) :   0.9377
B( 17-C , 22-H ) :   0.9364 B( 17-C , 23-O ) :   0.8921 B( 18-C , 19-C ) :   0.9467
B( 18-C , 24-H ) :   0.9418 B( 18-C , 25-H ) :   0.9222 B( 19-C , 20-O ) :   0.8358
B( 19-C , 26-H ) :   0.9325 B( 19-C , 27-H ) :   0.9381 B( 23-O , 28-H ) :   0.7944

FINAL SINGLE POINT ENERGY      -652.860354402181

DIPOLE MOMENT
-------------
                                X             Y             Z
Electronic contribution:     -2.53159      -2.50703      -1.30586
Nuclear contribution   :      3.43194       3.07917       1.41976
                        -----------------------------------------
Total Dipole Moment    :      0.90035       0.57214       0.11390
                        -----------------------------------------
Magnitude (a.u.)       :      1.07282
Magnitude (Debye)      :      2.72690

Rotational constants in cm-1:     0.047514     0.015429     0.014851
Rotational constants in MHz :  1424.437010   462.542343   445.235566

                             ****ORCA TERMINATED NORMALLY****
TOTAL RUN TIME: 0 days 0 hours 18 minutes 56 seconds 467 msec
