                         Program Version 4.2.0 -  RELEASE  -
|  1> # Test redundant internal optimization
|  2> #
|  3> ! RKS B3LYP  Opt TightSCF SmallPrint
|  4>
|  5> %basis
|  6>         Basis "6-31G"
|  7> end
|  8>
|  9> %geom
| 10> Constraints
| 11> { D 4  0  15  12  90.0   C } # D for Dihedral angle
| 12> { D 0  15  12  16  195.0   C } # D for Dihedral angle
| 13> { D 0  4  3  2   C } # D for Dihedral angle
| 14> { D 4  3  2  1   C } # D for Dihedral angle
| 15> { D 3  2  1  0   C } # D for Dihedral angle
| 16> { D 2  1  0  4   C } # D for Dihedral angle
| 17> { D 1  0  4  3   C } # D for Dihedral angle
| 18> { D 16  20  19  18   C } # D for Dihedral angle
| 19> { D 20  19  18  17   C } # D for Dihedral angle
| 20> { D 19  18  17  16   C } # D for Dihedral angle
| 21> { D 18  17  16  20   C } # D for Dihedral angle
| 22> { D 17  16  20  19   C } # D for Dihedral angle
| 23> { D 15  12  16  20   C } # D for Dihedral angle
| 24> end
| 25> end
| 26>
| 27>
| 28> #%pal
| 29> #nprocs 8
| 30> #end
| 31>
| 32> * xyz 0 1
| 33> C  -21.048   26.222   46.251
| 34> C  -20.361   27.558   45.944
| 35> C  -20.329   28.222   47.341
| 36> C  -20.110   27.022   48.296
| 37> O  -20.473   25.807   47.535
| 38> H  -20.833   25.428   45.533
| 39> H  -19.344   27.382   45.576
| 40> H  -20.898   28.157   45.201
| 41> H  -19.543   28.978   47.434
| 42> H  -21.289   28.710   47.548
| 43> H  -20.733   27.082   49.195
| 44> H  -19.064   26.913   48.597
| 45> C  -23.061   27.816   46.783
| 46> H  -22.434   28.185   47.604
| 47> H  -22.964   28.510   45.939
| 48> O  -22.586   26.394   46.375
| 49> C  -24.543   27.843   47.250
| 50> C  -24.737   27.029   48.534
| 51> C  -24.218   28.013   49.610
| 52> C  -24.653   29.395   49.061
| 53> O  -24.937   29.205   47.623
| 54> H  -25.184   27.539   46.421
| 55> O  -26.244   26.725   48.749
| 56> H  -24.191   26.079   48.529
| 57> H  -24.630   27.810   50.604
| 58> H  -23.126   27.951   49.681
| 59> H  -23.874   30.156   49.175
| 60> H  -25.573   29.759   49.527
| 61> H  -26.812   27.663   48.759
| 62> *
| 63>
| 64>                          ****END OF INPUT****
 Total Charge           Charge          ....    0
 Multiplicity           Mult            ....    1
 Number of Electrons    NEL             ....  102
FINAL SINGLE POINT ENERGY      -652.805175764953
FINAL SINGLE POINT ENERGY      -652.837409488617
FINAL SINGLE POINT ENERGY      -652.854626995558
FINAL SINGLE POINT ENERGY      -652.857297606328
FINAL SINGLE POINT ENERGY      -652.857704267504
FINAL SINGLE POINT ENERGY      -652.857774970576
FINAL SINGLE POINT ENERGY      -652.857783826286
FINAL SINGLE POINT ENERGY      -652.857784455010
                    ***********************HURRAY********************

CARTESIAN COORDINATES (ANGSTROEM)
---------------------------------
  C    -21.237631   26.369480   46.408731
  C    -20.269403   27.432693   45.870509
  C    -19.852382   28.180226   47.170851
  C    -19.827624   27.039439   48.220108
  O    -20.615647   25.926275   47.637913
  H    -21.285540   25.478315   45.781208
  H    -19.409609   26.922279   45.425558
  H    -20.716715   28.084995   45.115253
  H    -18.874270   28.661758   47.073505
  H    -20.575061   28.957162   47.429599
  H    -20.267758   27.326775   49.180238
  H    -18.817726   26.657081   48.393900
  C    -23.101418   28.041093   46.890457
  H    -22.530053   28.474626   47.719440
  H    -23.034262   28.716786   46.029157
  O    -22.631409   26.706218   46.551229
  C    -24.563417   27.881467   47.308975
  C    -24.790423   27.016439   48.557036
  C    -24.459527   28.016702   49.694533
  C    -24.972214   29.368695   49.138592
  O    -25.113929   29.193145   47.670341
  H    -25.146897   27.504220   46.465121
  O    -26.172741   26.568102   48.624323
  H    -24.180090   26.115677   48.567415
  H    -24.956360   27.722047   50.621747
  H    -23.380100   28.041272   49.879280
  H    -24.286024   30.199203   49.331872
  H    -25.959820   29.635512   49.526637
  H    -26.763953   27.315316   48.391473

 Multiplicity           Mult            ....    1
 Number of Electrons    NEL             ....  102
 Basis Dimension        Dim             ....  149

ORBITAL ENERGIES
----------------

  NO   OCC          E(Eh)            E(eV)
   0   2.0000     -19.148855      -521.0668
   1   2.0000     -19.145389      -520.9725
   2   2.0000     -19.143356      -520.9172
   3   2.0000     -19.132016      -520.6086
   4   2.0000     -10.282268      -279.7947
   5   2.0000     -10.235856      -278.5318
   6   2.0000     -10.232973      -278.4533
   7   2.0000     -10.232583      -278.4427
   8   2.0000     -10.232409      -278.4380
   9   2.0000     -10.232383      -278.4373
  10   2.0000     -10.197960      -277.5006
  11   2.0000     -10.197383      -277.4849
  12   2.0000     -10.186788      -277.1966
  13   2.0000      -1.054968       -28.7071
  14   2.0000      -1.035265       -28.1710
  15   2.0000      -1.002960       -27.2919
  16   2.0000      -0.999845       -27.2072
  17   2.0000      -0.793701       -21.5977
  18   2.0000      -0.782343       -21.2886
  19   2.0000      -0.771141       -20.9838
  20   2.0000      -0.734102       -19.9759
  21   2.0000      -0.681214       -18.5368
  22   2.0000      -0.609172       -16.5764
  23   2.0000      -0.603401       -16.4194
  24   2.0000      -0.597481       -16.2583
  25   2.0000      -0.577514       -15.7149
  26   2.0000      -0.523192       -14.2368
  27   2.0000      -0.514656       -14.0045
  28   2.0000      -0.506947       -13.7947
  29   2.0000      -0.492957       -13.4141
  30   2.0000      -0.473920       -12.8960
  31   2.0000      -0.457697       -12.4546
  32   2.0000      -0.452711       -12.3189
  33   2.0000      -0.437961       -11.9175
  34   2.0000      -0.429837       -11.6964
  35   2.0000      -0.418108       -11.3773
  36   2.0000      -0.410852       -11.1799
  37   2.0000      -0.391312       -10.6481
  38   2.0000      -0.387511       -10.5447
  39   2.0000      -0.367649       -10.0042
  40   2.0000      -0.365483        -9.9453
  41   2.0000      -0.361702        -9.8424
  42   2.0000      -0.350997        -9.5511
  43   2.0000      -0.331354        -9.0166
  44   2.0000      -0.318359        -8.6630
  45   2.0000      -0.306009        -8.3269
  46   2.0000      -0.300345        -8.1728
  47   2.0000      -0.275539        -7.4978
  48   2.0000      -0.266198        -7.2436
  49   2.0000      -0.257031        -6.9942
  50   2.0000      -0.247152        -6.7253
  51   0.0000       0.054519         1.4835
  52   0.0000       0.065087         1.7711
  53   0.0000       0.088790         2.4161
  54   0.0000       0.096468         2.6250
  55   0.0000       0.101406         2.7594

MULLIKEN ATOMIC CHARGES
-----------------------
   0 C :    0.305629
   1 C :   -0.288608
   2 C :   -0.313707
   3 C :   -0.008562
   4 O :   -0.499799
   5 H :    0.168214
   6 H :    0.160219
   7 H :    0.150988
   8 H :    0.146999
   9 H :    0.148754
  10 H :    0.140543
  11 H :    0.149358
  12 C :   -0.005456
  13 H :    0.127872
  14 H :    0.147273
  15 O :   -0.526389
  16 C :    0.056951
  17 C :    0.090367
  18 C :   -0.299852
  19 C :   -0.031463
  20 O :   -0.529493
  21 H :    0.168702
  22 O :   -0.602312
  23 H :    0.186331
  24 H :    0.161792
  25 H :    0.144178
  26 H :    0.142556
  27 H :    0.147620
  28 H :    0.361292
Sum of atomic charges:   -0.0000000

LOEWDIN ATOMIC CHARGES
----------------------
   0 C :    0.174800
   1 C :   -0.229227
   2 C :   -0.223433
   3 C :   -0.033162
   4 O :   -0.320540
   5 H :    0.113400
   6 H :    0.124757
   7 H :    0.118801
   8 H :    0.116698
   9 H :    0.108856
  10 H :    0.100429
  11 H :    0.105785
  12 C :   -0.040049
  13 H :    0.091123
  14 H :    0.104203
  15 O :   -0.321140
  16 C :    0.019036
  17 C :    0.038907
  18 C :   -0.241941
  19 C :   -0.039097
  20 O :   -0.332232
  21 H :    0.119847
  22 O :   -0.413457
  23 H :    0.132855
  24 H :    0.127106
  25 H :    0.112155
  26 H :    0.101772
  27 H :    0.103373
  28 H :    0.280376

  Mayer bond orders larger than 0.100000
B(  0-C ,  1-C ) :   0.9233 B(  0-C ,  4-O ) :   0.9036 B(  0-C ,  5-H ) :   0.9352
B(  0-C , 15-O ) :   0.8950 B(  1-C ,  2-C ) :   0.9527 B(  1-C ,  6-H ) :   0.9351
B(  1-C ,  7-H ) :   0.9352 B(  2-C ,  3-C ) :   0.9464 B(  2-C ,  8-H ) :   0.9448
B(  2-C ,  9-H ) :   0.9397 B(  3-C ,  4-O ) :   0.8490 B(  3-C , 10-H ) :   0.9343
B(  3-C , 11-H ) :   0.9386 B( 12-C , 13-H ) :   0.9071 B( 12-C , 14-H ) :   0.9184
B( 12-C , 15-O ) :   0.8244 B( 12-C , 16-C ) :   0.9039 B( 16-C , 17-C ) :   0.9129
B( 16-C , 20-O ) :   0.8435 B( 16-C , 21-H ) :   0.9245 B( 17-C , 18-C ) :   0.9116
B( 17-C , 22-O ) :   0.8876 B( 17-C , 23-H ) :   0.9194 B( 18-C , 19-C ) :   0.9419
B( 18-C , 24-H ) :   0.9379 B( 18-C , 25-H ) :   0.9343 B( 19-C , 20-O ) :   0.8428
B( 19-C , 26-H ) :   0.9360 B( 19-C , 27-H ) :   0.9381 B( 22-O , 28-H ) :   0.7962

FINAL SINGLE POINT ENERGY      -652.857775516017

DIPOLE MOMENT
-------------
                                X             Y             Z
Electronic contribution:     -4.95701      -3.92099      -1.82201
Nuclear contribution   :      6.13448       5.24285       1.92365
                        -----------------------------------------
Total Dipole Moment    :      1.17747       1.32185       0.10163
                        -----------------------------------------
Magnitude (a.u.)       :      1.77315
Magnitude (Debye)      :      4.50699

Rotational constants in cm-1:     0.049973     0.014020     0.013710
Rotational constants in MHz :  1498.147225   420.313775   411.012581

                             ****ORCA TERMINATED NORMALLY****
TOTAL RUN TIME: 0 days 0 hours 26 minutes 58 seconds 329 msec
