                         Program Version 4.2.0 -  RELEASE  -
|  1> # Test redundant internal optimization
|  2> #
|  3> ! RKS B3LYP  Opt TightSCF SmallPrint
|  4>
|  5> %basis
|  6>         Basis "6-31G"
|  7> end
|  8>
|  9> %geom
| 10> Constraints
| 11> { D 4  0  15  12  255.0   C } # D for Dihedral angle
| 12> { D 0  15  12  16  240.0   C } # D for Dihedral angle
| 13> { D 0  4  3  2   C } # D for Dihedral angle
| 14> { D 4  3  2  1   C } # D for Dihedral angle
| 15> { D 3  2  1  0   C } # D for Dihedral angle
| 16> { D 2  1  0  4   C } # D for Dihedral angle
| 17> { D 1  0  4  3   C } # D for Dihedral angle
| 18> { D 16  20  19  18   C } # D for Dihedral angle
| 19> { D 20  19  18  17   C } # D for Dihedral angle
| 20> { D 19  18  17  16   C } # D for Dihedral angle
| 21> { D 18  17  16  20   C } # D for Dihedral angle
| 22> { D 17  16  20  19   C } # D for Dihedral angle
| 23> { D 15  12  16  20   C } # D for Dihedral angle
| 24> end
| 25> end
| 26>
| 27>
| 28> #%pal
| 29> #nprocs 8
| 30> #end
| 31>
| 32> * xyz 0 1
| 33> C  -21.048   26.222   46.251
| 34> C  -20.361   27.558   45.944
| 35> C  -20.329   28.222   47.341
| 36> C  -20.110   27.022   48.296
| 37> O  -20.473   25.807   47.535
| 38> H  -20.833   25.428   45.533
| 39> H  -19.344   27.382   45.576
| 40> H  -20.898   28.157   45.201
| 41> H  -19.543   28.978   47.434
| 42> H  -21.289   28.710   47.548
| 43> H  -20.733   27.082   49.195
| 44> H  -19.064   26.913   48.597
| 45> C  -23.431   25.260   45.734
| 46> H  -22.759   24.509   45.300
| 47> H  -24.052   24.767   46.493
| 48> O  -22.586   26.394   46.375
| 49> C  -24.376   25.775   44.613
| 50> C  -25.288   26.896   45.126
| 51> C  -24.334   28.114   45.094
| 52> C  -23.455   27.841   43.848
| 53> O  -23.602   26.402   43.537
| 54> H  -24.906   24.928   44.174
| 55> O  -26.476   27.105   44.148
| 56> H  -25.693   26.700   46.124
| 57> H  -24.867   29.069   45.028
| 58> H  -23.720   28.136   46.003
| 59> H  -22.398   28.065   44.023
| 60> H  -23.794   28.396   42.969
| 61> H  -26.094   27.304   43.141
| 62> *
| 63>
| 64>                          ****END OF INPUT****
 Total Charge           Charge          ....    0
 Multiplicity           Mult            ....    1
 Number of Electrons    NEL             ....  102
FINAL SINGLE POINT ENERGY      -652.835767520573
FINAL SINGLE POINT ENERGY      -652.857914779833
FINAL SINGLE POINT ENERGY      -652.861815499264
FINAL SINGLE POINT ENERGY      -652.864279608562
FINAL SINGLE POINT ENERGY      -652.864453105089
FINAL SINGLE POINT ENERGY      -652.864477411289
FINAL SINGLE POINT ENERGY      -652.864478831364
                    ***********************HURRAY********************

CARTESIAN COORDINATES (ANGSTROEM)
---------------------------------
  C    -21.029967   26.163653   46.244180
  C    -20.363795   27.514275   45.978546
  C    -20.347948   28.148502   47.392063
  C    -20.115902   26.927101   48.310412
  O    -20.463004   25.736759   47.499163
  H    -20.816429   25.380874   45.511473
  H    -19.342244   27.343399   45.619108
  H    -20.900623   28.109454   45.239267
  H    -19.569055   28.908609   47.504888
  H    -21.316970   28.611602   47.602015
  H    -20.743642   26.938170   49.204929
  H    -19.068523   26.812544   48.605593
  C    -23.329041   25.341958   45.775180
  H    -22.713015   24.548034   45.332098
  H    -23.929395   24.895789   46.578375
  O    -22.462965   26.354112   46.362776
  C    -24.263672   25.879781   44.693218
  C    -25.270393   26.960927   45.112917
  C    -24.424097   28.252700   44.969078
  C    -23.525168   27.946463   43.746151
  O    -23.548115   26.476032   43.563949
  H    -24.807501   25.014035   44.294183
  O    -26.428073   26.956215   44.229960
  H    -25.673985   26.819672   46.115957
  H    -25.064671   29.126017   44.822329
  H    -23.817669   28.385275   45.867928
  H    -22.492500   28.274852   43.885851
  H    -23.908155   28.388519   42.819936
  H    -26.119482   26.926678   43.299479

 Multiplicity           Mult            ....    1
 Number of Electrons    NEL             ....  102
 Basis Dimension        Dim             ....  149

ORBITAL ENERGIES
----------------

  NO   OCC          E(Eh)            E(eV)
   0   2.0000     -19.147620      -521.0332
   1   2.0000     -19.143299      -520.9156
   2   2.0000     -19.139166      -520.8032
   3   2.0000     -19.135906      -520.7145
   4   2.0000     -10.282087      -279.7898
   5   2.0000     -10.238338      -278.5993
   6   2.0000     -10.235160      -278.5129
   7   2.0000     -10.234924      -278.5064
   8   2.0000     -10.228918      -278.3430
   9   2.0000     -10.225581      -278.2522
  10   2.0000     -10.187902      -277.2269
  11   2.0000     -10.187780      -277.2236
  12   2.0000     -10.180565      -277.0273
  13   2.0000      -1.055145       -28.7120
  14   2.0000      -1.035370       -28.1738
  15   2.0000      -1.005460       -27.3600
  16   2.0000      -0.995500       -27.0889
  17   2.0000      -0.790387       -21.5075
  18   2.0000      -0.777996       -21.1703
  19   2.0000      -0.767686       -20.8898
  20   2.0000      -0.732782       -19.9400
  21   2.0000      -0.677142       -18.4260
  22   2.0000      -0.601015       -16.3545
  23   2.0000      -0.600715       -16.3463
  24   2.0000      -0.598517       -16.2865
  25   2.0000      -0.581079       -15.8120
  26   2.0000      -0.526558       -14.3284
  27   2.0000      -0.507869       -13.8198
  28   2.0000      -0.496333       -13.5059
  29   2.0000      -0.490699       -13.3526
  30   2.0000      -0.472649       -12.8614
  31   2.0000      -0.462617       -12.5884
  32   2.0000      -0.450856       -12.2684
  33   2.0000      -0.434309       -11.8181
  34   2.0000      -0.431375       -11.7383
  35   2.0000      -0.412185       -11.2161
  36   2.0000      -0.399250       -10.8642
  37   2.0000      -0.391282       -10.6473
  38   2.0000      -0.379267       -10.3204
  39   2.0000      -0.366424        -9.9709
  40   2.0000      -0.358934        -9.7671
  41   2.0000      -0.358106        -9.7446
  42   2.0000      -0.350557        -9.5391
  43   2.0000      -0.331460        -9.0195
  44   2.0000      -0.320612        -8.7243
  45   2.0000      -0.310111        -8.4386
  46   2.0000      -0.302655        -8.2357
  47   2.0000      -0.276178        -7.5152
  48   2.0000      -0.266076        -7.2403
  49   2.0000      -0.255377        -6.9492
  50   2.0000      -0.241355        -6.5676
  51   0.0000       0.061479         1.6729
  52   0.0000       0.078723         2.1422
  53   0.0000       0.086542         2.3549
  54   0.0000       0.101785         2.7697
  55   0.0000       0.105867         2.8808

MULLIKEN ATOMIC CHARGES
-----------------------
   0 C :    0.288544
   1 C :   -0.266871
   2 C :   -0.303704
   3 C :    0.000832
   4 O :   -0.503286
   5 H :    0.151390
   6 H :    0.147883
   7 H :    0.154077
   8 H :    0.142508
   9 H :    0.160281
  10 H :    0.149684
  11 H :    0.141793
  12 C :   -0.004375
  13 H :    0.142717
  14 H :    0.145471
  15 O :   -0.526130
  16 C :    0.075357
  17 C :    0.078687
  18 C :   -0.287004
  19 C :   -0.028369
  20 O :   -0.530545
  21 H :    0.153872
  22 O :   -0.603198
  23 H :    0.153808
  24 H :    0.150721
  25 H :    0.170434
  26 H :    0.144913
  27 H :    0.138404
  28 H :    0.362108
Sum of atomic charges:   -0.0000000

LOEWDIN ATOMIC CHARGES
----------------------
   0 C :    0.177451
   1 C :   -0.218423
   2 C :   -0.217248
   3 C :   -0.026582
   4 O :   -0.320413
   5 H :    0.102810
   6 H :    0.115669
   7 H :    0.117083
   8 H :    0.114055
   9 H :    0.116741
  10 H :    0.106842
  11 H :    0.102265
  12 C :   -0.032236
  13 H :    0.105670
  14 H :    0.107854
  15 O :   -0.333056
  16 C :    0.007805
  17 C :    0.038982
  18 C :   -0.240519
  19 C :   -0.034018
  20 O :   -0.332795
  21 H :    0.115752
  22 O :   -0.416780
  23 H :    0.117300
  24 H :    0.120142
  25 H :    0.127282
  26 H :    0.099658
  27 H :    0.097348
  28 H :    0.281361

  Mayer bond orders larger than 0.100000
B(  0-C ,  1-C ) :   0.9464 B(  0-C ,  4-O ) :   0.9248 B(  0-C ,  5-H ) :   0.9148
B(  0-C , 15-O ) :   0.8418 B(  1-C ,  2-C ) :   0.9560 B(  1-C ,  6-H ) :   0.9377
B(  1-C ,  7-H ) :   0.9261 B(  2-C ,  3-C ) :   0.9538 B(  2-C ,  8-H ) :   0.9451
B(  2-C ,  9-H ) :   0.9439 B(  3-C ,  4-O ) :   0.8390 B(  3-C , 10-H ) :   0.9351
B(  3-C , 11-H ) :   0.9399 B( 12-C , 13-H ) :   0.9194 B( 12-C , 14-H ) :   0.9214
B( 12-C , 15-O ) :   0.8580 B( 12-C , 16-C ) :   0.8916 B( 16-C , 17-C ) :   0.9113
B( 16-C , 20-O ) :   0.8660 B( 16-C , 21-H ) :   0.9177 B( 17-C , 18-C ) :   0.9237
B( 17-C , 22-O ) :   0.8894 B( 17-C , 23-H ) :   0.9354 B( 18-C , 19-C ) :   0.9468
B( 18-C , 24-H ) :   0.9372 B( 18-C , 25-H ) :   0.9196 B( 19-C , 20-O ) :   0.8432
B( 19-C , 26-H ) :   0.9218 B( 19-C , 27-H ) :   0.9367 B( 22-O , 28-H ) :   0.7967

FINAL SINGLE POINT ENERGY      -652.864477705161

DIPOLE MOMENT
-------------
                                X             Y             Z
Electronic contribution:     -2.91909      -4.42990      -1.51794
Nuclear contribution   :      3.59467       5.13552       1.50842
                        -----------------------------------------
Total Dipole Moment    :      0.67557       0.70562      -0.00952
                        -----------------------------------------
Magnitude (a.u.)       :      0.97693
Magnitude (Debye)      :      2.48315

Rotational constants in cm-1:     0.058215     0.014085     0.013349
Rotational constants in MHz :  1745.243344   422.260188   400.206647

                             ****ORCA TERMINATED NORMALLY****
TOTAL RUN TIME: 0 days 0 hours 40 minutes 27 seconds 580 msec
