                         Program Version 4.2.0 -  RELEASE  -
|  1> # Test redundant internal optimization
|  2> #
|  3> ! RKS B3LYP  Opt TightSCF SmallPrint
|  4>
|  5> %basis
|  6>         Basis "6-31G"
|  7> end
|  8>
|  9> %geom
| 10> Constraints
| 11> { D 4  0  15  12  195.0   C } # D for Dihedral angle
| 12> { D 0  15  12  16  195.0   C } # D for Dihedral angle
| 13> { D 0  4  3  2   C } # D for Dihedral angle
| 14> { D 4  3  2  1   C } # D for Dihedral angle
| 15> { D 3  2  1  0   C } # D for Dihedral angle
| 16> { D 2  1  0  4   C } # D for Dihedral angle
| 17> { D 1  0  4  3   C } # D for Dihedral angle
| 18> { D 16  20  19  18   C } # D for Dihedral angle
| 19> { D 20  19  18  17   C } # D for Dihedral angle
| 20> { D 19  18  17  16   C } # D for Dihedral angle
| 21> { D 18  17  16  20   C } # D for Dihedral angle
| 22> { D 17  16  20  19   C } # D for Dihedral angle
| 23> { D 15  12  16  20   C } # D for Dihedral angle
| 24> end
| 25> end
| 26>
| 27>
| 28> #%pal
| 29> #nprocs 8
| 30> #end
| 31>
| 32> * xyz 0 1
| 33> C  -21.048   26.222   46.251
| 34> C  -20.361   27.558   45.944
| 35> C  -20.329   28.222   47.341
| 36> C  -20.110   27.022   48.296
| 37> O  -20.473   25.807   47.535
| 38> H  -20.833   25.428   45.533
| 39> H  -19.344   27.382   45.576
| 40> H  -20.898   28.157   45.201
| 41> H  -19.543   28.978   47.434
| 42> H  -21.289   28.710   47.548
| 43> H  -20.733   27.082   49.195
| 44> H  -19.064   26.913   48.597
| 45> C  -23.353   26.472   45.026
| 46> H  -22.814   27.139   44.342
| 47> H  -23.414   25.480   44.561
| 48> O  -22.586   26.394   46.375
| 49> C  -24.802   27.008   45.190
| 50> C  -25.565   26.962   43.861
| 51> C  -25.962   25.469   43.778
| 52> C  -26.228   25.093   45.257
| 53> O  -25.574   26.134   46.079
| 54> H  -24.769   27.993   45.659
| 55> H  -26.457   27.597   43.917
| 56> O  -24.710   27.426   42.650
| 57> H  -26.834   25.296   43.140
| 58> H  -25.129   24.881   43.374
| 59> H  -25.813   24.114   45.522
| 60> H  -27.293   25.107   45.506
| 61> H  -23.811   26.805   42.573
| 62> *
| 63>
| 64>                          ****END OF INPUT****
 Total Charge           Charge          ....    0
 Multiplicity           Mult            ....    1
 Number of Electrons    NEL             ....  102
FINAL SINGLE POINT ENERGY      -652.824293028471
FINAL SINGLE POINT ENERGY      -652.848477359709
FINAL SINGLE POINT ENERGY      -652.852860183978
FINAL SINGLE POINT ENERGY      -652.853724326918
FINAL SINGLE POINT ENERGY      -652.853909335286
FINAL SINGLE POINT ENERGY      -652.853945806771
FINAL SINGLE POINT ENERGY      -652.853954677037
FINAL SINGLE POINT ENERGY      -652.853955993896
                    ***********************HURRAY********************

CARTESIAN COORDINATES (ANGSTROEM)
---------------------------------
  C    -21.054921   26.212068   46.191685
  C    -20.373440   27.553193   45.928322
  C    -20.460075   28.235721   47.315428
  C    -20.294363   27.052011   48.290605
  O    -20.583330   25.831455   47.490790
  H    -20.795134   25.406020   45.496049
  H    -19.329525   27.378820   45.641526
  H    -20.852264   28.136659   45.136740
  H    -19.693670   29.004081   47.453765
  H    -21.443658   28.698632   47.436502
  H    -20.988276   27.085974   49.133635
  H    -19.271208   26.945297   48.662984
  C    -23.179683   26.400487   44.986196
  H    -22.674446   27.088344   44.291102
  H    -23.183914   25.395205   44.535232
  O    -22.503121   26.354502   46.266736
  C    -24.597383   26.919567   45.214173
  C    -25.445651   26.979812   43.932537
  C    -25.968524   25.515915   43.823853
  C    -26.167719   25.117225   45.302587
  O    -25.379571   26.079056   46.112854
  H    -24.522282   27.892873   45.706955
  H    -26.277222   27.671597   44.082919
  O    -24.759487   27.476074   42.756077
  H    -26.887000   25.446779   43.235217
  H    -25.206872   24.889805   43.338618
  H    -25.824626   24.101509   45.521374
  H    -27.210951   25.212108   45.619145
  H    -24.210685   26.770212   42.357395

 Multiplicity           Mult            ....    1
 Number of Electrons    NEL             ....  102
 Basis Dimension        Dim             ....  149

ORBITAL ENERGIES
----------------

  NO   OCC          E(Eh)            E(eV)
   0   2.0000     -19.152863      -521.1759
   1   2.0000     -19.137509      -520.7581
   2   2.0000     -19.136755      -520.7376
   3   2.0000     -19.135536      -520.7044
   4   2.0000     -10.276778      -279.6453
   5   2.0000     -10.246893      -278.8321
   6   2.0000     -10.231814      -278.4218
   7   2.0000     -10.231463      -278.4123
   8   2.0000     -10.229660      -278.3632
   9   2.0000     -10.221225      -278.1337
  10   2.0000     -10.197684      -277.4931
  11   2.0000     -10.185345      -277.1573
  12   2.0000     -10.183614      -277.1102
  13   2.0000      -1.051230       -28.6054
  14   2.0000      -1.035249       -28.1706
  15   2.0000      -1.016211       -27.6525
  16   2.0000      -0.991854       -26.9897
  17   2.0000      -0.785146       -21.3649
  18   2.0000      -0.782914       -21.3042
  19   2.0000      -0.768126       -20.9018
  20   2.0000      -0.729030       -19.8379
  21   2.0000      -0.681092       -18.5335
  22   2.0000      -0.613218       -16.6865
  23   2.0000      -0.598042       -16.2735
  24   2.0000      -0.587333       -15.9821
  25   2.0000      -0.578265       -15.7354
  26   2.0000      -0.527465       -14.3531
  27   2.0000      -0.511395       -13.9158
  28   2.0000      -0.501912       -13.6577
  29   2.0000      -0.489668       -13.3245
  30   2.0000      -0.465600       -12.6696
  31   2.0000      -0.458758       -12.4834
  32   2.0000      -0.450511       -12.2590
  33   2.0000      -0.433099       -11.7852
  34   2.0000      -0.428498       -11.6600
  35   2.0000      -0.420767       -11.4497
  36   2.0000      -0.403417       -10.9775
  37   2.0000      -0.399732       -10.8773
  38   2.0000      -0.378078       -10.2880
  39   2.0000      -0.372149       -10.1267
  40   2.0000      -0.355354        -9.6697
  41   2.0000      -0.354428        -9.6445
  42   2.0000      -0.350999        -9.5512
  43   2.0000      -0.331251        -9.0138
  44   2.0000      -0.317873        -8.6498
  45   2.0000      -0.308281        -8.3888
  46   2.0000      -0.302439        -8.2298
  47   2.0000      -0.273157        -7.4330
  48   2.0000      -0.255999        -6.9661
  49   2.0000      -0.250724        -6.8226
  50   2.0000      -0.239713        -6.5229
  51   0.0000       0.048612         1.3228
  52   0.0000       0.075528         2.0552
  53   0.0000       0.087789         2.3889
  54   0.0000       0.089041         2.4229
  55   0.0000       0.107065         2.9134

MULLIKEN ATOMIC CHARGES
-----------------------
   0 C :    0.302153
   1 C :   -0.274988
   2 C :   -0.297293
   3 C :   -0.001070
   4 O :   -0.502420
   5 H :    0.133472
   6 H :    0.144468
   7 H :    0.144140
   8 H :    0.141069
   9 H :    0.161838
  10 H :    0.158055
  11 H :    0.139973
  12 C :   -0.016133
  13 H :    0.129379
  14 H :    0.116544
  15 O :   -0.495835
  16 C :    0.095350
  17 C :    0.079831
  18 C :   -0.328668
  19 C :   -0.006289
  20 O :   -0.499605
  21 H :    0.161205
  22 H :    0.170606
  23 O :   -0.600479
  24 H :    0.158894
  25 H :    0.132959
  26 H :    0.148252
  27 H :    0.148852
  28 H :    0.355740
Sum of atomic charges:    0.0000000

LOEWDIN ATOMIC CHARGES
----------------------
   0 C :    0.178472
   1 C :   -0.231445
   2 C :   -0.216477
   3 C :   -0.024628
   4 O :   -0.302984
   5 H :    0.093757
   6 H :    0.113633
   7 H :    0.113730
   8 H :    0.113964
   9 H :    0.118857
  10 H :    0.111459
  11 H :    0.101563
  12 C :   -0.053643
  13 H :    0.093641
  14 H :    0.086097
  15 O :   -0.318508
  16 C :    0.023671
  17 C :    0.033706
  18 C :   -0.242504
  19 C :   -0.028322
  20 O :   -0.309016
  21 H :    0.118845
  22 H :    0.120284
  23 O :   -0.409043
  24 H :    0.122762
  25 H :    0.103325
  26 H :    0.105332
  27 H :    0.105692
  28 H :    0.277777

  Mayer bond orders larger than 0.100000
B(  0-C ,  1-C ) :   0.9293 B(  0-C ,  4-O ) :   0.9389 B(  0-C ,  5-H ) :   0.9199
B(  0-C , 15-O ) :   0.8345 B(  1-C ,  2-C ) :   0.9530 B(  1-C ,  6-H ) :   0.9339
B(  1-C ,  7-H ) :   0.9332 B(  2-C ,  3-C ) :   0.9558 B(  2-C ,  8-H ) :   0.9450
B(  2-C ,  9-H ) :   0.9436 B(  3-C ,  4-O ) :   0.8353 B(  3-C , 10-H ) :   0.9338
B(  3-C , 11-H ) :   0.9398 B( 12-C , 13-H ) :   0.8945 B( 12-C , 14-H ) :   0.9151
B( 12-C , 15-O ) :   0.8511 B( 12-C , 16-C ) :   0.9067 B( 16-C , 17-C ) :   0.8720
B( 16-C , 20-O ) :   0.8795 B( 16-C , 21-H ) :   0.9296 B( 17-C , 18-C ) :   0.9289
B( 17-C , 22-H ) :   0.9322 B( 17-C , 23-O ) :   0.8939 B( 18-C , 19-C ) :   0.9372
B( 18-C , 24-H ) :   0.9413 B( 18-C , 25-H ) :   0.9396 B( 19-C , 20-O ) :   0.8497
B( 19-C , 26-H ) :   0.9312 B( 19-C , 27-H ) :   0.9381 B( 23-O , 28-H ) :   0.7993

FINAL SINGLE POINT ENERGY      -652.853956090877

DIPOLE MOMENT
-------------
                                X             Y             Z
Electronic contribution:     -1.53791      -1.50257       1.37174
Nuclear contribution   :      1.75393       1.57748      -2.52246
                        -----------------------------------------
Total Dipole Moment    :      0.21602       0.07490      -1.15072
                        -----------------------------------------
Magnitude (a.u.)       :      1.17321
Magnitude (Debye)      :      2.98207

Rotational constants in cm-1:     0.056545     0.012369     0.011210
Rotational constants in MHz :  1695.184724   370.808153   336.074640

                             ****ORCA TERMINATED NORMALLY****
TOTAL RUN TIME: 0 days 2 hours 14 minutes 13 seconds 141 msec
