                         Program Version 4.2.0 -  RELEASE  -
|  1> # Test redundant internal optimization
|  2> #
|  3> ! RKS B3LYP  Opt TightSCF SmallPrint
|  4>
|  5> %basis
|  6>         Basis "6-31G"
|  7> end
|  8>
|  9> %geom
| 10> Constraints
| 11> { D 4  0  15  12  195.0   C } # D for Dihedral angle
| 12> { D 0  15  12  16  30.0   C } # D for Dihedral angle
| 13> { D 0  4  3  2   C } # D for Dihedral angle
| 14> { D 4  3  2  1   C } # D for Dihedral angle
| 15> { D 3  2  1  0   C } # D for Dihedral angle
| 16> { D 2  1  0  4   C } # D for Dihedral angle
| 17> { D 1  0  4  3   C } # D for Dihedral angle
| 18> { D 16  20  19  18   C } # D for Dihedral angle
| 19> { D 20  19  18  17   C } # D for Dihedral angle
| 20> { D 19  18  17  16   C } # D for Dihedral angle
| 21> { D 18  17  16  20   C } # D for Dihedral angle
| 22> { D 17  16  20  19   C } # D for Dihedral angle
| 23> { D 15  12  16  20   C } # D for Dihedral angle
| 24> end
| 25> end
| 26>
| 27>
| 28> #%pal
| 29> #nprocs 8
| 30> #end
| 31>
| 32> * xyz 0 1
| 33> C  -21.048   26.222   46.251
| 34> C  -20.361   27.558   45.944
| 35> C  -20.329   28.222   47.341
| 36> C  -20.110   27.022   48.296
| 37> O  -20.473   25.807   47.535
| 38> H  -20.833   25.428   45.533
| 39> H  -19.344   27.382   45.576
| 40> H  -20.898   28.157   45.201
| 41> H  -19.543   28.978   47.434
| 42> H  -21.289   28.710   47.548
| 43> H  -20.733   27.082   49.195
| 44> H  -19.064   26.913   48.597
| 45> C  -23.353   26.472   45.026
| 46> H  -24.365   26.072   45.162
| 47> H  -23.437   27.514   44.692
| 48> O  -22.586   26.394   46.375
| 49> C  -22.658   25.668   43.893
| 50> C  -23.376   25.861   42.553
| 51> C  -22.843   27.244   42.108
| 52> C  -21.384   27.242   42.628
| 53> O  -21.305   26.182   43.655
| 54> H  -22.555   24.626   44.205
| 55> H  -23.069   25.082   41.845
| 56> O  -24.923   25.824   42.679
| 57> H  -22.900   27.392   41.025
| 58> H  -23.423   28.042   42.587
| 59> H  -21.098   28.199   43.078
| 60> H  -20.662   26.989   41.846
| 61> H  -25.255   26.596   43.382
| 62> *
| 63>
| 64>                          ****END OF INPUT****
 Total Charge           Charge          ....    0
 Multiplicity           Mult            ....    1
 Number of Electrons    NEL             ....  102
FINAL SINGLE POINT ENERGY      -652.820215778130
FINAL SINGLE POINT ENERGY      -652.843350796337
FINAL SINGLE POINT ENERGY      -652.850533134507
FINAL SINGLE POINT ENERGY      -652.852496877143
FINAL SINGLE POINT ENERGY      -652.852797204572
FINAL SINGLE POINT ENERGY      -652.852871682926
FINAL SINGLE POINT ENERGY      -652.852876980619
FINAL SINGLE POINT ENERGY      -652.852877452928
                    ***********************HURRAY********************

CARTESIAN COORDINATES (ANGSTROEM)
---------------------------------
  C    -20.902552   26.222424   46.262108
  C    -20.199108   27.563449   46.062517
  C    -20.369587   28.226643   47.451462
  C    -20.271249   27.025500   48.416363
  O    -20.514604   25.820888   47.584141
  H    -20.610467   25.434346   45.571824
  H    -19.141144   27.384783   45.836914
  H    -20.627442   28.150911   45.248033
  H    -19.609250   28.987402   47.653075
  H    -21.356199   28.694490   47.519768
  H    -21.014111   27.053410   49.217997
  H    -19.273295   26.909942   48.850778
  C    -23.146474   26.471287   45.076802
  H    -24.123648   26.053709   45.338707
  H    -23.284828   27.536763   44.826192
  O    -22.357636   26.383996   46.293365
  C    -22.618868   25.726699   43.846305
  C    -23.499892   25.898424   42.595021
  C    -22.976119   27.250731   42.018273
  C    -21.467889   27.201314   42.350258
  O    -21.296318   26.173636   43.411874
  H    -22.500062   24.668807   44.102742
  H    -23.295721   25.083367   41.897916
  O    -24.926206   25.836308   42.820428
  H    -23.171881   27.345073   40.947013
  H    -23.472731   28.085292   42.529375
  H    -21.078497   28.156820   42.714362
  H    -20.865119   26.877431   41.497080
  H    -25.246101   26.656156   43.249307

 Multiplicity           Mult            ....    1
 Number of Electrons    NEL             ....  102
 Basis Dimension        Dim             ....  149

ORBITAL ENERGIES
----------------

  NO   OCC          E(Eh)            E(eV)
   0   2.0000     -19.157093      -521.2910
   1   2.0000     -19.152869      -521.1761
   2   2.0000     -19.130030      -520.5546
   3   2.0000     -19.128657      -520.5172
   4   2.0000     -10.265136      -279.3285
   5   2.0000     -10.254370      -279.0356
   6   2.0000     -10.241963      -278.6980
   7   2.0000     -10.239964      -278.6436
   8   2.0000     -10.232967      -278.4532
   9   2.0000     -10.215497      -277.9778
  10   2.0000     -10.204479      -277.6780
  11   2.0000     -10.177143      -276.9342
  12   2.0000     -10.174035      -276.8496
  13   2.0000      -1.046534       -28.4776
  14   2.0000      -1.038332       -28.2545
  15   2.0000      -1.026294       -27.9269
  16   2.0000      -0.981781       -26.7156
  17   2.0000      -0.792222       -21.5574
  18   2.0000      -0.776728       -21.1358
  19   2.0000      -0.770013       -20.9531
  20   2.0000      -0.728176       -19.8147
  21   2.0000      -0.682723       -18.5778
  22   2.0000      -0.621968       -16.9246
  23   2.0000      -0.602610       -16.3979
  24   2.0000      -0.588704       -16.0195
  25   2.0000      -0.561255       -15.2725
  26   2.0000      -0.537750       -14.6329
  27   2.0000      -0.514650       -14.0043
  28   2.0000      -0.494809       -13.4644
  29   2.0000      -0.477528       -12.9942
  30   2.0000      -0.475016       -12.9258
  31   2.0000      -0.456531       -12.4228
  32   2.0000      -0.444160       -12.0862
  33   2.0000      -0.438769       -11.9395
  34   2.0000      -0.431598       -11.7444
  35   2.0000      -0.424154       -11.5418
  36   2.0000      -0.405977       -11.0472
  37   2.0000      -0.396277       -10.7832
  38   2.0000      -0.389269       -10.5925
  39   2.0000      -0.367245        -9.9932
  40   2.0000      -0.358621        -9.7586
  41   2.0000      -0.348942        -9.4952
  42   2.0000      -0.344215        -9.3666
  43   2.0000      -0.337492        -9.1836
  44   2.0000      -0.326257        -8.8779
  45   2.0000      -0.303564        -8.2604
  46   2.0000      -0.298367        -8.1190
  47   2.0000      -0.280547        -7.6341
  48   2.0000      -0.255578        -6.9546
  49   2.0000      -0.248667        -6.7666
  50   2.0000      -0.237274        -6.4565
  51   0.0000       0.044567         1.2127
  52   0.0000       0.061064         1.6616
  53   0.0000       0.083536         2.2731
  54   0.0000       0.093539         2.5453
  55   0.0000       0.102563         2.7909

MULLIKEN ATOMIC CHARGES
-----------------------
   0 C :    0.304347
   1 C :   -0.256891
   2 C :   -0.301655
   3 C :    0.001111
   4 O :   -0.506164
   5 H :    0.167712
   6 H :    0.142879
   7 H :    0.136319
   8 H :    0.135740
   9 H :    0.153520
  10 H :    0.149852
  11 H :    0.137618
  12 C :    0.005940
  13 H :    0.158059
  14 H :    0.109519
  15 O :   -0.528073
  16 C :    0.054707
  17 C :    0.086222
  18 C :   -0.323099
  19 C :   -0.013145
  20 O :   -0.522153
  21 H :    0.169360
  22 H :    0.174002
  23 O :   -0.596288
  24 H :    0.162028
  25 H :    0.136125
  26 H :    0.144969
  27 H :    0.157899
  28 H :    0.359539
Sum of atomic charges:   -0.0000000

LOEWDIN ATOMIC CHARGES
----------------------
   0 C :    0.183842
   1 C :   -0.223336
   2 C :   -0.220205
   3 C :   -0.025552
   4 O :   -0.305658
   5 H :    0.109919
   6 H :    0.114228
   7 H :    0.110592
   8 H :    0.110987
   9 H :    0.114605
  10 H :    0.106648
  11 H :    0.100002
  12 C :   -0.047490
  13 H :    0.118866
  14 H :    0.080813
  15 O :   -0.336523
  16 C :    0.002831
  17 C :    0.039249
  18 C :   -0.241529
  19 C :   -0.029986
  20 O :   -0.323698
  21 H :    0.118902
  22 H :    0.121824
  23 O :   -0.402986
  24 H :    0.125102
  25 H :    0.105863
  26 H :    0.102236
  27 H :    0.109853
  28 H :    0.280601

  Mayer bond orders larger than 0.100000
B(  0-C ,  1-C ) :   0.9342 B(  0-C ,  4-O ) :   0.9204 B(  0-C ,  5-H ) :   0.9127
B(  0-C , 15-O ) :   0.8159 B(  1-C ,  2-C ) :   0.9479 B(  1-C ,  6-H ) :   0.9369
B(  1-C ,  7-H ) :   0.9370 B(  2-C ,  3-C ) :   0.9549 B(  2-C ,  8-H ) :   0.9457
B(  2-C ,  9-H ) :   0.9456 B(  3-C ,  4-O ) :   0.8402 B(  3-C , 10-H ) :   0.9352
B(  3-C , 11-H ) :   0.9402 B( 12-C , 13-H ) :   0.9152 B( 12-C , 14-H ) :   0.9181
B( 12-C , 15-O ) :   0.8674 B( 12-C , 16-C ) :   0.9005 B( 16-C , 17-C ) :   0.8723
B( 16-C , 20-O ) :   0.8423 B( 16-C , 21-H ) :   0.9252 B( 17-C , 18-C ) :   0.9235
B( 17-C , 22-H ) :   0.9317 B( 17-C , 23-O ) :   0.9062 B( 18-C , 19-C ) :   0.9414
B( 18-C , 24-H ) :   0.9406 B( 18-C , 25-H ) :   0.9397 B( 19-C , 20-O ) :   0.8365
B( 19-C , 26-H ) :   0.9288 B( 19-C , 27-H ) :   0.9372 B( 23-O , 28-H ) :   0.7963

FINAL SINGLE POINT ENERGY      -652.852877254145

DIPOLE MOMENT
-------------
                                X             Y             Z
Electronic contribution:     -1.79338      -5.54301       0.75328
Nuclear contribution   :      1.79055       7.07693      -1.82494
                        -----------------------------------------
Total Dipole Moment    :     -0.00283       1.53392      -1.07167
                        -----------------------------------------
Magnitude (a.u.)       :      1.87120
Magnitude (Debye)      :      4.75621

Rotational constants in cm-1:     0.058574     0.013989     0.012709
Rotational constants in MHz :  1756.007739   419.374015   381.012256

                             ****ORCA TERMINATED NORMALLY****
TOTAL RUN TIME: 0 days 1 hours 1 minutes 38 seconds 501 msec
