                         Program Version 4.2.0 -  RELEASE  -
|  1> # Test redundant internal optimization
|  2> #
|  3> ! RKS B3LYP  Opt TightSCF SmallPrint
|  4>
|  5> %basis
|  6>         Basis "6-31G"
|  7> end
|  8>
|  9> %geom
| 10> Constraints
| 11> { D 4  0  15  12  105.0   C } # D for Dihedral angle
| 12> { D 0  15  12  16  120.0   C } # D for Dihedral angle
| 13> { D 0  4  3  2   C } # D for Dihedral angle
| 14> { D 4  3  2  1   C } # D for Dihedral angle
| 15> { D 3  2  1  0   C } # D for Dihedral angle
| 16> { D 2  1  0  4   C } # D for Dihedral angle
| 17> { D 1  0  4  3   C } # D for Dihedral angle
| 18> { D 16  20  19  18   C } # D for Dihedral angle
| 19> { D 20  19  18  17   C } # D for Dihedral angle
| 20> { D 19  18  17  16   C } # D for Dihedral angle
| 21> { D 18  17  16  20   C } # D for Dihedral angle
| 22> { D 17  16  20  19   C } # D for Dihedral angle
| 23> { D 15  12  16  20   C } # D for Dihedral angle
| 24> end
| 25> end
| 26>
| 27>
| 28> #%pal
| 29> #nprocs 8
| 30> #end
| 31>
| 32> * xyz 0 1
| 33> C  -21.048   26.222   46.251
| 34> C  -20.361   27.558   45.944
| 35> C  -20.329   28.222   47.341
| 36> C  -20.110   27.022   48.296
| 37> O  -20.473   25.807   47.535
| 38> H  -20.833   25.428   45.533
| 39> H  -19.344   27.382   45.576
| 40> H  -20.898   28.157   45.201
| 41> H  -19.543   28.978   47.434
| 42> H  -21.289   28.710   47.548
| 43> H  -20.733   27.082   49.195
| 44> H  -19.064   26.913   48.597
| 45> C  -23.085   27.864   46.420
| 46> H  -23.610   28.039   47.367
| 47> H  -22.237   28.559   46.365
| 48> O  -22.586   26.394   46.375
| 49> C  -24.053   28.206   45.254
| 50> C  -24.432   29.691   45.263
| 51> C  -23.183   30.338   44.620
| 52> C  -22.738   29.284   43.576
| 53> O  -23.387   28.012   43.962
| 54> H  -24.903   27.522   45.283
| 55> O  -25.688   29.926   44.379
| 56> H  -24.640   30.076   46.268
| 57> H  -23.395   31.312   44.165
| 58> H  -22.403   30.485   45.377
| 59> H  -21.652   29.141   43.560
| 60> H  -23.079   29.526   42.566
| 61> H  -25.502   29.548   43.368
| 62> *
| 63>
| 64>                          ****END OF INPUT****
 Total Charge           Charge          ....    0
 Multiplicity           Mult            ....    1
 Number of Electrons    NEL             ....  102
FINAL SINGLE POINT ENERGY      -652.808912622172
FINAL SINGLE POINT ENERGY      -652.836345342102
FINAL SINGLE POINT ENERGY      -652.849384518439
FINAL SINGLE POINT ENERGY      -652.851760686745
FINAL SINGLE POINT ENERGY      -652.852201518470
FINAL SINGLE POINT ENERGY      -652.852259511091
                    ***********************HURRAY********************

CARTESIAN COORDINATES (ANGSTROEM)
---------------------------------
  C    -21.185495   26.340883   46.337237
  C    -20.178824   27.453539   46.015187
  C    -19.942462   28.095709   47.413110
  C    -20.027664   26.870138   48.358904
  O    -20.712862   25.805924   47.593758
  H    -21.150124   25.503206   45.639996
  H    -19.258286   26.987033   45.650801
  H    -20.534115   28.150940   45.253034
  H    -18.970774   28.595491   47.479225
  H    -20.710970   28.835982   47.654499
  H    -20.591299   27.073992   49.274313
  H    -19.040132   26.484172   48.628097
  C    -23.127037   28.019090   46.444898
  H    -23.747731   28.086928   47.347682
  H    -22.341191   28.777972   46.509106
  O    -22.588832   26.677106   46.367345
  C    -23.989467   28.261130   45.205902
  C    -24.619287   29.658832   45.108478
  C    -23.455344   30.487392   44.506609
  C    -22.763492   29.483015   43.552204
  O    -23.210069   28.129766   43.968100
  H    -24.753465   27.479141   45.162742
  O    -25.782065   29.648960   44.237055
  H    -24.978986   30.050651   46.061309
  H    -23.837155   31.372557   43.992139
  H    -22.775846   30.818970   45.300056
  H    -21.670555   29.533910   43.602541
  H    -23.068150   29.616645   42.509676
  H    -25.586321   29.104928   43.444997

 Multiplicity           Mult            ....    1
 Number of Electrons    NEL             ....  102
 Basis Dimension        Dim             ....  149

ORBITAL ENERGIES
----------------

  NO   OCC          E(Eh)            E(eV)
   0   2.0000     -19.147519      -521.0305
   1   2.0000     -19.142144      -520.8842
   2   2.0000     -19.138206      -520.7771
   3   2.0000     -19.135948      -520.7156
   4   2.0000     -10.276773      -279.6452
   5   2.0000     -10.247503      -278.8487
   6   2.0000     -10.237124      -278.5663
   7   2.0000     -10.237077      -278.5650
   8   2.0000     -10.235301      -278.5167
   9   2.0000     -10.227097      -278.2935
  10   2.0000     -10.195660      -277.4380
  11   2.0000     -10.195353      -277.4296
  12   2.0000     -10.192793      -277.3600
  13   2.0000      -1.049352       -28.5543
  14   2.0000      -1.038963       -28.2716
  15   2.0000      -1.010439       -27.4955
  16   2.0000      -0.992642       -27.0111
  17   2.0000      -0.790177       -21.5018
  18   2.0000      -0.788890       -21.4668
  19   2.0000      -0.774326       -21.0705
  20   2.0000      -0.733902       -19.9705
  21   2.0000      -0.683469       -18.5981
  22   2.0000      -0.609591       -16.5878
  23   2.0000      -0.604908       -16.4604
  24   2.0000      -0.601900       -16.3785
  25   2.0000      -0.576581       -15.6896
  26   2.0000      -0.530211       -14.4278
  27   2.0000      -0.509829       -13.8731
  28   2.0000      -0.506476       -13.7819
  29   2.0000      -0.490779       -13.3548
  30   2.0000      -0.480408       -13.0726
  31   2.0000      -0.462275       -12.5791
  32   2.0000      -0.456233       -12.4147
  33   2.0000      -0.436646       -11.8817
  34   2.0000      -0.434171       -11.8144
  35   2.0000      -0.413930       -11.2636
  36   2.0000      -0.405672       -11.0389
  37   2.0000      -0.398740       -10.8503
  38   2.0000      -0.383730       -10.4418
  39   2.0000      -0.377164       -10.2632
  40   2.0000      -0.363591        -9.8938
  41   2.0000      -0.362009        -9.8508
  42   2.0000      -0.354768        -9.6537
  43   2.0000      -0.335528        -9.1302
  44   2.0000      -0.313620        -8.5340
  45   2.0000      -0.311544        -8.4776
  46   2.0000      -0.290820        -7.9136
  47   2.0000      -0.275228        -7.4893
  48   2.0000      -0.267793        -7.2870
  49   2.0000      -0.257264        -7.0005
  50   2.0000      -0.241280        -6.5656
  51   0.0000       0.050555         1.3757
  52   0.0000       0.075121         2.0441
  53   0.0000       0.081096         2.2067
  54   0.0000       0.097374         2.6497
  55   0.0000       0.099896         2.7183

MULLIKEN ATOMIC CHARGES
-----------------------
   0 C :    0.320900
   1 C :   -0.307241
   2 C :   -0.314850
   3 C :   -0.004070
   4 O :   -0.497352
   5 H :    0.168723
   6 H :    0.158585
   7 H :    0.158825
   8 H :    0.144838
   9 H :    0.145720
  10 H :    0.145306
  11 H :    0.145529
  12 C :   -0.005121
  13 H :    0.145706
  14 H :    0.121732
  15 O :   -0.519000
  16 C :    0.065868
  17 C :    0.076998
  18 C :   -0.291913
  19 C :   -0.038523
  20 O :   -0.513104
  21 H :    0.176076
  22 O :   -0.599520
  23 H :    0.151280
  24 H :    0.164265
  25 H :    0.139302
  26 H :    0.143948
  27 H :    0.150489
  28 H :    0.366604
Sum of atomic charges:   -0.0000000

LOEWDIN ATOMIC CHARGES
----------------------
   0 C :    0.183437
   1 C :   -0.232530
   2 C :   -0.224719
   3 C :   -0.031372
   4 O :   -0.317795
   5 H :    0.113779
   6 H :    0.125052
   7 H :    0.118928
   8 H :    0.115277
   9 H :    0.105527
  10 H :    0.103370
  11 H :    0.103766
  12 C :   -0.040144
  13 H :    0.108203
  14 H :    0.093595
  15 O :   -0.315759
  16 C :    0.011075
  17 C :    0.035085
  18 C :   -0.240943
  19 C :   -0.042104
  20 O :   -0.325053
  21 H :    0.123514
  22 O :   -0.412389
  23 H :    0.115359
  24 H :    0.127818
  25 H :    0.110358
  26 H :    0.099725
  27 H :    0.104463
  28 H :    0.284477

  Mayer bond orders larger than 0.100000
B(  0-C ,  1-C ) :   0.9286 B(  0-C ,  4-O ) :   0.9044 B(  0-C ,  5-H ) :   0.9332
B(  0-C , 15-O ) :   0.8834 B(  1-C ,  2-C ) :   0.9505 B(  1-C ,  6-H ) :   0.9349
B(  1-C ,  7-H ) :   0.9235 B(  2-C ,  3-C ) :   0.9461 B(  2-C ,  8-H ) :   0.9458
B(  2-C ,  9-H ) :   0.9382 B(  3-C ,  4-O ) :   0.8519 B(  3-C , 10-H ) :   0.9343
B(  3-C , 11-H ) :   0.9391 B( 12-C , 13-H ) :   0.9225 B( 12-C , 14-H ) :   0.9056
B( 12-C , 15-O ) :   0.8534 B( 12-C , 16-C ) :   0.8899 B( 16-C , 17-C ) :   0.8939
B( 16-C , 20-O ) :   0.8617 B( 16-C , 21-H ) :   0.9224 B( 17-C , 18-C ) :   0.9108
B( 17-C , 22-O ) :   0.8960 B( 17-C , 23-H ) :   0.9337 B( 18-C , 19-C ) :   0.9394
B( 18-C , 24-H ) :   0.9371 B( 18-C , 25-H ) :   0.9346 B( 19-C , 20-O ) :   0.8545
B( 19-C , 26-H ) :   0.9285 B( 19-C , 27-H ) :   0.9374 B( 22-O , 28-H ) :   0.7933

FINAL SINGLE POINT ENERGY      -652.852265319462

DIPOLE MOMENT
-------------
                                X             Y             Z
Electronic contribution:     -4.72323      -5.36433      -1.23552
Nuclear contribution   :      5.80591       6.89848       1.20382
                        -----------------------------------------
Total Dipole Moment    :      1.08267       1.53416      -0.03171
                        -----------------------------------------
Magnitude (a.u.)       :      1.87798
Magnitude (Debye)      :      4.77346

Rotational constants in cm-1:     0.060493     0.013352     0.012781
Rotational constants in MHz :  1813.544835   400.285965   383.159047

                             ****ORCA TERMINATED NORMALLY****
TOTAL RUN TIME: 0 days 0 hours 23 minutes 20 seconds 372 msec
