                         Program Version 4.2.0 -  RELEASE  -
|  1> # Test redundant internal optimization
|  2> #
|  3> ! RKS B3LYP  Opt TightSCF SmallPrint
|  4>
|  5> %basis
|  6>         Basis "6-31G"
|  7> end
|  8>
|  9> %geom
| 10> Constraints
| 11> { D 4  0  15  12  330.0   C } # D for Dihedral angle
| 12> { D 0  15  12  16  165.0   C } # D for Dihedral angle
| 13> { D 0  4  3  2   C } # D for Dihedral angle
| 14> { D 4  3  2  1   C } # D for Dihedral angle
| 15> { D 3  2  1  0   C } # D for Dihedral angle
| 16> { D 2  1  0  4   C } # D for Dihedral angle
| 17> { D 1  0  4  3   C } # D for Dihedral angle
| 18> { D 16  20  19  18   C } # D for Dihedral angle
| 19> { D 20  19  18  17   C } # D for Dihedral angle
| 20> { D 19  18  17  16   C } # D for Dihedral angle
| 21> { D 18  17  16  20   C } # D for Dihedral angle
| 22> { D 17  16  20  19   C } # D for Dihedral angle
| 23> { D 15  12  16  20   C } # D for Dihedral angle
| 24> end
| 25> end
| 26>
| 27>
| 28> #%pal
| 29> #nprocs 8
| 30> #end
| 31>
| 32> * xyz 0 1
| 33> C  -21.048   26.222   46.251
| 34> C  -20.361   27.558   45.944
| 35> C  -20.329   28.222   47.341
| 36> C  -20.110   27.022   48.296
| 37> O  -20.473   25.807   47.535
| 38> H  -20.833   25.428   45.533
| 39> H  -19.344   27.382   45.576
| 40> H  -20.898   28.157   45.201
| 41> H  -19.543   28.978   47.434
| 42> H  -21.289   28.710   47.548
| 43> H  -20.733   27.082   49.195
| 44> H  -19.064   26.913   48.597
| 45> C  -23.271   25.476   47.424
| 46> H  -23.319   24.452   47.032
| 47> H  -22.691   25.459   48.356
| 48> O  -22.586   26.394   46.375
| 49> C  -24.714   25.934   47.773
| 50> C  -25.315   25.077   48.892
| 51> C  -24.651   25.690   50.148
| 52> C  -24.554   27.196   49.794
| 53> O  -24.701   27.293   48.326
| 54> H  -25.310   25.967   46.858
| 55> O  -26.856   25.265   48.939
| 56> H  -25.101   24.009   48.778
| 57> H  -25.227   25.513   51.062
| 58> H  -23.652   25.262   50.293
| 59> H  -23.594   27.634   50.088
| 60> H  -25.363   27.782   50.239
| 61> H  -27.094   26.329   49.053
| 62> *
| 63>
| 64>                          ****END OF INPUT****
 Total Charge           Charge          ....    0
 Multiplicity           Mult            ....    1
 Number of Electrons    NEL             ....  102
FINAL SINGLE POINT ENERGY      -652.834727361557
FINAL SINGLE POINT ENERGY      -652.858456824457
FINAL SINGLE POINT ENERGY      -652.862941810016
FINAL SINGLE POINT ENERGY      -652.863778612989
FINAL SINGLE POINT ENERGY      -652.863900763009
FINAL SINGLE POINT ENERGY      -652.863916640855
                    ***********************HURRAY********************

CARTESIAN COORDINATES (ANGSTROEM)
---------------------------------
  C    -21.116975   26.181723   46.282090
  C    -20.602512   27.590002   45.987136
  C    -20.480626   28.182085   47.407207
  C    -20.043648   26.974575   48.263116
  O    -20.377887   25.765403   47.455709
  H    -20.915145   25.423906   45.518243
  H    -19.625728   27.524308   45.493723
  H    -21.290204   28.148539   45.348786
  H    -19.765605   29.008752   47.459980
  H    -21.461426   28.544071   47.729303
  H    -20.567280   26.913839   49.221521
  H    -18.964645   26.938701   48.439632
  C    -23.142212   25.396454   47.492177
  H    -23.232753   24.373566   47.092891
  H    -22.512302   25.351736   48.386187
  O    -22.546445   26.278756   46.506864
  C    -24.529404   25.948851   47.799250
  C    -25.299428   25.158857   48.867020
  C    -24.716280   25.749868   50.177530
  C    -24.475440   27.236283   49.813891
  O    -24.470927   27.315263   48.333491
  H    -25.097753   26.013899   46.866498
  O    -26.729831   25.397276   48.759437
  H    -25.180431   24.076983   48.791571
  H    -25.418122   25.619366   51.005028
  H    -23.779220   25.244795   50.437436
  H    -23.522367   27.615006   50.196830
  H    -25.276659   27.891491   50.171000
  H    -26.882745   26.348649   48.577452

 Multiplicity           Mult            ....    1
 Number of Electrons    NEL             ....  102
 Basis Dimension        Dim             ....  149

ORBITAL ENERGIES
----------------

  NO   OCC          E(Eh)            E(eV)
   0   2.0000     -19.146560      -521.0044
   1   2.0000     -19.141377      -520.8634
   2   2.0000     -19.138554      -520.7865
   3   2.0000     -19.137649      -520.7619
   4   2.0000     -10.277128      -279.6549
   5   2.0000     -10.242931      -278.7243
   6   2.0000     -10.232661      -278.4449
   7   2.0000     -10.231457      -278.4121
   8   2.0000     -10.229103      -278.3480
   9   2.0000     -10.227199      -278.2962
  10   2.0000     -10.190141      -277.2878
  11   2.0000     -10.183288      -277.1013
  12   2.0000     -10.182274      -277.0738
  13   2.0000      -1.054446       -28.6929
  14   2.0000      -1.035504       -28.1775
  15   2.0000      -1.005968       -27.3738
  16   2.0000      -0.990462       -26.9519
  17   2.0000      -0.790741       -21.5172
  18   2.0000      -0.781476       -21.2650
  19   2.0000      -0.767400       -20.8820
  20   2.0000      -0.731146       -19.8955
  21   2.0000      -0.671586       -18.2748
  22   2.0000      -0.604801       -16.4575
  23   2.0000      -0.600055       -16.3283
  24   2.0000      -0.590245       -16.0614
  25   2.0000      -0.577941       -15.7266
  26   2.0000      -0.527743       -14.3606
  27   2.0000      -0.509061       -13.8523
  28   2.0000      -0.492147       -13.3920
  29   2.0000      -0.489932       -13.3317
  30   2.0000      -0.478041       -13.0081
  31   2.0000      -0.459822       -12.5124
  32   2.0000      -0.449110       -12.2209
  33   2.0000      -0.444342       -12.0912
  34   2.0000      -0.415993       -11.3198
  35   2.0000      -0.405491       -11.0340
  36   2.0000      -0.401018       -10.9123
  37   2.0000      -0.394381       -10.7317
  38   2.0000      -0.372972       -10.1491
  39   2.0000      -0.369462       -10.0536
  40   2.0000      -0.363239        -9.8842
  41   2.0000      -0.356000        -9.6873
  42   2.0000      -0.346002        -9.4152
  43   2.0000      -0.337026        -9.1709
  44   2.0000      -0.325772        -8.8647
  45   2.0000      -0.307090        -8.3563
  46   2.0000      -0.298907        -8.1337
  47   2.0000      -0.271267        -7.3815
  48   2.0000      -0.261667        -7.1203
  49   2.0000      -0.251913        -6.8549
  50   2.0000      -0.246035        -6.6950
  51   0.0000       0.054271         1.4768
  52   0.0000       0.082121         2.2346
  53   0.0000       0.093651         2.5484
  54   0.0000       0.100757         2.7417
  55   0.0000       0.101776         2.7695

MULLIKEN ATOMIC CHARGES
-----------------------
   0 C :    0.299020
   1 C :   -0.258047
   2 C :   -0.305000
   3 C :   -0.016107
   4 O :   -0.515984
   5 H :    0.146838
   6 H :    0.141363
   7 H :    0.165054
   8 H :    0.141070
   9 H :    0.176676
  10 H :    0.139000
  11 H :    0.148587
  12 C :    0.003840
  13 H :    0.126126
  14 H :    0.151115
  15 O :   -0.527670
  16 C :    0.062201
  17 C :    0.076295
  18 C :   -0.298765
  19 C :   -0.029634
  20 O :   -0.511312
  21 H :    0.169805
  22 O :   -0.601858
  23 H :    0.154613
  24 H :    0.163596
  25 H :    0.144744
  26 H :    0.140724
  27 H :    0.147608
  28 H :    0.366101
Sum of atomic charges:   -0.0000000

LOEWDIN ATOMIC CHARGES
----------------------
   0 C :    0.180140
   1 C :   -0.214832
   2 C :   -0.219000
   3 C :   -0.030862
   4 O :   -0.326424
   5 H :    0.097600
   6 H :    0.111745
   7 H :    0.128452
   8 H :    0.114202
   9 H :    0.125975
  10 H :    0.099428
  11 H :    0.105383
  12 C :   -0.041559
  13 H :    0.094958
  14 H :    0.104258
  15 O :   -0.328130
  16 C :    0.017192
  17 C :    0.035619
  18 C :   -0.242340
  19 C :   -0.039096
  20 O :   -0.322998
  21 H :    0.120491
  22 O :   -0.414419
  23 H :    0.116655
  24 H :    0.126998
  25 H :    0.113233
  26 H :    0.100635
  27 H :    0.102677
  28 H :    0.284021

  Mayer bond orders larger than 0.100000
B(  0-C ,  1-C ) :   0.9464 B(  0-C ,  4-O ) :   0.9007 B(  0-C ,  5-H ) :   0.9225
B(  0-C , 15-O ) :   0.8460 B(  1-C ,  2-C ) :   0.9542 B(  1-C ,  6-H ) :   0.9382
B(  1-C ,  7-H ) :   0.9346 B(  2-C ,  3-C ) :   0.9558 B(  2-C ,  8-H ) :   0.9444
B(  2-C ,  9-H ) :   0.9374 B(  3-C ,  4-O ) :   0.8313 B(  3-C , 10-H ) :   0.9345
B(  3-C , 11-H ) :   0.9406 B( 12-C , 13-H ) :   0.9133 B( 12-C , 14-H ) :   0.9099
B( 12-C , 15-O ) :   0.8345 B( 12-C , 16-C ) :   0.8992 B( 16-C , 17-C ) :   0.9024
B( 16-C , 20-O ) :   0.8604 B( 16-C , 21-H ) :   0.9228 B( 17-C , 18-C ) :   0.9114
B( 17-C , 22-O ) :   0.8961 B( 17-C , 23-H ) :   0.9320 B( 18-C , 19-C ) :   0.9409
B( 18-C , 24-H ) :   0.9374 B( 18-C , 25-H ) :   0.9334 B( 19-C , 20-O ) :   0.8534
B( 19-C , 26-H ) :   0.9344 B( 19-C , 27-H ) :   0.9372 B( 22-O , 28-H ) :   0.7932

FINAL SINGLE POINT ENERGY      -652.863919572884

DIPOLE MOMENT
-------------
                                X             Y             Z
Electronic contribution:     -3.33832      -2.14834      -2.87739
Nuclear contribution   :      4.06183       2.54212       3.45601
                        -----------------------------------------
Total Dipole Moment    :      0.72352       0.39378       0.57863
                        -----------------------------------------
Magnitude (a.u.)       :      1.00665
Magnitude (Debye)      :      2.55870

Rotational constants in cm-1:     0.056318     0.014048     0.013321
Rotational constants in MHz :  1688.374091   421.157987   399.345336

                             ****ORCA TERMINATED NORMALLY****
TOTAL RUN TIME: 0 days 0 hours 21 minutes 46 seconds 703 msec
