                         Program Version 4.2.0 -  RELEASE  -
|  1> # Test redundant internal optimization
|  2> #
|  3> ! RKS B3LYP  Opt TightSCF SmallPrint
|  4>
|  5> %basis
|  6>         Basis "6-31G"
|  7> end
|  8>
|  9> %geom
| 10> Constraints
| 11> { D 4  0  15  12  15.0   C } # D for Dihedral angle
| 12> { D 0  15  12  16  240.0   C } # D for Dihedral angle
| 13> { D 0  4  3  2   C } # D for Dihedral angle
| 14> { D 4  3  2  1   C } # D for Dihedral angle
| 15> { D 3  2  1  0   C } # D for Dihedral angle
| 16> { D 2  1  0  4   C } # D for Dihedral angle
| 17> { D 1  0  4  3   C } # D for Dihedral angle
| 18> { D 16  20  19  18   C } # D for Dihedral angle
| 19> { D 20  19  18  17   C } # D for Dihedral angle
| 20> { D 19  18  17  16   C } # D for Dihedral angle
| 21> { D 18  17  16  20   C } # D for Dihedral angle
| 22> { D 17  16  20  19   C } # D for Dihedral angle
| 23> { D 15  12  16  20   C } # D for Dihedral angle
| 24> end
| 25> end
| 26>
| 27>
| 28> #%pal
| 29> #nprocs 8
| 30> #end
| 31>
| 32> * xyz 0 1
| 33> C  -21.048   26.222   46.251
| 34> C  -20.361   27.558   45.944
| 35> C  -20.329   28.222   47.341
| 36> C  -20.110   27.022   48.296
| 37> O  -20.473   25.807   47.535
| 38> H  -20.833   25.428   45.533
| 39> H  -19.344   27.382   45.576
| 40> H  -20.898   28.157   45.201
| 41> H  -19.543   28.978   47.434
| 42> H  -21.289   28.710   47.548
| 43> H  -20.733   27.082   49.195
| 44> H  -19.064   26.913   48.597
| 45> C  -23.128   26.462   47.829
| 46> H  -22.289   26.382   48.532
| 47> H  -23.633   27.421   48.006
| 48> O  -22.586   26.394   46.375
| 49> C  -24.142   25.328   48.146
| 50> C  -25.302   25.322   47.144
| 51> C  -24.659   24.616   45.925
| 52> C  -23.712   23.579   46.578
| 53> O  -23.511   24.015   47.978
| 54> H  -24.448   25.404   49.191
| 55> H  -26.135   24.730   47.537
| 56> O  -25.826   26.744   46.808
| 57> H  -25.397   24.150   45.266
| 58> H  -24.087   25.339   45.330
| 59> H  -22.740   23.522   46.077
| 60> H  -24.151   22.577   46.614
| 61> H  -25.007   27.355   46.412
| 62> *
| 63>
| 64>                          ****END OF INPUT****
 Total Charge           Charge          ....    0
 Multiplicity           Mult            ....    1
 Number of Electrons    NEL             ....  102
FINAL SINGLE POINT ENERGY      -652.826227166169
FINAL SINGLE POINT ENERGY      -652.850381459549
FINAL SINGLE POINT ENERGY      -652.855765476756
FINAL SINGLE POINT ENERGY      -652.858242481132
FINAL SINGLE POINT ENERGY      -652.858451074684
FINAL SINGLE POINT ENERGY      -652.858494655407
FINAL SINGLE POINT ENERGY      -652.858497788146
                    ***********************HURRAY********************

CARTESIAN COORDINATES (ANGSTROEM)
---------------------------------
  C    -21.078273   26.296940   46.387326
  C    -20.410978   27.620553   46.008337
  C    -20.194431   28.277986   47.394740
  C    -19.882737   27.071067   48.306849
  O    -20.371175   25.871502   47.566417
  H    -20.953734   25.504447   45.647264
  H    -19.451882   27.412539   45.519960
  H    -21.031001   28.218135   45.336609
  H    -19.383691   29.012801   47.390677
  H    -21.108435   28.788488   47.717315
  H    -20.382781   27.115401   49.277942
  H    -18.810758   26.920740   48.461980
  C    -23.145887   26.484213   47.859611
  H    -22.380289   26.385848   48.632145
  H    -23.660953   27.446341   47.970164
  O    -22.524431   26.440013   46.540838
  C    -24.150355   25.348722   48.059657
  C    -25.325060   25.327137   47.067400
  C    -24.716097   24.541828   45.864379
  C    -23.796547   23.517580   46.561935
  O    -23.568284   24.020591   47.941689
  H    -24.514674   25.434167   49.091228
  H    -26.171534   24.791476   47.502154
  O    -25.844959   26.635608   46.725771
  H    -25.487272   24.068950   45.249106
  H    -24.134761   25.234635   45.250745
  H    -22.829142   23.406302   46.064645
  H    -24.263943   22.532671   46.659090
  H    -25.203936   27.094320   46.143026

 Multiplicity           Mult            ....    1
 Number of Electrons    NEL             ....  102
 Basis Dimension        Dim             ....  149

ORBITAL ENERGIES
----------------

  NO   OCC          E(Eh)            E(eV)
   0   2.0000     -19.154189      -521.2120
   1   2.0000     -19.144027      -520.9355
   2   2.0000     -19.135591      -520.7059
   3   2.0000     -19.128902      -520.5239
   4   2.0000     -10.284621      -279.8588
   5   2.0000     -10.236198      -278.5411
   6   2.0000     -10.231564      -278.4150
   7   2.0000     -10.227041      -278.2919
   8   2.0000     -10.223777      -278.2031
   9   2.0000     -10.217810      -278.0408
  10   2.0000     -10.196325      -277.4561
  11   2.0000     -10.190674      -277.3023
  12   2.0000     -10.175509      -276.8897
  13   2.0000      -1.058309       -28.7980
  14   2.0000      -1.022970       -27.8364
  15   2.0000      -1.005220       -27.3534
  16   2.0000      -0.994231       -27.0544
  17   2.0000      -0.794578       -21.6216
  18   2.0000      -0.771398       -20.9908
  19   2.0000      -0.763138       -20.7660
  20   2.0000      -0.734669       -19.9914
  21   2.0000      -0.675300       -18.3758
  22   2.0000      -0.608534       -16.5591
  23   2.0000      -0.600763       -16.3476
  24   2.0000      -0.597267       -16.2525
  25   2.0000      -0.559512       -15.2251
  26   2.0000      -0.528356       -14.3773
  27   2.0000      -0.509318       -13.8592
  28   2.0000      -0.496495       -13.5103
  29   2.0000      -0.487615       -13.2687
  30   2.0000      -0.473435       -12.8828
  31   2.0000      -0.460893       -12.5415
  32   2.0000      -0.435769       -11.8579
  33   2.0000      -0.430702       -11.7200
  34   2.0000      -0.423732       -11.5303
  35   2.0000      -0.414808       -11.2875
  36   2.0000      -0.400233       -10.8909
  37   2.0000      -0.388906       -10.5827
  38   2.0000      -0.379179       -10.3180
  39   2.0000      -0.372681       -10.1412
  40   2.0000      -0.364857        -9.9283
  41   2.0000      -0.356249        -9.6940
  42   2.0000      -0.345387        -9.3985
  43   2.0000      -0.331108        -9.0099
  44   2.0000      -0.320436        -8.7195
  45   2.0000      -0.309762        -8.4291
  46   2.0000      -0.301025        -8.1913
  47   2.0000      -0.269678        -7.3383
  48   2.0000      -0.261628        -7.1192
  49   2.0000      -0.255521        -6.9531
  50   2.0000      -0.230251        -6.2654
  51   0.0000       0.065880         1.7927
  52   0.0000       0.084345         2.2951
  53   0.0000       0.091869         2.4999
  54   0.0000       0.095966         2.6114
  55   0.0000       0.105171         2.8618

MULLIKEN ATOMIC CHARGES
-----------------------
   0 C :    0.309140
   1 C :   -0.258478
   2 C :   -0.309351
   3 C :   -0.025165
   4 O :   -0.499171
   5 H :    0.158410
   6 H :    0.147586
   7 H :    0.154421
   8 H :    0.150532
   9 H :    0.153445
  10 H :    0.149357
  11 H :    0.154638
  12 C :   -0.033567
  13 H :    0.168138
  14 H :    0.136909
  15 O :   -0.556241
  16 C :    0.104042
  17 C :    0.083165
  18 C :   -0.307267
  19 C :   -0.005005
  20 O :   -0.517240
  21 H :    0.141798
  22 H :    0.158772
  23 O :   -0.608818
  24 H :    0.140975
  25 H :    0.161234
  26 H :    0.143793
  27 H :    0.139974
  28 H :    0.363975
Sum of atomic charges:   -0.0000000

LOEWDIN ATOMIC CHARGES
----------------------
   0 C :    0.184925
   1 C :   -0.223748
   2 C :   -0.221002
   3 C :   -0.034220
   4 O :   -0.308302
   5 H :    0.106710
   6 H :    0.115535
   7 H :    0.122325
   8 H :    0.119020
   9 H :    0.113359
  10 H :    0.103661
  11 H :    0.108856
  12 C :   -0.051803
  13 H :    0.117937
  14 H :    0.101665
  15 O :   -0.351395
  16 C :    0.015725
  17 C :    0.036336
  18 C :   -0.242406
  19 C :   -0.024776
  20 O :   -0.319874
  21 H :    0.111272
  22 H :    0.114681
  23 O :   -0.413313
  24 H :    0.113602
  25 H :    0.120032
  26 H :    0.102784
  27 H :    0.100224
  28 H :    0.282187

  Mayer bond orders larger than 0.100000
B(  0-C ,  1-C ) :   0.9245 B(  0-C ,  4-O ) :   0.9252 B(  0-C ,  5-H ) :   0.9315
B(  0-C , 15-O ) :   0.8359 B(  1-C ,  2-C ) :   0.9541 B(  1-C ,  6-H ) :   0.9343
B(  1-C ,  7-H ) :   0.9372 B(  2-C ,  3-C ) :   0.9501 B(  2-C ,  8-H ) :   0.9445
B(  2-C ,  9-H ) :   0.9451 B(  3-C ,  4-O ) :   0.8308 B(  3-C , 10-H ) :   0.9298
B(  3-C , 11-H ) :   0.9400 B( 12-C , 13-H ) :   0.9100 B( 12-C , 14-H ) :   0.9145
B( 12-C , 15-O ) :   0.8362 B( 12-C , 16-C ) :   0.8971 B( 16-C , 17-C ) :   0.8887
B( 16-C , 20-O ) :   0.8845 B( 16-C , 21-H ) :   0.9256 B( 17-C , 18-C ) :   0.9348
B( 17-C , 22-H ) :   0.9372 B( 17-C , 23-O ) :   0.8984 B( 18-C , 19-C ) :   0.9433
B( 18-C , 24-H ) :   0.9416 B( 18-C , 25-H ) :   0.9276 B( 19-C , 20-O ) :   0.8406
B( 19-C , 26-H ) :   0.9321 B( 19-C , 27-H ) :   0.9379 B( 23-O , 28-H ) :   0.7933

FINAL SINGLE POINT ENERGY      -652.858496296211

DIPOLE MOMENT
-------------
                                X             Y             Z
Electronic contribution:     -2.45209      -2.82928       1.09124
Nuclear contribution   :      3.31432       3.72698      -1.54528
                        -----------------------------------------
Total Dipole Moment    :      0.86222       0.89770      -0.45405
                        -----------------------------------------
Magnitude (a.u.)       :      1.32494
Magnitude (Debye)      :      3.36772

Rotational constants in cm-1:     0.050360     0.015992     0.014817
Rotational constants in MHz :  1509.767199   479.430921   444.196372

                             ****ORCA TERMINATED NORMALLY****
TOTAL RUN TIME: 0 days 0 hours 31 minutes 15 seconds 97 msec
