                         Program Version 4.2.0 -  RELEASE  -
|  1> # Test redundant internal optimization
|  2> #
|  3> ! RKS B3LYP  Opt TightSCF SmallPrint
|  4>
|  5> %basis
|  6>         Basis "6-31G"
|  7> end
|  8>
|  9> %geom
| 10> Constraints
| 11> { D 4  0  15  12  135.0   C } # D for Dihedral angle
| 12> { D 0  15  12  16  90.0   C } # D for Dihedral angle
| 13> { D 0  4  3  2   C } # D for Dihedral angle
| 14> { D 4  3  2  1   C } # D for Dihedral angle
| 15> { D 3  2  1  0   C } # D for Dihedral angle
| 16> { D 2  1  0  4   C } # D for Dihedral angle
| 17> { D 1  0  4  3   C } # D for Dihedral angle
| 18> { D 16  20  19  18   C } # D for Dihedral angle
| 19> { D 20  19  18  17   C } # D for Dihedral angle
| 20> { D 19  18  17  16   C } # D for Dihedral angle
| 21> { D 18  17  16  20   C } # D for Dihedral angle
| 22> { D 17  16  20  19   C } # D for Dihedral angle
| 23> { D 15  12  16  20   C } # D for Dihedral angle
| 24> end
| 25> end
| 26>
| 27>
| 28> #%pal
| 29> #nprocs 8
| 30> #end
| 31>
| 32> * xyz 0 1
| 33> C  -21.048   26.222   46.251
| 34> C  -20.361   27.558   45.944
| 35> C  -20.329   28.222   47.341
| 36> C  -20.110   27.022   48.296
| 37> O  -20.473   25.807   47.535
| 38> H  -20.833   25.428   45.533
| 39> H  -19.344   27.382   45.576
| 40> H  -20.898   28.157   45.201
| 41> H  -19.543   28.978   47.434
| 42> H  -21.289   28.710   47.548
| 43> H  -20.733   27.082   49.195
| 44> H  -19.064   26.913   48.597
| 45> C  -23.162   27.680   45.721
| 46> H  -24.052   28.001   46.276
| 47> H  -22.424   28.492   45.755
| 48> O  -22.586   26.394   46.375
| 49> C  -23.563   27.469   44.234
| 50> C  -22.387   26.931   43.411
| 51> C  -22.401   25.430   43.788
| 52> C  -23.910   25.123   43.953
| 53> O  -24.589   26.427   44.123
| 54> H  -24.000   28.391   43.848
| 55> O  -22.668   27.118   41.895
| 56> H  -21.435   27.419   43.648
| 57> H  -21.927   24.798   43.030
| 58> H  -21.870   25.275   44.734
| 59> H  -24.118   24.494   44.825
| 60> H  -24.340   24.650   43.065
| 61> H  -23.617   26.636   41.634
| 62> *
| 63>
| 64>                          ****END OF INPUT****
 Total Charge           Charge          ....    0
 Multiplicity           Mult            ....    1
 Number of Electrons    NEL             ....  102
FINAL SINGLE POINT ENERGY      -652.794439434503
FINAL SINGLE POINT ENERGY      -652.830023267903
FINAL SINGLE POINT ENERGY      -652.845548063054
FINAL SINGLE POINT ENERGY      -652.848605806372
FINAL SINGLE POINT ENERGY      -652.849121991523
FINAL SINGLE POINT ENERGY      -652.849178471071
FINAL SINGLE POINT ENERGY      -652.849186180797
                    ***********************HURRAY********************

CARTESIAN COORDINATES (ANGSTROEM)
---------------------------------
  C    -21.058125   26.248067   46.501087
  C    -20.156432   27.409140   46.074666
  C    -20.146241   28.298116   47.348346
  C    -20.194540   27.252296   48.485350
  O    -20.670306   25.995081   47.862214
  H    -20.884072   25.311238   45.971112
  H    -19.154970   27.010308   45.880031
  H    -20.481993   27.940715   45.178596
  H    -19.256176   28.931975   47.403234
  H    -21.026542   28.948829   47.375513
  H    -20.878933   27.526952   49.292133
  H    -19.206892   27.041051   48.905556
  C    -23.121964   27.592813   45.741252
  H    -24.030657   27.797287   46.313819
  H    -22.505189   28.502346   45.752036
  O    -22.495130   26.509460   46.482360
  C    -23.569204   27.322511   44.296525
  C    -22.537083   26.944525   43.223475
  C    -22.430509   25.405676   43.409372
  C    -23.880159   25.007095   43.790629
  O    -24.556255   26.245909   44.231404
  H    -24.088953   28.237108   43.979919
  O    -23.028892   27.297264   41.900703
  H    -21.583087   27.463772   43.314165
  H    -22.086954   24.930434   42.486750
  H    -21.732404   25.158804   44.208970
  H    -23.912247   24.280436   44.607150
  H    -24.445460   24.613422   42.939558
  H    -23.954629   26.986368   41.810075

 Multiplicity           Mult            ....    1
 Number of Electrons    NEL             ....  102
 Basis Dimension        Dim             ....  149

ORBITAL ENERGIES
----------------

  NO   OCC          E(Eh)            E(eV)
   0   2.0000     -19.143376      -520.9177
   1   2.0000     -19.142461      -520.8928
   2   2.0000     -19.142144      -520.8842
   3   2.0000     -19.141666      -520.8712
   4   2.0000     -10.285380      -279.8794
   5   2.0000     -10.245893      -278.8049
   6   2.0000     -10.237180      -278.5678
   7   2.0000     -10.236465      -278.5484
   8   2.0000     -10.229863      -278.3687
   9   2.0000     -10.228275      -278.3255
  10   2.0000     -10.199453      -277.5412
  11   2.0000     -10.197465      -277.4871
  12   2.0000     -10.188689      -277.2483
  13   2.0000      -1.054325       -28.6896
  14   2.0000      -1.038753       -28.2659
  15   2.0000      -1.008820       -27.4514
  16   2.0000      -0.993779       -27.0421
  17   2.0000      -0.795079       -21.6352
  18   2.0000      -0.781043       -21.2533
  19   2.0000      -0.773617       -21.0512
  20   2.0000      -0.740249       -20.1432
  21   2.0000      -0.683029       -18.5862
  22   2.0000      -0.613787       -16.7020
  23   2.0000      -0.606703       -16.5092
  24   2.0000      -0.603967       -16.4348
  25   2.0000      -0.570478       -15.5235
  26   2.0000      -0.523711       -14.2509
  27   2.0000      -0.518620       -14.1124
  28   2.0000      -0.511229       -13.9112
  29   2.0000      -0.492328       -13.3969
  30   2.0000      -0.472930       -12.8691
  31   2.0000      -0.458191       -12.4680
  32   2.0000      -0.455155       -12.3854
  33   2.0000      -0.447206       -12.1691
  34   2.0000      -0.426763       -11.6128
  35   2.0000      -0.423605       -11.5269
  36   2.0000      -0.403161       -10.9706
  37   2.0000      -0.394544       -10.7361
  38   2.0000      -0.384577       -10.4649
  39   2.0000      -0.372094       -10.1252
  40   2.0000      -0.368532       -10.0283
  41   2.0000      -0.367277        -9.9941
  42   2.0000      -0.356128        -9.6907
  43   2.0000      -0.333088        -9.0638
  44   2.0000      -0.317686        -8.6447
  45   2.0000      -0.308714        -8.4005
  46   2.0000      -0.293962        -7.9991
  47   2.0000      -0.276525        -7.5246
  48   2.0000      -0.272342        -7.4108
  49   2.0000      -0.258720        -7.0401
  50   2.0000      -0.238369        -6.4864
  51   0.0000       0.060844         1.6556
  52   0.0000       0.070672         1.9231
  53   0.0000       0.087532         2.3819
  54   0.0000       0.092904         2.5280
  55   0.0000       0.101237         2.7548

MULLIKEN ATOMIC CHARGES
-----------------------
   0 C :    0.323504
   1 C :   -0.309013
   2 C :   -0.302562
   3 C :   -0.003372
   4 O :   -0.501854
   5 H :    0.155678
   6 H :    0.157313
   7 H :    0.146739
   8 H :    0.147364
   9 H :    0.154593
  10 H :    0.154282
  11 H :    0.145757
  12 C :   -0.014304
  13 H :    0.174236
  14 H :    0.117381
  15 O :   -0.521925
  16 C :    0.072532
  17 C :    0.071106
  18 C :   -0.296880
  19 C :   -0.023258
  20 O :   -0.520926
  21 H :    0.151554
  22 O :   -0.603571
  23 H :    0.147025
  24 H :    0.157700
  25 H :    0.151309
  26 H :    0.162284
  27 H :    0.140558
  28 H :    0.366750
Sum of atomic charges:   -0.0000000

LOEWDIN ATOMIC CHARGES
----------------------
   0 C :    0.179478
   1 C :   -0.234803
   2 C :   -0.217718
   3 C :   -0.027510
   4 O :   -0.306364
   5 H :    0.099177
   6 H :    0.123406
   7 H :    0.111762
   8 H :    0.117109
   9 H :    0.111483
  10 H :    0.108996
  11 H :    0.104390
  12 C :   -0.040579
  13 H :    0.126740
  14 H :    0.091580
  15 O :   -0.331023
  16 C :    0.003211
  17 C :    0.034248
  18 C :   -0.240149
  19 C :   -0.034285
  20 O :   -0.326965
  21 H :    0.115308
  22 O :   -0.415076
  23 H :    0.110859
  24 H :    0.123572
  25 H :    0.117281
  26 H :    0.113095
  27 H :    0.098444
  28 H :    0.284331

  Mayer bond orders larger than 0.100000
B(  0-C ,  1-C ) :   0.9309 B(  0-C ,  4-O ) :   0.9114 B(  0-C ,  5-H ) :   0.9134
B(  0-C , 15-O ) :   0.8503 B(  1-C ,  2-C ) :   0.9478 B(  1-C ,  6-H ) :   0.9336
B(  1-C ,  7-H ) :   0.9215 B(  2-C ,  3-C ) :   0.9502 B(  2-C ,  8-H ) :   0.9453
B(  2-C ,  9-H ) :   0.9415 B(  3-C ,  4-O ) :   0.8407 B(  3-C , 10-H ) :   0.9340
B(  3-C , 11-H ) :   0.9392 B( 12-C , 13-H ) :   0.9291 B( 12-C , 14-H ) :   0.9002
B( 12-C , 15-O ) :   0.8799 B( 12-C , 16-C ) :   0.8811 B( 16-C , 17-C ) :   0.9075
B( 16-C , 20-O ) :   0.8692 B( 16-C , 21-H ) :   0.9142 B( 17-C , 18-C ) :   0.9200
B( 17-C , 22-O ) :   0.8902 B( 17-C , 23-H ) :   0.9279 B( 18-C , 19-C ) :   0.9436
B( 18-C , 24-H ) :   0.9373 B( 18-C , 25-H ) :   0.9174 B( 19-C , 20-O ) :   0.8424
B( 19-C , 26-H ) :   0.9321 B( 19-C , 27-H ) :   0.9359 B( 22-O , 28-H ) :   0.7929

FINAL SINGLE POINT ENERGY      -652.849185558191

DIPOLE MOMENT
-------------
                                X             Y             Z
Electronic contribution:     -4.13013      -2.14621      -0.47852
Nuclear contribution   :      4.98759       2.80243       0.32048
                        -----------------------------------------
Total Dipole Moment    :      0.85746       0.65623      -0.15804
                        -----------------------------------------
Magnitude (a.u.)       :      1.09126
Magnitude (Debye)      :      2.77375

Rotational constants in cm-1:     0.055264     0.014668     0.013975
Rotational constants in MHz :  1656.765707   439.736522   418.955175

                             ****ORCA TERMINATED NORMALLY****
TOTAL RUN TIME: 0 days 0 hours 24 minutes 47 seconds 805 msec
