                         Program Version 4.2.0 -  RELEASE  -
|  1> # Test redundant internal optimization
|  2> #
|  3> ! RKS B3LYP  Opt TightSCF SmallPrint
|  4>
|  5> %basis
|  6>         Basis "6-31G"
|  7> end
|  8>
|  9> %geom
| 10> Constraints
| 11> { D 4  0  15  12  315.0   C } # D for Dihedral angle
| 12> { D 0  15  12  16  105.0   C } # D for Dihedral angle
| 13> { D 0  4  3  2   C } # D for Dihedral angle
| 14> { D 4  3  2  1   C } # D for Dihedral angle
| 15> { D 3  2  1  0   C } # D for Dihedral angle
| 16> { D 2  1  0  4   C } # D for Dihedral angle
| 17> { D 1  0  4  3   C } # D for Dihedral angle
| 18> { D 16  20  19  18   C } # D for Dihedral angle
| 19> { D 20  19  18  17   C } # D for Dihedral angle
| 20> { D 19  18  17  16   C } # D for Dihedral angle
| 21> { D 18  17  16  20   C } # D for Dihedral angle
| 22> { D 17  16  20  19   C } # D for Dihedral angle
| 23> { D 15  12  16  20   C } # D for Dihedral angle
| 24> end
| 25> end
| 26>
| 27>
| 28> #%pal
| 29> #nprocs 8
| 30> #end
| 31>
| 32> * xyz 0 1
| 33> C  -21.048   26.222   46.251
| 34> C  -20.361   27.558   45.944
| 35> C  -20.329   28.222   47.341
| 36> C  -20.110   27.022   48.296
| 37> O  -20.473   25.807   47.535
| 38> H  -20.833   25.428   45.533
| 39> H  -19.344   27.382   45.576
| 40> H  -20.898   28.157   45.201
| 41> H  -19.543   28.978   47.434
| 42> H  -21.289   28.710   47.548
| 43> H  -20.733   27.082   49.195
| 44> H  -19.064   26.913   48.597
| 45> C  -23.319   25.255   47.135
| 46> H  -24.215   24.963   46.574
| 47> H  -22.670   24.374   47.226
| 48> O  -22.586   26.394   46.375
| 49> C  -23.753   25.671   48.568
| 50> C  -24.368   24.491   49.328
| 51> C  -23.107   23.711   49.770
| 52> C  -22.080   24.836   50.052
| 53> O  -22.584   26.047   49.369
| 54> H  -24.395   26.552   48.505
| 55> H  -24.925   24.852   50.200
| 56> O  -25.328   23.636   48.455
| 57> H  -23.284   23.079   50.646
| 58> H  -22.758   23.066   48.956
| 59> H  -21.081   24.598   49.669
| 60> H  -22.003   25.075   51.117
| 61> H  -24.793   23.261   47.576
| 62> *
| 63>
| 64>                          ****END OF INPUT****
 Total Charge           Charge          ....    0
 Multiplicity           Mult            ....    1
 Number of Electrons    NEL             ....  102
FINAL SINGLE POINT ENERGY      -652.832077739544
FINAL SINGLE POINT ENERGY      -652.855878457522
FINAL SINGLE POINT ENERGY      -652.859934007269
FINAL SINGLE POINT ENERGY      -652.861978895389
FINAL SINGLE POINT ENERGY      -652.862547636186
FINAL SINGLE POINT ENERGY      -652.862667213457
FINAL SINGLE POINT ENERGY      -652.862689260486
FINAL SINGLE POINT ENERGY      -652.862694288962
                    ***********************HURRAY********************

CARTESIAN COORDINATES (ANGSTROEM)
---------------------------------
  C    -21.046172   26.216734   46.266052
  C    -20.489598   27.603321   45.949038
  C    -20.362035   28.219804   47.358664
  C    -19.966645   27.018505   48.242075
  O    -20.332171   25.803524   47.448609
  H    -20.832345   25.443485   45.518706
  H    -19.509168   27.494566   45.471307
  H    -21.149421   28.168775   45.287471
  H    -19.624617   29.027819   47.399631
  H    -21.331674   28.615892   47.673493
  H    -20.515243   26.988056   49.180664
  H    -18.887899   26.952370   48.414869
  C    -23.202152   25.278121   47.093189
  H    -24.100096   25.082350   46.496938
  H    -22.582075   24.370680   47.113445
  O    -22.485251   26.338233   46.404555
  C    -23.650035   25.658572   48.509835
  C    -24.370668   24.504294   49.226685
  C    -23.174260   23.690918   49.810103
  C    -22.159146   24.797036   50.170856
  O    -22.566314   26.011255   49.414538
  H    -24.275155   26.553978   48.437732
  H    -24.984826   24.906517   50.035578
  O    -25.296572   23.741781   48.415082
  H    -23.469923   23.084408   50.670090
  H    -22.774171   23.018474   49.040275
  H    -21.134948   24.542727   49.886168
  H    -22.189899   25.058497   51.233088
  H    -24.811519   23.151310   47.803264

 Multiplicity           Mult            ....    1
 Number of Electrons    NEL             ....  102
 Basis Dimension        Dim             ....  149

ORBITAL ENERGIES
----------------

  NO   OCC          E(Eh)            E(eV)
   0   2.0000     -19.149394      -521.0815
   1   2.0000     -19.139058      -520.8002
   2   2.0000     -19.137075      -520.7463
   3   2.0000     -19.136511      -520.7309
   4   2.0000     -10.271882      -279.5121
   5   2.0000     -10.244340      -278.7627
   6   2.0000     -10.228588      -278.3340
   7   2.0000     -10.228118      -278.3212
   8   2.0000     -10.226936      -278.2891
   9   2.0000     -10.210888      -277.8524
  10   2.0000     -10.194363      -277.4027
  11   2.0000     -10.177348      -276.9397
  12   2.0000     -10.175029      -276.8766
  13   2.0000      -1.045932       -28.4613
  14   2.0000      -1.032630       -28.0993
  15   2.0000      -1.015493       -27.6330
  16   2.0000      -0.987193       -26.8629
  17   2.0000      -0.784251       -21.3405
  18   2.0000      -0.778963       -21.1967
  19   2.0000      -0.762235       -20.7415
  20   2.0000      -0.725681       -19.7468
  21   2.0000      -0.675349       -18.3772
  22   2.0000      -0.610807       -16.6209
  23   2.0000      -0.590299       -16.0628
  24   2.0000      -0.586223       -15.9519
  25   2.0000      -0.570983       -15.5372
  26   2.0000      -0.525069       -14.2879
  27   2.0000      -0.511973       -13.9315
  28   2.0000      -0.491278       -13.3684
  29   2.0000      -0.480829       -13.0840
  30   2.0000      -0.467548       -12.7226
  31   2.0000      -0.453607       -12.3433
  32   2.0000      -0.442310       -12.0359
  33   2.0000      -0.430704       -11.7201
  34   2.0000      -0.420028       -11.4295
  35   2.0000      -0.415067       -11.2945
  36   2.0000      -0.400082       -10.8868
  37   2.0000      -0.392930       -10.6922
  38   2.0000      -0.379151       -10.3172
  39   2.0000      -0.366954        -9.9853
  40   2.0000      -0.349151        -9.5009
  41   2.0000      -0.345796        -9.4096
  42   2.0000      -0.339119        -9.2279
  43   2.0000      -0.330416        -8.9911
  44   2.0000      -0.323339        -8.7985
  45   2.0000      -0.314500        -8.5580
  46   2.0000      -0.292725        -7.9655
  47   2.0000      -0.271282        -7.3820
  48   2.0000      -0.265487        -7.2243
  49   2.0000      -0.251568        -6.8455
  50   2.0000      -0.233001        -6.3403
  51   0.0000       0.052037         1.4160
  52   0.0000       0.079320         2.1584
  53   0.0000       0.092147         2.5075
  54   0.0000       0.103313         2.8113
  55   0.0000       0.106861         2.9078

MULLIKEN ATOMIC CHARGES
-----------------------
   0 C :    0.302606
   1 C :   -0.266407
   2 C :   -0.302591
   3 C :   -0.009919
   4 O :   -0.522254
   5 H :    0.138818
   6 H :    0.141462
   7 H :    0.157607
   8 H :    0.136651
   9 H :    0.165516
  10 H :    0.177963
  11 H :    0.131852
  12 C :   -0.023145
  13 H :    0.150917
  14 H :    0.126411
  15 O :   -0.526239
  16 C :    0.106434
  17 C :    0.078258
  18 C :   -0.324216
  19 C :   -0.011136
  20 O :   -0.517000
  21 H :    0.160156
  22 H :    0.167143
  23 O :   -0.598213
  24 H :    0.157517
  25 H :    0.138652
  26 H :    0.161193
  27 H :    0.146319
  28 H :    0.355645
Sum of atomic charges:    0.0000000

LOEWDIN ATOMIC CHARGES
----------------------
   0 C :    0.176736
   1 C :   -0.215414
   2 C :   -0.215230
   3 C :   -0.034103
   4 O :   -0.329951
   5 H :    0.091108
   6 H :    0.112165
   7 H :    0.124314
   8 H :    0.111573
   9 H :    0.120718
  10 H :    0.120111
  11 H :    0.096672
  12 C :   -0.051652
  13 H :    0.112307
  14 H :    0.094814
  15 O :   -0.328906
  16 C :    0.015221
  17 C :    0.033604
  18 C :   -0.240055
  19 C :   -0.031198
  20 O :   -0.314333
  21 H :    0.116447
  22 H :    0.118924
  23 O :   -0.406380
  24 H :    0.122489
  25 H :    0.106413
  26 H :    0.112022
  27 H :    0.103862
  28 H :    0.277723

  Mayer bond orders larger than 0.100000
B(  0-C ,  1-C ) :   0.9476 B(  0-C ,  4-O ) :   0.9133 B(  0-C ,  5-H ) :   0.9243
B(  0-C , 15-O ) :   0.8523 B(  1-C ,  2-C ) :   0.9582 B(  1-C ,  6-H ) :   0.9397
B(  1-C ,  7-H ) :   0.9364 B(  2-C ,  3-C ) :   0.9637 B(  2-C ,  8-H ) :   0.9452
B(  2-C ,  9-H ) :   0.9424 B(  3-C ,  4-O ) :   0.8184 B(  3-C , 10-H ) :   0.9143
B(  3-C , 11-H ) :   0.9402 B( 12-C , 13-H ) :   0.9180 B( 12-C , 14-H ) :   0.9215
B( 12-C , 15-O ) :   0.8516 B( 12-C , 16-C ) :   0.8917 B( 16-C , 17-C ) :   0.8682
B( 16-C , 20-O ) :   0.8656 B( 16-C , 21-H ) :   0.9322 B( 17-C , 18-C ) :   0.9228
B( 17-C , 22-H ) :   0.9329 B( 17-C , 23-O ) :   0.8985 B( 18-C , 19-C ) :   0.9445
B( 18-C , 24-H ) :   0.9417 B( 18-C , 25-H ) :   0.9401 B( 19-C , 20-O ) :   0.8310
B( 19-C , 26-H ) :   0.9239 B( 19-C , 27-H ) :   0.9374 B( 23-O , 28-H ) :   0.7980

FINAL SINGLE POINT ENERGY      -652.862694548531

DIPOLE MOMENT
-------------
                                X             Y             Z
Electronic contribution:     -3.08062      -1.03451      -1.04777
Nuclear contribution   :      3.64996       0.60387       1.22491
                        -----------------------------------------
Total Dipole Moment    :      0.56934      -0.43064       0.17714
                        -----------------------------------------
Magnitude (a.u.)       :      0.73551
Magnitude (Debye)      :      1.86953

Rotational constants in cm-1:     0.052484     0.017083     0.014699
Rotational constants in MHz :  1573.436437   512.149448   440.663500

                             ****ORCA TERMINATED NORMALLY****
TOTAL RUN TIME: 0 days 2 hours 6 minutes 29 seconds 917 msec
