                         Program Version 4.2.0 -  RELEASE  -
|  1> # Test redundant internal optimization
|  2> #
|  3> ! RKS B3LYP  Opt TightSCF SmallPrint
|  4>
|  5> %basis
|  6>         Basis "6-31G"
|  7> end
|  8>
|  9> %geom
| 10> Constraints
| 11> { D 4  0  15  12  300.0   C } # D for Dihedral angle
| 12> { D 0  15  12  16  105.0   C } # D for Dihedral angle
| 13> { D 0  4  3  2   C } # D for Dihedral angle
| 14> { D 4  3  2  1   C } # D for Dihedral angle
| 15> { D 3  2  1  0   C } # D for Dihedral angle
| 16> { D 2  1  0  4   C } # D for Dihedral angle
| 17> { D 1  0  4  3   C } # D for Dihedral angle
| 18> { D 16  20  19  18   C } # D for Dihedral angle
| 19> { D 20  19  18  17   C } # D for Dihedral angle
| 20> { D 19  18  17  16   C } # D for Dihedral angle
| 21> { D 18  17  16  20   C } # D for Dihedral angle
| 22> { D 17  16  20  19   C } # D for Dihedral angle
| 23> { D 15  12  16  20   C } # D for Dihedral angle
| 24> end
| 25> end
| 26>
| 27>
| 28> #%pal
| 29> #nprocs 8
| 30> #end
| 31>
| 32> * xyz 0 1
| 33> C  -21.048   26.222   46.251
| 34> C  -20.361   27.558   45.944
| 35> C  -20.329   28.222   47.341
| 36> C  -20.110   27.022   48.296
| 37> O  -20.473   25.807   47.535
| 38> H  -20.833   25.428   45.533
| 39> H  -19.344   27.382   45.576
| 40> H  -20.898   28.157   45.201
| 41> H  -19.543   28.978   47.434
| 42> H  -21.289   28.710   47.548
| 43> H  -20.733   27.082   49.195
| 44> H  -19.064   26.913   48.597
| 45> C  -23.362   25.116   46.798
| 46> H  -24.245   25.000   46.157
| 47> H  -22.731   24.226   46.676
| 48> O  -22.586   26.394   46.375
| 49> C  -23.834   25.162   48.277
| 50> C  -24.858   26.281   48.500
| 51> C  -26.151   25.636   47.946
| 52> C  -25.993   24.144   48.331
| 53> O  -24.559   23.935   48.622
| 54> H  -22.960   25.212   48.930
| 55> O  -25.000   26.578   50.018
| 56> H  -24.595   27.214   47.990
| 57> H  -27.060   26.081   48.364
| 58> H  -26.192   25.753   46.857
| 59> H  -26.297   23.469   47.524
| 60> H  -26.547   23.885   49.236
| 61> H  -25.264   25.657   50.551
| 62> *
| 63>
| 64>                          ****END OF INPUT****
 Total Charge           Charge          ....    0
 Multiplicity           Mult            ....    1
 Number of Electrons    NEL             ....  102
FINAL SINGLE POINT ENERGY      -652.842966169312
FINAL SINGLE POINT ENERGY      -652.866365844927
FINAL SINGLE POINT ENERGY      -652.869840637369
FINAL SINGLE POINT ENERGY      -652.870486497608
FINAL SINGLE POINT ENERGY      -652.870577631115
FINAL SINGLE POINT ENERGY      -652.870589107791
FINAL SINGLE POINT ENERGY      -652.870590993963
                    ***********************HURRAY********************

CARTESIAN COORDINATES (ANGSTROEM)
---------------------------------
  C    -21.105355   26.140782   46.288378
  C    -20.518643   27.526456   46.016738
  C    -20.548215   28.161477   47.424916
  C    -20.250217   26.968582   48.359764
  O    -20.521467   25.744658   47.553822
  H    -20.836183   25.354097   45.576273
  H    -19.491281   27.415335   45.652649
  H    -21.101230   28.082319   45.279333
  H    -19.817206   28.967890   47.538178
  H    -21.543846   28.567804   47.624560
  H    -20.883981   26.952933   49.249839
  H    -19.200367   26.913258   48.661115
  C    -23.274876   25.067717   46.734956
  H    -24.115493   24.982501   46.038251
  H    -22.643834   24.177377   46.638572
  O    -22.539998   26.275052   46.357746
  C    -23.759520   25.181399   48.180212
  C    -24.746279   26.326898   48.447913
  C    -26.079512   25.711826   47.952467
  C    -25.942877   24.215718   48.331030
  O    -24.497251   23.970284   48.558957
  H    -22.889926   25.244858   48.838958
  O    -24.789351   26.653000   49.865646
  H    -24.474660   27.250523   47.939093
  H    -26.932041   26.196570   48.434136
  H    -26.178018   25.842776   46.869195
  H    -26.298996   23.542553   47.544952
  H    -26.462855   23.969017   49.262163
  H    -24.815522   25.820338   50.383191

 Multiplicity           Mult            ....    1
 Number of Electrons    NEL             ....  102
 Basis Dimension        Dim             ....  149

ORBITAL ENERGIES
----------------

  NO   OCC          E(Eh)            E(eV)
   0   2.0000     -19.147712      -521.0357
   1   2.0000     -19.143073      -520.9095
   2   2.0000     -19.141633      -520.8703
   3   2.0000     -19.133970      -520.6618
   4   2.0000     -10.280249      -279.7398
   5   2.0000     -10.234010      -278.4816
   6   2.0000     -10.229660      -278.3632
   7   2.0000     -10.228127      -278.3215
   8   2.0000     -10.226791      -278.2851
   9   2.0000     -10.225683      -278.2550
  10   2.0000     -10.186304      -277.1834
  11   2.0000     -10.185982      -277.1747
  12   2.0000     -10.185383      -277.1584
  13   2.0000      -1.056256       -28.7422
  14   2.0000      -1.033015       -28.1098
  15   2.0000      -1.002327       -27.2747
  16   2.0000      -0.995047       -27.0766
  17   2.0000      -0.790830       -21.5196
  18   2.0000      -0.776736       -21.1360
  19   2.0000      -0.764244       -20.7961
  20   2.0000      -0.729355       -19.8468
  21   2.0000      -0.672656       -18.3039
  22   2.0000      -0.601582       -16.3699
  23   2.0000      -0.598929       -16.2977
  24   2.0000      -0.593894       -16.1607
  25   2.0000      -0.578821       -15.7505
  26   2.0000      -0.521265       -14.1843
  27   2.0000      -0.514043       -13.9878
  28   2.0000      -0.494121       -13.4457
  29   2.0000      -0.487660       -13.2699
  30   2.0000      -0.470421       -12.8008
  31   2.0000      -0.457799       -12.4573
  32   2.0000      -0.449817       -12.2401
  33   2.0000      -0.435771       -11.8579
  34   2.0000      -0.419630       -11.4187
  35   2.0000      -0.411559       -11.1991
  36   2.0000      -0.401865       -10.9353
  37   2.0000      -0.390856       -10.6357
  38   2.0000      -0.373090       -10.1523
  39   2.0000      -0.364814        -9.9271
  40   2.0000      -0.357871        -9.7382
  41   2.0000      -0.355867        -9.6836
  42   2.0000      -0.348050        -9.4709
  43   2.0000      -0.331845        -9.0300
  44   2.0000      -0.327382        -8.9085
  45   2.0000      -0.305907        -8.3242
  46   2.0000      -0.299354        -8.1458
  47   2.0000      -0.280132        -7.6228
  48   2.0000      -0.265455        -7.2234
  49   2.0000      -0.256491        -6.9795
  50   2.0000      -0.240026        -6.5314
  51   0.0000       0.066438         1.8079
  52   0.0000       0.080072         2.1789
  53   0.0000       0.095240         2.5916
  54   0.0000       0.100769         2.7421
  55   0.0000       0.106141         2.8882

MULLIKEN ATOMIC CHARGES
-----------------------
   0 C :    0.282611
   1 C :   -0.262459
   2 C :   -0.299627
   3 C :   -0.012419
   4 O :   -0.512556
   5 H :    0.148211
   6 H :    0.146727
   7 H :    0.158280
   8 H :    0.142722
   9 H :    0.164763
  10 H :    0.154533
  11 H :    0.145388
  12 C :   -0.021677
  13 H :    0.140688
  14 H :    0.158092
  15 O :   -0.523744
  16 C :    0.059763
  17 C :    0.090217
  18 C :   -0.301867
  19 C :   -0.030619
  20 O :   -0.526926
  21 H :    0.175002
  22 O :   -0.606055
  23 H :    0.169946
  24 H :    0.159604
  25 H :    0.147101
  26 H :    0.146672
  27 H :    0.145335
  28 H :    0.362297
Sum of atomic charges:   -0.0000000

LOEWDIN ATOMIC CHARGES
----------------------
   0 C :    0.172219
   1 C :   -0.214600
   2 C :   -0.215735
   3 C :   -0.030350
   4 O :   -0.331978
   5 H :    0.097396
   6 H :    0.115228
   7 H :    0.125002
   8 H :    0.114491
   9 H :    0.119705
  10 H :    0.107572
  11 H :    0.104366
  12 C :   -0.040901
  13 H :    0.103789
  14 H :    0.114647
  15 O :   -0.330440
  16 C :    0.009106
  17 C :    0.036594
  18 C :   -0.242280
  19 C :   -0.038887
  20 O :   -0.331069
  21 H :    0.121900
  22 O :   -0.416971
  23 H :    0.123881
  24 H :    0.125830
  25 H :    0.114555
  26 H :    0.103748
  27 H :    0.101860
  28 H :    0.281323

  Mayer bond orders larger than 0.100000
B(  0-C ,  1-C ) :   0.9507 B(  0-C ,  4-O ) :   0.9010 B(  0-C ,  5-H ) :   0.9202
B(  0-C , 15-O ) :   0.8613 B(  1-C ,  2-C ) :   0.9555 B(  1-C ,  6-H ) :   0.9397
B(  1-C ,  7-H ) :   0.9360 B(  2-C ,  3-C ) :   0.9554 B(  2-C ,  8-H ) :   0.9450
B(  2-C ,  9-H ) :   0.9434 B(  3-C ,  4-O ) :   0.8326 B(  3-C , 10-H ) :   0.9320
B(  3-C , 11-H ) :   0.9409 B( 12-C , 13-H ) :   0.9371 B( 12-C , 14-H ) :   0.9193
B( 12-C , 15-O ) :   0.8259 B( 12-C , 16-C ) :   0.8915 B( 16-C , 17-C ) :   0.9131
B( 16-C , 20-O ) :   0.8387 B( 16-C , 21-H ) :   0.9184 B( 17-C , 18-C ) :   0.9123
B( 17-C , 22-O ) :   0.8886 B( 17-C , 23-H ) :   0.9254 B( 18-C , 19-C ) :   0.9422
B( 18-C , 24-H ) :   0.9384 B( 18-C , 25-H ) :   0.9345 B( 19-C , 20-O ) :   0.8448
B( 19-C , 26-H ) :   0.9351 B( 19-C , 27-H ) :   0.9382 B( 22-O , 28-H ) :   0.7966

FINAL SINGLE POINT ENERGY      -652.870590873428

DIPOLE MOMENT
-------------
                                X             Y             Z
Electronic contribution:     -0.04748      -2.98731       1.26310
Nuclear contribution   :     -0.03437       3.27985      -1.87296
                        -----------------------------------------
Total Dipole Moment    :     -0.08185       0.29254      -0.60986
                        -----------------------------------------
Magnitude (a.u.)       :      0.68132
Magnitude (Debye)      :      1.73179

Rotational constants in cm-1:     0.052341     0.014662     0.013722
Rotational constants in MHz :  1569.134818   439.558444   411.372075

                             ****ORCA TERMINATED NORMALLY****
TOTAL RUN TIME: 0 days 0 hours 27 minutes 56 seconds 732 msec
