                         Program Version 4.2.0 -  RELEASE  -
|  1> # Test redundant internal optimization
|  2> #
|  3> ! RKS B3LYP  Opt TightSCF SmallPrint
|  4>
|  5> %basis
|  6>         Basis "6-31G"
|  7> end
|  8>
|  9> %geom
| 10> Constraints
| 11> { D 4  0  15  12  345.0   C } # D for Dihedral angle
| 12> { D 0  15  12  16  195.0   C } # D for Dihedral angle
| 13> { D 0  4  3  2   C } # D for Dihedral angle
| 14> { D 4  3  2  1   C } # D for Dihedral angle
| 15> { D 3  2  1  0   C } # D for Dihedral angle
| 16> { D 2  1  0  4   C } # D for Dihedral angle
| 17> { D 1  0  4  3   C } # D for Dihedral angle
| 18> { D 16  20  19  18   C } # D for Dihedral angle
| 19> { D 20  19  18  17   C } # D for Dihedral angle
| 20> { D 19  18  17  16   C } # D for Dihedral angle
| 21> { D 18  17  16  20   C } # D for Dihedral angle
| 22> { D 17  16  20  19   C } # D for Dihedral angle
| 23> { D 15  12  16  20   C } # D for Dihedral angle
| 24> end
| 25> end
| 26>
| 27>
| 28> #%pal
| 29> #nprocs 8
| 30> #end
| 31>
| 32> * xyz 0 1
| 33> C  -21.048   26.222   46.251
| 34> C  -20.361   27.558   45.944
| 35> C  -20.329   28.222   47.341
| 36> C  -20.110   27.022   48.296
| 37> O  -20.473   25.807   47.535
| 38> H  -20.833   25.428   45.533
| 39> H  -19.344   27.382   45.576
| 40> H  -20.898   28.157   45.201
| 41> H  -19.543   28.978   47.434
| 42> H  -21.289   28.710   47.548
| 43> H  -20.733   27.082   49.195
| 44> H  -19.064   26.913   48.597
| 45> C  -23.221   25.764   47.645
| 46> H  -22.801   24.763   47.801
| 47> H  -22.994   26.373   48.530
| 48> O  -22.586   26.394   46.375
| 49> C  -24.766   25.635   47.544
| 50> C  -25.418   26.988   47.235
| 51> C  -25.175   27.113   45.712
| 52> C  -25.294   25.650   45.215
| 53> O  -25.136   24.787   46.406
| 54> H  -25.144   25.146   48.443
| 55> H  -26.491   26.945   47.452
| 56> O  -24.801   28.162   48.041
| 57> H  -25.890   27.780   45.220
| 58> H  -24.167   27.503   45.522
| 59> H  -24.525   25.392   44.479
| 60> H  -26.278   25.433   44.789
| 61> H  -23.726   28.223   47.839
| 62> *
| 63>
| 64>                          ****END OF INPUT****
 Total Charge           Charge          ....    0
 Multiplicity           Mult            ....    1
 Number of Electrons    NEL             ....  102
FINAL SINGLE POINT ENERGY      -652.834328279044
FINAL SINGLE POINT ENERGY      -652.856953826010
FINAL SINGLE POINT ENERGY      -652.861476915457
FINAL SINGLE POINT ENERGY      -652.862764562970
FINAL SINGLE POINT ENERGY      -652.862894546658
FINAL SINGLE POINT ENERGY      -652.862914868620
                    ***********************HURRAY********************

CARTESIAN COORDINATES (ANGSTROEM)
---------------------------------
  C    -21.066025   26.170882   46.345821
  C    -20.449498   27.523205   45.989457
  C    -20.344778   28.198394   47.376075
  C    -20.021248   27.018928   48.319501
  O    -20.403429   25.788545   47.569198
  H    -20.876785   25.363995   45.633459
  H    -19.456699   27.361724   45.554453
  H    -21.060661   28.083891   45.278789
  H    -19.577168   28.977455   47.408301
  H    -21.302069   28.658842   47.642859
  H    -20.580835   27.045644   49.258169
  H    -18.953837   26.928891   48.538718
  C    -23.145091   25.753002   47.670681
  H    -22.750138   24.750796   47.863076
  H    -22.940548   26.378095   48.549435
  O    -22.513247   26.316257   46.478346
  C    -24.654656   25.663421   47.472485
  C    -25.371011   26.999695   47.211444
  C    -25.212928   27.154841   45.667889
  C    -25.307720   25.695925   45.171904
  O    -25.055224   24.827921   46.349623
  H    -25.053157   25.177657   48.371736
  H    -26.421738   26.923069   47.498241
  O    -24.851738   28.115447   47.978611
  H    -25.985021   27.799276   45.237612
  H    -24.227497   27.573551   45.452920
  H    -24.566362   25.464955   44.402204
  H    -26.305741   25.442499   44.800627
  H    -23.983152   28.375195   47.607365

 Multiplicity           Mult            ....    1
 Number of Electrons    NEL             ....  102
 Basis Dimension        Dim             ....  149

ORBITAL ENERGIES
----------------

  NO   OCC          E(Eh)            E(eV)
   0   2.0000     -19.155312      -521.2425
   1   2.0000     -19.147042      -521.0175
   2   2.0000     -19.138811      -520.7935
   3   2.0000     -19.129851      -520.5497
   4   2.0000     -10.285589      -279.8851
   5   2.0000     -10.237591      -278.5790
   6   2.0000     -10.233516      -278.4681
   7   2.0000     -10.226639      -278.2810
   8   2.0000     -10.225899      -278.2608
   9   2.0000     -10.218259      -278.0530
  10   2.0000     -10.198967      -277.5280
  11   2.0000     -10.194343      -277.4022
  12   2.0000     -10.176484      -276.9162
  13   2.0000      -1.061359       -28.8810
  14   2.0000      -1.025133       -27.8953
  15   2.0000      -1.007348       -27.4113
  16   2.0000      -0.995262       -27.0824
  17   2.0000      -0.798717       -21.7342
  18   2.0000      -0.771878       -21.0039
  19   2.0000      -0.763833       -20.7850
  20   2.0000      -0.736113       -20.0306
  21   2.0000      -0.674676       -18.3589
  22   2.0000      -0.610906       -16.6236
  23   2.0000      -0.599684       -16.3182
  24   2.0000      -0.597709       -16.2645
  25   2.0000      -0.562834       -15.3155
  26   2.0000      -0.526846       -14.3362
  27   2.0000      -0.514776       -14.0078
  28   2.0000      -0.500264       -13.6129
  29   2.0000      -0.490774       -13.3546
  30   2.0000      -0.468852       -12.7581
  31   2.0000      -0.455921       -12.4062
  32   2.0000      -0.447650       -12.1812
  33   2.0000      -0.423820       -11.5327
  34   2.0000      -0.422957       -11.5092
  35   2.0000      -0.418734       -11.3943
  36   2.0000      -0.399032       -10.8582
  37   2.0000      -0.398392       -10.8408
  38   2.0000      -0.381819       -10.3898
  39   2.0000      -0.370317       -10.0768
  40   2.0000      -0.366853        -9.9826
  41   2.0000      -0.358305        -9.7500
  42   2.0000      -0.351742        -9.5714
  43   2.0000      -0.335571        -9.1314
  44   2.0000      -0.321601        -8.7512
  45   2.0000      -0.308809        -8.4031
  46   2.0000      -0.304981        -8.2990
  47   2.0000      -0.269721        -7.3395
  48   2.0000      -0.262748        -7.1497
  49   2.0000      -0.255633        -6.9561
  50   2.0000      -0.235909        -6.4194
  51   0.0000       0.042748         1.1632
  52   0.0000       0.082487         2.2446
  53   0.0000       0.092383         2.5139
  54   0.0000       0.097482         2.6526
  55   0.0000       0.104799         2.8517

MULLIKEN ATOMIC CHARGES
-----------------------
   0 C :    0.305961
   1 C :   -0.260994
   2 C :   -0.306156
   3 C :   -0.016546
   4 O :   -0.508743
   5 H :    0.160592
   6 H :    0.149436
   7 H :    0.156140
   8 H :    0.152022
   9 H :    0.145200
  10 H :    0.151140
  11 H :    0.153576
  12 C :   -0.004844
  13 H :    0.164356
  14 H :    0.130654
  15 O :   -0.556968
  16 C :    0.089330
  17 C :    0.082829
  18 C :   -0.309957
  19 C :    0.002642
  20 O :   -0.522234
  21 H :    0.146978
  22 H :    0.159651
  23 O :   -0.610110
  24 H :    0.142131
  25 H :    0.160701
  26 H :    0.145155
  27 H :    0.135969
  28 H :    0.362090
Sum of atomic charges:   -0.0000000

LOEWDIN ATOMIC CHARGES
----------------------
   0 C :    0.182298
   1 C :   -0.218558
   2 C :   -0.217692
   3 C :   -0.031561
   4 O :   -0.316670
   5 H :    0.106132
   6 H :    0.116575
   7 H :    0.122842
   8 H :    0.119516
   9 H :    0.108311
  10 H :    0.105693
  11 H :    0.108702
  12 C :   -0.043254
  13 H :    0.115979
  14 H :    0.096080
  15 O :   -0.351550
  16 C :    0.019408
  17 C :    0.037287
  18 C :   -0.242330
  19 C :   -0.023395
  20 O :   -0.322730
  21 H :    0.113567
  22 H :    0.115153
  23 O :   -0.413519
  24 H :    0.113822
  25 H :    0.119470
  26 H :    0.104406
  27 H :    0.098748
  28 H :    0.277267

  Mayer bond orders larger than 0.100000
B(  0-C ,  1-C ) :   0.9394 B(  0-C ,  4-O ) :   0.9117 B(  0-C ,  5-H ) :   0.9258
B(  0-C , 15-O ) :   0.8293 B(  1-C ,  2-C ) :   0.9515 B(  1-C ,  6-H ) :   0.9353
B(  1-C ,  7-H ) :   0.9365 B(  2-C ,  3-C ) :   0.9537 B(  2-C ,  8-H ) :   0.9440
B(  2-C ,  9-H ) :   0.9448 B(  3-C ,  4-O ) :   0.8301 B(  3-C , 10-H ) :   0.9318
B(  3-C , 11-H ) :   0.9397 B( 12-C , 13-H ) :   0.9205 B( 12-C , 14-H ) :   0.9056
B( 12-C , 15-O ) :   0.8152 B( 12-C , 16-C ) :   0.9141 B( 16-C , 17-C ) :   0.8832
B( 16-C , 20-O ) :   0.8797 B( 16-C , 21-H ) :   0.9295 B( 17-C , 18-C ) :   0.9337
B( 17-C , 22-H ) :   0.9370 B( 17-C , 23-O ) :   0.8991 B( 18-C , 19-C ) :   0.9451
B( 18-C , 24-H ) :   0.9416 B( 18-C , 25-H ) :   0.9270 B( 19-C , 20-O ) :   0.8390
B( 19-C , 26-H ) :   0.9330 B( 19-C , 27-H ) :   0.9383 B( 23-O , 28-H ) :   0.7894

FINAL SINGLE POINT ENERGY      -652.862915304844

DIPOLE MOMENT
-------------
                                X             Y             Z
Electronic contribution:     -2.14610      -4.04313       0.89935
Nuclear contribution   :      3.06492       4.99805      -1.25752
                        -----------------------------------------
Total Dipole Moment    :      0.91881       0.95492      -0.35817
                        -----------------------------------------
Magnitude (a.u.)       :      1.37272
Magnitude (Debye)      :      3.48918

Rotational constants in cm-1:     0.047952     0.016079     0.015174
Rotational constants in MHz :  1437.558560   482.037716   454.891266

                             ****ORCA TERMINATED NORMALLY****
TOTAL RUN TIME: 0 days 0 hours 18 minutes 58 seconds 1 msec
