                         Program Version 4.2.0 -  RELEASE  -
|  1> # Test redundant internal optimization
|  2> #
|  3> ! RKS B3LYP  Opt TightSCF SmallPrint
|  4>
|  5> %basis
|  6>         Basis "6-31G"
|  7> end
|  8>
|  9> %geom
| 10> Constraints
| 11> { D 4  0  15  12  0.0   C } # D for Dihedral angle
| 12> { D 0  15  12  16  75.0   C } # D for Dihedral angle
| 13> { D 0  4  3  2   C } # D for Dihedral angle
| 14> { D 4  3  2  1   C } # D for Dihedral angle
| 15> { D 3  2  1  0   C } # D for Dihedral angle
| 16> { D 2  1  0  4   C } # D for Dihedral angle
| 17> { D 1  0  4  3   C } # D for Dihedral angle
| 18> { D 16  20  19  18   C } # D for Dihedral angle
| 19> { D 20  19  18  17   C } # D for Dihedral angle
| 20> { D 19  18  17  16   C } # D for Dihedral angle
| 21> { D 18  17  16  20   C } # D for Dihedral angle
| 22> { D 17  16  20  19   C } # D for Dihedral angle
| 23> { D 15  12  16  20   C } # D for Dihedral angle
| 24> end
| 25> end
| 26>
| 27>
| 28> #%pal
| 29> #nprocs 8
| 30> #end
| 31>
| 32> * xyz 0 1
| 33> C  -21.048   26.222   46.251
| 34> C  -20.361   27.558   45.944
| 35> C  -20.329   28.222   47.341
| 36> C  -20.110   27.022   48.296
| 37> O  -20.473   25.807   47.535
| 38> H  -20.833   25.428   45.533
| 39> H  -19.344   27.382   45.576
| 40> H  -20.898   28.157   45.201
| 41> H  -19.543   28.978   47.434
| 42> H  -21.289   28.710   47.548
| 43> H  -20.733   27.082   49.195
| 44> H  -19.064   26.913   48.597
| 45> C  -23.172   26.101   47.783
| 46> H  -24.259   25.978   47.705
| 47> H  -22.750   25.172   48.189
| 48> O  -22.586   26.394   46.375
| 49> C  -22.882   27.237   48.803
| 50> C  -23.581   28.539   48.399
| 51> C  -25.031   28.276   48.872
| 52> C  -24.834   27.441   50.162
| 53> O  -23.456   26.909   50.112
| 54> H  -21.803   27.327   48.941
| 55> O  -22.962   29.737   49.170
| 56> H  -23.515   28.749   47.326
| 57> H  -25.593   29.197   49.052
| 58> H  -25.573   27.696   48.115
| 59> H  -25.539   26.606   50.233
| 60> H  -24.913   28.048   51.068
| 61> H  -23.018   29.550   50.249
| 62> *
| 63>
| 64>                          ****END OF INPUT****
 Total Charge           Charge          ....    0
 Multiplicity           Mult            ....    1
 Number of Electrons    NEL             ....  102
FINAL SINGLE POINT ENERGY      -652.797615482887
FINAL SINGLE POINT ENERGY      -652.834206427894
FINAL SINGLE POINT ENERGY      -652.853755097591
FINAL SINGLE POINT ENERGY      -652.857101678578
FINAL SINGLE POINT ENERGY      -652.857543371752
FINAL SINGLE POINT ENERGY      -652.857622587296
FINAL SINGLE POINT ENERGY      -652.857625010269
FINAL SINGLE POINT ENERGY      -652.857626264402
                    ***********************HURRAY********************

CARTESIAN COORDINATES (ANGSTROEM)
---------------------------------
  C    -21.080880   26.244216   46.411046
  C    -20.447297   27.547264   45.912657
  C    -20.090875   28.261999   47.244756
  C    -19.696233   27.086796   48.169985
  O    -20.260801   25.863381   47.532176
  H    -20.971587   25.424231   45.694387
  H    -19.542958   27.300325   45.345746
  H    -21.123496   28.123554   45.277544
  H    -19.269702   28.975629   47.125438
  H    -20.949841   28.811385   47.641319
  H    -20.073813   27.174708   49.191223
  H    -18.613687   26.931800   48.211804
  C    -23.194925   26.091803   47.877259
  H    -24.244463   25.974558   47.595138
  H    -22.846817   25.150306   48.317811
  O    -22.523174   26.348450   46.611589
  C    -23.034371   27.194927   48.923604
  C    -23.635864   28.549215   48.524153
  C    -25.138258   28.328073   48.836196
  C    -25.110505   27.419557   50.091545
  O    -23.751264   26.824932   50.150542
  H    -21.990488   27.296097   49.211784
  O    -23.053475   29.632386   49.302835
  H    -23.448805   28.804838   47.482175
  H    -25.642493   29.281903   49.011062
  H    -25.628278   27.831332   47.992513
  H    -25.850304   26.614231   50.052322
  H    -25.255769   27.981534   51.019402
  H    -23.021577   29.368572   50.246990

 Multiplicity           Mult            ....    1
 Number of Electrons    NEL             ....  102
 Basis Dimension        Dim             ....  149

ORBITAL ENERGIES
----------------

  NO   OCC          E(Eh)            E(eV)
   0   2.0000     -19.151187      -521.1303
   1   2.0000     -19.146448      -521.0013
   2   2.0000     -19.143162      -520.9119
   3   2.0000     -19.139919      -520.8237
   4   2.0000     -10.278718      -279.6981
   5   2.0000     -10.239928      -278.6426
   6   2.0000     -10.233422      -278.4656
   7   2.0000     -10.231455      -278.4120
   8   2.0000     -10.231270      -278.4070
   9   2.0000     -10.229148      -278.3493
  10   2.0000     -10.190573      -277.2996
  11   2.0000     -10.187714      -277.2218
  12   2.0000     -10.185811      -277.1700
  13   2.0000      -1.051689       -28.6179
  14   2.0000      -1.038473       -28.2583
  15   2.0000      -1.009292       -27.4642
  16   2.0000      -0.994789       -27.0696
  17   2.0000      -0.788522       -21.4568
  18   2.0000      -0.782680       -21.2978
  19   2.0000      -0.770220       -20.9587
  20   2.0000      -0.733772       -19.9669
  21   2.0000      -0.676570       -18.4104
  22   2.0000      -0.608559       -16.5597
  23   2.0000      -0.604816       -16.4579
  24   2.0000      -0.600864       -16.3503
  25   2.0000      -0.570799       -15.5322
  26   2.0000      -0.527820       -14.3627
  27   2.0000      -0.508392       -13.8341
  28   2.0000      -0.497632       -13.5412
  29   2.0000      -0.489177       -13.3112
  30   2.0000      -0.478252       -13.0139
  31   2.0000      -0.462695       -12.5906
  32   2.0000      -0.452914       -12.3244
  33   2.0000      -0.433860       -11.8059
  34   2.0000      -0.420728       -11.4486
  35   2.0000      -0.414384       -11.2759
  36   2.0000      -0.404565       -11.0088
  37   2.0000      -0.396578       -10.7914
  38   2.0000      -0.375372       -10.2144
  39   2.0000      -0.368715       -10.0332
  40   2.0000      -0.361738        -9.8434
  41   2.0000      -0.358906        -9.7663
  42   2.0000      -0.347322        -9.4511
  43   2.0000      -0.334457        -9.1010
  44   2.0000      -0.328939        -8.9509
  45   2.0000      -0.312358        -8.4997
  46   2.0000      -0.305848        -8.3226
  47   2.0000      -0.273944        -7.4544
  48   2.0000      -0.266830        -7.2608
  49   2.0000      -0.261627        -7.1192
  50   2.0000      -0.237333        -6.4581
  51   0.0000       0.059736         1.6255
  52   0.0000       0.078262         2.1296
  53   0.0000       0.087638         2.3848
  54   0.0000       0.093198         2.5361
  55   0.0000       0.103244         2.8094

MULLIKEN ATOMIC CHARGES
-----------------------
   0 C :    0.314014
   1 C :   -0.266535
   2 C :   -0.328868
   3 C :   -0.027424
   4 O :   -0.514313
   5 H :    0.157548
   6 H :    0.148951
   7 H :    0.157304
   8 H :    0.148736
   9 H :    0.181282
  10 H :    0.153260
  11 H :    0.152266
  12 C :    0.001139
  13 H :    0.145729
  14 H :    0.159646
  15 O :   -0.548050
  16 C :    0.033822
  17 C :    0.098204
  18 C :   -0.309670
  19 C :   -0.026411
  20 O :   -0.526186
  21 H :    0.165701
  22 O :   -0.610932
  23 H :    0.166868
  24 H :    0.163890
  25 H :    0.153563
  26 H :    0.149817
  27 H :    0.143425
  28 H :    0.363224
Sum of atomic charges:    0.0000000

LOEWDIN ATOMIC CHARGES
----------------------
   0 C :    0.182371
   1 C :   -0.220433
   2 C :   -0.226120
   3 C :   -0.035990
   4 O :   -0.318071
   5 H :    0.102740
   6 H :    0.116458
   7 H :    0.124056
   8 H :    0.118568
   9 H :    0.123790
  10 H :    0.102440
  11 H :    0.107064
  12 C :   -0.033032
  13 H :    0.110257
  14 H :    0.113073
  15 O :   -0.345055
  16 C :   -0.000747
  17 C :    0.032995
  18 C :   -0.241457
  19 C :   -0.037698
  20 O :   -0.328208
  21 H :    0.114311
  22 O :   -0.417253
  23 H :    0.121242
  24 H :    0.127349
  25 H :    0.117800
  26 H :    0.105565
  27 H :    0.101610
  28 H :    0.282375

  Mayer bond orders larger than 0.100000
B(  0-C ,  1-C ) :   0.9270 B(  0-C ,  4-O ) :   0.9130 B(  0-C ,  5-H ) :   0.9328
B(  0-C , 15-O ) :   0.8430 B(  1-C ,  2-C ) :   0.9532 B(  1-C ,  6-H ) :   0.9358
B(  1-C ,  7-H ) :   0.9366 B(  2-C ,  3-C ) :   0.9518 B(  2-C ,  8-H ) :   0.9446
B(  2-C ,  9-H ) :   0.9255 B(  3-C ,  4-O ) :   0.8285 B(  3-C , 10-H ) :   0.9177
B(  3-C , 11-H ) :   0.9384 B( 12-C , 13-H ) :   0.9398 B( 12-C , 14-H ) :   0.9194
B( 12-C , 15-O ) :   0.8349 B( 12-C , 16-C ) :   0.8819 B( 16-C , 17-C ) :   0.9080
B( 16-C , 20-O ) :   0.8355 B( 16-C , 21-H ) :   0.9092 B( 17-C , 18-C ) :   0.9172
B( 17-C , 22-O ) :   0.8668 B( 17-C , 23-H ) :   0.9241 B( 18-C , 19-C ) :   0.9416
B( 18-C , 24-H ) :   0.9366 B( 18-C , 25-H ) :   0.9335 B( 19-C , 20-O ) :   0.8447
B( 19-C , 26-H ) :   0.9348 B( 19-C , 27-H ) :   0.9385 B( 22-O , 28-H ) :   0.7968

FINAL SINGLE POINT ENERGY      -652.857626812117

DIPOLE MOMENT
-------------
                                X             Y             Z
Electronic contribution:      0.01369      -2.84810       0.78090
Nuclear contribution   :     -0.24205       3.32752      -0.79903
                        -----------------------------------------
Total Dipole Moment    :     -0.22836       0.47942      -0.01814
                        -----------------------------------------
Magnitude (a.u.)       :      0.53134
Magnitude (Debye)      :      1.35056

Rotational constants in cm-1:     0.047267     0.017064     0.015728
Rotational constants in MHz :  1417.028434   511.559531   471.515161

                             ****ORCA TERMINATED NORMALLY****
TOTAL RUN TIME: 0 days 1 hours 8 minutes 57 seconds 627 msec
