                         Program Version 4.2.0 -  RELEASE  -
|  1> # Test redundant internal optimization
|  2> #
|  3> ! RKS B3LYP  Opt TightSCF SmallPrint
|  4>
|  5> %basis
|  6>         Basis "6-31G"
|  7> end
|  8>
|  9> %geom
| 10> Constraints
| 11> { D 4  0  15  12  285.0   C } # D for Dihedral angle
| 12> { D 0  15  12  16  75.0   C } # D for Dihedral angle
| 13> { D 0  4  3  2   C } # D for Dihedral angle
| 14> { D 4  3  2  1   C } # D for Dihedral angle
| 15> { D 3  2  1  0   C } # D for Dihedral angle
| 16> { D 2  1  0  4   C } # D for Dihedral angle
| 17> { D 1  0  4  3   C } # D for Dihedral angle
| 18> { D 16  20  19  18   C } # D for Dihedral angle
| 19> { D 20  19  18  17   C } # D for Dihedral angle
| 20> { D 19  18  17  16   C } # D for Dihedral angle
| 21> { D 18  17  16  20   C } # D for Dihedral angle
| 22> { D 17  16  20  19   C } # D for Dihedral angle
| 23> { D 15  12  16  20   C } # D for Dihedral angle
| 24> end
| 25> end
| 26>
| 27>
| 28> #%pal
| 29> #nprocs 8
| 30> #end
| 31>
| 32> * xyz 0 1
| 33> C  -21.048   26.222   46.251
| 34> C  -20.361   27.558   45.944
| 35> C  -20.329   28.222   47.341
| 36> C  -20.110   27.022   48.296
| 37> O  -20.473   25.807   47.535
| 38> H  -20.833   25.428   45.533
| 39> H  -19.344   27.382   45.576
| 40> H  -20.898   28.157   45.201
| 41> H  -19.543   28.978   47.434
| 42> H  -21.289   28.710   47.548
| 43> H  -20.733   27.082   49.195
| 44> H  -19.064   26.913   48.597
| 45> C  -23.396   25.070   46.435
| 46> H  -24.455   25.284   46.243
| 47> H  -23.043   24.369   45.668
| 48> O  -22.586   26.394   46.375
| 49> C  -23.283   24.359   47.812
| 50> C  -23.912   25.203   48.927
| 51> C  -25.419   24.913   48.728
| 52> C  -25.435   23.432   48.273
| 53> O  -24.065   23.118   47.814
| 54> H  -22.242   24.082   47.988
| 55> H  -23.576   24.843   49.906
| 56> O  -23.569   26.714   48.817
| 57> H  -26.006   25.077   49.636
| 58> H  -25.826   25.563   47.943
| 59> H  -26.138   23.252   47.453
| 60> H  -25.665   22.746   49.093
| 61> H  -23.897   27.095   47.844
| 62> *
| 63>
| 64>                          ****END OF INPUT****
 Total Charge           Charge          ....    0
 Multiplicity           Mult            ....    1
 Number of Electrons    NEL             ....  102
FINAL SINGLE POINT ENERGY      -652.838998344719
FINAL SINGLE POINT ENERGY      -652.864791307373
FINAL SINGLE POINT ENERGY      -652.870749474005
FINAL SINGLE POINT ENERGY      -652.872746681553
FINAL SINGLE POINT ENERGY      -652.873600858497
FINAL SINGLE POINT ENERGY      -652.873938335395
FINAL SINGLE POINT ENERGY      -652.873996444938
FINAL SINGLE POINT ENERGY      -652.874004733301
                    ***********************HURRAY********************

CARTESIAN COORDINATES (ANGSTROEM)
---------------------------------
  C    -21.073860   26.145798   46.263532
  C    -20.477224   27.519538   45.955619
  C    -20.505012   28.195481   47.346433
  C    -20.216841   27.026077   48.314405
  O    -20.497577   25.783397   47.535018
  H    -20.828342   25.341794   45.563245
  H    -19.448945   27.390161   45.600586
  H    -21.051119   28.057814   45.198723
  H    -19.765226   28.996750   47.436318
  H    -21.493025   28.624387   47.537862
  H    -20.867837   27.028731   49.190079
  H    -19.168538   26.969617   48.618376
  C    -23.307240   25.057259   46.405657
  H    -24.324034   25.359969   46.143620
  H    -22.949622   24.343492   45.652754
  O    -22.517273   26.298265   46.329851
  C    -23.250152   24.399059   47.794394
  C    -23.866884   25.243279   48.923622
  C    -25.388414   24.992190   48.710743
  C    -25.437749   23.524882   48.233500
  O    -24.059942   23.181478   47.772303
  H    -22.225828   24.100014   48.018891
  H    -23.554684   24.836446   49.889890
  O    -23.499093   26.642293   48.926549
  H    -25.961022   25.158850   49.626985
  H    -25.763616   25.686934   47.951180
  H    -26.137547   23.361430   47.407423
  H    -25.678523   22.827940   49.041554
  H    -23.222828   26.901674   48.016888

 Multiplicity           Mult            ....    1
 Number of Electrons    NEL             ....  102
 Basis Dimension        Dim             ....  149

ORBITAL ENERGIES
----------------

  NO   OCC          E(Eh)            E(eV)
   0   2.0000     -19.164736      -521.4990
   1   2.0000     -19.148677      -521.0620
   2   2.0000     -19.137151      -520.7483
   3   2.0000     -19.122016      -520.3365
   4   2.0000     -10.289209      -279.9836
   5   2.0000     -10.236712      -278.5551
   6   2.0000     -10.230668      -278.3906
   7   2.0000     -10.226099      -278.2663
   8   2.0000     -10.225660      -278.2543
   9   2.0000     -10.225557      -278.2515
  10   2.0000     -10.192012      -277.3387
  11   2.0000     -10.189734      -277.2768
  12   2.0000     -10.179969      -277.0110
  13   2.0000      -1.065185       -28.9851
  14   2.0000      -1.022580       -27.8258
  15   2.0000      -1.004877       -27.3441
  16   2.0000      -0.996988       -27.1294
  17   2.0000      -0.794723       -21.6255
  18   2.0000      -0.770386       -20.9633
  19   2.0000      -0.763781       -20.7835
  20   2.0000      -0.734267       -19.9804
  21   2.0000      -0.677473       -18.4350
  22   2.0000      -0.604027       -16.4364
  23   2.0000      -0.598791       -16.2939
  24   2.0000      -0.594950       -16.1894
  25   2.0000      -0.580680       -15.8011
  26   2.0000      -0.524029       -14.2595
  27   2.0000      -0.521088       -14.1795
  28   2.0000      -0.493892       -13.4395
  29   2.0000      -0.487596       -13.2682
  30   2.0000      -0.468236       -12.7413
  31   2.0000      -0.456318       -12.4170
  32   2.0000      -0.440053       -11.9744
  33   2.0000      -0.438113       -11.9217
  34   2.0000      -0.422244       -11.4899
  35   2.0000      -0.408842       -11.1252
  36   2.0000      -0.407342       -11.0843
  37   2.0000      -0.391309       -10.6481
  38   2.0000      -0.380821       -10.3627
  39   2.0000      -0.364844        -9.9279
  40   2.0000      -0.361146        -9.8273
  41   2.0000      -0.354058        -9.6344
  42   2.0000      -0.351838        -9.5740
  43   2.0000      -0.338410        -9.2086
  44   2.0000      -0.334927        -9.1138
  45   2.0000      -0.313022        -8.5178
  46   2.0000      -0.297650        -8.0995
  47   2.0000      -0.279664        -7.6100
  48   2.0000      -0.264105        -7.1867
  49   2.0000      -0.251170        -6.8347
  50   2.0000      -0.237786        -6.4705
  51   0.0000       0.058844         1.6012
  52   0.0000       0.084343         2.2951
  53   0.0000       0.095197         2.5904
  54   0.0000       0.099325         2.7028
  55   0.0000       0.103512         2.8167

MULLIKEN ATOMIC CHARGES
-----------------------
   0 C :    0.283738
   1 C :   -0.259145
   2 C :   -0.307956
   3 C :   -0.023766
   4 O :   -0.508883
   5 H :    0.151868
   6 H :    0.151020
   7 H :    0.159020
   8 H :    0.146847
   9 H :    0.162953
  10 H :    0.179174
  11 H :    0.144233
  12 C :   -0.052059
  13 H :    0.157202
  14 H :    0.157118
  15 O :   -0.536291
  16 C :    0.052533
  17 C :    0.114979
  18 C :   -0.304934
  19 C :   -0.026054
  20 O :   -0.520691
  21 H :    0.189798
  22 H :    0.149368
  23 O :   -0.641628
  24 H :    0.150775
  25 H :    0.145365
  26 H :    0.141647
  27 H :    0.151431
  28 H :    0.392339
Sum of atomic charges:   -0.0000000

LOEWDIN ATOMIC CHARGES
----------------------
   0 C :    0.170495
   1 C :   -0.214243
   2 C :   -0.216605
   3 C :   -0.034898
   4 O :   -0.325343
   5 H :    0.102490
   6 H :    0.117627
   7 H :    0.125030
   8 H :    0.116833
   9 H :    0.117919
  10 H :    0.120054
  11 H :    0.104680
  12 C :   -0.050156
  13 H :    0.113241
  14 H :    0.110678
  15 O :   -0.330914
  16 C :    0.002861
  17 C :    0.043040
  18 C :   -0.239141
  19 C :   -0.034667
  20 O :   -0.324384
  21 H :    0.128199
  22 H :    0.108626
  23 O :   -0.431461
  24 H :    0.120859
  25 H :    0.110653
  26 H :    0.101204
  27 H :    0.106655
  28 H :    0.280665

  Mayer bond orders larger than 0.100000
B(  0-C ,  1-C ) :   0.9497 B(  0-C ,  4-O ) :   0.9192 B(  0-C ,  5-H ) :   0.9188
B(  0-C , 15-O ) :   0.8222 B(  1-C ,  2-C ) :   0.9536 B(  1-C ,  6-H ) :   0.9390
B(  1-C ,  7-H ) :   0.9359 B(  2-C ,  3-C ) :   0.9539 B(  2-C ,  8-H ) :   0.9450
B(  2-C ,  9-H ) :   0.9430 B(  3-C ,  4-O ) :   0.8184 B(  3-C , 10-H ) :   0.9196
B(  3-C , 11-H ) :   0.9392 B( 12-C , 13-H ) :   0.9394 B( 12-C , 14-H ) :   0.9262
B( 12-C , 15-O ) :   0.8068 B( 12-C , 16-C ) :   0.8842 B( 16-C , 17-C ) :   0.9119
B( 16-C , 20-O ) :   0.8384 B( 16-C , 21-H ) :   0.9142 B( 17-C , 18-C ) :   0.9039
B( 17-C , 22-H ) :   0.9350 B( 17-C , 23-O ) :   0.9169 B( 18-C , 19-C ) :   0.9416
B( 18-C , 24-H ) :   0.9444 B( 18-C , 25-H ) :   0.9429 B( 19-C , 20-O ) :   0.8371
B( 19-C , 26-H ) :   0.9335 B( 19-C , 27-H ) :   0.9380 B( 23-O , 28-H ) :   0.7187

FINAL SINGLE POINT ENERGY      -652.874005587125

DIPOLE MOMENT
-------------
                                X             Y             Z
Electronic contribution:      0.49486      -3.05839      -0.24366
Nuclear contribution   :     -0.38210       3.60631      -0.37759
                        -----------------------------------------
Total Dipole Moment    :      0.11277       0.54791      -0.62125
                        -----------------------------------------
Magnitude (a.u.)       :      0.83599
Magnitude (Debye)      :      2.12492

Rotational constants in cm-1:     0.057678     0.016029     0.014809
Rotational constants in MHz :  1729.155409   480.546138   443.955347

                             ****ORCA TERMINATED NORMALLY****
TOTAL RUN TIME: 0 days 0 hours 29 minutes 1 seconds 230 msec
