                         Program Version 4.2.0 -  RELEASE  -
|  1> # Test redundant internal optimization
|  2> #
|  3> ! RKS B3LYP  Opt TightSCF SmallPrint
|  4>
|  5> %basis
|  6>         Basis "6-31G"
|  7> end
|  8>
|  9> %geom
| 10> Constraints
| 11> { D 4  0  15  12  15.0   C } # D for Dihedral angle
| 12> { D 0  15  12  16  135.0   C } # D for Dihedral angle
| 13> { D 0  4  3  2   C } # D for Dihedral angle
| 14> { D 4  3  2  1   C } # D for Dihedral angle
| 15> { D 3  2  1  0   C } # D for Dihedral angle
| 16> { D 2  1  0  4   C } # D for Dihedral angle
| 17> { D 1  0  4  3   C } # D for Dihedral angle
| 18> { D 16  20  19  18   C } # D for Dihedral angle
| 19> { D 20  19  18  17   C } # D for Dihedral angle
| 20> { D 19  18  17  16   C } # D for Dihedral angle
| 21> { D 18  17  16  20   C } # D for Dihedral angle
| 22> { D 17  16  20  19   C } # D for Dihedral angle
| 23> { D 15  12  16  20   C } # D for Dihedral angle
| 24> end
| 25> end
| 26>
| 27>
| 28> #%pal
| 29> #nprocs 8
| 30> #end
| 31>
| 32> * xyz 0 1
| 33> C  -21.048   26.222   46.251
| 34> C  -20.361   27.558   45.944
| 35> C  -20.329   28.222   47.341
| 36> C  -20.110   27.022   48.296
| 37> O  -20.473   25.807   47.535
| 38> H  -20.833   25.428   45.533
| 39> H  -19.344   27.382   45.576
| 40> H  -20.898   28.157   45.201
| 41> H  -19.543   28.978   47.434
| 42> H  -21.289   28.710   47.548
| 43> H  -20.733   27.082   49.195
| 44> H  -19.064   26.913   48.597
| 45> C  -23.128   26.462   47.829
| 46> H  -23.606   25.508   48.082
| 47> H  -22.307   26.632   48.537
| 48> O  -22.586   26.394   46.375
| 49> C  -24.168   27.599   48.030
| 50> C  -25.432   27.349   47.199
| 51> C  -26.176   26.305   48.065
| 52> C  -25.831   26.740   49.512
| 53> O  -24.646   27.618   49.417
| 54> H  -23.687   28.561   47.844
| 55> H  -26.017   28.273   47.119
| 56> O  -25.128   26.836   45.765
| 57> H  -27.254   26.291   47.880
| 58> H  -25.787   25.301   47.860
| 59> H  -25.597   25.889   50.161
| 60> H  -26.631   27.326   49.973
| 61> H  -24.543   25.912   45.821
| 62> *
| 63>
| 64>                          ****END OF INPUT****
 Total Charge           Charge          ....    0
 Multiplicity           Mult            ....    1
 Number of Electrons    NEL             ....  102
FINAL SINGLE POINT ENERGY      -652.825700547130
FINAL SINGLE POINT ENERGY      -652.850497755926
FINAL SINGLE POINT ENERGY      -652.857298684877
FINAL SINGLE POINT ENERGY      -652.860627099188
FINAL SINGLE POINT ENERGY      -652.862012708208
FINAL SINGLE POINT ENERGY      -652.862834215595
FINAL SINGLE POINT ENERGY      -652.863145824908
FINAL SINGLE POINT ENERGY      -652.863216984773
FINAL SINGLE POINT ENERGY      -652.863226917990
                    ***********************HURRAY********************

CARTESIAN COORDINATES (ANGSTROEM)
---------------------------------
  C    -21.139143   26.226360   46.399226
  C    -20.527420   27.555844   45.954650
  C    -20.247608   28.248080   47.311961
  C    -19.854516   27.070362   48.230480
  O    -20.356661   25.842779   47.542785
  H    -21.046159   25.420834   45.668862
  H    -19.594929   27.355937   45.414622
  H    -21.198269   28.125832   45.307986
  H    -19.456315   29.000550   47.244946
  H    -21.152315   28.745918   47.677045
  H    -20.297111   27.123430   49.228554
  H    -18.772065   26.946368   48.324222
  C    -23.128147   26.388683   48.009877
  H    -23.568196   25.412092   48.243252
  H    -22.352168   26.588405   48.748638
  O    -22.577271   26.333754   46.651940
  C    -24.183765   27.498704   48.050536
  C    -25.402357   27.266687   47.140879
  C    -26.241558   26.266305   47.986839
  C    -25.979664   26.726076   49.435769
  O    -24.747266   27.571517   49.396552
  H    -23.704228   28.462827   47.853839
  H    -25.952262   28.210127   47.046898
  O    -25.116317   26.805241   45.807432
  H    -27.300232   26.295284   47.716327
  H    -25.875553   25.250296   47.802318
  H    -25.812294   25.897822   50.131127
  H    -26.778839   27.361517   49.828651
  H    -24.186371   26.479365   45.763788

 Multiplicity           Mult            ....    1
 Number of Electrons    NEL             ....  102
 Basis Dimension        Dim             ....  149

ORBITAL ENERGIES
----------------

  NO   OCC          E(Eh)            E(eV)
   0   2.0000     -19.162100      -521.4273
   1   2.0000     -19.158576      -521.3314
   2   2.0000     -19.139926      -520.8239
   3   2.0000     -19.111718      -520.0563
   4   2.0000     -10.293314      -280.0953
   5   2.0000     -10.241941      -278.6974
   6   2.0000     -10.236007      -278.5359
   7   2.0000     -10.233105      -278.4569
   8   2.0000     -10.228822      -278.3404
   9   2.0000     -10.225978      -278.2630
  10   2.0000     -10.200821      -277.5784
  11   2.0000     -10.196120      -277.4505
  12   2.0000     -10.177595      -276.9464
  13   2.0000      -1.067038       -29.0356
  14   2.0000      -1.025318       -27.9003
  15   2.0000      -1.007017       -27.4023
  16   2.0000      -0.990510       -26.9532
  17   2.0000      -0.800055       -21.7706
  18   2.0000      -0.777185       -21.1483
  19   2.0000      -0.767625       -20.8881
  20   2.0000      -0.738574       -20.0976
  21   2.0000      -0.679292       -18.4845
  22   2.0000      -0.613819       -16.7029
  23   2.0000      -0.600688       -16.3455
  24   2.0000      -0.594808       -16.1856
  25   2.0000      -0.577388       -15.7115
  26   2.0000      -0.537060       -14.6141
  27   2.0000      -0.510980       -13.9045
  28   2.0000      -0.510113       -13.8809
  29   2.0000      -0.488640       -13.2966
  30   2.0000      -0.477054       -12.9813
  31   2.0000      -0.458825       -12.4853
  32   2.0000      -0.444857       -12.1052
  33   2.0000      -0.428311       -11.6549
  34   2.0000      -0.425838       -11.5876
  35   2.0000      -0.424456       -11.5500
  36   2.0000      -0.409959       -11.1556
  37   2.0000      -0.387149       -10.5349
  38   2.0000      -0.385371       -10.4865
  39   2.0000      -0.370732       -10.0881
  40   2.0000      -0.365462        -9.9447
  41   2.0000      -0.360889        -9.8203
  42   2.0000      -0.357253        -9.7214
  43   2.0000      -0.342783        -9.3276
  44   2.0000      -0.330153        -8.9839
  45   2.0000      -0.320359        -8.7174
  46   2.0000      -0.287184        -7.8147
  47   2.0000      -0.274531        -7.4704
  48   2.0000      -0.270643        -7.3646
  49   2.0000      -0.247425        -6.7328
  50   2.0000      -0.239439        -6.5155
  51   0.0000       0.057509         1.5649
  52   0.0000       0.068591         1.8665
  53   0.0000       0.088151         2.3987
  54   0.0000       0.094573         2.5735
  55   0.0000       0.100242         2.7277

MULLIKEN ATOMIC CHARGES
-----------------------
   0 C :    0.313657
   1 C :   -0.261799
   2 C :   -0.315119
   3 C :   -0.030006
   4 O :   -0.505698
   5 H :    0.167316
   6 H :    0.152500
   7 H :    0.162623
   8 H :    0.154874
   9 H :    0.159218
  10 H :    0.156078
  11 H :    0.158310
  12 C :   -0.016337
  13 H :    0.149756
  14 H :    0.167259
  15 O :   -0.580724
  16 C :    0.058731
  17 C :    0.120942
  18 C :   -0.300692
  19 C :   -0.024700
  20 O :   -0.524352
  21 H :    0.147962
  22 H :    0.144106
  23 O :   -0.641726
  24 H :    0.152166
  25 H :    0.146144
  26 H :    0.144942
  27 H :    0.149335
  28 H :    0.395234
Sum of atomic charges:   -0.0000000

LOEWDIN ATOMIC CHARGES
----------------------
   0 C :    0.187227
   1 C :   -0.223037
   2 C :   -0.221181
   3 C :   -0.034812
   4 O :   -0.311675
   5 H :    0.111843
   6 H :    0.118376
   7 H :    0.126171
   8 H :    0.121602
   9 H :    0.114602
  10 H :    0.106357
  11 H :    0.110559
  12 C :   -0.039972
  13 H :    0.105013
  14 H :    0.117035
  15 O :   -0.352501
  16 C :    0.014165
  17 C :    0.041910
  18 C :   -0.236946
  19 C :   -0.033062
  20 O :   -0.327167
  21 H :    0.107073
  22 H :    0.103835
  23 O :   -0.435292
  24 H :    0.121525
  25 H :    0.111876
  26 H :    0.102894
  27 H :    0.105813
  28 H :    0.287769

  Mayer bond orders larger than 0.100000
B(  0-C ,  1-C ) :   0.9277 B(  0-C ,  4-O ) :   0.9332 B(  0-C ,  5-H ) :   0.9320
B(  0-C , 15-O ) :   0.8019 B(  1-C ,  2-C ) :   0.9519 B(  1-C ,  6-H ) :   0.9335
B(  1-C ,  7-H ) :   0.9354 B(  2-C ,  3-C ) :   0.9510 B(  2-C ,  8-H ) :   0.9436
B(  2-C ,  9-H ) :   0.9404 B(  3-C ,  4-O ) :   0.8235 B(  3-C , 10-H ) :   0.9277
B(  3-C , 11-H ) :   0.9389 B( 12-C , 13-H ) :   0.9306 B( 12-C , 14-H ) :   0.9159
B( 12-C , 15-O ) :   0.7751 B( 12-C , 16-C ) :   0.8935 B( 16-C , 17-C ) :   0.9104
B( 16-C , 20-O ) :   0.8535 B( 16-C , 21-H ) :   0.9283 B( 17-C , 18-C ) :   0.9019
B( 17-C , 22-H ) :   0.9314 B( 17-C , 23-O ) :   0.9367 B( 18-C , 19-C ) :   0.9390
B( 18-C , 24-H ) :   0.9446 B( 18-C , 25-H ) :   0.9425 B( 19-C , 20-O ) :   0.8314
B( 19-C , 26-H ) :   0.9337 B( 19-C , 27-H ) :   0.9383 B( 23-O , 28-H ) :   0.7221

FINAL SINGLE POINT ENERGY      -652.863228876472

DIPOLE MOMENT
-------------
                                X             Y             Z
Electronic contribution:     -0.62412      -1.82472      -1.17856
Nuclear contribution   :      1.54221       2.17431       1.49610
                        -----------------------------------------
Total Dipole Moment    :      0.91809       0.34959       0.31754
                        -----------------------------------------
Magnitude (a.u.)       :      1.03244
Magnitude (Debye)      :      2.62426

Rotational constants in cm-1:     0.052057     0.014923     0.013400
Rotational constants in MHz :  1560.616337   447.380430   401.724140

                             ****ORCA TERMINATED NORMALLY****
TOTAL RUN TIME: 0 days 0 hours 29 minutes 38 seconds 531 msec
