                         Program Version 4.2.0 -  RELEASE  -
|  1> # Test redundant internal optimization
|  2> #
|  3> ! RKS B3LYP  Opt TightSCF SmallPrint
|  4>
|  5> %basis
|  6>         Basis "6-31G"
|  7> end
|  8>
|  9> %geom
| 10> Constraints
| 11> { D 4  0  15  12  15.0   C } # D for Dihedral angle
| 12> { D 0  15  12  16  240.0   C } # D for Dihedral angle
| 13> { D 0  4  3  2   C } # D for Dihedral angle
| 14> { D 4  3  2  1   C } # D for Dihedral angle
| 15> { D 3  2  1  0   C } # D for Dihedral angle
| 16> { D 2  1  0  4   C } # D for Dihedral angle
| 17> { D 1  0  4  3   C } # D for Dihedral angle
| 18> { D 16  20  19  18   C } # D for Dihedral angle
| 19> { D 20  19  18  17   C } # D for Dihedral angle
| 20> { D 19  18  17  16   C } # D for Dihedral angle
| 21> { D 18  17  16  20   C } # D for Dihedral angle
| 22> { D 17  16  20  19   C } # D for Dihedral angle
| 23> { D 15  12  16  20   C } # D for Dihedral angle
| 24> end
| 25> end
| 26>
| 27>
| 28> #%pal
| 29> #nprocs 8
| 30> #end
| 31>
| 32> * xyz 0 1
| 33> C  -21.048   26.222   46.251
| 34> C  -20.361   27.558   45.944
| 35> C  -20.329   28.222   47.341
| 36> C  -20.110   27.022   48.296
| 37> O  -20.473   25.807   47.535
| 38> H  -20.833   25.428   45.533
| 39> H  -19.344   27.382   45.576
| 40> H  -20.898   28.157   45.201
| 41> H  -19.543   28.978   47.434
| 42> H  -21.289   28.710   47.548
| 43> H  -20.733   27.082   49.195
| 44> H  -19.064   26.913   48.597
| 45> C  -23.128   26.462   47.829
| 46> H  -22.289   26.382   48.532
| 47> H  -23.633   27.421   48.006
| 48> O  -22.586   26.394   46.375
| 49> C  -24.142   25.328   48.146
| 50> C  -25.302   25.322   47.144
| 51> C  -24.659   24.616   45.925
| 52> C  -23.712   23.579   46.578
| 53> O  -23.511   24.015   47.978
| 54> H  -24.448   25.404   49.191
| 55> O  -26.483   24.483   47.701
| 56> H  -25.672   26.325   46.907
| 57> H  -25.397   24.150   45.266
| 58> H  -24.087   25.339   45.330
| 59> H  -22.740   23.522   46.077
| 60> H  -24.151   22.577   46.614
| 61> H  -26.135   23.473   47.945
| 62> *
| 63>
| 64>                          ****END OF INPUT****
 Total Charge           Charge          ....    0
 Multiplicity           Mult            ....    1
 Number of Electrons    NEL             ....  102
FINAL SINGLE POINT ENERGY      -652.828720646042
FINAL SINGLE POINT ENERGY      -652.852035825841
FINAL SINGLE POINT ENERGY      -652.856650868192
FINAL SINGLE POINT ENERGY      -652.859155760402
FINAL SINGLE POINT ENERGY      -652.859327999549
FINAL SINGLE POINT ENERGY      -652.859363361316
FINAL SINGLE POINT ENERGY      -652.859366108536
                    ***********************HURRAY********************

CARTESIAN COORDINATES (ANGSTROEM)
---------------------------------
  C    -21.086478   26.280400   46.386560
  C    -20.423582   27.605368   46.004295
  C    -20.223426   28.273445   47.387905
  C    -19.912790   27.074719   48.311328
  O    -20.387174   25.867022   47.575493
  H    -20.949461   25.483935   45.653091
  H    -19.458901   27.399902   45.525993
  H    -21.042119   28.193734   45.323324
  H    -19.417094   29.013156   47.386306
  H    -21.143393   28.780818   47.698302
  H    -20.421775   27.123122   49.277703
  H    -18.841346   26.932420   48.477394
  C    -23.165974   26.465452   47.832987
  H    -22.406605   26.368526   48.612206
  H    -23.678688   27.431186   47.935980
  O    -22.535104   26.416253   46.522876
  C    -24.166937   25.323862   48.032482
  C    -25.344579   25.256186   47.050566
  C    -24.716100   24.492054   45.854367
  C    -23.750200   23.498953   46.545393
  O    -23.531122   24.012506   47.919214
  H    -24.547176   25.403617   49.058667
  O    -26.463343   24.533835   47.641709
  H    -25.746959   26.231969   46.776901
  H    -25.489717   23.994631   45.262732
  H    -24.164190   25.194297   45.226842
  H    -22.784600   23.429312   46.038022
  H    -24.172368   22.492900   46.643331
  H    -26.128801   23.699422   48.033031

 Multiplicity           Mult            ....    1
 Number of Electrons    NEL             ....  102
 Basis Dimension        Dim             ....  149

ORBITAL ENERGIES
----------------

  NO   OCC          E(Eh)            E(eV)
   0   2.0000     -19.153389      -521.1902
   1   2.0000     -19.142282      -520.8880
   2   2.0000     -19.133263      -520.6426
   3   2.0000     -19.130115      -520.5569
   4   2.0000     -10.283101      -279.8174
   5   2.0000     -10.235657      -278.5264
   6   2.0000     -10.231279      -278.4073
   7   2.0000     -10.229811      -278.3673
   8   2.0000     -10.227522      -278.3050
   9   2.0000     -10.219161      -278.0775
  10   2.0000     -10.195541      -277.4348
  11   2.0000     -10.189226      -277.2629
  12   2.0000     -10.172130      -276.7977
  13   2.0000      -1.057465       -28.7751
  14   2.0000      -1.028067       -27.9751
  15   2.0000      -1.000283       -27.2191
  16   2.0000      -0.991788       -26.9879
  17   2.0000      -0.793869       -21.6023
  18   2.0000      -0.775100       -21.0916
  19   2.0000      -0.761497       -20.7214
  20   2.0000      -0.735088       -20.0028
  21   2.0000      -0.672055       -18.2875
  22   2.0000      -0.607847       -16.5404
  23   2.0000      -0.601685       -16.3727
  24   2.0000      -0.592343       -16.1185
  25   2.0000      -0.565953       -15.4004
  26   2.0000      -0.525682       -14.3045
  27   2.0000      -0.508976       -13.8499
  28   2.0000      -0.495221       -13.4757
  29   2.0000      -0.484101       -13.1731
  30   2.0000      -0.475563       -12.9407
  31   2.0000      -0.460556       -12.5324
  32   2.0000      -0.447071       -12.1654
  33   2.0000      -0.436344       -11.8735
  34   2.0000      -0.421311       -11.4645
  35   2.0000      -0.410442       -11.1687
  36   2.0000      -0.395767       -10.7694
  37   2.0000      -0.383217       -10.4279
  38   2.0000      -0.378403       -10.2969
  39   2.0000      -0.367359        -9.9963
  40   2.0000      -0.363971        -9.9041
  41   2.0000      -0.357807        -9.7364
  42   2.0000      -0.348693        -9.4884
  43   2.0000      -0.331039        -9.0080
  44   2.0000      -0.322524        -8.7763
  45   2.0000      -0.309152        -8.4125
  46   2.0000      -0.294961        -8.0263
  47   2.0000      -0.269083        -7.3221
  48   2.0000      -0.263674        -7.1749
  49   2.0000      -0.256039        -6.9672
  50   2.0000      -0.233522        -6.3545
  51   0.0000       0.069282         1.8853
  52   0.0000       0.078108         2.1254
  53   0.0000       0.094880         2.5818
  54   0.0000       0.101704         2.7675
  55   0.0000       0.107673         2.9299

MULLIKEN ATOMIC CHARGES
-----------------------
   0 C :    0.306187
   1 C :   -0.257842
   2 C :   -0.309546
   3 C :   -0.024746
   4 O :   -0.499961
   5 H :    0.158005
   6 H :    0.146693
   7 H :    0.157382
   8 H :    0.150038
   9 H :    0.152851
  10 H :    0.147990
  11 H :    0.154156
  12 C :   -0.010960
  13 H :    0.166368
  14 H :    0.128118
  15 O :   -0.543356
  16 C :    0.075951
  17 C :    0.076665
  18 C :   -0.283046
  19 C :   -0.023318
  20 O :   -0.521723
  21 H :    0.148985
  22 O :   -0.604722
  23 H :    0.147820
  24 H :    0.145469
  25 H :    0.171127
  26 H :    0.148239
  27 H :    0.135538
  28 H :    0.361640
Sum of atomic charges:   -0.0000000

LOEWDIN ATOMIC CHARGES
----------------------
   0 C :    0.184142
   1 C :   -0.223475
   2 C :   -0.221082
   3 C :   -0.034494
   4 O :   -0.309348
   5 H :    0.106407
   6 H :    0.115114
   7 H :    0.123810
   8 H :    0.118766
   9 H :    0.113047
  10 H :    0.102870
  11 H :    0.108599
  12 C :   -0.041331
  13 H :    0.117071
  14 H :    0.097880
  15 O :   -0.341902
  16 C :    0.010949
  17 C :    0.038102
  18 C :   -0.241361
  19 C :   -0.033534
  20 O :   -0.326834
  21 H :    0.112980
  22 O :   -0.418933
  23 H :    0.114337
  24 H :    0.117269
  25 H :    0.128763
  26 H :    0.105264
  27 H :    0.095892
  28 H :    0.281032

  Mayer bond orders larger than 0.100000
B(  0-C ,  1-C ) :   0.9241 B(  0-C ,  4-O ) :   0.9219 B(  0-C ,  5-H ) :   0.9313
B(  0-C , 15-O ) :   0.8404 B(  1-C ,  2-C ) :   0.9542 B(  1-C ,  6-H ) :   0.9346
B(  1-C ,  7-H ) :   0.9366 B(  2-C ,  3-C ) :   0.9501 B(  2-C ,  8-H ) :   0.9446
B(  2-C ,  9-H ) :   0.9452 B(  3-C ,  4-O ) :   0.8316 B(  3-C , 10-H ) :   0.9301
B(  3-C , 11-H ) :   0.9401 B( 12-C , 13-H ) :   0.9060 B( 12-C , 14-H ) :   0.9210
B( 12-C , 15-O ) :   0.8511 B( 12-C , 16-C ) :   0.8906 B( 16-C , 17-C ) :   0.9121
B( 16-C , 20-O ) :   0.8770 B( 16-C , 21-H ) :   0.9197 B( 17-C , 18-C ) :   0.9257
B( 17-C , 22-O ) :   0.8891 B( 17-C , 23-H ) :   0.9363 B( 18-C , 19-C ) :   0.9430
B( 18-C , 24-H ) :   0.9375 B( 18-C , 25-H ) :   0.9202 B( 19-C , 20-O ) :   0.8423
B( 19-C , 26-H ) :   0.9338 B( 19-C , 27-H ) :   0.9372 B( 22-O , 28-H ) :   0.7965

FINAL SINGLE POINT ENERGY      -652.859364424702

DIPOLE MOMENT
-------------
                                X             Y             Z
Electronic contribution:     -2.70705      -3.78241       1.43838
Nuclear contribution   :      3.63486       4.75992      -1.69395
                        -----------------------------------------
Total Dipole Moment    :      0.92781       0.97751      -0.25558
                        -----------------------------------------
Magnitude (a.u.)       :      1.37175
Magnitude (Debye)      :      3.48670

Rotational constants in cm-1:     0.062574     0.013908     0.013817
Rotational constants in MHz :  1875.912699   416.965643   414.216611

                             ****ORCA TERMINATED NORMALLY****
TOTAL RUN TIME: 0 days 0 hours 38 minutes 56 seconds 834 msec
