                         Program Version 4.2.1 -  RELEASE  -
|  1> # Test redundant internal optimization
|  2> #
|  3> ! RKS B3LYP  Opt TightSCF SmallPrint
|  4>
|  5> %basis
|  6>         Basis "6-31G"
|  7> end
|  8>
|  9> %geom
| 10> Constraints
| 11> { D 4  0  19  14  165.0   C } # D for Dihedral angle
| 12> { D 0  19  14  12  105.0   C } # D for Dihedral angle
| 13> { D 0  4  3  2   C } # D for Dihedral angle
| 14> { D 4  3  2  1   C } # D for Dihedral angle
| 15> { D 3  2  1  0   C } # D for Dihedral angle
| 16> { D 2  1  0  4   C } # D for Dihedral angle
| 17> { D 1  0  4  3   C } # D for Dihedral angle
| 18> { D 14  15  16  17   C } # D for Dihedral angle
| 19> { D 15  16  17  12   C } # D for Dihedral angle
| 20> { D 16  17  12  14   C } # D for Dihedral angle
| 21> { D 17  12  14  15   C } # D for Dihedral angle
| 22> { D 12  14  15  16   C } # D for Dihedral angle
| 23> end
| 24> end
| 25>
| 26>
| 27> #%pal
| 28> #nprocs 8
| 29> #end
| 30>
| 31> * xyz 0 1
| 32> C  -21.048   26.222   46.251
| 33> C  -20.361   27.558   45.944
| 34> C  -20.329   28.222   47.341
| 35> C  -20.110   27.022   48.296
| 36> O  -20.473   25.807   47.535
| 37> H  -20.833   25.428   45.533
| 38> H  -19.344   27.382   45.576
| 39> H  -20.898   28.157   45.201
| 40> H  -19.543   28.978   47.434
| 41> H  -21.289   28.710   47.548
| 42> H  -20.733   27.082   49.195
| 43> H  -19.064   26.913   48.597
| 44> C  -23.822   26.130   44.356
| 45> H  -24.043   26.594   43.382
| 46> C  -23.077   27.101   45.280
| 47> C  -24.231   27.994   45.792
| 48> C  -25.420   27.007   45.899
| 49> O  -25.066   25.831   45.074
| 50> H  -23.312   25.180   44.192
| 51> O  -22.472   26.381   46.366
| 52> H  -22.296   27.670   44.765
| 53> H  -24.002   28.478   46.747
| 54> H  -24.449   28.784   45.062
| 55> H  -26.357   27.436   45.529
| 56> H  -25.574   26.648   46.922
| 57> *
| 58>
| 59>                          ****END OF INPUT****
 Total Charge           Charge          ....    0
 Multiplicity           Mult            ....    1
 Number of Electrons    NEL             ....   86
FINAL SINGLE POINT ENERGY      -538.416386906571
FINAL SINGLE POINT ENERGY      -538.423999846374
FINAL SINGLE POINT ENERGY      -538.425421110629
FINAL SINGLE POINT ENERGY      -538.425712304410
FINAL SINGLE POINT ENERGY      -538.425734548968
FINAL SINGLE POINT ENERGY      -538.425745212088
                    ***********************HURRAY********************

CARTESIAN COORDINATES (ANGSTROEM)
---------------------------------
  C    -20.994892   26.244483   46.217479
  C    -20.188889   27.516152   45.951519
  C    -20.266665   28.242398   47.320803
  C    -20.240841   27.069719   48.323581
  O    -20.604407   25.861824   47.542788
  H    -20.762986   25.403515   45.557552
  H    -19.155968   27.226619   45.726074
  H    -20.549337   28.128278   45.121730
  H    -19.436676   28.939366   47.470578
  H    -21.204157   28.801571   47.397571
  H    -20.956864   27.185557   49.141071
  H    -19.244572   26.887050   48.736897
  C    -23.896445   26.174502   44.298454
  H    -24.205883   26.658452   43.359101
  C    -23.126733   27.154692   45.185333
  C    -24.272787   27.970908   45.815929
  C    -25.399882   26.925433   45.990905
  O    -25.056647   25.793204   45.102484
  H    -23.340126   25.262358   44.074242
  O    -22.441575   26.451223   46.261948
  H    -22.436606   27.781258   44.610804
  H    -23.959542   28.419232   46.761163
  H    -24.576977   28.770055   45.129819
  H    -26.384107   27.316393   45.710178
  H    -25.442434   26.530757   47.008998

 Multiplicity           Mult            ....    1
 Number of Electrons    NEL             ....   86
 Basis Dimension        Dim             ....  127

ORBITAL ENERGIES
----------------

  NO   OCC          E(Eh)            E(eV)
   0   2.0000     -19.140444      -520.8380
   1   2.0000     -19.136961      -520.7432
   2   2.0000     -19.125175      -520.4225
   3   2.0000     -10.281894      -279.7846
   4   2.0000     -10.241579      -278.6875
   5   2.0000     -10.226728      -278.2834
   6   2.0000     -10.220466      -278.1130
   7   2.0000     -10.217390      -278.0293
   8   2.0000     -10.193303      -277.3739
   9   2.0000     -10.191970      -277.3376
  10   2.0000     -10.185579      -277.1637
  11   2.0000      -1.053269       -28.6609
  12   2.0000      -1.013116       -27.5683
  13   2.0000      -0.987086       -26.8600
  14   2.0000      -0.790786       -21.5184
  15   2.0000      -0.782398       -21.2901
  16   2.0000      -0.738704       -20.1012
  17   2.0000      -0.725399       -19.7391
  18   2.0000      -0.618025       -16.8173
  19   2.0000      -0.602325       -16.3901
  20   2.0000      -0.594821       -16.1859
  21   2.0000      -0.567583       -15.4447
  22   2.0000      -0.527735       -14.3604
  23   2.0000      -0.502726       -13.6799
  24   2.0000      -0.490890       -13.3578
  25   2.0000      -0.479861       -13.0577
  26   2.0000      -0.451576       -12.2880
  27   2.0000      -0.444965       -12.1081
  28   2.0000      -0.432569       -11.7708
  29   2.0000      -0.421194       -11.4613
  30   2.0000      -0.405138       -11.0244
  31   2.0000      -0.381711       -10.3869
  32   2.0000      -0.374925       -10.2022
  33   2.0000      -0.365485        -9.9453
  34   2.0000      -0.364502        -9.9186
  35   2.0000      -0.355504        -9.6738
  36   2.0000      -0.353971        -9.6321
  37   2.0000      -0.314632        -8.5616
  38   2.0000      -0.301426        -8.2022
  39   2.0000      -0.297720        -8.1014
  40   2.0000      -0.259116        -7.0509
  41   2.0000      -0.253368        -6.8945
  42   2.0000      -0.230269        -6.2659
  43   0.0000       0.069085         1.8799
  44   0.0000       0.094852         2.5810
  45   0.0000       0.097629         2.6566
  46   0.0000       0.103362         2.8126
  47   0.0000       0.116614         3.1732

MULLIKEN ATOMIC CHARGES
-----------------------
   0 C :    0.313392
   1 C :   -0.293832
   2 C :   -0.298277
   3 C :    0.000635
   4 O :   -0.496328
   5 H :    0.145277
   6 H :    0.152776
   7 H :    0.143592
   8 H :    0.143984
   9 H :    0.153846
  10 H :    0.153609
  11 H :    0.143240
  12 C :    0.012123
  13 H :    0.118910
  14 C :    0.052729
  15 C :   -0.286439
  16 C :    0.009242
  17 O :   -0.516980
  18 H :    0.156065
  19 O :   -0.509681
  20 H :    0.119153
  21 H :    0.156832
  22 H :    0.138103
  23 H :    0.130306
  24 H :    0.157722
Sum of atomic charges:    0.0000000

LOEWDIN ATOMIC CHARGES
----------------------
   0 C :    0.185552
   1 C :   -0.234786
   2 C :   -0.216765
   3 C :   -0.025660
   4 O :   -0.300881
   5 H :    0.098090
   6 H :    0.119139
   7 H :    0.112006
   8 H :    0.115133
   9 H :    0.113049
  10 H :    0.109159
  11 H :    0.103261
  12 C :   -0.042855
  13 H :    0.088556
  14 C :    0.033181
  15 C :   -0.225972
  16 C :   -0.025391
  17 O :   -0.327174
  18 H :    0.116293
  19 O :   -0.328336
  20 H :    0.093694
  21 H :    0.123521
  22 H :    0.110209
  23 H :    0.096202
  24 H :    0.110776

  Mayer bond orders larger than 0.100000
B(  0-C ,  1-C ) :   0.9288 B(  0-C ,  4-O ) :   0.9363 B(  0-C ,  5-H ) :   0.9226
B(  0-C , 19-O ) :   0.8415 B(  1-C ,  2-C ) :   0.9494 B(  1-C ,  6-H ) :   0.9330
B(  1-C ,  7-H ) :   0.9264 B(  2-C ,  3-C ) :   0.9550 B(  2-C ,  8-H ) :   0.9449
B(  2-C ,  9-H ) :   0.9449 B(  3-C ,  4-O ) :   0.8372 B(  3-C , 10-H ) :   0.9343
B(  3-C , 11-H ) :   0.9396 B( 12-C , 13-H ) :   0.9105 B( 12-C , 14-C ) :   0.9151
B( 12-C , 17-O ) :   0.8769 B( 12-C , 18-H ) :   0.9347 B( 14-C , 15-C ) :   0.9513
B( 14-C , 19-O ) :   0.8364 B( 14-C , 20-H ) :   0.9101 B( 15-C , 16-C ) :   0.9475
B( 15-C , 21-H ) :   0.9378 B( 15-C , 22-H ) :   0.9412 B( 16-C , 17-O ) :   0.8558
B( 16-C , 23-H ) :   0.9338 B( 16-C , 24-H ) :   0.9358

FINAL SINGLE POINT ENERGY      -538.425745944571

DIPOLE MOMENT
-------------
                                X             Y             Z
Electronic contribution:     -1.20865      -5.32534       0.27646
Nuclear contribution   :      2.03672       7.05121      -0.75790
                        -----------------------------------------
Total Dipole Moment    :      0.82806       1.72587      -0.48144
                        -----------------------------------------
Magnitude (a.u.)       :      1.97385
Magnitude (Debye)      :      5.01713

Rotational constants in cm-1:     0.081237     0.020238     0.019867
Rotational constants in MHz :  2435.412924   606.716303   595.592662

                             ****ORCA TERMINATED NORMALLY****
TOTAL RUN TIME: 0 days 0 hours 7 minutes 11 seconds 981 msec
