                         Program Version 4.2.0 -  RELEASE  -
|  1> # Test redundant internal optimization
|  2> #
|  3> ! RKS B3LYP  Opt TightSCF SmallPrint
|  4>
|  5> %basis
|  6>         Basis "6-31G"
|  7> end
|  8>
|  9> %geom
| 10> Constraints
| 11> { D 4  0  15  12  300.0   C } # D for Dihedral angle
| 12> { D 0  15  12  16  180.0   C } # D for Dihedral angle
| 13> { D 0  4  3  2   C } # D for Dihedral angle
| 14> { D 4  3  2  1   C } # D for Dihedral angle
| 15> { D 3  2  1  0   C } # D for Dihedral angle
| 16> { D 2  1  0  4   C } # D for Dihedral angle
| 17> { D 1  0  4  3   C } # D for Dihedral angle
| 18> { D 16  20  19  18   C } # D for Dihedral angle
| 19> { D 20  19  18  17   C } # D for Dihedral angle
| 20> { D 19  18  17  16   C } # D for Dihedral angle
| 21> { D 18  17  16  20   C } # D for Dihedral angle
| 22> { D 17  16  20  19   C } # D for Dihedral angle
| 23> { D 15  12  16  20   C } # D for Dihedral angle
| 24> end
| 25> end
| 26>
| 27>
| 28> #%pal
| 29> #nprocs 8
| 30> #end
| 31>
| 32> * xyz 0 1
| 33> C  -21.048   26.222   46.251
| 34> C  -20.361   27.558   45.944
| 35> C  -20.329   28.222   47.341
| 36> C  -20.110   27.022   48.296
| 37> O  -20.473   25.807   47.535
| 38> H  -20.833   25.428   45.533
| 39> H  -19.344   27.382   45.576
| 40> H  -20.898   28.157   45.201
| 41> H  -19.543   28.978   47.434
| 42> H  -21.289   28.710   47.548
| 43> H  -20.733   27.082   49.195
| 44> H  -19.064   26.913   48.597
| 45> C  -23.362   25.116   46.798
| 46> H  -23.185   24.325   46.059
| 47> H  -23.010   24.759   47.774
| 48> O  -22.586   26.394   46.375
| 49> C  -24.894   25.351   46.904
| 50> C  -25.612   24.106   47.434
| 51> C  -25.336   24.206   48.953
| 52> C  -25.361   25.732   49.215
| 53> O  -25.185   26.387   47.901
| 54> H  -25.268   25.716   45.945
| 55> H  -26.687   24.176   47.232
| 56> O  -25.083   22.785   46.811
| 57> H  -26.074   23.666   49.556
| 58> H  -24.347   23.791   49.184
| 59> H  -24.558   26.056   49.887
| 60> H  -26.320   26.071   49.619
| 61> H  -24.008   22.691   47.002
| 62> *
| 63>
| 64>                          ****END OF INPUT****
 Total Charge           Charge          ....    0
 Multiplicity           Mult            ....    1
 Number of Electrons    NEL             ....  102
FINAL SINGLE POINT ENERGY      -652.831680438639
FINAL SINGLE POINT ENERGY      -652.857342819809
FINAL SINGLE POINT ENERGY      -652.862328985580
FINAL SINGLE POINT ENERGY      -652.863211333086
FINAL SINGLE POINT ENERGY      -652.863357038295
FINAL SINGLE POINT ENERGY      -652.863379018766
FINAL SINGLE POINT ENERGY      -652.863381360943
                    ***********************HURRAY********************

CARTESIAN COORDINATES (ANGSTROEM)
---------------------------------
  C    -21.081968   26.169207   46.246401
  C    -20.531344   27.567185   45.963785
  C    -20.500746   28.184256   47.379194
  C    -20.137945   26.984749   48.281922
  O    -20.428476   25.767323   47.477906
  H    -20.840295   25.393082   45.511025
  H    -19.522737   27.480542   45.544059
  H    -21.163573   28.120966   45.266763
  H    -19.778356   29.001689   47.466862
  H    -21.493997   28.566423   47.630170
  H    -20.726062   26.948967   49.202395
  H    -19.073318   26.944651   48.531368
  C    -23.180807   25.072903   46.806877
  H    -23.027696   24.286978   46.050433
  H    -22.755002   24.729778   47.757979
  O    -22.507798   26.294202   46.398868
  C    -24.670233   25.375731   46.920932
  C    -25.508963   24.176396   47.391852
  C    -25.338288   24.252770   48.938869
  C    -25.281872   25.773579   49.200073
  O    -24.965612   26.418685   47.899991
  H    -25.013755   25.768624   45.960035
  H    -26.553458   24.333396   47.114576
  O    -25.161763   22.900993   46.800355
  H    -26.155510   23.757839   49.469992
  H    -24.399668   23.761468   49.227766
  H    -24.517414   26.051840   49.932430
  H    -26.245882   26.173345   49.528868
  H    -24.338458   22.551429   47.198253

 Multiplicity           Mult            ....    1
 Number of Electrons    NEL             ....  102
 Basis Dimension        Dim             ....  149

ORBITAL ENERGIES
----------------

  NO   OCC          E(Eh)            E(eV)
   0   2.0000     -19.148989      -521.0705
   1   2.0000     -19.141105      -520.8560
   2   2.0000     -19.139437      -520.8105
   3   2.0000     -19.134885      -520.6867
   4   2.0000     -10.275233      -279.6033
   5   2.0000     -10.243845      -278.7492
   6   2.0000     -10.228758      -278.3387
   7   2.0000     -10.228246      -278.3247
   8   2.0000     -10.224938      -278.2347
   9   2.0000     -10.223385      -278.1924
  10   2.0000     -10.194287      -277.4007
  11   2.0000     -10.181594      -277.0553
  12   2.0000     -10.180652      -277.0296
  13   2.0000      -1.053644       -28.6711
  14   2.0000      -1.032091       -28.0846
  15   2.0000      -1.013612       -27.5818
  16   2.0000      -0.991006       -26.9666
  17   2.0000      -0.787069       -21.4172
  18   2.0000      -0.780272       -21.2323
  19   2.0000      -0.764865       -20.8130
  20   2.0000      -0.727469       -19.7954
  21   2.0000      -0.676564       -18.4102
  22   2.0000      -0.610376       -16.6092
  23   2.0000      -0.596320       -16.2267
  24   2.0000      -0.586430       -15.9576
  25   2.0000      -0.574250       -15.6261
  26   2.0000      -0.530023       -14.4227
  27   2.0000      -0.509138       -13.8544
  28   2.0000      -0.493250       -13.4220
  29   2.0000      -0.488053       -13.2806
  30   2.0000      -0.470225       -12.7955
  31   2.0000      -0.456510       -12.4223
  32   2.0000      -0.439847       -11.9689
  33   2.0000      -0.436513       -11.8781
  34   2.0000      -0.426354       -11.6017
  35   2.0000      -0.411459       -11.1964
  36   2.0000      -0.400285       -10.8923
  37   2.0000      -0.398150       -10.8342
  38   2.0000      -0.376450       -10.2437
  39   2.0000      -0.370750       -10.0886
  40   2.0000      -0.355001        -9.6601
  41   2.0000      -0.351391        -9.5618
  42   2.0000      -0.343099        -9.3362
  43   2.0000      -0.333164        -9.0658
  44   2.0000      -0.322988        -8.7890
  45   2.0000      -0.313762        -8.5379
  46   2.0000      -0.296305        -8.0629
  47   2.0000      -0.270607        -7.3636
  48   2.0000      -0.261201        -7.1076
  49   2.0000      -0.252987        -6.8841
  50   2.0000      -0.240854        -6.5540
  51   0.0000       0.052760         1.4357
  52   0.0000       0.076862         2.0915
  53   0.0000       0.091911         2.5010
  54   0.0000       0.099283         2.7016
  55   0.0000       0.103523         2.8170

MULLIKEN ATOMIC CHARGES
-----------------------
   0 C :    0.290954
   1 C :   -0.263141
   2 C :   -0.299490
   3 C :   -0.005172
   4 O :   -0.519089
   5 H :    0.139271
   6 H :    0.142848
   7 H :    0.161231
   8 H :    0.138965
   9 H :    0.173423
  10 H :    0.144805
  11 H :    0.141915
  12 C :   -0.006958
  13 H :    0.129091
  14 H :    0.140575
  15 O :   -0.514850
  16 C :    0.095754
  17 C :    0.082181
  18 C :   -0.323684
  19 C :   -0.008830
  20 O :   -0.506794
  21 H :    0.160089
  22 H :    0.167025
  23 O :   -0.601195
  24 H :    0.157851
  25 H :    0.134913
  26 H :    0.144195
  27 H :    0.146415
  28 H :    0.357701
Sum of atomic charges:   -0.0000000

LOEWDIN ATOMIC CHARGES
----------------------
   0 C :    0.172127
   1 C :   -0.213977
   2 C :   -0.216229
   3 C :   -0.028197
   4 O :   -0.334224
   5 H :    0.093526
   6 H :    0.112991
   7 H :    0.126536
   8 H :    0.112588
   9 H :    0.124745
  10 H :    0.104017
  11 H :    0.102029
  12 C :   -0.053625
  13 H :    0.096444
  14 H :    0.098756
  15 O :   -0.314280
  16 C :    0.023818
  17 C :    0.035511
  18 C :   -0.241350
  19 C :   -0.029864
  20 O :   -0.314590
  21 H :    0.118603
  22 H :    0.119171
  23 O :   -0.408074
  24 H :    0.122536
  25 H :    0.104839
  26 H :    0.102550
  27 H :    0.104771
  28 H :    0.278851

  Mayer bond orders larger than 0.100000
B(  0-C ,  1-C ) :   0.9518 B(  0-C ,  4-O ) :   0.8939 B(  0-C ,  5-H ) :   0.9183
B(  0-C , 15-O ) :   0.8679 B(  1-C ,  2-C ) :   0.9561 B(  1-C ,  6-H ) :   0.9404
B(  1-C ,  7-H ) :   0.9351 B(  2-C ,  3-C ) :   0.9565 B(  2-C ,  8-H ) :   0.9451
B(  2-C ,  9-H ) :   0.9415 B(  3-C ,  4-O ) :   0.8353 B(  3-C , 10-H ) :   0.9363
B(  3-C , 11-H ) :   0.9407 B( 12-C , 13-H ) :   0.9043 B( 12-C , 14-H ) :   0.9124
B( 12-C , 15-O ) :   0.8347 B( 12-C , 16-C ) :   0.9073 B( 16-C , 17-C ) :   0.8748
B( 16-C , 20-O ) :   0.8705 B( 16-C , 21-H ) :   0.9302 B( 17-C , 18-C ) :   0.9240
B( 17-C , 22-H ) :   0.9341 B( 17-C , 23-O ) :   0.8976 B( 18-C , 19-C ) :   0.9392
B( 18-C , 24-H ) :   0.9417 B( 18-C , 25-H ) :   0.9402 B( 19-C , 20-O ) :   0.8521
B( 19-C , 26-H ) :   0.9315 B( 19-C , 27-H ) :   0.9379 B( 23-O , 28-H ) :   0.7976

FINAL SINGLE POINT ENERGY      -652.863381078981

DIPOLE MOMENT
-------------
                                X             Y             Z
Electronic contribution:     -2.20693      -1.98110      -2.66695
Nuclear contribution   :      2.66185       1.91651       3.35194
                        -----------------------------------------
Total Dipole Moment    :      0.45492      -0.06459       0.68499
                        -----------------------------------------
Magnitude (a.u.)       :      0.82483
Magnitude (Debye)      :      2.09654

Rotational constants in cm-1:     0.051497     0.013569     0.012629
Rotational constants in MHz :  1543.833819   406.783932   378.597601

                             ****ORCA TERMINATED NORMALLY****
TOTAL RUN TIME: 0 days 2 hours 13 minutes 24 seconds 181 msec
