                         Program Version 4.2.0 -  RELEASE  -
|  1> # Test redundant internal optimization
|  2> #
|  3> ! RKS B3LYP  Opt TightSCF SmallPrint
|  4>
|  5> %basis
|  6>         Basis "6-31G"
|  7> end
|  8>
|  9> %geom
| 10> Constraints
| 11> { D 4  0  15  12  315.0   C } # D for Dihedral angle
| 12> { D 0  15  12  16  255.0   C } # D for Dihedral angle
| 13> { D 0  4  3  2   C } # D for Dihedral angle
| 14> { D 4  3  2  1   C } # D for Dihedral angle
| 15> { D 3  2  1  0   C } # D for Dihedral angle
| 16> { D 2  1  0  4   C } # D for Dihedral angle
| 17> { D 1  0  4  3   C } # D for Dihedral angle
| 18> { D 16  20  19  18   C } # D for Dihedral angle
| 19> { D 20  19  18  17   C } # D for Dihedral angle
| 20> { D 19  18  17  16   C } # D for Dihedral angle
| 21> { D 18  17  16  20   C } # D for Dihedral angle
| 22> { D 17  16  20  19   C } # D for Dihedral angle
| 23> { D 15  12  16  20   C } # D for Dihedral angle
| 24> end
| 25> end
| 26>
| 27>
| 28> #%pal
| 29> #nprocs 8
| 30> #end
| 31>
| 32> * xyz 0 1
| 33> C  -21.048   26.222   46.251
| 34> C  -20.361   27.558   45.944
| 35> C  -20.329   28.222   47.341
| 36> C  -20.110   27.022   48.296
| 37> O  -20.473   25.807   47.535
| 38> H  -20.833   25.428   45.533
| 39> H  -19.344   27.382   45.576
| 40> H  -20.898   28.157   45.201
| 41> H  -19.543   28.978   47.434
| 42> H  -21.289   28.710   47.548
| 43> H  -20.733   27.082   49.195
| 44> H  -19.064   26.913   48.597
| 45> C  -23.319   25.255   47.135
| 46> H  -22.584   24.660   47.692
| 47> H  -24.037   25.672   47.853
| 48> O  -22.586   26.394   46.375
| 49> C  -24.098   24.304   46.185
| 50> C  -23.147   23.545   45.254
| 51> C  -22.617   22.430   46.187
| 52> C  -23.845   22.102   47.074
| 53> O  -24.769   23.249   46.953
| 54> H  -24.877   24.870   45.672
| 55> O  -23.939   22.935   44.065
| 56> H  -22.348   24.174   44.848
| 57> H  -22.253   21.555   45.639
| 58> H  -21.790   22.811   46.797
| 59> H  -23.577   21.967   48.127
| 60> H  -24.384   21.215   46.730
| 61> H  -24.746   22.299   44.447
| 62> *
| 63>
| 64>                          ****END OF INPUT****
 Total Charge           Charge          ....    0
 Multiplicity           Mult            ....    1
 Number of Electrons    NEL             ....  102
FINAL SINGLE POINT ENERGY      -652.839902461304
FINAL SINGLE POINT ENERGY      -652.862506521132
FINAL SINGLE POINT ENERGY      -652.866470658931
FINAL SINGLE POINT ENERGY      -652.867137444224
FINAL SINGLE POINT ENERGY      -652.867226577967
FINAL SINGLE POINT ENERGY      -652.867238526072
                    ***********************HURRAY********************

CARTESIAN COORDINATES (ANGSTROEM)
---------------------------------
  C    -21.037315   26.148629   46.281341
  C    -20.449361   27.522699   45.961930
  C    -20.444588   28.193217   47.353078
  C    -20.132883   27.023403   48.311598
  O    -20.429001   25.781415   47.541908
  H    -20.779340   25.347535   45.582770
  H    -19.431407   27.398937   45.575570
  H    -21.048484   28.062345   45.225736
  H    -19.706671   28.997698   47.429397
  H    -21.434197   28.609361   47.561318
  H    -20.745325   27.030744   49.216582
  H    -19.076729   26.967807   48.589909
  C    -23.215315   25.281095   47.109186
  H    -22.530807   24.729192   47.761002
  H    -23.938511   25.807658   47.737622
  O    -22.475269   26.308722   46.375287
  C    -23.976439   24.338432   46.171312
  C    -23.119055   23.493729   45.217855
  C    -22.622748   22.363495   46.158209
  C    -23.829084   22.140427   47.104757
  O    -24.682567   23.347946   46.994995
  H    -24.733643   24.896112   45.613645
  O    -23.930157   22.969489   44.128396
  H    -22.317693   24.048577   44.734201
  H    -22.359371   21.471017   45.585742
  H    -21.737309   22.692629   46.713343
  H    -23.530079   22.009574   48.149034
  H    -24.443511   21.284411   46.808069
  H    -24.784142   22.651705   44.490207

 Multiplicity           Mult            ....    1
 Number of Electrons    NEL             ....  102
 Basis Dimension        Dim             ....  149

ORBITAL ENERGIES
----------------

  NO   OCC          E(Eh)            E(eV)
   0   2.0000     -19.149596      -521.0870
   1   2.0000     -19.145084      -520.9642
   2   2.0000     -19.143387      -520.9181
   3   2.0000     -19.135095      -520.6924
   4   2.0000     -10.282490      -279.8008
   5   2.0000     -10.237839      -278.5858
   6   2.0000     -10.231107      -278.4026
   7   2.0000     -10.230165      -278.3770
   8   2.0000     -10.229798      -278.3670
   9   2.0000     -10.223591      -278.1981
  10   2.0000     -10.188480      -277.2426
  11   2.0000     -10.187714      -277.2218
  12   2.0000     -10.186234      -277.1815
  13   2.0000      -1.057518       -28.7765
  14   2.0000      -1.035036       -28.1648
  15   2.0000      -1.003612       -27.3097
  16   2.0000      -0.994905       -27.0727
  17   2.0000      -0.792836       -21.5742
  18   2.0000      -0.776860       -21.1394
  19   2.0000      -0.765261       -20.8238
  20   2.0000      -0.734285       -19.9809
  21   2.0000      -0.673201       -18.3187
  22   2.0000      -0.603668       -16.4267
  23   2.0000      -0.601442       -16.3661
  24   2.0000      -0.594185       -16.1686
  25   2.0000      -0.578682       -15.7467
  26   2.0000      -0.521013       -14.1775
  27   2.0000      -0.518832       -14.1181
  28   2.0000      -0.500272       -13.6131
  29   2.0000      -0.487811       -13.2740
  30   2.0000      -0.470588       -12.8054
  31   2.0000      -0.458814       -12.4850
  32   2.0000      -0.451349       -12.2818
  33   2.0000      -0.432787       -11.7767
  34   2.0000      -0.419568       -11.4170
  35   2.0000      -0.415408       -11.3038
  36   2.0000      -0.405883       -11.0446
  37   2.0000      -0.391094       -10.6422
  38   2.0000      -0.376607       -10.2480
  39   2.0000      -0.367013        -9.9869
  40   2.0000      -0.361636        -9.8406
  41   2.0000      -0.354671        -9.6511
  42   2.0000      -0.351024        -9.5518
  43   2.0000      -0.334828        -9.1111
  44   2.0000      -0.329635        -8.9698
  45   2.0000      -0.305740        -8.3196
  46   2.0000      -0.298757        -8.1296
  47   2.0000      -0.276266        -7.5176
  48   2.0000      -0.267813        -7.2876
  49   2.0000      -0.263139        -7.1604
  50   2.0000      -0.239569        -6.5190
  51   0.0000       0.067946         1.8489
  52   0.0000       0.075319         2.0495
  53   0.0000       0.092949         2.5293
  54   0.0000       0.101181         2.7533
  55   0.0000       0.103487         2.8160

MULLIKEN ATOMIC CHARGES
-----------------------
   0 C :    0.287388
   1 C :   -0.260051
   2 C :   -0.298832
   3 C :   -0.009390
   4 O :   -0.517012
   5 H :    0.144497
   6 H :    0.145190
   7 H :    0.163273
   8 H :    0.143728
   9 H :    0.163981
  10 H :    0.148850
  11 H :    0.147024
  12 C :   -0.029518
  13 H :    0.161397
  14 H :    0.157817
  15 O :   -0.528717
  16 C :    0.060959
  17 C :    0.087743
  18 C :   -0.303498
  19 C :   -0.028477
  20 O :   -0.526982
  21 H :    0.162623
  22 O :   -0.605806
  23 H :    0.157975
  24 H :    0.161400
  25 H :    0.156457
  26 H :    0.148142
  27 H :    0.145600
  28 H :    0.364241
Sum of atomic charges:   -0.0000000

LOEWDIN ATOMIC CHARGES
----------------------
   0 C :    0.172952
   1 C :   -0.213780
   2 C :   -0.215903
   3 C :   -0.028563
   4 O :   -0.328977
   5 H :    0.092307
   6 H :    0.114121
   7 H :    0.127556
   8 H :    0.115154
   9 H :    0.120154
  10 H :    0.106093
  11 H :    0.105171
  12 C :   -0.048507
  13 H :    0.111888
  14 H :    0.116157
  15 O :   -0.334152
  16 C :    0.011606
  17 C :    0.036637
  18 C :   -0.242402
  19 C :   -0.037838
  20 O :   -0.331587
  21 H :    0.116353
  22 O :   -0.416333
  23 H :    0.117183
  24 H :    0.126397
  25 H :    0.118807
  26 H :    0.104909
  27 H :    0.102113
  28 H :    0.282483

  Mayer bond orders larger than 0.100000
B(  0-C ,  1-C ) :   0.9488 B(  0-C ,  4-O ) :   0.9000 B(  0-C ,  5-H ) :   0.9103
B(  0-C , 15-O ) :   0.8591 B(  1-C ,  2-C ) :   0.9547 B(  1-C ,  6-H ) :   0.9389
B(  1-C ,  7-H ) :   0.9348 B(  2-C ,  3-C ) :   0.9565 B(  2-C ,  8-H ) :   0.9447
B(  2-C ,  9-H ) :   0.9439 B(  3-C ,  4-O ) :   0.8285 B(  3-C , 10-H ) :   0.9357
B(  3-C , 11-H ) :   0.9406 B( 12-C , 13-H ) :   0.9139 B( 12-C , 14-H ) :   0.9342
B( 12-C , 15-O ) :   0.8268 B( 12-C , 16-C ) :   0.8880 B( 16-C , 17-C ) :   0.9142
B( 16-C , 20-O ) :   0.8353 B( 16-C , 21-H ) :   0.9275 B( 17-C , 18-C ) :   0.9117
B( 17-C , 22-O ) :   0.8882 B( 17-C , 23-H ) :   0.9246 B( 18-C , 19-C ) :   0.9419
B( 18-C , 24-H ) :   0.9381 B( 18-C , 25-H ) :   0.9316 B( 19-C , 20-O ) :   0.8424
B( 19-C , 26-H ) :   0.9351 B( 19-C , 27-H ) :   0.9381 B( 22-O , 28-H ) :   0.7943

FINAL SINGLE POINT ENERGY      -652.867240389248

DIPOLE MOMENT
-------------
                                X             Y             Z
Electronic contribution:     -3.96070      -1.98592      -1.88982
Nuclear contribution   :      4.73607       2.28835       2.46909
                        -----------------------------------------
Total Dipole Moment    :      0.77537       0.30242       0.57928
                        -----------------------------------------
Magnitude (a.u.)       :      1.01401
Magnitude (Debye)      :      2.57741

Rotational constants in cm-1:     0.057168     0.013397     0.012779
Rotational constants in MHz :  1713.867864   401.627555   383.113095

                             ****ORCA TERMINATED NORMALLY****
TOTAL RUN TIME: 0 days 1 hours 31 minutes 33 seconds 31 msec
