                         Program Version 4.2.1 -  RELEASE  -
|  1> # Test redundant internal optimization
|  2> #
|  3> ! RKS B3LYP  Opt TightSCF SmallPrint
|  4>
|  5> %basis
|  6>         Basis "6-31G"
|  7> end
|  8>
|  9> %geom
| 10> Constraints
| 11> { D 4  0  19  14  150.0   C } # D for Dihedral angle
| 12> { D 0  19  14  12  195.0   C } # D for Dihedral angle
| 13> { D 0  4  3  2   C } # D for Dihedral angle
| 14> { D 4  3  2  1   C } # D for Dihedral angle
| 15> { D 3  2  1  0   C } # D for Dihedral angle
| 16> { D 2  1  0  4   C } # D for Dihedral angle
| 17> { D 1  0  4  3   C } # D for Dihedral angle
| 18> { D 14  15  16  17   C } # D for Dihedral angle
| 19> { D 15  16  17  12   C } # D for Dihedral angle
| 20> { D 16  17  12  14   C } # D for Dihedral angle
| 21> { D 17  12  14  15   C } # D for Dihedral angle
| 22> { D 12  14  15  16   C } # D for Dihedral angle
| 23> end
| 24> end
| 25>
| 26>
| 27> #%pal
| 28> #nprocs 8
| 29> #end
| 30>
| 31> * xyz 0 1
| 32> C  -21.048   26.222   46.251
| 33> C  -20.361   27.558   45.944
| 34> C  -20.329   28.222   47.341
| 35> C  -20.110   27.022   48.296
| 36> O  -20.473   25.807   47.535
| 37> H  -20.833   25.428   45.533
| 38> H  -19.344   27.382   45.576
| 39> H  -20.898   28.157   45.201
| 40> H  -19.543   28.978   47.434
| 41> H  -21.289   28.710   47.548
| 42> H  -20.733   27.082   49.195
| 43> H  -19.064   26.913   48.597
| 44> C  -24.453   27.728   45.933
| 45> H  -25.004   28.249   45.135
| 46> C  -23.030   27.370   45.486
| 47> C  -22.299   28.722   45.650
| 48> C  -22.978   29.341   46.897
| 49> O  -24.256   28.618   47.083
| 50> H  -25.044   26.881   46.283
| 51> O  -22.472   26.381   46.366
| 52> H  -22.987   26.984   44.461
| 53> H  -21.218   28.609   45.776
| 54> H  -22.468   29.352   44.767
| 55> H  -23.185   30.410   46.777
| 56> H  -22.390   29.195   47.809
| 57> *
| 58>
| 59>                          ****END OF INPUT****
 Total Charge           Charge          ....    0
 Multiplicity           Mult            ....    1
 Number of Electrons    NEL             ....   86
FINAL SINGLE POINT ENERGY      -538.192318223573
FINAL SINGLE POINT ENERGY      -538.257179469486
FINAL SINGLE POINT ENERGY      -538.298379907300
FINAL SINGLE POINT ENERGY      -538.328050390056
FINAL SINGLE POINT ENERGY      -538.350336264734
FINAL SINGLE POINT ENERGY      -538.367234731673
FINAL SINGLE POINT ENERGY      -538.379754337482
FINAL SINGLE POINT ENERGY      -538.388869919021
FINAL SINGLE POINT ENERGY      -538.395563486201
FINAL SINGLE POINT ENERGY      -538.400477349746
FINAL SINGLE POINT ENERGY      -538.412063495930
FINAL SINGLE POINT ENERGY      -538.412296090988
FINAL SINGLE POINT ENERGY      -538.412486570522
FINAL SINGLE POINT ENERGY      -538.412628705779
FINAL SINGLE POINT ENERGY      -538.412732587430
FINAL SINGLE POINT ENERGY      -538.412791985095
FINAL SINGLE POINT ENERGY      -538.412819830776
FINAL SINGLE POINT ENERGY      -538.412831032359
FINAL SINGLE POINT ENERGY      -538.412834178380
                    ***********************HURRAY********************

CARTESIAN COORDINATES (ANGSTROEM)
---------------------------------
  C    -20.945340   26.280892   46.229558
  C    -19.914823   27.394544   46.034026
  C    -19.901686   28.077091   47.431283
  C    -20.119190   26.880513   48.385325
  O    -20.669738   25.788722   47.548683
  H    -20.779049   25.435281   45.553939
  H    -18.950371   26.909288   45.845546
  H    -20.114810   28.069060   45.201574
  H    -18.960452   28.599438   47.628616
  H    -20.714562   28.800911   47.517300
  H    -20.825982   27.097360   49.190262
  H    -19.183983   26.508128   48.813379
  C    -24.501428   27.602661   46.055064
  H    -25.263918   27.957671   45.346141
  C    -23.122523   27.555760   45.396003
  C    -22.701780   29.033527   45.452837
  C    -23.303983   29.531686   46.789823
  O    -24.344748   28.549793   47.169247
  H    -24.789850   26.639812   46.474549
  O    -22.376016   26.565955   46.170922
  H    -23.179788   27.210889   44.352765
  H    -21.630360   29.207157   45.379400
  H    -23.176259   29.542411   44.605706
  H    -23.760307   30.523727   46.694685
  H    -22.578053   29.558722   47.607366

 Multiplicity           Mult            ....    1
 Number of Electrons    NEL             ....   86
 Basis Dimension        Dim             ....  127

ORBITAL ENERGIES
----------------

  NO   OCC          E(Eh)            E(eV)
   0   2.0000     -19.137646      -520.7618
   1   2.0000     -19.132356      -520.6179
   2   2.0000     -19.128872      -520.5231
   3   2.0000     -10.281016      -279.7607
   4   2.0000     -10.245563      -278.7959
   5   2.0000     -10.225819      -278.2587
   6   2.0000     -10.224881      -278.2332
   7   2.0000     -10.219799      -278.0949
   8   2.0000     -10.194318      -277.4015
   9   2.0000     -10.193237      -277.3721
  10   2.0000     -10.192082      -277.3406
  11   2.0000      -1.047330       -28.4993
  12   2.0000      -1.013185       -27.5702
  13   2.0000      -0.982519       -26.7357
  14   2.0000      -0.790489       -21.5103
  15   2.0000      -0.788640       -21.4600
  16   2.0000      -0.747058       -20.3285
  17   2.0000      -0.723171       -19.6785
  18   2.0000      -0.619017       -16.8443
  19   2.0000      -0.607534       -16.5318
  20   2.0000      -0.598105       -16.2753
  21   2.0000      -0.568571       -15.4716
  22   2.0000      -0.508603       -13.8398
  23   2.0000      -0.507309       -13.8046
  24   2.0000      -0.497561       -13.5393
  25   2.0000      -0.490016       -13.3340
  26   2.0000      -0.453295       -12.3348
  27   2.0000      -0.444390       -12.0925
  28   2.0000      -0.421135       -11.4597
  29   2.0000      -0.416313       -11.3285
  30   2.0000      -0.414787       -11.2869
  31   2.0000      -0.392147       -10.6709
  32   2.0000      -0.380611       -10.3569
  33   2.0000      -0.368968       -10.0401
  34   2.0000      -0.365071        -9.9341
  35   2.0000      -0.360126        -9.7995
  36   2.0000      -0.347951        -9.4682
  37   2.0000      -0.311751        -8.4832
  38   2.0000      -0.304187        -8.2773
  39   2.0000      -0.284566        -7.7434
  40   2.0000      -0.259072        -7.0497
  41   2.0000      -0.249905        -6.8003
  42   2.0000      -0.234033        -6.3684
  43   0.0000       0.071080         1.9342
  44   0.0000       0.081619         2.2210
  45   0.0000       0.094014         2.5582
  46   0.0000       0.106961         2.9106
  47   0.0000       0.113050         3.0762

MULLIKEN ATOMIC CHARGES
-----------------------
   0 C :    0.326832
   1 C :   -0.292484
   2 C :   -0.317122
   3 C :   -0.000426
   4 O :   -0.492537
   5 H :    0.146687
   6 H :    0.152805
   7 H :    0.141397
   8 H :    0.142862
   9 H :    0.156360
  10 H :    0.157773
  11 H :    0.143231
  12 C :    0.000337
  13 H :    0.123612
  14 C :    0.095627
  15 C :   -0.317628
  16 C :   -0.009401
  17 O :   -0.516290
  18 H :    0.180118
  19 O :   -0.535456
  20 H :    0.126100
  21 H :    0.148671
  22 H :    0.147054
  23 H :    0.136956
  24 H :    0.154921
Sum of atomic charges:   -0.0000000

LOEWDIN ATOMIC CHARGES
----------------------
   0 C :    0.189425
   1 C :   -0.231131
   2 C :   -0.222384
   3 C :   -0.026411
   4 O :   -0.302967
   5 H :    0.097783
   6 H :    0.120961
   7 H :    0.111527
   8 H :    0.114876
   9 H :    0.111667
  10 H :    0.110924
  11 H :    0.102818
  12 C :   -0.032206
  13 H :    0.090274
  14 C :    0.048147
  15 C :   -0.243291
  16 C :   -0.031667
  17 O :   -0.327634
  18 H :    0.129822
  19 O :   -0.340368
  20 H :    0.092745
  21 H :    0.118498
  22 H :    0.118474
  23 H :    0.098878
  24 H :    0.101239

  Mayer bond orders larger than 0.100000
B(  0-C ,  1-C ) :   0.9215 B(  0-C ,  4-O ) :   0.9312 B(  0-C ,  5-H ) :   0.9281
B(  0-C , 19-O ) :   0.8549 B(  1-C ,  2-C ) :   0.9536 B(  1-C ,  6-H ) :   0.9313
B(  1-C ,  7-H ) :   0.9252 B(  2-C ,  3-C ) :   0.9525 B(  2-C ,  8-H ) :   0.9458
B(  2-C ,  9-H ) :   0.9264 B(  3-C ,  4-O ) :   0.8400 B(  3-C , 10-H ) :   0.9330
B(  3-C , 11-H ) :   0.9390 B( 12-C , 13-H ) :   0.9155 B( 12-C , 14-C ) :   0.9300
B( 12-C , 17-O ) :   0.8656 B( 12-C , 18-H ) :   0.9280 B( 14-C , 15-C ) :   0.9249
B( 14-C , 19-O ) :   0.8456 B( 14-C , 20-H ) :   0.9227 B( 15-C , 16-C ) :   0.9439
B( 15-C , 21-H ) :   0.9253 B( 15-C , 22-H ) :   0.9335 B( 16-C , 17-O ) :   0.8661
B( 16-C , 23-H ) :   0.9301 B( 16-C , 24-H ) :   0.9216

FINAL SINGLE POINT ENERGY      -538.412836182223

DIPOLE MOMENT
-------------
                                X             Y             Z
Electronic contribution:     -2.86704      -4.67052       1.18354
Nuclear contribution   :      3.83821       5.77544      -2.27811
                        -----------------------------------------
Total Dipole Moment    :      0.97117       1.10492      -1.09457
                        -----------------------------------------
Magnitude (a.u.)       :      1.83360
Magnitude (Debye)      :      4.66065

Rotational constants in cm-1:     0.064443     0.025486     0.024096
Rotational constants in MHz :  1931.965644   764.052659   722.376620

                             ****ORCA TERMINATED NORMALLY****
TOTAL RUN TIME: 0 days 1 hours 12 minutes 26 seconds 428 msec
