                         Program Version 4.2.0 -  RELEASE  -
|  1> # Test redundant internal optimization
|  2> #
|  3> ! RKS B3LYP  Opt TightSCF SmallPrint
|  4>
|  5> %basis
|  6>         Basis "6-31G"
|  7> end
|  8>
|  9> %geom
| 10> Constraints
| 11> { D 4  0  15  12  45.0   C } # D for Dihedral angle
| 12> { D 0  15  12  16  120.0   C } # D for Dihedral angle
| 13> { D 0  4  3  2   C } # D for Dihedral angle
| 14> { D 4  3  2  1   C } # D for Dihedral angle
| 15> { D 3  2  1  0   C } # D for Dihedral angle
| 16> { D 2  1  0  4   C } # D for Dihedral angle
| 17> { D 1  0  4  3   C } # D for Dihedral angle
| 18> { D 16  20  19  18   C } # D for Dihedral angle
| 19> { D 20  19  18  17   C } # D for Dihedral angle
| 20> { D 19  18  17  16   C } # D for Dihedral angle
| 21> { D 18  17  16  20   C } # D for Dihedral angle
| 22> { D 17  16  20  19   C } # D for Dihedral angle
| 23> { D 15  12  16  20   C } # D for Dihedral angle
| 24> end
| 25> end
| 26>
| 27>
| 28> #%pal
| 29> #nprocs 8
| 30> #end
| 31>
| 32> * xyz 0 1
| 33> C  -21.048   26.222   46.251
| 34> C  -20.361   27.558   45.944
| 35> C  -20.329   28.222   47.341
| 36> C  -20.110   27.022   48.296
| 37> O  -20.473   25.807   47.535
| 38> H  -20.833   25.428   45.533
| 39> H  -19.344   27.382   45.576
| 40> H  -20.898   28.157   45.201
| 41> H  -19.543   28.978   47.434
| 42> H  -21.289   28.710   47.548
| 43> H  -20.733   27.082   49.195
| 44> H  -19.064   26.913   48.597
| 45> C  -23.065   27.161   47.638
| 46> H  -23.711   26.507   48.236
| 47> H  -22.208   27.455   48.257
| 48> O  -22.586   26.394   46.375
| 49> C  -23.861   28.450   47.291
| 50> C  -23.050   29.377   46.378
| 51> C  -23.242   28.703   44.998
| 52> C  -24.689   28.157   45.071
| 53> O  -25.054   28.120   46.504
| 54> H  -24.207   28.916   48.215
| 55> O  -23.668   30.802   46.382
| 56> H  -21.998   29.456   46.670
| 57> H  -23.098   29.396   44.163
| 58> H  -22.525   27.882   44.878
| 59> H  -24.780   27.150   44.651
| 60> H  -25.409   28.814   44.573
| 61> H  -24.723   30.747   46.092
| 62> *
| 63>
| 64>                          ****END OF INPUT****
 Total Charge           Charge          ....    0
 Multiplicity           Mult            ....    1
 Number of Electrons    NEL             ....  102
FINAL SINGLE POINT ENERGY      -652.789561697024
FINAL SINGLE POINT ENERGY      -652.828885280608
FINAL SINGLE POINT ENERGY      -652.846177776317
FINAL SINGLE POINT ENERGY      -652.849939925769
FINAL SINGLE POINT ENERGY      -652.850550083000
FINAL SINGLE POINT ENERGY      -652.850667708602
FINAL SINGLE POINT ENERGY      -652.850679653581
FINAL SINGLE POINT ENERGY      -652.850677101201
                    ***********************HURRAY********************

CARTESIAN COORDINATES (ANGSTROEM)
---------------------------------
  C    -21.104095   26.191387   46.502856
  C    -20.211064   27.318232   45.961373
  C    -19.923582   28.156087   47.245417
  C    -19.846143   27.061356   48.339705
  O    -20.501585   25.861540   47.772353
  H    -21.038883   25.291269   45.889187
  H    -19.286585   26.861631   45.592287
  H    -20.659834   27.892881   45.151772
  H    -18.994808   28.729402   47.172042
  H    -20.733860   28.859338   47.445301
  H    -20.352641   27.340032   49.269089
  H    -18.815045   26.779287   48.571541
  C    -23.188193   27.157547   47.625705
  H    -23.896029   26.471509   48.101453
  H    -22.462809   27.465085   48.387586
  O    -22.545788   26.377810   46.570123
  C    -24.006089   28.373463   47.164314
  C    -23.328560   29.525377   46.405706
  C    -23.349864   29.001828   44.941754
  C    -24.690665   28.223374   44.880863
  O    -25.090429   27.957629   46.275173
  H    -24.481148   28.771572   48.070469
  O    -24.103864   30.748679   46.553957
  H    -22.334214   29.781015   46.766003
  H    -23.299317   29.830872   44.231147
  H    -22.517582   28.321487   44.768444
  H    -24.591065   27.269370   44.356556
  H    -25.495199   28.803498   44.416195
  H    -25.050059   30.545445   46.394628

 Multiplicity           Mult            ....    1
 Number of Electrons    NEL             ....  102
 Basis Dimension        Dim             ....  149

ORBITAL ENERGIES
----------------

  NO   OCC          E(Eh)            E(eV)
   0   2.0000     -19.150648      -521.1156
   1   2.0000     -19.145646      -520.9795
   2   2.0000     -19.139909      -520.8234
   3   2.0000     -19.139142      -520.8025
   4   2.0000     -10.284711      -279.8612
   5   2.0000     -10.243594      -278.7424
   6   2.0000     -10.236665      -278.5538
   7   2.0000     -10.236436      -278.5476
   8   2.0000     -10.233003      -278.4542
   9   2.0000     -10.225691      -278.2552
  10   2.0000     -10.200007      -277.5563
  11   2.0000     -10.196730      -277.4671
  12   2.0000     -10.185049      -277.1493
  13   2.0000      -1.057128       -28.7659
  14   2.0000      -1.037414       -28.2295
  15   2.0000      -1.007399       -27.4127
  16   2.0000      -0.995622       -27.0923
  17   2.0000      -0.795597       -21.6493
  18   2.0000      -0.780932       -21.2502
  19   2.0000      -0.771295       -20.9880
  20   2.0000      -0.739942       -20.1349
  21   2.0000      -0.679994       -18.5036
  22   2.0000      -0.613587       -16.6966
  23   2.0000      -0.608525       -16.5588
  24   2.0000      -0.602014       -16.3816
  25   2.0000      -0.570459       -15.5230
  26   2.0000      -0.521894       -14.2015
  27   2.0000      -0.520084       -14.1522
  28   2.0000      -0.505199       -13.7472
  29   2.0000      -0.496489       -13.5102
  30   2.0000      -0.471143       -12.8205
  31   2.0000      -0.458924       -12.4880
  32   2.0000      -0.455324       -12.3900
  33   2.0000      -0.435169       -11.8415
  34   2.0000      -0.427829       -11.6418
  35   2.0000      -0.424660       -11.5556
  36   2.0000      -0.410618       -11.1735
  37   2.0000      -0.391427       -10.6513
  38   2.0000      -0.382853       -10.4180
  39   2.0000      -0.377145       -10.2626
  40   2.0000      -0.369782       -10.0623
  41   2.0000      -0.361234        -9.8297
  42   2.0000      -0.347869        -9.4660
  43   2.0000      -0.333036        -9.0624
  44   2.0000      -0.322868        -8.7857
  45   2.0000      -0.312734        -8.5099
  46   2.0000      -0.306390        -8.3373
  47   2.0000      -0.272014        -7.4019
  48   2.0000      -0.267394        -7.2762
  49   2.0000      -0.261798        -7.1239
  50   2.0000      -0.237828        -6.4716
  51   0.0000       0.059691         1.6243
  52   0.0000       0.072263         1.9664
  53   0.0000       0.083319         2.2672
  54   0.0000       0.094845         2.5809
  55   0.0000       0.105716         2.8767

MULLIKEN ATOMIC CHARGES
-----------------------
   0 C :    0.305252
   1 C :   -0.280876
   2 C :   -0.321312
   3 C :   -0.016416
   4 O :   -0.505832
   5 H :    0.166799
   6 H :    0.156641
   7 H :    0.151317
   8 H :    0.150581
   9 H :    0.156658
  10 H :    0.146373
  11 H :    0.151177
  12 C :   -0.007402
  13 H :    0.170899
  14 H :    0.129738
  15 O :   -0.526579
  16 C :    0.068838
  17 C :    0.063758
  18 C :   -0.297966
  19 C :   -0.020876
  20 O :   -0.522061
  21 H :    0.153382
  22 O :   -0.603034
  23 H :    0.151026
  24 H :    0.153846
  25 H :    0.163763
  26 H :    0.159418
  27 H :    0.137817
  28 H :    0.365068
Sum of atomic charges:   -0.0000000

LOEWDIN ATOMIC CHARGES
----------------------
   0 C :    0.179630
   1 C :   -0.230446
   2 C :   -0.224508
   3 C :   -0.035125
   4 O :   -0.316224
   5 H :    0.112941
   6 H :    0.122343
   7 H :    0.117446
   8 H :    0.119192
   9 H :    0.108209
  10 H :    0.100925
  11 H :    0.106545
  12 C :   -0.038457
  13 H :    0.121913
  14 H :    0.100703
  15 O :   -0.328228
  16 C :    0.007923
  17 C :    0.034439
  18 C :   -0.241908
  19 C :   -0.033971
  20 O :   -0.327073
  21 H :    0.115515
  22 O :   -0.415590
  23 H :    0.110964
  24 H :    0.121813
  25 H :    0.119538
  26 H :    0.111492
  27 H :    0.096811
  28 H :    0.283189

  Mayer bond orders larger than 0.100000
B(  0-C ,  1-C ) :   0.9100 B(  0-C ,  4-O ) :   0.9009 B(  0-C ,  5-H ) :   0.9352
B(  0-C , 15-O ) :   0.8879 B(  1-C ,  2-C ) :   0.9569 B(  1-C ,  6-H ) :   0.9319
B(  1-C ,  7-H ) :   0.9237 B(  2-C ,  3-C ) :   0.9437 B(  2-C ,  8-H ) :   0.9451
B(  2-C ,  9-H ) :   0.9264 B(  3-C ,  4-O ) :   0.8397 B(  3-C , 10-H ) :   0.9303
B(  3-C , 11-H ) :   0.9386 B( 12-C , 13-H ) :   0.9272 B( 12-C , 14-H ) :   0.9069
B( 12-C , 15-O ) :   0.8484 B( 12-C , 16-C ) :   0.8946 B( 16-C , 17-C ) :   0.9080
B( 16-C , 20-O ) :   0.8637 B( 16-C , 21-H ) :   0.9164 B( 17-C , 18-C ) :   0.9239
B( 17-C , 22-O ) :   0.8863 B( 17-C , 23-H ) :   0.9198 B( 18-C , 19-C ) :   0.9428
B( 18-C , 24-H ) :   0.9374 B( 18-C , 25-H ) :   0.9092 B( 19-C , 20-O ) :   0.8401
B( 19-C , 26-H ) :   0.9322 B( 19-C , 27-H ) :   0.9367 B( 22-O , 28-H ) :   0.7937

FINAL SINGLE POINT ENERGY      -652.850673910898

DIPOLE MOMENT
-------------
                                X             Y             Z
Electronic contribution:     -4.29843      -2.60988       1.22961
Nuclear contribution   :      5.23296       3.15752      -1.52886
                        -----------------------------------------
Total Dipole Moment    :      0.93453       0.54764      -0.29925
                        -----------------------------------------
Magnitude (a.u.)       :      1.12375
Magnitude (Debye)      :      2.85634

Rotational constants in cm-1:     0.047671     0.016889     0.015698
Rotational constants in MHz :  1429.126147   506.322958   470.600190

                             ****ORCA TERMINATED NORMALLY****
TOTAL RUN TIME: 0 days 1 hours 22 minutes 24 seconds 627 msec
