                         Program Version 4.2.0 -  RELEASE  -
|  1> # Test redundant internal optimization
|  2> #
|  3> ! RKS B3LYP  Opt TightSCF SmallPrint
|  4>
|  5> %basis
|  6>         Basis "6-31G"
|  7> end
|  8>
|  9> %geom
| 10> Constraints
| 11> { D 4  0  15  12  135.0   C } # D for Dihedral angle
| 12> { D 0  15  12  16  225.0   C } # D for Dihedral angle
| 13> { D 0  4  3  2   C } # D for Dihedral angle
| 14> { D 4  3  2  1   C } # D for Dihedral angle
| 15> { D 3  2  1  0   C } # D for Dihedral angle
| 16> { D 2  1  0  4   C } # D for Dihedral angle
| 17> { D 1  0  4  3   C } # D for Dihedral angle
| 18> { D 16  20  19  18   C } # D for Dihedral angle
| 19> { D 20  19  18  17   C } # D for Dihedral angle
| 20> { D 19  18  17  16   C } # D for Dihedral angle
| 21> { D 18  17  16  20   C } # D for Dihedral angle
| 22> { D 17  16  20  19   C } # D for Dihedral angle
| 23> { D 15  12  16  20   C } # D for Dihedral angle
| 24> end
| 25> end
| 26>
| 27>
| 28> #%pal
| 29> #nprocs 8
| 30> #end
| 31>
| 32> * xyz 0 1
| 33> C  -21.048   26.222   46.251
| 34> C  -20.361   27.558   45.944
| 35> C  -20.329   28.222   47.341
| 36> C  -20.110   27.022   48.296
| 37> O  -20.473   25.807   47.535
| 38> H  -20.833   25.428   45.533
| 39> H  -19.344   27.382   45.576
| 40> H  -20.898   28.157   45.201
| 41> H  -19.543   28.978   47.434
| 42> H  -21.289   28.710   47.548
| 43> H  -20.733   27.082   49.195
| 44> H  -19.064   26.913   48.597
| 45> C  -23.162   27.680   45.721
| 46> H  -22.341   28.375   45.504
| 47> H  -23.664   27.437   44.775
| 48> O  -22.586   26.394   46.375
| 49> C  -24.191   28.407   46.630
| 50> C  -23.529   28.934   47.908
| 51> C  -22.839   30.221   47.397
| 52> C  -23.826   30.747   46.325
| 53> O  -24.701   29.611   45.965
| 54> H  -25.045   27.750   46.800
| 55> O  -24.613   29.276   48.966
| 56> H  -22.826   28.222   48.354
| 57> H  -22.658   30.950   48.193
| 58> H  -21.872   29.974   46.943
| 59> H  -23.316   31.107   45.426
| 60> H  -24.472   31.543   46.708
| 61> H  -25.330   29.989   48.542
| 62> *
| 63>
| 64>                          ****END OF INPUT****
 Total Charge           Charge          ....    0
 Multiplicity           Mult            ....    1
 Number of Electrons    NEL             ....  102
FINAL SINGLE POINT ENERGY      -652.801883094529
FINAL SINGLE POINT ENERGY      -652.831119157148
FINAL SINGLE POINT ENERGY      -652.846822723314
FINAL SINGLE POINT ENERGY      -652.849600930435
FINAL SINGLE POINT ENERGY      -652.850081247501
FINAL SINGLE POINT ENERGY      -652.850146492039
FINAL SINGLE POINT ENERGY      -652.850155280641
                    ***********************HURRAY********************

CARTESIAN COORDINATES (ANGSTROEM)
---------------------------------
  C    -21.144256   26.282047   46.311719
  C    -20.113484   27.337643   45.905804
  C    -19.938081   28.142914   47.221341
  C    -20.081893   27.049943   48.305989
  O    -20.743969   25.902638   47.638804
  H    -21.075339   25.365996   45.719558
  H    -19.186298   26.815975   45.647029
  H    -20.400092   27.954394   45.050108
  H    -18.972147   28.654217   47.272112
  H    -20.721896   28.895651   47.317475
  H    -20.688830   27.365583   49.159295
  H    -19.116032   26.687424   48.668749
  C    -23.160196   27.789895   45.656072
  H    -22.406747   28.525651   45.347122
  H    -23.695763   27.462040   44.758277
  O    -22.556436   26.636433   46.303215
  C    -24.162047   28.448230   46.616304
  C    -23.611114   29.006522   47.937600
  C    -23.041940   30.381202   47.490101
  C    -24.040760   30.826087   46.390338
  O    -24.771119   29.611238   45.965027
  H    -24.968051   27.738639   46.824015
  O    -24.679245   29.172398   48.909454
  H    -22.885456   28.347656   48.411114
  H    -22.999938   31.073490   48.334864
  H    -22.034121   30.279967   47.078542
  H    -23.544513   31.267841   45.520353
  H    -24.786283   31.536458   46.761736
  H    -25.469954   29.539828   48.460884

 Multiplicity           Mult            ....    1
 Number of Electrons    NEL             ....  102
 Basis Dimension        Dim             ....  149

ORBITAL ENERGIES
----------------

  NO   OCC          E(Eh)            E(eV)
   0   2.0000     -19.148557      -521.0587
   1   2.0000     -19.143214      -520.9133
   2   2.0000     -19.140990      -520.8528
   3   2.0000     -19.138090      -520.7739
   4   2.0000     -10.284907      -279.8665
   5   2.0000     -10.240697      -278.6635
   6   2.0000     -10.237333      -278.5720
   7   2.0000     -10.236157      -278.5400
   8   2.0000     -10.234548      -278.4962
   9   2.0000     -10.231312      -278.4082
  10   2.0000     -10.199260      -277.5360
  11   2.0000     -10.198322      -277.5105
  12   2.0000     -10.193167      -277.3702
  13   2.0000      -1.052796       -28.6480
  14   2.0000      -1.040445       -28.3119
  15   2.0000      -1.007786       -27.4232
  16   2.0000      -0.995924       -27.1005
  17   2.0000      -0.796032       -21.6611
  18   2.0000      -0.783484       -21.3197
  19   2.0000      -0.773483       -21.0476
  20   2.0000      -0.736895       -20.0519
  21   2.0000      -0.684051       -18.6140
  22   2.0000      -0.611794       -16.6478
  23   2.0000      -0.606618       -16.5069
  24   2.0000      -0.598597       -16.2886
  25   2.0000      -0.578580       -15.7440
  26   2.0000      -0.528708       -14.3869
  27   2.0000      -0.515609       -14.0304
  28   2.0000      -0.507271       -13.8035
  29   2.0000      -0.497461       -13.5366
  30   2.0000      -0.479656       -13.0521
  31   2.0000      -0.460205       -12.5228
  32   2.0000      -0.452893       -12.3238
  33   2.0000      -0.442922       -12.0525
  34   2.0000      -0.428952       -11.6724
  35   2.0000      -0.420961       -11.4549
  36   2.0000      -0.410577       -11.1724
  37   2.0000      -0.396619       -10.7926
  38   2.0000      -0.385852       -10.4996
  39   2.0000      -0.377396       -10.2695
  40   2.0000      -0.368078       -10.0159
  41   2.0000      -0.359714        -9.7883
  42   2.0000      -0.354810        -9.6549
  43   2.0000      -0.335213        -9.1216
  44   2.0000      -0.317880        -8.6500
  45   2.0000      -0.308256        -8.3881
  46   2.0000      -0.294304        -8.0084
  47   2.0000      -0.278374        -7.5749
  48   2.0000      -0.267279        -7.2730
  49   2.0000      -0.256909        -6.9908
  50   2.0000      -0.243860        -6.6358
  51   0.0000       0.056840         1.5467
  52   0.0000       0.063970         1.7407
  53   0.0000       0.087345         2.3768
  54   0.0000       0.088488         2.4079
  55   0.0000       0.099338         2.7031

MULLIKEN ATOMIC CHARGES
-----------------------
   0 C :    0.328558
   1 C :   -0.302994
   2 C :   -0.322984
   3 C :   -0.007602
   4 O :   -0.493661
   5 H :    0.156695
   6 H :    0.160178
   7 H :    0.145503
   8 H :    0.146990
   9 H :    0.157367
  10 H :    0.153564
  11 H :    0.148196
  12 C :   -0.000398
  13 H :    0.117215
  14 H :    0.156899
  15 O :   -0.539249
  16 C :    0.065608
  17 C :    0.079586
  18 C :   -0.310170
  19 C :   -0.031806
  20 O :   -0.527975
  21 H :    0.173125
  22 O :   -0.602428
  23 H :    0.176503
  24 H :    0.166942
  25 H :    0.145878
  26 H :    0.145592
  27 H :    0.149836
  28 H :    0.365032
Sum of atomic charges:   -0.0000000

LOEWDIN ATOMIC CHARGES
----------------------
   0 C :    0.187155
   1 C :   -0.232178
   2 C :   -0.224718
   3 C :   -0.030583
   4 O :   -0.306108
   5 H :    0.103395
   6 H :    0.124684
   7 H :    0.114560
   8 H :    0.117695
   9 H :    0.109474
  10 H :    0.106058
  11 H :    0.105816
  12 C :   -0.032308
  13 H :    0.089700
  14 H :    0.110424
  15 O :   -0.341025
  16 C :    0.015108
  17 C :    0.037291
  18 C :   -0.246585
  19 C :   -0.038651
  20 O :   -0.329651
  21 H :    0.120765
  22 O :   -0.411754
  23 H :    0.124554
  24 H :    0.128670
  25 H :    0.108531
  26 H :    0.102919
  27 H :    0.103953
  28 H :    0.282809

  Mayer bond orders larger than 0.100000
B(  0-C ,  1-C ) :   0.9280 B(  0-C ,  4-O ) :   0.9241 B(  0-C ,  5-H ) :   0.9301
B(  0-C , 15-O ) :   0.8559 B(  1-C ,  2-C ) :   0.9529 B(  1-C ,  6-H ) :   0.9328
B(  1-C ,  7-H ) :   0.9292 B(  2-C ,  3-C ) :   0.9500 B(  2-C ,  8-H ) :   0.9468
B(  2-C ,  9-H ) :   0.9212 B(  3-C ,  4-O ) :   0.8425 B(  3-C , 10-H ) :   0.9294
B(  3-C , 11-H ) :   0.9383 B( 12-C , 13-H ) :   0.9156 B( 12-C , 14-H ) :   0.9225
B( 12-C , 15-O ) :   0.8314 B( 12-C , 16-C ) :   0.8967 B( 16-C , 17-C ) :   0.9116
B( 16-C , 20-O ) :   0.8367 B( 16-C , 21-H ) :   0.9238 B( 17-C , 18-C ) :   0.9124
B( 17-C , 22-O ) :   0.8860 B( 17-C , 23-H ) :   0.9180 B( 18-C , 19-C ) :   0.9357
B( 18-C , 24-H ) :   0.9369 B( 18-C , 25-H ) :   0.9156 B( 19-C , 20-O ) :   0.8441
B( 19-C , 26-H ) :   0.9355 B( 19-C , 27-H ) :   0.9371 B( 22-O , 28-H ) :   0.7938

FINAL SINGLE POINT ENERGY      -652.850158519041

DIPOLE MOMENT
-------------
                                X             Y             Z
Electronic contribution:     -5.24809      -4.56785       0.59376
Nuclear contribution   :      6.44356       5.87351      -1.34467
                        -----------------------------------------
Total Dipole Moment    :      1.19547       1.30565      -0.75092
                        -----------------------------------------
Magnitude (a.u.)       :      1.92295
Magnitude (Debye)      :      4.88776

Rotational constants in cm-1:     0.045011     0.016297     0.015516
Rotational constants in MHz :  1349.386029   488.580714   465.170295

                             ****ORCA TERMINATED NORMALLY****
TOTAL RUN TIME: 0 days 0 hours 28 minutes 45 seconds 777 msec
