                         Program Version 4.2.0 -  RELEASE  -
|  1> # Test redundant internal optimization
|  2> #
|  3> ! RKS B3LYP  Opt TightSCF SmallPrint
|  4>
|  5> %basis
|  6>         Basis "6-31G"
|  7> end
|  8>
|  9> %geom
| 10> Constraints
| 11> { D 4  0  15  12  285.0   C } # D for Dihedral angle
| 12> { D 0  15  12  16  195.0   C } # D for Dihedral angle
| 13> { D 0  4  3  2   C } # D for Dihedral angle
| 14> { D 4  3  2  1   C } # D for Dihedral angle
| 15> { D 3  2  1  0   C } # D for Dihedral angle
| 16> { D 2  1  0  4   C } # D for Dihedral angle
| 17> { D 1  0  4  3   C } # D for Dihedral angle
| 18> { D 16  20  19  18   C } # D for Dihedral angle
| 19> { D 20  19  18  17   C } # D for Dihedral angle
| 20> { D 19  18  17  16   C } # D for Dihedral angle
| 21> { D 18  17  16  20   C } # D for Dihedral angle
| 22> { D 17  16  20  19   C } # D for Dihedral angle
| 23> { D 15  12  16  20   C } # D for Dihedral angle
| 24> end
| 25> end
| 26>
| 27>
| 28> #%pal
| 29> #nprocs 8
| 30> #end
| 31>
| 32> * xyz 0 1
| 33> C  -21.048   26.222   46.251
| 34> C  -20.361   27.558   45.944
| 35> C  -20.329   28.222   47.341
| 36> C  -20.110   27.022   48.296
| 37> O  -20.473   25.807   47.535
| 38> H  -20.833   25.428   45.533
| 39> H  -19.344   27.382   45.576
| 40> H  -20.898   28.157   45.201
| 41> H  -19.543   28.978   47.434
| 42> H  -21.289   28.710   47.548
| 43> H  -20.733   27.082   49.195
| 44> H  -19.064   26.913   48.597
| 45> C  -23.396   25.070   46.435
| 46> H  -23.015   24.378   45.674
| 47> H  -23.282   24.595   47.418
| 48> O  -22.586   26.394   46.375
| 49> C  -24.915   25.283   46.186
| 50> C  -25.500   26.312   47.160
| 51> C  -25.050   27.645   46.515
| 52> C  -25.123   27.344   44.997
| 53> O  -25.139   25.871   44.861
| 54> H  -25.418   24.315   46.196
| 55> H  -26.593   26.238   47.172
| 56> O  -24.981   26.142   48.613
| 57> H  -25.683   28.491   46.803
| 58> H  -24.021   27.879   46.813
| 59> H  -24.265   27.746   44.448
| 60> H  -26.043   27.719   44.540
| 61> H  -23.887   26.212   48.624
| 62> *
| 63>
| 64>                          ****END OF INPUT****
 Total Charge           Charge          ....    0
 Multiplicity           Mult            ....    1
 Number of Electrons    NEL             ....  102
FINAL SINGLE POINT ENERGY      -652.838542643514
FINAL SINGLE POINT ENERGY      -652.862863686243
FINAL SINGLE POINT ENERGY      -652.867442572269
FINAL SINGLE POINT ENERGY      -652.868679935027
FINAL SINGLE POINT ENERGY      -652.868801597850
FINAL SINGLE POINT ENERGY      -652.868821143978
FINAL SINGLE POINT ENERGY      -652.868821525897
                    ***********************HURRAY********************

CARTESIAN COORDINATES (ANGSTROEM)
---------------------------------
  C    -21.067984   26.145168   46.254358
  C    -20.432267   27.500604   45.942574
  C    -20.400808   28.164367   47.338983
  C    -20.128237   26.973630   48.286028
  O    -20.468280   25.752266   47.512207
  H    -20.850482   25.340465   45.544730
  H    -19.418070   27.340699   45.560437
  H    -21.005649   28.065290   45.204745
  H    -19.633174   28.940217   47.419206
  H    -21.371551   28.620839   47.555513
  H    -20.734929   26.998344   49.195202
  H    -19.073700   26.884631   48.562481
  C    -23.265616   25.091095   46.444837
  H    -22.894399   24.391202   45.683308
  H    -23.136227   24.629903   47.431815
  O    -22.493343   26.330688   46.363385
  C    -24.744472   25.351847   46.187434
  C    -25.424439   26.325638   47.165325
  C    -25.094554   27.708611   46.523623
  C    -25.138996   27.398717   45.012439
  O    -25.019673   25.923549   44.876240
  H    -25.238931   24.373067   46.203944
  H    -26.501094   26.144286   47.182804
  O    -24.998840   26.186716   48.541526
  H    -25.812825   28.479190   46.818291
  H    -24.091104   28.010235   46.831249
  H    -24.319267   27.867501   44.461069
  H    -26.091470   27.681930   44.553400
  H    -24.071620   26.494307   48.623847

 Multiplicity           Mult            ....    1
 Number of Electrons    NEL             ....  102
 Basis Dimension        Dim             ....  149

ORBITAL ENERGIES
----------------

  NO   OCC          E(Eh)            E(eV)
   0   2.0000     -19.154764      -521.2276
   1   2.0000     -19.146140      -520.9929
   2   2.0000     -19.138724      -520.7912
   3   2.0000     -19.132841      -520.6311
   4   2.0000     -10.284893      -279.8662
   5   2.0000     -10.235528      -278.5229
   6   2.0000     -10.232063      -278.4286
   7   2.0000     -10.230194      -278.3777
   8   2.0000     -10.230025      -278.3731
   9   2.0000     -10.221120      -278.1308
  10   2.0000     -10.192911      -277.3632
  11   2.0000     -10.191678      -277.3297
  12   2.0000     -10.178377      -276.9677
  13   2.0000      -1.062007       -28.8987
  14   2.0000      -1.026258       -27.9259
  15   2.0000      -1.008834       -27.4518
  16   2.0000      -0.999421       -27.1956
  17   2.0000      -0.794800       -21.6276
  18   2.0000      -0.772395       -21.0179
  19   2.0000      -0.765300       -20.8249
  20   2.0000      -0.734198       -19.9785
  21   2.0000      -0.677140       -18.4259
  22   2.0000      -0.605764       -16.4837
  23   2.0000      -0.601117       -16.3572
  24   2.0000      -0.596505       -16.2317
  25   2.0000      -0.574093       -15.6219
  26   2.0000      -0.527391       -14.3510
  27   2.0000      -0.510411       -13.8890
  28   2.0000      -0.499322       -13.5872
  29   2.0000      -0.490050       -13.3349
  30   2.0000      -0.468471       -12.7477
  31   2.0000      -0.465624       -12.6703
  32   2.0000      -0.442159       -12.0318
  33   2.0000      -0.427416       -11.6306
  34   2.0000      -0.420139       -11.4326
  35   2.0000      -0.418164       -11.3788
  36   2.0000      -0.404371       -11.0035
  37   2.0000      -0.397553       -10.8180
  38   2.0000      -0.385064       -10.4781
  39   2.0000      -0.366420        -9.9708
  40   2.0000      -0.363645        -9.8953
  41   2.0000      -0.354234        -9.6392
  42   2.0000      -0.347584        -9.4582
  43   2.0000      -0.336931        -9.1683
  44   2.0000      -0.321984        -8.7616
  45   2.0000      -0.308958        -8.4072
  46   2.0000      -0.304042        -8.2734
  47   2.0000      -0.277182        -7.5425
  48   2.0000      -0.261877        -7.1260
  49   2.0000      -0.258730        -7.0404
  50   2.0000      -0.238848        -6.4994
  51   0.0000       0.055216         1.5025
  52   0.0000       0.082133         2.2350
  53   0.0000       0.085752         2.3334
  54   0.0000       0.097856         2.6628
  55   0.0000       0.106881         2.9084

MULLIKEN ATOMIC CHARGES
-----------------------
   0 C :    0.294554
   1 C :   -0.262802
   2 C :   -0.303018
   3 C :   -0.005904
   4 O :   -0.511991
   5 H :    0.148631
   6 H :    0.150165
   7 H :    0.156764
   8 H :    0.146076
   9 H :    0.155600
  10 H :    0.144006
  11 H :    0.147559
  12 C :   -0.019051
  13 H :    0.146036
  14 H :    0.155360
  15 O :   -0.535848
  16 C :    0.086328
  17 C :    0.083290
  18 C :   -0.309539
  19 C :   -0.001688
  20 O :   -0.522293
  21 H :    0.150901
  22 H :    0.162816
  23 O :   -0.606720
  24 H :    0.143113
  25 H :    0.161220
  26 H :    0.144051
  27 H :    0.139308
  28 H :    0.363075
Sum of atomic charges:   -0.0000000

LOEWDIN ATOMIC CHARGES
----------------------
   0 C :    0.173304
   1 C :   -0.214580
   2 C :   -0.216930
   3 C :   -0.028853
   4 O :   -0.329311
   5 H :    0.100003
   6 H :    0.117139
   7 H :    0.123797
   8 H :    0.115791
   9 H :    0.113793
  10 H :    0.103235
  11 H :    0.105284
  12 C :   -0.048608
  13 H :    0.106057
  14 H :    0.108748
  15 O :   -0.332996
  16 C :    0.018213
  17 C :    0.037413
  18 C :   -0.242269
  19 C :   -0.024478
  20 O :   -0.324103
  21 H :    0.115758
  22 H :    0.116457
  23 O :   -0.410852
  24 H :    0.114572
  25 H :    0.118386
  26 H :    0.103534
  27 H :    0.100012
  28 H :    0.281485

  Mayer bond orders larger than 0.100000
B(  0-C ,  1-C ) :   0.9494 B(  0-C ,  4-O ) :   0.9055 B(  0-C ,  5-H ) :   0.9171
B(  0-C , 15-O ) :   0.8540 B(  1-C ,  2-C ) :   0.9556 B(  1-C ,  6-H ) :   0.9393
B(  1-C ,  7-H ) :   0.9359 B(  2-C ,  3-C ) :   0.9536 B(  2-C ,  8-H ) :   0.9448
B(  2-C ,  9-H ) :   0.9446 B(  3-C ,  4-O ) :   0.8389 B(  3-C , 10-H ) :   0.9358
B(  3-C , 11-H ) :   0.9399 B( 12-C , 13-H ) :   0.9206 B( 12-C , 14-H ) :   0.9035
B( 12-C , 15-O ) :   0.8194 B( 12-C , 16-C ) :   0.9142 B( 16-C , 17-C ) :   0.8890
B( 16-C , 20-O ) :   0.8788 B( 16-C , 21-H ) :   0.9277 B( 17-C , 18-C ) :   0.9301
B( 17-C , 22-H ) :   0.9358 B( 17-C , 23-O ) :   0.9029 B( 18-C , 19-C ) :   0.9448
B( 18-C , 24-H ) :   0.9414 B( 18-C , 25-H ) :   0.9273 B( 19-C , 20-O ) :   0.8376
B( 19-C , 26-H ) :   0.9327 B( 19-C , 27-H ) :   0.9380 B( 23-O , 28-H ) :   0.7917

FINAL SINGLE POINT ENERGY      -652.868819828252

DIPOLE MOMENT
-------------
                                X             Y             Z
Electronic contribution:     -2.39938      -4.62188      -0.27055
Nuclear contribution   :      3.20857       5.58039       0.16033
                        -----------------------------------------
Total Dipole Moment    :      0.80919       0.95852      -0.11022
                        -----------------------------------------
Magnitude (a.u.)       :      1.25924
Magnitude (Debye)      :      3.20074

Rotational constants in cm-1:     0.045303     0.016125     0.015331
Rotational constants in MHz :  1358.158431   483.420369   459.624060

                             ****ORCA TERMINATED NORMALLY****
TOTAL RUN TIME: 0 days 0 hours 25 minutes 33 seconds 102 msec
