                         Program Version 4.2.1 -  RELEASE  -
|  1> # Test redundant internal optimization
|  2> #
|  3> ! RKS B3LYP  Opt TightSCF SmallPrint
|  4>
|  5> %basis
|  6>         Basis "6-31G"
|  7> end
|  8>
|  9> %geom
| 10> Constraints
| 11> { D 4  0  19  14  195.0   C } # D for Dihedral angle
| 12> { D 0  19  14  12  135.0   C } # D for Dihedral angle
| 13> { D 0  4  3  2   C } # D for Dihedral angle
| 14> { D 4  3  2  1   C } # D for Dihedral angle
| 15> { D 3  2  1  0   C } # D for Dihedral angle
| 16> { D 2  1  0  4   C } # D for Dihedral angle
| 17> { D 1  0  4  3   C } # D for Dihedral angle
| 18> { D 14  15  16  17   C } # D for Dihedral angle
| 19> { D 15  16  17  12   C } # D for Dihedral angle
| 20> { D 16  17  12  14   C } # D for Dihedral angle
| 21> { D 17  12  14  15   C } # D for Dihedral angle
| 22> { D 12  14  15  16   C } # D for Dihedral angle
| 23> end
| 24> end
| 25>
| 26>
| 27> #%pal
| 28> #nprocs 8
| 29> #end
| 30>
| 31> * xyz 0 1
| 32> C  -21.048   26.222   46.251
| 33> C  -20.361   27.558   45.944
| 34> C  -20.329   28.222   47.341
| 35> C  -20.110   27.022   48.296
| 36> O  -20.473   25.807   47.535
| 37> H  -20.833   25.428   45.533
| 38> H  -19.344   27.382   45.576
| 39> H  -20.898   28.157   45.201
| 40> H  -19.543   28.978   47.434
| 41> H  -21.289   28.710   47.548
| 42> H  -20.733   27.082   49.195
| 43> H  -19.064   26.913   48.597
| 44> C  -24.415   25.566   45.147
| 45> H  -24.798   25.369   44.133
| 46> C  -23.163   26.451   45.109
| 47> C  -23.778   27.855   44.901
| 48> C  -25.098   27.785   45.708
| 49> O  -25.387   26.349   45.918
| 50> H  -24.282   24.617   45.670
| 51> O  -22.472   26.381   46.366
| 52> H  -22.464   26.172   44.314
| 53> H  -23.122   28.661   45.243
| 54> H  -23.986   28.022   43.836
| 55> H  -25.940   28.246   45.180
| 56> H  -25.008   28.242   46.698
| 57> *
| 58>
| 59>                          ****END OF INPUT****
 Total Charge           Charge          ....    0
 Multiplicity           Mult            ....    1
 Number of Electrons    NEL             ....   86
FINAL SINGLE POINT ENERGY      -538.426483564701
FINAL SINGLE POINT ENERGY      -538.428721806309
FINAL SINGLE POINT ENERGY      -538.428949507312
FINAL SINGLE POINT ENERGY      -538.428983920466
FINAL SINGLE POINT ENERGY      -538.428995330004
                    ***********************HURRAY********************

CARTESIAN COORDINATES (ANGSTROEM)
---------------------------------
  C    -20.998907   26.229236   46.217746
  C    -20.291108   27.555800   45.950135
  C    -20.327765   28.228016   47.344981
  C    -20.167970   27.030364   48.304913
  O    -20.506014   25.826259   47.500866
  H    -20.769799   25.427862   45.506596
  H    -19.257773   27.356003   45.641701
  H    -20.772016   28.153371   45.171126
  H    -19.538514   28.974908   47.471985
  H    -21.295429   28.715253   47.496626
  H    -20.840191   27.072734   49.164909
  H    -19.139217   26.895667   48.651380
  C    -24.419141   25.570148   45.169202
  H    -24.832009   25.359561   44.171039
  C    -23.181343   26.463748   45.068636
  C    -23.815959   27.856870   44.879113
  C    -25.097476   27.782827   45.744701
  O    -25.360426   26.347453   45.975331
  H    -24.221760   24.637278   45.698018
  O    -22.443979   26.388920   46.326525
  H    -22.530612   26.180439   44.230434
  H    -23.141588   28.658338   45.190928
  H    -24.063180   28.006205   43.821154
  H    -25.964413   28.234854   45.249774
  H    -24.961413   28.244885   46.726181

 Multiplicity           Mult            ....    1
 Number of Electrons    NEL             ....   86
 Basis Dimension        Dim             ....  127

ORBITAL ENERGIES
----------------

  NO   OCC          E(Eh)            E(eV)
   0   2.0000     -19.140961      -520.8520
   1   2.0000     -19.138423      -520.7830
   2   2.0000     -19.126292      -520.4529
   3   2.0000     -10.281254      -279.7671
   4   2.0000     -10.242917      -278.7239
   5   2.0000     -10.225321      -278.2451
   6   2.0000     -10.220435      -278.1122
   7   2.0000     -10.219895      -278.0975
   8   2.0000     -10.189035      -277.2577
   9   2.0000     -10.188786      -277.2510
  10   2.0000     -10.188320      -277.2383
  11   2.0000      -1.054197       -28.6862
  12   2.0000      -1.014381       -27.6027
  13   2.0000      -0.989749       -26.9324
  14   2.0000      -0.789185       -21.4748
  15   2.0000      -0.781542       -21.2668
  16   2.0000      -0.741076       -20.1657
  17   2.0000      -0.723246       -19.6805
  18   2.0000      -0.610191       -16.6042
  19   2.0000      -0.599723       -16.3193
  20   2.0000      -0.597767       -16.2661
  21   2.0000      -0.578438       -15.7401
  22   2.0000      -0.520318       -14.1586
  23   2.0000      -0.505783       -13.7631
  24   2.0000      -0.487768       -13.2728
  25   2.0000      -0.480587       -13.0774
  26   2.0000      -0.451793       -12.2939
  27   2.0000      -0.444119       -12.0851
  28   2.0000      -0.430892       -11.7252
  29   2.0000      -0.415096       -11.2953
  30   2.0000      -0.411935       -11.2093
  31   2.0000      -0.385677       -10.4948
  32   2.0000      -0.374979       -10.2037
  33   2.0000      -0.363161        -9.8821
  34   2.0000      -0.360445        -9.8082
  35   2.0000      -0.358872        -9.7654
  36   2.0000      -0.351656        -9.5690
  37   2.0000      -0.315673        -8.5899
  38   2.0000      -0.305785        -8.3208
  39   2.0000      -0.298848        -8.1321
  40   2.0000      -0.260560        -7.0902
  41   2.0000      -0.253502        -6.8981
  42   2.0000      -0.230241        -6.2652
  43   0.0000       0.070960         1.9309
  44   0.0000       0.083139         2.2623
  45   0.0000       0.096039         2.6133
  46   0.0000       0.111223         3.0265
  47   0.0000       0.120686         3.2840

MULLIKEN ATOMIC CHARGES
-----------------------
   0 C :    0.296566
   1 C :   -0.272245
   2 C :   -0.300681
   3 C :   -0.000459
   4 O :   -0.501724
   5 H :    0.138506
   6 H :    0.145174
   7 H :    0.140779
   8 H :    0.142555
   9 H :    0.159445
  10 H :    0.157614
  11 H :    0.141883
  12 C :    0.013634
  13 H :    0.119636
  14 C :    0.050526
  15 C :   -0.291184
  16 C :    0.005693
  17 O :   -0.516173
  18 H :    0.168847
  19 O :   -0.497906
  20 H :    0.122740
  21 H :    0.150281
  22 H :    0.139835
  23 H :    0.133690
  24 H :    0.152968
Sum of atomic charges:   -0.0000000

LOEWDIN ATOMIC CHARGES
----------------------
   0 C :    0.180466
   1 C :   -0.232072
   2 C :   -0.217212
   3 C :   -0.024077
   4 O :   -0.302016
   5 H :    0.094867
   6 H :    0.114224
   7 H :    0.112000
   8 H :    0.114600
   9 H :    0.116757
  10 H :    0.111254
  11 H :    0.102506
  12 C :   -0.036083
  13 H :    0.089116
  14 C :    0.034639
  15 C :   -0.233579
  16 C :   -0.027355
  17 O :   -0.326369
  18 H :    0.123895
  19 O :   -0.327157
  20 H :    0.095861
  21 H :    0.118646
  22 H :    0.111661
  23 H :    0.097492
  24 H :    0.107936

  Mayer bond orders larger than 0.100000
B(  0-C ,  1-C ) :   0.9258 B(  0-C ,  4-O ) :   0.9401 B(  0-C ,  5-H ) :   0.9190
B(  0-C , 19-O ) :   0.8415 B(  1-C ,  2-C ) :   0.9533 B(  1-C ,  6-H ) :   0.9334
B(  1-C ,  7-H ) :   0.9342 B(  2-C ,  3-C ) :   0.9553 B(  2-C ,  8-H ) :   0.9449
B(  2-C ,  9-H ) :   0.9433 B(  3-C ,  4-O ) :   0.8348 B(  3-C , 10-H ) :   0.9339
B(  3-C , 11-H ) :   0.9397 B( 12-C , 13-H ) :   0.9129 B( 12-C , 14-C ) :   0.9299
B( 12-C , 17-O ) :   0.8723 B( 12-C , 18-H ) :   0.9306 B( 14-C , 15-C ) :   0.9377
B( 14-C , 19-O ) :   0.8352 B( 14-C , 20-H ) :   0.9174 B( 15-C , 16-C ) :   0.9476
B( 15-C , 21-H ) :   0.9379 B( 15-C , 22-H ) :   0.9378 B( 16-C , 17-O ) :   0.8580
B( 16-C , 23-H ) :   0.9331 B( 16-C , 24-H ) :   0.9355

FINAL SINGLE POINT ENERGY      -538.428996531015

DIPOLE MOMENT
-------------
                                X             Y             Z
Electronic contribution:     -1.61841      -4.71620       1.81088
Nuclear contribution   :      2.50353       5.84131      -2.89199
                        -----------------------------------------
Total Dipole Moment    :      0.88512       1.12511      -1.08112
                        -----------------------------------------
Magnitude (a.u.)       :      1.79391
Magnitude (Debye)      :      4.55976

Rotational constants in cm-1:     0.077701     0.020812     0.019777
Rotational constants in MHz :  2329.412940   623.929052   592.892762

                             ****ORCA TERMINATED NORMALLY****
TOTAL RUN TIME: 0 days 0 hours 12 minutes 25 seconds 907 msec
