                         Program Version 4.2.0 -  RELEASE  -
|  1> # Test redundant internal optimization
|  2> #
|  3> ! RKS B3LYP  Opt TightSCF SmallPrint
|  4>
|  5> %basis
|  6>         Basis "6-31G"
|  7> end
|  8>
|  9> %geom
| 10> Constraints
| 11> { D 4  0  15  12  30.0   C } # D for Dihedral angle
| 12> { D 0  15  12  16  270.0   C } # D for Dihedral angle
| 13> { D 0  4  3  2   C } # D for Dihedral angle
| 14> { D 4  3  2  1   C } # D for Dihedral angle
| 15> { D 3  2  1  0   C } # D for Dihedral angle
| 16> { D 2  1  0  4   C } # D for Dihedral angle
| 17> { D 1  0  4  3   C } # D for Dihedral angle
| 18> { D 16  20  19  18   C } # D for Dihedral angle
| 19> { D 20  19  18  17   C } # D for Dihedral angle
| 20> { D 19  18  17  16   C } # D for Dihedral angle
| 21> { D 18  17  16  20   C } # D for Dihedral angle
| 22> { D 17  16  20  19   C } # D for Dihedral angle
| 23> { D 15  12  16  20   C } # D for Dihedral angle
| 24> end
| 25> end
| 26>
| 27>
| 28> #%pal
| 29> #nprocs 8
| 30> #end
| 31>
| 32> * xyz 0 1
| 33> C  -21.048   26.222   46.251
| 34> C  -20.361   27.558   45.944
| 35> C  -20.329   28.222   47.341
| 36> C  -20.110   27.022   48.296
| 37> O  -20.473   25.807   47.535
| 38> H  -20.833   25.428   45.533
| 39> H  -19.344   27.382   45.576
| 40> H  -20.898   28.157   45.201
| 41> H  -19.543   28.978   47.434
| 42> H  -21.289   28.710   47.548
| 43> H  -20.733   27.082   49.195
| 44> H  -19.064   26.913   48.597
| 45> C  -23.091   26.824   47.779
| 46> H  -22.323   27.436   48.269
| 47> H  -24.005   27.426   47.691
| 48> O  -22.586   26.394   46.375
| 49> C  -23.410   25.613   48.700
| 50> C  -22.146   24.807   49.017
| 51> C  -21.492   25.671   50.121
| 52> C  -22.710   26.231   50.897
| 53> O  -23.882   26.075   50.009
| 54> H  -24.219   25.030   48.256
| 55> O  -22.532   23.408   49.571
| 56> H  -21.496   24.665   48.147
| 57> H  -20.815   25.098   50.763
| 58> H  -20.914   26.486   49.668
| 59> H  -22.593   27.288   51.155
| 60> H  -22.919   25.665   51.809
| 61> H  -23.183   23.525   50.445
| 62> *
| 63>
| 64>                          ****END OF INPUT****
 Total Charge           Charge          ....    0
 Multiplicity           Mult            ....    1
 Number of Electrons    NEL             ....  102
FINAL SINGLE POINT ENERGY      -652.696594840869
FINAL SINGLE POINT ENERGY      -652.762812100001
FINAL SINGLE POINT ENERGY      -652.800498692003
FINAL SINGLE POINT ENERGY      -652.822996701202
FINAL SINGLE POINT ENERGY      -652.835761317024
FINAL SINGLE POINT ENERGY      -652.843237114323
FINAL SINGLE POINT ENERGY      -652.847744470212
FINAL SINGLE POINT ENERGY      -652.850449444857
FINAL SINGLE POINT ENERGY      -652.851974300487
FINAL SINGLE POINT ENERGY      -652.852631069359
FINAL SINGLE POINT ENERGY      -652.853652205061
FINAL SINGLE POINT ENERGY      -652.853809870943
FINAL SINGLE POINT ENERGY      -652.854022071699
FINAL SINGLE POINT ENERGY      -652.854235768998
FINAL SINGLE POINT ENERGY      -652.854380468431
FINAL SINGLE POINT ENERGY      -652.854489581251
FINAL SINGLE POINT ENERGY      -652.854528662419
FINAL SINGLE POINT ENERGY      -652.854557888151
FINAL SINGLE POINT ENERGY      -652.854558999875
                    ***********************HURRAY********************

CARTESIAN COORDINATES (ANGSTROEM)
---------------------------------
  C    -21.041880   26.376472   46.315387
  C    -20.459459   27.689186   45.778360
  C    -20.047664   28.414234   47.087912
  C    -19.583561   27.254685   47.996131
  O    -20.154350   26.012251   47.398533
  H    -20.970012   25.560302   45.593171
  H    -19.581114   27.464183   45.163051
  H    -21.184066   28.244768   45.179943
  H    -19.256513   29.153695   46.931091
  H    -20.909641   28.933603   47.520146
  H    -19.926173   27.354029   49.027539
  H    -18.497239   27.124078   47.993391
  C    -23.107915   26.747686   47.851701
  H    -22.545503   27.507095   48.413510
  H    -24.072909   27.177872   47.577465
  O    -22.459088   26.427153   46.589384
  C    -23.367442   25.522584   48.752422
  C    -22.207311   24.651478   49.259620
  C    -21.697124   25.478690   50.470879
  C    -23.000091   26.092104   51.046085
  O    -24.021284   25.999104   49.978100
  H    -24.090397   24.877422   48.241083
  O    -22.720830   23.355430   49.682741
  H    -21.435818   24.452226   48.522427
  H    -21.177539   24.835631   51.185895
  H    -21.005833   26.253377   50.136692
  H    -22.885566   27.140817   51.339073
  H    -23.382408   25.532827   51.905665
  H    -23.552268   23.490021   50.185601

 Multiplicity           Mult            ....    1
 Number of Electrons    NEL             ....  102
 Basis Dimension        Dim             ....  149

ORBITAL ENERGIES
----------------

  NO   OCC          E(Eh)            E(eV)
   0   2.0000     -19.159595      -521.3591
   1   2.0000     -19.142341      -520.8896
   2   2.0000     -19.142244      -520.8869
   3   2.0000     -19.128020      -520.4999
   4   2.0000     -10.285948      -279.8949
   5   2.0000     -10.240506      -278.6583
   6   2.0000     -10.235360      -278.5183
   7   2.0000     -10.228944      -278.3437
   8   2.0000     -10.227389      -278.3014
   9   2.0000     -10.226647      -278.2812
  10   2.0000     -10.199323      -277.5377
  11   2.0000     -10.191913      -277.3361
  12   2.0000     -10.182398      -277.0771
  13   2.0000      -1.057994       -28.7895
  14   2.0000      -1.032704       -28.1013
  15   2.0000      -1.001392       -27.2493
  16   2.0000      -0.996981       -27.1292
  17   2.0000      -0.796775       -21.6814
  18   2.0000      -0.774681       -21.0801
  19   2.0000      -0.768180       -20.9032
  20   2.0000      -0.737265       -20.0620
  21   2.0000      -0.679226       -18.4827
  22   2.0000      -0.612135       -16.6570
  23   2.0000      -0.601971       -16.3805
  24   2.0000      -0.596857       -16.2413
  25   2.0000      -0.570752       -15.5310
  26   2.0000      -0.524574       -14.2744
  27   2.0000      -0.511793       -13.9266
  28   2.0000      -0.508229       -13.8296
  29   2.0000      -0.486172       -13.2294
  30   2.0000      -0.479702       -13.0534
  31   2.0000      -0.456869       -12.4320
  32   2.0000      -0.453590       -12.3428
  33   2.0000      -0.433373       -11.7927
  34   2.0000      -0.422127       -11.4867
  35   2.0000      -0.417988       -11.3740
  36   2.0000      -0.411423       -11.1954
  37   2.0000      -0.387053       -10.5323
  38   2.0000      -0.382699       -10.4138
  39   2.0000      -0.370192       -10.0734
  40   2.0000      -0.361557        -9.8385
  41   2.0000      -0.357433        -9.7263
  42   2.0000      -0.349531        -9.5112
  43   2.0000      -0.336037        -9.1440
  44   2.0000      -0.324791        -8.8380
  45   2.0000      -0.309694        -8.4272
  46   2.0000      -0.299357        -8.1459
  47   2.0000      -0.273231        -7.4350
  48   2.0000      -0.266955        -7.2642
  49   2.0000      -0.258206        -7.0261
  50   2.0000      -0.236705        -6.4411
  51   0.0000       0.055880         1.5206
  52   0.0000       0.071342         1.9413
  53   0.0000       0.087174         2.3721
  54   0.0000       0.093929         2.5559
  55   0.0000       0.105411         2.8684

MULLIKEN ATOMIC CHARGES
-----------------------
   0 C :    0.308980
   1 C :   -0.263988
   2 C :   -0.315952
   3 C :   -0.024208
   4 O :   -0.511595
   5 H :    0.169636
   6 H :    0.151545
   7 H :    0.160515
   8 H :    0.151011
   9 H :    0.153850
  10 H :    0.143040
  11 H :    0.158738
  12 C :   -0.001827
  13 H :    0.118121
  14 H :    0.169169
  15 O :   -0.541931
  16 C :    0.054535
  17 C :    0.075460
  18 C :   -0.306032
  19 C :   -0.031062
  20 O :   -0.530416
  21 H :    0.163797
  22 O :   -0.604168
  23 H :    0.197533
  24 H :    0.160758
  25 H :    0.147283
  26 H :    0.139886
  27 H :    0.146343
  28 H :    0.360980
Sum of atomic charges:    0.0000000

LOEWDIN ATOMIC CHARGES
----------------------
   0 C :    0.181264
   1 C :   -0.223906
   2 C :   -0.221721
   3 C :   -0.035579
   4 O :   -0.318222
   5 H :    0.112473
   6 H :    0.117834
   7 H :    0.125468
   8 H :    0.119201
   9 H :    0.111793
  10 H :    0.098017
  11 H :    0.109873
  12 C :   -0.030956
  13 H :    0.088699
  14 H :    0.123666
  15 O :   -0.337126
  16 C :    0.006359
  17 C :    0.033179
  18 C :   -0.241658
  19 C :   -0.039955
  20 O :   -0.333170
  21 H :    0.115083
  22 O :   -0.416650
  23 H :    0.136627
  24 H :    0.126061
  25 H :    0.111729
  26 H :    0.100304
  27 H :    0.101961
  28 H :    0.279352

  Mayer bond orders larger than 0.100000
B(  0-C ,  1-C ) :   0.9201 B(  0-C ,  4-O ) :   0.8882 B(  0-C ,  5-H ) :   0.9340
B(  0-C , 15-O ) :   0.8742 B(  1-C ,  2-C ) :   0.9559 B(  1-C ,  6-H ) :   0.9347
B(  1-C ,  7-H ) :   0.9374 B(  2-C ,  3-C ) :   0.9500 B(  2-C ,  8-H ) :   0.9427
B(  2-C ,  9-H ) :   0.9435 B(  3-C ,  4-O ) :   0.8368 B(  3-C , 10-H ) :   0.9145
B(  3-C , 11-H ) :   0.9387 B( 12-C , 13-H ) :   0.9233 B( 12-C , 14-H ) :   0.9338
B( 12-C , 15-O ) :   0.8288 B( 12-C , 16-C ) :   0.8824 B( 16-C , 17-C ) :   0.9176
B( 16-C , 20-O ) :   0.8264 B( 16-C , 21-H ) :   0.9252 B( 17-C , 18-C ) :   0.9170
B( 17-C , 22-O ) :   0.8735 B( 17-C , 23-H ) :   0.9066 B( 18-C , 19-C ) :   0.9432
B( 18-C , 24-H ) :   0.9388 B( 18-C , 25-H ) :   0.9170 B( 19-C , 20-O ) :   0.8424
B( 19-C , 26-H ) :   0.9360 B( 19-C , 27-H ) :   0.9381 B( 22-O , 28-H ) :   0.7955

FINAL SINGLE POINT ENERGY      -652.854558849285

DIPOLE MOMENT
-------------
                                X             Y             Z
Electronic contribution:     -3.95954      -5.05464      -1.20451
Nuclear contribution   :      4.81672       6.53286       1.38207
                        -----------------------------------------
Total Dipole Moment    :      0.85718       1.47822       0.17756
                        -----------------------------------------
Magnitude (a.u.)       :      1.71797
Magnitude (Debye)      :      4.36674

Rotational constants in cm-1:     0.047126     0.016618     0.016104
Rotational constants in MHz :  1412.794410   498.207478   482.791299

                             ****ORCA TERMINATED NORMALLY****
TOTAL RUN TIME: 0 days 4 hours 23 minutes 56 seconds 594 msec
