                         Program Version 4.2.0 -  RELEASE  -
|  1> # Test redundant internal optimization
|  2> #
|  3> ! RKS B3LYP  Opt TightSCF SmallPrint
|  4>
|  5> %basis
|  6>         Basis "6-31G"
|  7> end
|  8>
|  9> %geom
| 10> Constraints
| 11> { D 4  0  15  12  0.0   C } # D for Dihedral angle
| 12> { D 0  15  12  16  270.0   C } # D for Dihedral angle
| 13> { D 0  4  3  2   C } # D for Dihedral angle
| 14> { D 4  3  2  1   C } # D for Dihedral angle
| 15> { D 3  2  1  0   C } # D for Dihedral angle
| 16> { D 2  1  0  4   C } # D for Dihedral angle
| 17> { D 1  0  4  3   C } # D for Dihedral angle
| 18> { D 16  20  19  18   C } # D for Dihedral angle
| 19> { D 20  19  18  17   C } # D for Dihedral angle
| 20> { D 19  18  17  16   C } # D for Dihedral angle
| 21> { D 18  17  16  20   C } # D for Dihedral angle
| 22> { D 17  16  20  19   C } # D for Dihedral angle
| 23> { D 15  12  16  20   C } # D for Dihedral angle
| 24> end
| 25> end
| 26>
| 27>
| 28> #%pal
| 29> #nprocs 8
| 30> #end
| 31>
| 32> * xyz 0 1
| 33> C  -21.048   26.222   46.251
| 34> C  -20.361   27.558   45.944
| 35> C  -20.329   28.222   47.341
| 36> C  -20.110   27.022   48.296
| 37> O  -20.473   25.807   47.535
| 38> H  -20.833   25.428   45.533
| 39> H  -19.344   27.382   45.576
| 40> H  -20.898   28.157   45.201
| 41> H  -19.543   28.978   47.434
| 42> H  -21.289   28.710   47.548
| 43> H  -20.733   27.082   49.195
| 44> H  -19.064   26.913   48.597
| 45> C  -23.172   26.101   47.783
| 46> H  -22.423   26.348   48.546
| 47> H  -24.062   26.717   47.965
| 48> O  -22.586   26.394   46.375
| 49> C  -23.581   24.613   47.966
| 50> C  -24.260   24.384   49.320
| 51> C  -25.691   24.905   49.046
| 52> C  -25.934   24.505   47.570
| 53> O  -24.603   24.238   46.982
| 54> H  -22.712   23.978   47.782
| 55> H  -24.277   23.315   49.558
| 56> O  -23.560   25.134   50.487
| 57> H  -26.437   24.475   49.723
| 58> H  -25.724   25.995   49.161
| 59> H  -26.427   25.297   46.996
| 60> H  -26.518   23.584   47.477
| 61> H  -23.533   26.208   50.273
| 62> *
| 63>
| 64>                          ****END OF INPUT****
 Total Charge           Charge          ....    0
 Multiplicity           Mult            ....    1
 Number of Electrons    NEL             ....  102
FINAL SINGLE POINT ENERGY      -652.824422848192
FINAL SINGLE POINT ENERGY      -652.847698529969
FINAL SINGLE POINT ENERGY      -652.852782798421
FINAL SINGLE POINT ENERGY      -652.853703458512
FINAL SINGLE POINT ENERGY      -652.853893133194
FINAL SINGLE POINT ENERGY      -652.853940682869
FINAL SINGLE POINT ENERGY      -652.853946342542
FINAL SINGLE POINT ENERGY      -652.853947407884
                    ***********************HURRAY********************

CARTESIAN COORDINATES (ANGSTROEM)
---------------------------------
  C    -21.088413   26.221728   46.342871
  C    -20.439194   27.548138   45.943916
  C    -20.248325   28.233678   47.318097
  C    -19.926065   27.050703   48.259044
  O    -20.384925   25.827893   47.541632
  H    -20.945226   25.412327   45.623668
  H    -19.473488   27.348108   45.465544
  H    -21.067583   28.120229   45.258360
  H    -19.450836   28.983023   47.309431
  H    -21.176751   28.731136   47.618331
  H    -20.436959   27.107651   49.224512
  H    -18.853298   26.923974   48.430380
  C    -23.144901   26.154765   47.800057
  H    -22.467011   26.414968   48.618230
  H    -24.007381   26.829516   47.812411
  O    -22.528040   26.385490   46.505107
  C    -23.583451   24.699520   47.981181
  C    -24.288702   24.432239   49.321527
  C    -25.749931   24.882067   49.012344
  C    -25.922637   24.469627   47.533069
  O    -24.559580   24.274268   46.981365
  H    -22.708943   24.057827   47.845680
  H    -24.257281   23.363088   49.542284
  O    -23.692331   25.062777   50.483195
  H    -26.478792   24.410070   49.676147
  H    -25.831872   25.970619   49.137405
  H    -26.444709   25.225415   46.937291
  H    -26.449866   23.516108   47.430729
  H    -23.918508   26.015051   50.507193

 Multiplicity           Mult            ....    1
 Number of Electrons    NEL             ....  102
 Basis Dimension        Dim             ....  149

ORBITAL ENERGIES
----------------

  NO   OCC          E(Eh)            E(eV)
   0   2.0000     -19.149317      -521.0794
   1   2.0000     -19.147120      -521.0196
   2   2.0000     -19.132920      -520.6332
   3   2.0000     -19.131110      -520.5840
   4   2.0000     -10.275276      -279.6045
   5   2.0000     -10.241270      -278.6791
   6   2.0000     -10.231965      -278.4259
   7   2.0000     -10.226642      -278.2811
   8   2.0000     -10.225519      -278.2505
   9   2.0000     -10.221616      -278.1443
  10   2.0000     -10.193632      -277.3828
  11   2.0000     -10.190800      -277.3058
  12   2.0000     -10.183751      -277.1140
  13   2.0000      -1.052314       -28.6349
  14   2.0000      -1.029849       -28.0236
  15   2.0000      -1.011029       -27.5115
  16   2.0000      -0.988195       -26.8902
  17   2.0000      -0.789683       -21.4884
  18   2.0000      -0.778704       -21.1896
  19   2.0000      -0.764283       -20.7972
  20   2.0000      -0.732493       -19.9322
  21   2.0000      -0.676296       -18.4029
  22   2.0000      -0.608192       -16.5497
  23   2.0000      -0.602883       -16.4053
  24   2.0000      -0.597114       -16.2483
  25   2.0000      -0.562529       -15.3072
  26   2.0000      -0.522774       -14.2254
  27   2.0000      -0.511680       -13.9235
  28   2.0000      -0.499411       -13.5897
  29   2.0000      -0.493383       -13.4256
  30   2.0000      -0.466495       -12.6940
  31   2.0000      -0.457587       -12.4516
  32   2.0000      -0.437724       -11.9111
  33   2.0000      -0.430152       -11.7050
  34   2.0000      -0.422879       -11.5071
  35   2.0000      -0.416417       -11.3313
  36   2.0000      -0.409993       -11.1565
  37   2.0000      -0.395838       -10.7713
  38   2.0000      -0.375511       -10.2182
  39   2.0000      -0.370674       -10.0865
  40   2.0000      -0.359754        -9.7894
  41   2.0000      -0.352399        -9.5893
  42   2.0000      -0.348146        -9.4735
  43   2.0000      -0.328661        -8.9433
  44   2.0000      -0.325878        -8.8676
  45   2.0000      -0.312098        -8.4926
  46   2.0000      -0.301728        -8.2104
  47   2.0000      -0.267810        -7.2875
  48   2.0000      -0.261826        -7.1247
  49   2.0000      -0.256529        -6.9805
  50   2.0000      -0.226408        -6.1609
  51   0.0000       0.051654         1.4056
  52   0.0000       0.075794         2.0625
  53   0.0000       0.087244         2.3740
  54   0.0000       0.092698         2.5224
  55   0.0000       0.105002         2.8572

MULLIKEN ATOMIC CHARGES
-----------------------
   0 C :    0.296792
   1 C :   -0.254947
   2 C :   -0.306296
   3 C :   -0.021623
   4 O :   -0.512817
   5 H :    0.162207
   6 H :    0.143962
   7 H :    0.161042
   8 H :    0.147383
   9 H :    0.151216
  10 H :    0.146519
  11 H :    0.152555
  12 C :   -0.018679
  13 H :    0.139677
  14 H :    0.133544
  15 O :   -0.525239
  16 C :    0.090145
  17 C :    0.081693
  18 C :   -0.328562
  19 C :   -0.009946
  20 O :   -0.505464
  21 H :    0.172027
  22 H :    0.168994
  23 O :   -0.597868
  24 H :    0.157393
  25 H :    0.130553
  26 H :    0.145775
  27 H :    0.148138
  28 H :    0.351823
Sum of atomic charges:   -0.0000000

LOEWDIN ATOMIC CHARGES
----------------------
   0 C :    0.181563
   1 C :   -0.219645
   2 C :   -0.220329
   3 C :   -0.034128
   4 O :   -0.320097
   5 H :    0.107210
   6 H :    0.113565
   7 H :    0.125957
   8 H :    0.117338
   9 H :    0.112691
  10 H :    0.101502
  11 H :    0.107736
  12 C :   -0.049477
  13 H :    0.103281
  14 H :    0.102134
  15 O :   -0.327924
  16 C :    0.011392
  17 C :    0.033931
  18 C :   -0.242868
  19 C :   -0.030770
  20 O :   -0.315397
  21 H :    0.122390
  22 H :    0.119613
  23 O :   -0.407781
  24 H :    0.122351
  25 H :    0.102294
  26 H :    0.103394
  27 H :    0.105113
  28 H :    0.274961

  Mayer bond orders larger than 0.100000
B(  0-C ,  1-C ) :   0.9306 B(  0-C ,  4-O ) :   0.9033 B(  0-C ,  5-H ) :   0.9282
B(  0-C , 15-O ) :   0.8491 B(  1-C ,  2-C ) :   0.9526 B(  1-C ,  6-H ) :   0.9356
B(  1-C ,  7-H ) :   0.9363 B(  2-C ,  3-C ) :   0.9520 B(  2-C ,  8-H ) :   0.9449
B(  2-C ,  9-H ) :   0.9460 B(  3-C ,  4-O ) :   0.8311 B(  3-C , 10-H ) :   0.9293
B(  3-C , 11-H ) :   0.9403 B( 12-C , 13-H ) :   0.8969 B( 12-C , 14-H ) :   0.9381
B( 12-C , 15-O ) :   0.8602 B( 12-C , 16-C ) :   0.8871 B( 16-C , 17-C ) :   0.8705
B( 16-C , 20-O ) :   0.8661 B( 16-C , 21-H ) :   0.9277 B( 17-C , 18-C ) :   0.9252
B( 17-C , 22-H ) :   0.9325 B( 17-C , 23-O ) :   0.8922 B( 18-C , 19-C ) :   0.9402
B( 18-C , 24-H ) :   0.9413 B( 18-C , 25-H ) :   0.9416 B( 19-C , 20-O ) :   0.8526
B( 19-C , 26-H ) :   0.9309 B( 19-C , 27-H ) :   0.9377 B( 23-O , 28-H ) :   0.8004

FINAL SINGLE POINT ENERGY      -652.853947553360

DIPOLE MOMENT
-------------
                                X             Y             Z
Electronic contribution:     -0.10859      -4.24178      -1.17109
Nuclear contribution   :     -0.10887       5.48019       1.67155
                        -----------------------------------------
Total Dipole Moment    :     -0.21746       1.23841       0.50046
                        -----------------------------------------
Magnitude (a.u.)       :      1.35329
Magnitude (Debye)      :      3.43980

Rotational constants in cm-1:     0.053088     0.014436     0.012669
Rotational constants in MHz :  1591.531522   432.777843   379.799128

                             ****ORCA TERMINATED NORMALLY****
TOTAL RUN TIME: 0 days 2 hours 18 minutes 29 seconds 342 msec
