                         Program Version 4.2.0 -  RELEASE  -
|  1> # Test redundant internal optimization
|  2> #
|  3> ! RKS B3LYP  Opt TightSCF SmallPrint
|  4>
|  5> %basis
|  6>         Basis "6-31G"
|  7> end
|  8>
|  9> %geom
| 10> Constraints
| 11> { D 4  0  15  12  120.0   C } # D for Dihedral angle
| 12> { D 0  15  12  16  105.0   C } # D for Dihedral angle
| 13> { D 0  4  3  2   C } # D for Dihedral angle
| 14> { D 4  3  2  1   C } # D for Dihedral angle
| 15> { D 3  2  1  0   C } # D for Dihedral angle
| 16> { D 2  1  0  4   C } # D for Dihedral angle
| 17> { D 1  0  4  3   C } # D for Dihedral angle
| 18> { D 16  20  19  18   C } # D for Dihedral angle
| 19> { D 20  19  18  17   C } # D for Dihedral angle
| 20> { D 19  18  17  16   C } # D for Dihedral angle
| 21> { D 18  17  16  20   C } # D for Dihedral angle
| 22> { D 17  16  20  19   C } # D for Dihedral angle
| 23> { D 15  12  16  20   C } # D for Dihedral angle
| 24> end
| 25> end
| 26>
| 27>
| 28> #%pal
| 29> #nprocs 8
| 30> #end
| 31>
| 32> * xyz 0 1
| 33> C  -21.048   26.222   46.251
| 34> C  -20.361   27.558   45.944
| 35> C  -20.329   28.222   47.341
| 36> C  -20.110   27.022   48.296
| 37> O  -20.473   25.807   47.535
| 38> H  -20.833   25.428   45.533
| 39> H  -19.344   27.382   45.576
| 40> H  -20.898   28.157   45.201
| 41> H  -19.543   28.978   47.434
| 42> H  -21.289   28.710   47.548
| 43> H  -20.733   27.082   49.195
| 44> H  -19.064   26.913   48.597
| 45> C  -23.119   27.818   46.058
| 46> H  -23.843   28.114   46.828
| 47> H  -22.297   28.546   46.062
| 48> O  -22.586   26.394   46.375
| 49> C  -23.818   27.903   44.673
| 50> C  -22.892   27.417   43.551
| 51> C  -23.013   25.880   43.690
| 52> C  -24.488   25.680   44.116
| 53> O  -24.962   26.988   44.619
| 54> H  -24.208   28.912   44.530
| 55> O  -23.433   27.887   42.173
| 56> H  -21.862   27.773   43.658
| 57> H  -22.770   25.350   42.763
| 58> H  -22.333   25.518   44.470
| 59> H  -24.599   24.929   44.905
| 60> H  -25.132   25.406   43.275
| 61> H  -24.464   27.540   42.044
| 62> *
| 63>
| 64>                          ****END OF INPUT****
 Total Charge           Charge          ....    0
 Multiplicity           Mult            ....    1
 Number of Electrons    NEL             ....  102
FINAL SINGLE POINT ENERGY      -652.809780999089
FINAL SINGLE POINT ENERGY      -652.837652114723
FINAL SINGLE POINT ENERGY      -652.848254465849
FINAL SINGLE POINT ENERGY      -652.850384969200
FINAL SINGLE POINT ENERGY      -652.850772333618
FINAL SINGLE POINT ENERGY      -652.850818950326
FINAL SINGLE POINT ENERGY      -652.850822009964
                    ***********************HURRAY********************

CARTESIAN COORDINATES (ANGSTROEM)
---------------------------------
  C    -21.130677   26.281999   46.441747
  C    -20.208662   27.430836   46.017797
  C    -20.091395   28.257830   47.330550
  C    -20.116318   27.156909   48.417848
  O    -20.674692   25.950242   47.766583
  H    -21.005723   25.368284   45.858378
  H    -19.236629   27.004394   45.749459
  H    -20.565327   28.013335   45.165409
  H    -19.172849   28.851272   47.363307
  H    -20.937267   28.942702   47.443004
  H    -20.740242   27.417200   49.277145
  H    -19.114751   26.891813   48.768286
  C    -23.189608   27.792181   46.064580
  H    -23.963643   27.969090   46.816989
  H    -22.488216   28.635065   46.091191
  O    -22.564517   26.537362   46.455270
  C    -23.881498   27.770376   44.695768
  C    -23.035631   27.467953   43.449176
  C    -23.023009   25.914901   43.442744
  C    -24.432353   25.557061   43.980476
  O    -24.947190   26.770879   44.651544
  H    -24.366176   28.748593   44.579889
  O    -23.668382   28.013186   42.258048
  H    -22.040729   27.913170   43.466060
  H    -22.842313   25.536041   42.433186
  H    -22.247569   25.535450   44.108339
  H    -24.404049   24.741605   44.707551
  H    -25.138064   25.303654   43.182455
  H    -24.616521   27.762617   42.258218

 Multiplicity           Mult            ....    1
 Number of Electrons    NEL             ....  102
 Basis Dimension        Dim             ....  149

ORBITAL ENERGIES
----------------

  NO   OCC          E(Eh)            E(eV)
   0   2.0000     -19.144373      -520.9449
   1   2.0000     -19.142378      -520.8906
   2   2.0000     -19.140048      -520.8272
   3   2.0000     -19.139535      -520.8132
   4   2.0000     -10.286370      -279.9064
   5   2.0000     -10.243501      -278.7398
   6   2.0000     -10.236586      -278.5517
   7   2.0000     -10.235599      -278.5248
   8   2.0000     -10.230954      -278.3984
   9   2.0000     -10.225503      -278.2501
  10   2.0000     -10.201214      -277.5892
  11   2.0000     -10.199125      -277.5323
  12   2.0000     -10.185076      -277.1500
  13   2.0000      -1.054205       -28.6864
  14   2.0000      -1.036506       -28.2048
  15   2.0000      -1.007268       -27.4092
  16   2.0000      -0.994986       -27.0750
  17   2.0000      -0.795825       -21.6555
  18   2.0000      -0.780534       -21.2394
  19   2.0000      -0.771605       -20.9965
  20   2.0000      -0.739695       -20.1281
  21   2.0000      -0.682448       -18.5704
  22   2.0000      -0.613030       -16.6814
  23   2.0000      -0.606455       -16.5025
  24   2.0000      -0.602242       -16.3878
  25   2.0000      -0.569758       -15.5039
  26   2.0000      -0.524589       -14.2748
  27   2.0000      -0.517921       -14.0934
  28   2.0000      -0.510685       -13.8964
  29   2.0000      -0.492161       -13.3924
  30   2.0000      -0.472959       -12.8699
  31   2.0000      -0.455645       -12.3987
  32   2.0000      -0.454555       -12.3691
  33   2.0000      -0.443197       -12.0600
  34   2.0000      -0.428402       -11.6574
  35   2.0000      -0.424064       -11.5394
  36   2.0000      -0.403453       -10.9785
  37   2.0000      -0.392441       -10.6789
  38   2.0000      -0.386140       -10.5074
  39   2.0000      -0.371113       -10.0985
  40   2.0000      -0.368393       -10.0245
  41   2.0000      -0.367157        -9.9908
  42   2.0000      -0.355680        -9.6785
  43   2.0000      -0.330672        -8.9980
  44   2.0000      -0.318781        -8.6745
  45   2.0000      -0.306580        -8.3425
  46   2.0000      -0.295146        -8.0313
  47   2.0000      -0.275506        -7.4969
  48   2.0000      -0.269872        -7.3436
  49   2.0000      -0.259129        -7.0513
  50   2.0000      -0.237721        -6.4687
  51   0.0000       0.061808         1.6819
  52   0.0000       0.071273         1.9394
  53   0.0000       0.088737         2.4147
  54   0.0000       0.090056         2.4506
  55   0.0000       0.104167         2.8345

MULLIKEN ATOMIC CHARGES
-----------------------
   0 C :    0.326697
   1 C :   -0.315198
   2 C :   -0.307040
   3 C :   -0.004375
   4 O :   -0.500167
   5 H :    0.156376
   6 H :    0.160653
   7 H :    0.150758
   8 H :    0.148431
   9 H :    0.154677
  10 H :    0.152141
  11 H :    0.146475
  12 C :   -0.010547
  13 H :    0.170754
  14 H :    0.119366
  15 O :   -0.528206
  16 C :    0.075629
  17 C :    0.069231
  18 C :   -0.288614
  19 C :   -0.022877
  20 O :   -0.521666
  21 H :    0.150228
  22 O :   -0.602788
  23 H :    0.145257
  24 H :    0.153000
  25 H :    0.155479
  26 H :    0.162229
  27 H :    0.138992
  28 H :    0.365107
Sum of atomic charges:   -0.0000000

LOEWDIN ATOMIC CHARGES
----------------------
   0 C :    0.179129
   1 C :   -0.235223
   2 C :   -0.220318
   3 C :   -0.028836
   4 O :   -0.309936
   5 H :    0.102058
   6 H :    0.125603
   7 H :    0.113060
   8 H :    0.117586
   9 H :    0.110453
  10 H :    0.107584
  11 H :    0.104754
  12 C :   -0.039323
  13 H :    0.122809
  14 H :    0.094548
  15 O :   -0.329646
  16 C :    0.006513
  17 C :    0.034799
  18 C :   -0.238214
  19 C :   -0.033965
  20 O :   -0.327253
  21 H :    0.114162
  22 O :   -0.415193
  23 H :    0.109573
  24 H :    0.120985
  25 H :    0.119630
  26 H :    0.113563
  27 H :    0.097562
  28 H :    0.283535

  Mayer bond orders larger than 0.100000
B(  0-C ,  1-C ) :   0.9289 B(  0-C ,  4-O ) :   0.9096 B(  0-C ,  5-H ) :   0.9232
B(  0-C , 15-O ) :   0.8613 B(  1-C ,  2-C ) :   0.9504 B(  1-C ,  6-H ) :   0.9330
B(  1-C ,  7-H ) :   0.9222 B(  2-C ,  3-C ) :   0.9478 B(  2-C ,  8-H ) :   0.9452
B(  2-C ,  9-H ) :   0.9382 B(  3-C ,  4-O ) :   0.8443 B(  3-C , 10-H ) :   0.9340
B(  3-C , 11-H ) :   0.9391 B( 12-C , 13-H ) :   0.9285 B( 12-C , 14-H ) :   0.8990
B( 12-C , 15-O ) :   0.8668 B( 12-C , 16-C ) :   0.8869 B( 16-C , 17-C ) :   0.9082
B( 16-C , 20-O ) :   0.8723 B( 16-C , 21-H ) :   0.9171 B( 17-C , 18-C ) :   0.9200
B( 17-C , 22-O ) :   0.8906 B( 17-C , 23-H ) :   0.9288 B( 18-C , 19-C ) :   0.9466
B( 18-C , 24-H ) :   0.9372 B( 18-C , 25-H ) :   0.9205 B( 19-C , 20-O ) :   0.8410
B( 19-C , 26-H ) :   0.9320 B( 19-C , 27-H ) :   0.9359 B( 22-O , 28-H ) :   0.7941

FINAL SINGLE POINT ENERGY      -652.850820085775

DIPOLE MOMENT
-------------
                                X             Y             Z
Electronic contribution:     -4.27065      -1.91689      -0.24570
Nuclear contribution   :      5.19277       2.57512       0.14518
                        -----------------------------------------
Total Dipole Moment    :      0.92211       0.65823      -0.10052
                        -----------------------------------------
Magnitude (a.u.)       :      1.13739
Magnitude (Debye)      :      2.89102

Rotational constants in cm-1:     0.055678     0.014631     0.013889
Rotational constants in MHz :  1669.185974   438.637482   416.385523

                             ****ORCA TERMINATED NORMALLY****
TOTAL RUN TIME: 0 days 0 hours 45 minutes 38 seconds 341 msec
