                         Program Version 4.2.0 -  RELEASE  -
|  1> # Test redundant internal optimization
|  2> #
|  3> ! RKS B3LYP  Opt TightSCF SmallPrint
|  4>
|  5> %basis
|  6>         Basis "6-31G"
|  7> end
|  8>
|  9> %geom
| 10> Constraints
| 11> { D 4  0  15  12  315.0   C } # D for Dihedral angle
| 12> { D 0  15  12  16  60.0   C } # D for Dihedral angle
| 13> { D 0  4  3  2   C } # D for Dihedral angle
| 14> { D 4  3  2  1   C } # D for Dihedral angle
| 15> { D 3  2  1  0   C } # D for Dihedral angle
| 16> { D 2  1  0  4   C } # D for Dihedral angle
| 17> { D 1  0  4  3   C } # D for Dihedral angle
| 18> { D 16  20  19  18   C } # D for Dihedral angle
| 19> { D 20  19  18  17   C } # D for Dihedral angle
| 20> { D 19  18  17  16   C } # D for Dihedral angle
| 21> { D 18  17  16  20   C } # D for Dihedral angle
| 22> { D 17  16  20  19   C } # D for Dihedral angle
| 23> { D 15  12  16  20   C } # D for Dihedral angle
| 24> end
| 25> end
| 26>
| 27>
| 28> #%pal
| 29> #nprocs 8
| 30> #end
| 31>
| 32> * xyz 0 1
| 33> C  -21.048   26.222   46.251
| 34> C  -20.361   27.558   45.944
| 35> C  -20.329   28.222   47.341
| 36> C  -20.110   27.022   48.296
| 37> O  -20.473   25.807   47.535
| 38> H  -20.833   25.428   45.533
| 39> H  -19.344   27.382   45.576
| 40> H  -20.898   28.157   45.201
| 41> H  -19.543   28.978   47.434
| 42> H  -21.289   28.710   47.548
| 43> H  -20.733   27.082   49.195
| 44> H  -19.064   26.913   48.597
| 45> C  -23.319   25.255   47.135
| 46> H  -24.395   25.468   47.158
| 47> H  -23.171   24.295   46.624
| 48> O  -22.586   26.394   46.375
| 49> C  -22.822   25.092   48.598
| 50> C  -23.146   26.334   49.437
| 51> C  -24.643   26.114   49.758
| 52> C  -24.747   24.576   49.913
| 53> O  -23.546   24.006   49.268
| 54> H  -21.766   24.815   48.589
| 55> H  -22.549   26.333   50.356
| 56> O  -22.880   27.666   48.683
| 57> H  -24.967   26.648   50.657
| 58> H  -25.262   26.461   48.921
| 59> H  -25.641   24.166   49.433
| 60> H  -24.732   24.261   50.960
| 61> H  -23.467   27.689   47.758
| 62> *
| 63>
| 64>                          ****END OF INPUT****
 Total Charge           Charge          ....    0
 Multiplicity           Mult            ....    1
 Number of Electrons    NEL             ....  102
FINAL SINGLE POINT ENERGY      -652.828443038559
FINAL SINGLE POINT ENERGY      -652.853396015261
FINAL SINGLE POINT ENERGY      -652.863380374861
FINAL SINGLE POINT ENERGY      -652.865854502193
FINAL SINGLE POINT ENERGY      -652.866629537823
FINAL SINGLE POINT ENERGY      -652.866839388891
FINAL SINGLE POINT ENERGY      -652.866883537544
FINAL SINGLE POINT ENERGY      -652.866891544171
                    ***********************HURRAY********************

CARTESIAN COORDINATES (ANGSTROEM)
---------------------------------
  C    -21.054707   26.221393   46.342238
  C    -20.483996   27.563837   45.881720
  C    -20.293584   28.304481   47.227412
  C    -19.888073   27.177629   48.201571
  O    -20.306988   25.902649   47.529586
  H    -20.846602   25.392181   45.654682
  H    -19.523226   27.382053   45.389039
  H    -21.149134   28.083651   45.188381
  H    -19.527950   29.084631   47.164164
  H    -21.223783   28.774215   47.554389
  H    -20.397969   27.253373   49.160740
  H    -18.806967   27.098506   48.343606
  C    -23.226956   25.245522   47.213546
  H    -24.276210   25.528527   47.096318
  H    -23.078609   24.282531   46.705597
  O    -22.507579   26.297357   46.465124
  C    -22.865232   25.051997   48.696661
  C    -23.227498   26.265832   49.574101
  C    -24.769989   26.094252   49.736011
  C    -24.939564   24.560578   49.790737
  O    -23.691548   23.971538   49.229800
  H    -21.827760   24.742415   48.798667
  H    -22.728949   26.197339   50.543891
  O    -22.863090   27.553604   49.020028
  H    -25.143402   26.595095   50.633043
  H    -25.274169   26.537217   48.870559
  H    -25.794042   24.198057   49.210636
  H    -25.028298   24.186439   50.814739
  H    -22.918127   27.507102   48.037014

 Multiplicity           Mult            ....    1
 Number of Electrons    NEL             ....  102
 Basis Dimension        Dim             ....  149

ORBITAL ENERGIES
----------------

  NO   OCC          E(Eh)            E(eV)
   0   2.0000     -19.160785      -521.3915
   1   2.0000     -19.152095      -521.1550
   2   2.0000     -19.139516      -520.8127
   3   2.0000     -19.130994      -520.5808
   4   2.0000     -10.285465      -279.8817
   5   2.0000     -10.235425      -278.5201
   6   2.0000     -10.235000      -278.5085
   7   2.0000     -10.226964      -278.2898
   8   2.0000     -10.226864      -278.2871
   9   2.0000     -10.224557      -278.2243
  10   2.0000     -10.190886      -277.3081
  11   2.0000     -10.186456      -277.1876
  12   2.0000     -10.183566      -277.1089
  13   2.0000      -1.058866       -28.8132
  14   2.0000      -1.026409       -27.9300
  15   2.0000      -1.006844       -27.3976
  16   2.0000      -1.000882       -27.2354
  17   2.0000      -0.793015       -21.5790
  18   2.0000      -0.772641       -21.0246
  19   2.0000      -0.764117       -20.7927
  20   2.0000      -0.734090       -19.9756
  21   2.0000      -0.678781       -18.4706
  22   2.0000      -0.602605       -16.3977
  23   2.0000      -0.599038       -16.3006
  24   2.0000      -0.598471       -16.2852
  25   2.0000      -0.576580       -15.6895
  26   2.0000      -0.526709       -14.3325
  27   2.0000      -0.513875       -13.9833
  28   2.0000      -0.495272       -13.4770
  29   2.0000      -0.488270       -13.2865
  30   2.0000      -0.468768       -12.7558
  31   2.0000      -0.457148       -12.4396
  32   2.0000      -0.440589       -11.9890
  33   2.0000      -0.433364       -11.7924
  34   2.0000      -0.423148       -11.5144
  35   2.0000      -0.408748       -11.1226
  36   2.0000      -0.407015       -11.0754
  37   2.0000      -0.396314       -10.7843
  38   2.0000      -0.379383       -10.3235
  39   2.0000      -0.365882        -9.9561
  40   2.0000      -0.360612        -9.8127
  41   2.0000      -0.355794        -9.6817
  42   2.0000      -0.353120        -9.6089
  43   2.0000      -0.339288        -9.2325
  44   2.0000      -0.334767        -9.1095
  45   2.0000      -0.309176        -8.4131
  46   2.0000      -0.302057        -8.2194
  47   2.0000      -0.275489        -7.4964
  48   2.0000      -0.265139        -7.2148
  49   2.0000      -0.257138        -6.9971
  50   2.0000      -0.239989        -6.5304
  51   0.0000       0.059436         1.6173
  52   0.0000       0.081647         2.2217
  53   0.0000       0.091962         2.5024
  54   0.0000       0.097490         2.6528
  55   0.0000       0.106750         2.9048

MULLIKEN ATOMIC CHARGES
-----------------------
   0 C :    0.302358
   1 C :   -0.272603
   2 C :   -0.314532
   3 C :   -0.021273
   4 O :   -0.515785
   5 H :    0.151532
   6 H :    0.153716
   7 H :    0.160755
   8 H :    0.145419
   9 H :    0.167849
  10 H :    0.176746
  11 H :    0.145392
  12 C :   -0.048714
  13 H :    0.157135
  14 H :    0.157887
  15 O :   -0.543776
  16 C :    0.051759
  17 C :    0.103913
  18 C :   -0.306481
  19 C :   -0.016128
  20 O :   -0.520089
  21 H :    0.198246
  22 H :    0.152534
  23 O :   -0.634449
  24 H :    0.151793
  25 H :    0.144635
  26 H :    0.140813
  27 H :    0.147693
  28 H :    0.383656
Sum of atomic charges:   -0.0000000

LOEWDIN ATOMIC CHARGES
----------------------
   0 C :    0.172552
   1 C :   -0.214598
   2 C :   -0.219194
   3 C :   -0.034833
   4 O :   -0.321725
   5 H :    0.097287
   6 H :    0.119198
   7 H :    0.125756
   8 H :    0.116447
   9 H :    0.121109
  10 H :    0.118894
  11 H :    0.104104
  12 C :   -0.052304
  13 H :    0.112959
  14 H :    0.110968
  15 O :   -0.338705
  16 C :    0.001756
  17 C :    0.038068
  18 C :   -0.237956
  19 C :   -0.032941
  20 O :   -0.321117
  21 H :    0.132327
  22 H :    0.110615
  23 O :   -0.425506
  24 H :    0.121374
  25 H :    0.110270
  26 H :    0.101204
  27 H :    0.105653
  28 H :    0.278335

  Mayer bond orders larger than 0.100000
B(  0-C ,  1-C ) :   0.9418 B(  0-C ,  4-O ) :   0.9147 B(  0-C ,  5-H ) :   0.9250
B(  0-C , 15-O ) :   0.8266 B(  1-C ,  2-C ) :   0.9558 B(  1-C ,  6-H ) :   0.9382
B(  1-C ,  7-H ) :   0.9358 B(  2-C ,  3-C ) :   0.9584 B(  2-C ,  8-H ) :   0.9446
B(  2-C ,  9-H ) :   0.9347 B(  3-C ,  4-O ) :   0.8126 B(  3-C , 10-H ) :   0.9194
B(  3-C , 11-H ) :   0.9385 B( 12-C , 13-H ) :   0.9391 B( 12-C , 14-H ) :   0.9266
B( 12-C , 15-O ) :   0.8060 B( 12-C , 16-C ) :   0.8815 B( 16-C , 17-C ) :   0.9070
B( 16-C , 20-O ) :   0.8323 B( 16-C , 21-H ) :   0.9087 B( 17-C , 18-C ) :   0.9072
B( 17-C , 22-H ) :   0.9349 B( 17-C , 23-O ) :   0.8988 B( 18-C , 19-C ) :   0.9386
B( 18-C , 24-H ) :   0.9447 B( 18-C , 25-H ) :   0.9431 B( 19-C , 20-O ) :   0.8379
B( 19-C , 26-H ) :   0.9340 B( 19-C , 27-H ) :   0.9391 B( 23-O , 28-H ) :   0.7240

FINAL SINGLE POINT ENERGY      -652.866892808272

DIPOLE MOMENT
-------------
                                X             Y             Z
Electronic contribution:      0.32825      -3.31212      -0.36057
Nuclear contribution   :     -0.37705       3.82575       0.05119
                        -----------------------------------------
Total Dipole Moment    :     -0.04880       0.51363      -0.30938
                        -----------------------------------------
Magnitude (a.u.)       :      0.60159
Magnitude (Debye)      :      1.52912

Rotational constants in cm-1:     0.054815     0.017167     0.015894
Rotational constants in MHz :  1643.306638   514.658990   476.492796

                             ****ORCA TERMINATED NORMALLY****
TOTAL RUN TIME: 0 days 0 hours 30 minutes 3 seconds 226 msec
