                         Program Version 4.2.0 -  RELEASE  -
|  1> # Test redundant internal optimization
|  2> #
|  3> ! RKS B3LYP  Opt TightSCF SmallPrint
|  4>
|  5> %basis
|  6>         Basis "6-31G"
|  7> end
|  8>
|  9> %geom
| 10> Constraints
| 11> { D 4  0  15  12  30.0   C } # D for Dihedral angle
| 12> { D 0  15  12  16  165.0   C } # D for Dihedral angle
| 13> { D 0  4  3  2   C } # D for Dihedral angle
| 14> { D 4  3  2  1   C } # D for Dihedral angle
| 15> { D 3  2  1  0   C } # D for Dihedral angle
| 16> { D 2  1  0  4   C } # D for Dihedral angle
| 17> { D 1  0  4  3   C } # D for Dihedral angle
| 18> { D 16  20  19  18   C } # D for Dihedral angle
| 19> { D 20  19  18  17   C } # D for Dihedral angle
| 20> { D 19  18  17  16   C } # D for Dihedral angle
| 21> { D 18  17  16  20   C } # D for Dihedral angle
| 22> { D 17  16  20  19   C } # D for Dihedral angle
| 23> { D 15  12  16  20   C } # D for Dihedral angle
| 24> end
| 25> end
| 26>
| 27>
| 28> #%pal
| 29> #nprocs 8
| 30> #end
| 31>
| 32> * xyz 0 1
| 33> C  -21.048   26.222   46.251
| 34> C  -20.361   27.558   45.944
| 35> C  -20.329   28.222   47.341
| 36> C  -20.110   27.022   48.296
| 37> O  -20.473   25.807   47.535
| 38> H  -20.833   25.428   45.533
| 39> H  -19.344   27.382   45.576
| 40> H  -20.898   28.157   45.201
| 41> H  -19.543   28.978   47.434
| 42> H  -21.289   28.710   47.548
| 43> H  -20.733   27.082   49.195
| 44> H  -19.064   26.913   48.597
| 45> C  -23.091   26.824   47.779
| 46> H  -23.035   25.967   48.462
| 47> H  -22.463   27.628   48.184
| 48> O  -22.586   26.394   46.375
| 49> C  -24.558   27.336   47.759
| 50> C  -25.532   26.220   47.366
| 51> C  -25.662   25.435   48.693
| 52> C  -25.578   26.547   49.768
| 53> O  -24.983   27.727   49.107
| 54> H  -24.617   28.229   47.134
| 55> O  -26.900   26.828   46.952
| 56> H  -25.167   25.600   46.539
| 57> H  -26.591   24.861   48.757
| 58> H  -24.826   24.732   48.797
| 59> H  -24.954   26.260   50.621
| 60> H  -26.563   26.845   50.137
| 61> H  -27.287   27.453   47.766
| 62> *
| 63>
| 64>                          ****END OF INPUT****
 Total Charge           Charge          ....    0
 Multiplicity           Mult            ....    1
 Number of Electrons    NEL             ....  102
FINAL SINGLE POINT ENERGY      -652.828428985136
FINAL SINGLE POINT ENERGY      -652.852945904082
FINAL SINGLE POINT ENERGY      -652.858427118380
FINAL SINGLE POINT ENERGY      -652.860921385706
FINAL SINGLE POINT ENERGY      -652.861146811421
FINAL SINGLE POINT ENERGY      -652.861185132979
FINAL SINGLE POINT ENERGY      -652.861191097815
                    ***********************HURRAY********************

CARTESIAN COORDINATES (ANGSTROEM)
---------------------------------
  C    -21.212133   26.308819   46.416088
  C    -20.505617   27.581341   45.934514
  C    -20.137719   28.271855   47.276168
  C    -19.818231   27.074057   48.202332
  O    -20.429012   25.882196   47.553007
  H    -21.175522   25.494860   45.689429
  H    -19.604001   27.297784   45.380076
  H    -21.143895   28.191231   45.291220
  H    -19.282134   28.947346   47.177340
  H    -20.981101   28.859964   47.649767
  H    -20.232190   27.178467   49.209157
  H    -18.745090   26.874622   48.274731
  C    -23.098008   26.838199   48.009460
  H    -23.004091   25.988202   48.695653
  H    -22.539179   27.678977   48.432001
  O    -22.629126   26.461488   46.682554
  C    -24.552830   27.271701   47.841277
  C    -25.505726   26.173331   47.349242
  C    -25.776333   25.385650   48.655979
  C    -25.776998   26.489206   49.742783
  O    -25.096938   27.667661   49.145736
  H    -24.599865   28.148467   47.189764
  O    -26.725424   26.752798   46.806474
  H    -25.079739   25.570297   46.549433
  H    -26.726720   24.849704   48.592954
  H    -24.980461   24.653732   48.831065
  H    -25.243136   26.194078   50.651084
  H    -26.786605   26.807813   50.019269
  H    -27.030175   27.473152   47.398441

 Multiplicity           Mult            ....    1
 Number of Electrons    NEL             ....  102
 Basis Dimension        Dim             ....  149

ORBITAL ENERGIES
----------------

  NO   OCC          E(Eh)            E(eV)
   0   2.0000     -19.150260      -521.1051
   1   2.0000     -19.143827      -520.9300
   2   2.0000     -19.143307      -520.9159
   3   2.0000     -19.132444      -520.6203
   4   2.0000     -10.281475      -279.7732
   5   2.0000     -10.234516      -278.4953
   6   2.0000     -10.232481      -278.4400
   7   2.0000     -10.231210      -278.4054
   8   2.0000     -10.230479      -278.3855
   9   2.0000     -10.229873      -278.3690
  10   2.0000     -10.195219      -277.4260
  11   2.0000     -10.189579      -277.2726
  12   2.0000     -10.184833      -277.1434
  13   2.0000      -1.056600       -28.7515
  14   2.0000      -1.033834       -28.1321
  15   2.0000      -1.001868       -27.2622
  16   2.0000      -0.996783       -27.1238
  17   2.0000      -0.792407       -21.5625
  18   2.0000      -0.779775       -21.2188
  19   2.0000      -0.769231       -20.9318
  20   2.0000      -0.733253       -19.9528
  21   2.0000      -0.675327       -18.3766
  22   2.0000      -0.607000       -16.5173
  23   2.0000      -0.602287       -16.3891
  24   2.0000      -0.594310       -16.1720
  25   2.0000      -0.576246       -15.6805
  26   2.0000      -0.523803       -14.2534
  27   2.0000      -0.514019       -13.9872
  28   2.0000      -0.503276       -13.6948
  29   2.0000      -0.489734       -13.3263
  30   2.0000      -0.472990       -12.8707
  31   2.0000      -0.458085       -12.4651
  32   2.0000      -0.446712       -12.1557
  33   2.0000      -0.438546       -11.9335
  34   2.0000      -0.421824       -11.4784
  35   2.0000      -0.418431       -11.3861
  36   2.0000      -0.405920       -11.0456
  37   2.0000      -0.389983       -10.6120
  38   2.0000      -0.380109       -10.3433
  39   2.0000      -0.365067        -9.9340
  40   2.0000      -0.363468        -9.8905
  41   2.0000      -0.358194        -9.7470
  42   2.0000      -0.350142        -9.5278
  43   2.0000      -0.336386        -9.1535
  44   2.0000      -0.324449        -8.8287
  45   2.0000      -0.314162        -8.5488
  46   2.0000      -0.302361        -8.2277
  47   2.0000      -0.269305        -7.3282
  48   2.0000      -0.264580        -7.1996
  49   2.0000      -0.252449        -6.8695
  50   2.0000      -0.245492        -6.6802
  51   0.0000       0.066622         1.8129
  52   0.0000       0.068469         1.8631
  53   0.0000       0.094889         2.5821
  54   0.0000       0.096030         2.6131
  55   0.0000       0.101790         2.7698

MULLIKEN ATOMIC CHARGES
-----------------------
   0 C :    0.300840
   1 C :   -0.261080
   2 C :   -0.318304
   3 C :   -0.018237
   4 O :   -0.509576
   5 H :    0.163781
   6 H :    0.150011
   7 H :    0.157610
   8 H :    0.149100
   9 H :    0.156940
  10 H :    0.148092
  11 H :    0.152508
  12 C :   -0.000073
  13 H :    0.146683
  14 H :    0.138280
  15 O :   -0.541497
  16 C :    0.055492
  17 C :    0.089059
  18 C :   -0.300312
  19 C :   -0.031663
  20 O :   -0.529437
  21 H :    0.161796
  22 O :   -0.603786
  23 H :    0.179273
  24 H :    0.161414
  25 H :    0.150709
  26 H :    0.145618
  27 H :    0.145725
  28 H :    0.361034
Sum of atomic charges:   -0.0000000

LOEWDIN ATOMIC CHARGES
----------------------
   0 C :    0.180044
   1 C :   -0.225292
   2 C :   -0.223218
   3 C :   -0.034756
   4 O :   -0.319862
   5 H :    0.110948
   6 H :    0.117638
   7 H :    0.123702
   8 H :    0.117924
   9 H :    0.112422
  10 H :    0.103841
  11 H :    0.107592
  12 C :   -0.037837
  13 H :    0.101655
  14 H :    0.099873
  15 O :   -0.336714
  16 C :    0.017773
  17 C :    0.038515
  18 C :   -0.241675
  19 C :   -0.038387
  20 O :   -0.333202
  21 H :    0.116305
  22 O :   -0.415475
  23 H :    0.129062
  24 H :    0.126452
  25 H :    0.116334
  26 H :    0.103600
  27 H :    0.102257
  28 H :    0.280478

  Mayer bond orders larger than 0.100000
B(  0-C ,  1-C ) :   0.9191 B(  0-C ,  4-O ) :   0.9108 B(  0-C ,  5-H ) :   0.9349
B(  0-C , 15-O ) :   0.8618 B(  1-C ,  2-C ) :   0.9527 B(  1-C ,  6-H ) :   0.9344
B(  1-C ,  7-H ) :   0.9366 B(  2-C ,  3-C ) :   0.9503 B(  2-C ,  8-H ) :   0.9439
B(  2-C ,  9-H ) :   0.9401 B(  3-C ,  4-O ) :   0.8346 B(  3-C , 10-H ) :   0.9320
B(  3-C , 11-H ) :   0.9389 B( 12-C , 13-H ) :   0.9212 B( 12-C , 14-H ) :   0.9058
B( 12-C , 15-O ) :   0.8139 B( 12-C , 16-C ) :   0.9032 B( 16-C , 17-C ) :   0.9143
B( 16-C , 20-O ) :   0.8444 B( 16-C , 21-H ) :   0.9251 B( 17-C , 18-C ) :   0.9134
B( 17-C , 22-O ) :   0.8877 B( 17-C , 23-H ) :   0.9231 B( 18-C , 19-C ) :   0.9412
B( 18-C , 24-H ) :   0.9377 B( 18-C , 25-H ) :   0.9339 B( 19-C , 20-O ) :   0.8427
B( 19-C , 26-H ) :   0.9358 B( 19-C , 27-H ) :   0.9385 B( 22-O , 28-H ) :   0.7967

FINAL SINGLE POINT ENERGY      -652.861192108759

DIPOLE MOMENT
-------------
                                X             Y             Z
Electronic contribution:     -2.99323      -1.18688      -1.69010
Nuclear contribution   :      3.77991       1.57306       2.22260
                        -----------------------------------------
Total Dipole Moment    :      0.78669       0.38618       0.53250
                        -----------------------------------------
Magnitude (a.u.)       :      1.02546
Magnitude (Debye)      :      2.60652

Rotational constants in cm-1:     0.056646     0.012903     0.012247
Rotational constants in MHz :  1698.202901   386.828749   367.145637

                             ****ORCA TERMINATED NORMALLY****
TOTAL RUN TIME: 0 days 0 hours 24 minutes 35 seconds 820 msec
