                         Program Version 4.2.0 -  RELEASE  -
|  1> # Test redundant internal optimization
|  2> #
|  3> ! RKS B3LYP  Opt TightSCF SmallPrint
|  4>
|  5> %basis
|  6>         Basis "6-31G"
|  7> end
|  8>
|  9> %geom
| 10> Constraints
| 11> { D 4  0  15  12  60.0   C } # D for Dihedral angle
| 12> { D 0  15  12  16  150.0   C } # D for Dihedral angle
| 13> { D 0  4  3  2   C } # D for Dihedral angle
| 14> { D 4  3  2  1   C } # D for Dihedral angle
| 15> { D 3  2  1  0   C } # D for Dihedral angle
| 16> { D 2  1  0  4   C } # D for Dihedral angle
| 17> { D 1  0  4  3   C } # D for Dihedral angle
| 18> { D 16  20  19  18   C } # D for Dihedral angle
| 19> { D 20  19  18  17   C } # D for Dihedral angle
| 20> { D 19  18  17  16   C } # D for Dihedral angle
| 21> { D 18  17  16  20   C } # D for Dihedral angle
| 22> { D 17  16  20  19   C } # D for Dihedral angle
| 23> { D 15  12  16  20   C } # D for Dihedral angle
| 24> end
| 25> end
| 26>
| 27>
| 28> #%pal
| 29> #nprocs 8
| 30> #end
| 31>
| 32> * xyz 0 1
| 33> C  -21.048   26.222   46.251
| 34> C  -20.361   27.558   45.944
| 35> C  -20.329   28.222   47.341
| 36> C  -20.110   27.022   48.296
| 37> O  -20.473   25.807   47.535
| 38> H  -20.833   25.428   45.533
| 39> H  -19.344   27.382   45.576
| 40> H  -20.898   28.157   45.201
| 41> H  -19.543   28.978   47.434
| 42> H  -21.289   28.710   47.548
| 43> H  -20.733   27.082   49.195
| 44> H  -19.064   26.913   48.597
| 45> C  -23.051   27.452   47.413
| 46> H  -23.173   26.969   48.391
| 47> H  -22.300   28.246   47.514
| 48> O  -22.586   26.394   46.375
| 49> C  -24.399   28.121   47.027
| 50> C  -24.768   29.237   48.010
| 51> C  -23.873   30.399   47.516
| 52> C  -23.849   30.196   45.980
| 53> O  -24.280   28.803   45.734
| 54> H  -25.162   27.348   46.913
| 55> H  -25.828   29.495   47.907
| 56> O  -24.499   28.859   49.492
| 57> H  -24.258   31.383   47.801
| 58> H  -22.864   30.300   47.934
| 59> H  -22.851   30.343   45.553
| 60> H  -24.557   30.849   45.462
| 61> H  -23.443   28.597   49.621
| 62> *
| 63>
| 64>                          ****END OF INPUT****
 Total Charge           Charge          ....    0
 Multiplicity           Mult            ....    1
 Number of Electrons    NEL             ....  102
FINAL SINGLE POINT ENERGY      -652.786502479834
FINAL SINGLE POINT ENERGY      -652.823880104447
FINAL SINGLE POINT ENERGY      -652.844376667998
FINAL SINGLE POINT ENERGY      -652.848520292860
FINAL SINGLE POINT ENERGY      -652.849070164292
FINAL SINGLE POINT ENERGY      -652.849221565907
FINAL SINGLE POINT ENERGY      -652.849251043875
FINAL SINGLE POINT ENERGY      -652.849255585425
FINAL SINGLE POINT ENERGY      -652.849254682062
                    ***********************HURRAY********************

CARTESIAN COORDINATES (ANGSTROEM)
---------------------------------
  C    -21.170757   26.331363   46.384459
  C    -20.248138   27.468648   45.917130
  C    -19.787498   28.091411   47.269324
  C    -19.692984   26.848806   48.193256
  O    -20.482723   25.781422   47.535966
  H    -21.222992   25.518095   45.658486
  H    -19.397554   27.033125   45.383047
  H    -20.763214   28.173361   45.259701
  H    -18.821215   28.599507   47.183535
  H    -20.507600   28.826267   47.637276
  H    -20.093381   27.024405   49.196934
  H    -18.667445   26.478172   48.281116
  C    -23.061357   27.552144   47.570218
  H    -23.268272   27.015545   48.505002
  H    -22.341762   28.351428   47.775316
  O    -22.563437   26.619526   46.576237
  C    -24.354821   28.143850   47.012073
  C    -25.019379   29.195925   47.916128
  C    -24.225278   30.484603   47.543995
  C    -23.948565   30.291437   46.037234
  O    -24.141986   28.846533   45.748963
  H    -25.029544   27.315730   46.778314
  H    -26.069163   29.301927   47.635186
  O    -25.051912   28.880352   49.328442
  H    -24.790875   31.394770   47.761324
  H    -23.293301   30.521182   48.123653
  H    -22.933166   30.582170   45.749091
  H    -24.659438   30.839789   45.412290
  H    -24.158245   28.960507   49.720305

 Multiplicity           Mult            ....    1
 Number of Electrons    NEL             ....  102
 Basis Dimension        Dim             ....  149

ORBITAL ENERGIES
----------------

  NO   OCC          E(Eh)            E(eV)
   0   2.0000     -19.152225      -521.1585
   1   2.0000     -19.141259      -520.8601
   2   2.0000     -19.139994      -520.8257
   3   2.0000     -19.139204      -520.8042
   4   2.0000     -10.276229      -279.6304
   5   2.0000     -10.247633      -278.8523
   6   2.0000     -10.233402      -278.4650
   7   2.0000     -10.232425      -278.4384
   8   2.0000     -10.231387      -278.4102
   9   2.0000     -10.231086      -278.4020
  10   2.0000     -10.198959      -277.5278
  11   2.0000     -10.196013      -277.4476
  12   2.0000     -10.188689      -277.2483
  13   2.0000      -1.050836       -28.5947
  14   2.0000      -1.035541       -28.1785
  15   2.0000      -1.017733       -27.6939
  16   2.0000      -0.994330       -27.0571
  17   2.0000      -0.788840       -21.4654
  18   2.0000      -0.785714       -21.3804
  19   2.0000      -0.774378       -21.0719
  20   2.0000      -0.733348       -19.9554
  21   2.0000      -0.685525       -18.6541
  22   2.0000      -0.614106       -16.7107
  23   2.0000      -0.605568       -16.4784
  24   2.0000      -0.598496       -16.2859
  25   2.0000      -0.574225       -15.6255
  26   2.0000      -0.529110       -14.3978
  27   2.0000      -0.508734       -13.8433
  28   2.0000      -0.506074       -13.7710
  29   2.0000      -0.494604       -13.4589
  30   2.0000      -0.470131       -12.7929
  31   2.0000      -0.462721       -12.5913
  32   2.0000      -0.450373       -12.2553
  33   2.0000      -0.435052       -11.8384
  34   2.0000      -0.428366       -11.6564
  35   2.0000      -0.419004       -11.4017
  36   2.0000      -0.412880       -11.2350
  37   2.0000      -0.403948       -10.9920
  38   2.0000      -0.382799       -10.4165
  39   2.0000      -0.378786       -10.3073
  40   2.0000      -0.362013        -9.8509
  41   2.0000      -0.358951        -9.7676
  42   2.0000      -0.346001        -9.4152
  43   2.0000      -0.334958        -9.1147
  44   2.0000      -0.317963        -8.6522
  45   2.0000      -0.314594        -8.5605
  46   2.0000      -0.303913        -8.2699
  47   2.0000      -0.272996        -7.4286
  48   2.0000      -0.262833        -7.1520
  49   2.0000      -0.252508        -6.8711
  50   2.0000      -0.241616        -6.5747
  51   0.0000       0.042047         1.1442
  52   0.0000       0.057975         1.5776
  53   0.0000       0.083216         2.2644
  54   0.0000       0.090368         2.4590
  55   0.0000       0.102976         2.8021

MULLIKEN ATOMIC CHARGES
-----------------------
   0 C :    0.301500
   1 C :   -0.274362
   2 C :   -0.317851
   3 C :   -0.010208
   4 O :   -0.506696
   5 H :    0.169114
   6 H :    0.154437
   7 H :    0.162428
   8 H :    0.144636
   9 H :    0.141865
  10 H :    0.139234
  11 H :    0.149702
  12 C :   -0.010985
  13 H :    0.148023
  14 H :    0.108439
  15 O :   -0.512738
  16 C :    0.092313
  17 C :    0.079578
  18 C :   -0.320462
  19 C :   -0.010712
  20 O :   -0.505065
  21 H :    0.172231
  22 H :    0.173209
  23 O :   -0.597868
  24 H :    0.157107
  25 H :    0.128571
  26 H :    0.136382
  27 H :    0.153326
  28 H :    0.354855
Sum of atomic charges:   -0.0000000

LOEWDIN ATOMIC CHARGES
----------------------
   0 C :    0.176952
   1 C :   -0.228397
   2 C :   -0.224643
   3 C :   -0.034761
   4 O :   -0.323408
   5 H :    0.114965
   6 H :    0.121427
   7 H :    0.125225
   8 H :    0.114872
   9 H :    0.102638
  10 H :    0.099697
  11 H :    0.105713
  12 C :   -0.050472
  13 H :    0.106968
  14 H :    0.085422
  15 O :   -0.307054
  16 C :    0.020673
  17 C :    0.034400
  18 C :   -0.241858
  19 C :   -0.031361
  20 O :   -0.313959
  21 H :    0.123385
  22 H :    0.121849
  23 O :   -0.405719
  24 H :    0.122726
  25 H :    0.101250
  26 H :    0.098806
  27 H :    0.107593
  28 H :    0.277069

  Mayer bond orders larger than 0.100000
B(  0-C ,  1-C ) :   0.9146 B(  0-C ,  4-O ) :   0.8934 B(  0-C ,  5-H ) :   0.9360
B(  0-C , 15-O ) :   0.9068 B(  1-C ,  2-C ) :   0.9557 B(  1-C ,  6-H ) :   0.9351
B(  1-C ,  7-H ) :   0.9338 B(  2-C ,  3-C ) :   0.9466 B(  2-C ,  8-H ) :   0.9444
B(  2-C ,  9-H ) :   0.9383 B(  3-C ,  4-O ) :   0.8505 B(  3-C , 10-H ) :   0.9342
B(  3-C , 11-H ) :   0.9384 B( 12-C , 13-H ) :   0.9096 B( 12-C , 14-H ) :   0.9027
B( 12-C , 15-O ) :   0.8415 B( 12-C , 16-C ) :   0.9069 B( 16-C , 17-C ) :   0.8756
B( 16-C , 20-O ) :   0.8667 B( 16-C , 21-H ) :   0.9266 B( 17-C , 18-C ) :   0.9205
B( 17-C , 22-H ) :   0.9318 B( 17-C , 23-O ) :   0.8975 B( 18-C , 19-C ) :   0.9389
B( 18-C , 24-H ) :   0.9422 B( 18-C , 25-H ) :   0.9418 B( 19-C , 20-O ) :   0.8529
B( 19-C , 26-H ) :   0.9322 B( 19-C , 27-H ) :   0.9370 B( 23-O , 28-H ) :   0.7987

FINAL SINGLE POINT ENERGY      -652.849252978850

DIPOLE MOMENT
-------------
                                X             Y             Z
Electronic contribution:     -4.25860      -5.22970      -0.81666
Nuclear contribution   :      5.29823       6.85950       1.16413
                        -----------------------------------------
Total Dipole Moment    :      1.03962       1.62980       0.34747
                        -----------------------------------------
Magnitude (a.u.)       :      1.96413
Magnitude (Debye)      :      4.99242

Rotational constants in cm-1:     0.045623     0.014943     0.014132
Rotational constants in MHz :  1367.735645   447.971097   423.671066

                             ****ORCA TERMINATED NORMALLY****
TOTAL RUN TIME: 0 days 1 hours 26 minutes 23 seconds 391 msec
