                         Program Version 4.2.0 -  RELEASE  -
|  1> # Test redundant internal optimization
|  2> #
|  3> ! RKS B3LYP  Opt TightSCF SmallPrint
|  4>
|  5> %basis
|  6>         Basis "6-31G"
|  7> end
|  8>
|  9> %geom
| 10> Constraints
| 11> { D 4  0  15  12  120.0   C } # D for Dihedral angle
| 12> { D 0  15  12  16  105.0   C } # D for Dihedral angle
| 13> { D 0  4  3  2   C } # D for Dihedral angle
| 14> { D 4  3  2  1   C } # D for Dihedral angle
| 15> { D 3  2  1  0   C } # D for Dihedral angle
| 16> { D 2  1  0  4   C } # D for Dihedral angle
| 17> { D 1  0  4  3   C } # D for Dihedral angle
| 18> { D 16  20  19  18   C } # D for Dihedral angle
| 19> { D 20  19  18  17   C } # D for Dihedral angle
| 20> { D 19  18  17  16   C } # D for Dihedral angle
| 21> { D 18  17  16  20   C } # D for Dihedral angle
| 22> { D 17  16  20  19   C } # D for Dihedral angle
| 23> { D 15  12  16  20   C } # D for Dihedral angle
| 24> end
| 25> end
| 26>
| 27>
| 28> #%pal
| 29> #nprocs 8
| 30> #end
| 31>
| 32> * xyz 0 1
| 33> C  -21.048   26.222   46.251
| 34> C  -20.361   27.558   45.944
| 35> C  -20.329   28.222   47.341
| 36> C  -20.110   27.022   48.296
| 37> O  -20.473   25.807   47.535
| 38> H  -20.833   25.428   45.533
| 39> H  -19.344   27.382   45.576
| 40> H  -20.898   28.157   45.201
| 41> H  -19.543   28.978   47.434
| 42> H  -21.289   28.710   47.548
| 43> H  -20.733   27.082   49.195
| 44> H  -19.064   26.913   48.597
| 45> C  -23.119   27.818   46.058
| 46> H  -23.843   28.114   46.828
| 47> H  -22.297   28.546   46.062
| 48> O  -22.586   26.394   46.375
| 49> C  -23.818   27.903   44.673
| 50> C  -25.085   27.041   44.635
| 51> C  -26.100   27.943   45.375
| 52> C  -25.681   29.371   44.944
| 53> O  -24.301   29.266   44.425
| 54> H  -23.091   27.674   43.891
| 55> H  -25.397   26.878   43.597
| 56> O  -24.901   25.656   45.314
| 57> H  -27.139   27.717   45.113
| 58> H  -25.993   27.819   46.459
| 59> H  -25.698   30.083   45.776
| 60> H  -26.302   29.761   44.133
| 61> H  -24.588   25.796   46.355
| 62> *
| 63>
| 64>                          ****END OF INPUT****
 Total Charge           Charge          ....    0
 Multiplicity           Mult            ....    1
 Number of Electrons    NEL             ....  102
FINAL SINGLE POINT ENERGY      -652.815411232265
FINAL SINGLE POINT ENERGY      -652.842151653954
FINAL SINGLE POINT ENERGY      -652.852702932724
FINAL SINGLE POINT ENERGY      -652.855835373049
FINAL SINGLE POINT ENERGY      -652.857440310226
FINAL SINGLE POINT ENERGY      -652.858295670259
FINAL SINGLE POINT ENERGY      -652.858626595743
FINAL SINGLE POINT ENERGY      -652.858708279053
FINAL SINGLE POINT ENERGY      -652.858715031563
                    ***********************HURRAY********************

CARTESIAN COORDINATES (ANGSTROEM)
---------------------------------
  C    -21.200689   26.341961   46.327309
  C    -20.241252   27.476925   45.959165
  C    -20.044456   28.192841   47.324386
  C    -20.085616   27.016669   48.327558
  O    -20.721821   25.888476   47.603260
  H    -21.156618   25.474835   45.667215
  H    -19.300616   27.027003   45.625661
  H    -20.599215   28.135235   45.163292
  H    -19.098569   28.740732   47.368724
  H    -20.851562   28.905795   47.518908
  H    -20.670575   27.234868   49.224845
  H    -19.088430   26.677701   48.620910
  C    -23.186656   28.003737   46.122091
  H    -23.897638   28.207388   46.928280
  H    -22.432062   28.793102   46.123165
  O    -22.619803   26.681431   46.404216
  C    -23.883169   27.976437   44.756194
  C    -25.085375   27.020597   44.666948
  C    -26.203588   27.855966   45.354322
  C    -25.871974   29.302121   44.932375
  O    -24.448376   29.294076   44.474177
  H    -23.142141   27.776666   43.975548
  H    -25.339463   26.875545   43.611088
  O    -24.897059   25.713501   45.240342
  H    -27.199064   27.538685   45.033893
  H    -26.140357   27.715058   46.438931
  H    -25.972572   30.027732   45.745547
  H    -26.469105   29.641027   44.080902
  H    -24.116178   25.724889   45.844746

 Multiplicity           Mult            ....    1
 Number of Electrons    NEL             ....  102
 Basis Dimension        Dim             ....  149

ORBITAL ENERGIES
----------------

  NO   OCC          E(Eh)            E(eV)
   0   2.0000     -19.161060      -521.3990
   1   2.0000     -19.149115      -521.0739
   2   2.0000     -19.142305      -520.8886
   3   2.0000     -19.112283      -520.0717
   4   2.0000     -10.293822      -280.1091
   5   2.0000     -10.241930      -278.6971
   6   2.0000     -10.235492      -278.5219
   7   2.0000     -10.235014      -278.5089
   8   2.0000     -10.230362      -278.3823
   9   2.0000     -10.228248      -278.3248
  10   2.0000     -10.204384      -277.6754
  11   2.0000     -10.202175      -277.6153
  12   2.0000     -10.179430      -276.9964
  13   2.0000      -1.062667       -28.9166
  14   2.0000      -1.026798       -27.9406
  15   2.0000      -1.007510       -27.4158
  16   2.0000      -0.991201       -26.9720
  17   2.0000      -0.799923       -21.7670
  18   2.0000      -0.777718       -21.1628
  19   2.0000      -0.769168       -20.9301
  20   2.0000      -0.740689       -20.1552
  21   2.0000      -0.686212       -18.6728
  22   2.0000      -0.614055       -16.7093
  23   2.0000      -0.603592       -16.4246
  24   2.0000      -0.596953       -16.2439
  25   2.0000      -0.575720       -15.6661
  26   2.0000      -0.538959       -14.6658
  27   2.0000      -0.513493       -13.9729
  28   2.0000      -0.509591       -13.8667
  29   2.0000      -0.489442       -13.3184
  30   2.0000      -0.476643       -12.9701
  31   2.0000      -0.463924       -12.6240
  32   2.0000      -0.443236       -12.0611
  33   2.0000      -0.438190       -11.9238
  34   2.0000      -0.426373       -11.6022
  35   2.0000      -0.422651       -11.5009
  36   2.0000      -0.410591       -11.1728
  37   2.0000      -0.393360       -10.7039
  38   2.0000      -0.389411       -10.5964
  39   2.0000      -0.372476       -10.1356
  40   2.0000      -0.368481       -10.0269
  41   2.0000      -0.365156        -9.9364
  42   2.0000      -0.348092        -9.4721
  43   2.0000      -0.341104        -9.2819
  44   2.0000      -0.324635        -8.8338
  45   2.0000      -0.311981        -8.4894
  46   2.0000      -0.288000        -7.8369
  47   2.0000      -0.282112        -7.6767
  48   2.0000      -0.268387        -7.3032
  49   2.0000      -0.247423        -6.7327
  50   2.0000      -0.239588        -6.5195
  51   0.0000       0.055625         1.5136
  52   0.0000       0.070683         1.9234
  53   0.0000       0.091359         2.4860
  54   0.0000       0.095308         2.5935
  55   0.0000       0.101966         2.7746

MULLIKEN ATOMIC CHARGES
-----------------------
   0 C :    0.328065
   1 C :   -0.312925
   2 C :   -0.310020
   3 C :   -0.006258
   4 O :   -0.491737
   5 H :    0.167139
   6 H :    0.164585
   7 H :    0.158260
   8 H :    0.151446
   9 H :    0.156002
  10 H :    0.153516
  11 H :    0.150292
  12 C :   -0.032609
  13 H :    0.158800
  14 H :    0.156039
  15 O :   -0.566140
  16 C :    0.055462
  17 C :    0.122207
  18 C :   -0.300205
  19 C :   -0.027083
  20 O :   -0.522646
  21 H :    0.149461
  22 H :    0.146208
  23 O :   -0.639282
  24 H :    0.150576
  25 H :    0.148014
  26 H :    0.143406
  27 H :    0.151688
  28 H :    0.397740
Sum of atomic charges:   -0.0000000

LOEWDIN ATOMIC CHARGES
----------------------
   0 C :    0.183696
   1 C :   -0.232461
   2 C :   -0.220805
   3 C :   -0.028805
   4 O :   -0.308046
   5 H :    0.111692
   6 H :    0.127474
   7 H :    0.119982
   8 H :    0.119265
   9 H :    0.111886
  10 H :    0.108457
  11 H :    0.106882
  12 C :   -0.047917
  13 H :    0.112275
  14 H :    0.110912
  15 O :   -0.339406
  16 C :    0.008457
  17 C :    0.042307
  18 C :   -0.237113
  19 C :   -0.033773
  20 O :   -0.327449
  21 H :    0.108498
  22 H :    0.105196
  23 O :   -0.433562
  24 H :    0.121524
  25 H :    0.112186
  26 H :    0.102166
  27 H :    0.106901
  28 H :    0.289580

  Mayer bond orders larger than 0.100000
B(  0-C ,  1-C ) :   0.9375 B(  0-C ,  4-O ) :   0.9350 B(  0-C ,  5-H ) :   0.9303
B(  0-C , 15-O ) :   0.8169 B(  1-C ,  2-C ) :   0.9500 B(  1-C ,  6-H ) :   0.9324
B(  1-C ,  7-H ) :   0.9273 B(  2-C ,  3-C ) :   0.9478 B(  2-C ,  8-H ) :   0.9447
B(  2-C ,  9-H ) :   0.9383 B(  3-C ,  4-O ) :   0.8387 B(  3-C , 10-H ) :   0.9342
B(  3-C , 11-H ) :   0.9390 B( 12-C , 13-H ) :   0.9327 B( 12-C , 14-H ) :   0.9118
B( 12-C , 15-O ) :   0.7923 B( 12-C , 16-C ) :   0.8874 B( 16-C , 17-C ) :   0.9120
B( 16-C , 20-O ) :   0.8541 B( 16-C , 21-H ) :   0.9309 B( 17-C , 18-C ) :   0.8997
B( 17-C , 22-H ) :   0.9313 B( 17-C , 23-O ) :   0.9398 B( 18-C , 19-C ) :   0.9399
B( 18-C , 24-H ) :   0.9450 B( 18-C , 25-H ) :   0.9425 B( 19-C , 20-O ) :   0.8308
B( 19-C , 26-H ) :   0.9339 B( 19-C , 27-H ) :   0.9381 B( 23-O , 28-H ) :   0.7216

FINAL SINGLE POINT ENERGY      -652.858716638485

DIPOLE MOMENT
-------------
                                X             Y             Z
Electronic contribution:     -0.97539      -4.03045      -1.15059
Nuclear contribution   :      1.88444       5.30016       1.40601
                        -----------------------------------------
Total Dipole Moment    :      0.90906       1.26971       0.25543
                        -----------------------------------------
Magnitude (a.u.)       :      1.58234
Magnitude (Debye)      :      4.02198

Rotational constants in cm-1:     0.056139     0.013768     0.012319
Rotational constants in MHz :  1683.012920   412.741317   369.308474

                             ****ORCA TERMINATED NORMALLY****
TOTAL RUN TIME: 0 days 0 hours 29 minutes 1 seconds 5 msec
