                         Program Version 4.2.0 -  RELEASE  -
|  1> # Test redundant internal optimization
|  2> #
|  3> ! RKS B3LYP  Opt TightSCF SmallPrint
|  4>
|  5> %basis
|  6>         Basis "6-31G"
|  7> end
|  8>
|  9> %geom
| 10> Constraints
| 11> { D 4  0  15  12  30.0   C } # D for Dihedral angle
| 12> { D 0  15  12  16  60.0   C } # D for Dihedral angle
| 13> { D 0  4  3  2   C } # D for Dihedral angle
| 14> { D 4  3  2  1   C } # D for Dihedral angle
| 15> { D 3  2  1  0   C } # D for Dihedral angle
| 16> { D 2  1  0  4   C } # D for Dihedral angle
| 17> { D 1  0  4  3   C } # D for Dihedral angle
| 18> { D 16  20  19  18   C } # D for Dihedral angle
| 19> { D 20  19  18  17   C } # D for Dihedral angle
| 20> { D 19  18  17  16   C } # D for Dihedral angle
| 21> { D 18  17  16  20   C } # D for Dihedral angle
| 22> { D 17  16  20  19   C } # D for Dihedral angle
| 23> { D 15  12  16  20   C } # D for Dihedral angle
| 24> end
| 25> end
| 26>
| 27>
| 28> #%pal
| 29> #nprocs 8
| 30> #end
| 31>
| 32> * xyz 0 1
| 33> C  -21.048   26.222   46.251
| 34> C  -20.361   27.558   45.944
| 35> C  -20.329   28.222   47.341
| 36> C  -20.110   27.022   48.296
| 37> O  -20.473   25.807   47.535
| 38> H  -20.833   25.428   45.533
| 39> H  -19.344   27.382   45.576
| 40> H  -20.898   28.157   45.201
| 41> H  -19.543   28.978   47.434
| 42> H  -21.289   28.710   47.548
| 43> H  -20.733   27.082   49.195
| 44> H  -19.064   26.913   48.597
| 45> C  -23.091   26.824   47.779
| 46> H  -24.185   26.908   47.761
| 47> H  -22.818   26.074   48.532
| 48> O  -22.586   26.394   46.375
| 49> C  -22.505   28.188   48.237
| 50> C  -22.980   29.330   47.331
| 51> C  -24.407   29.587   47.873
| 52> C  -24.258   29.325   49.393
| 53> O  -23.014   28.545   49.565
| 54> H  -21.420   28.101   48.323
| 55> H  -22.347   30.213   47.476
| 56> O  -22.966   28.959   45.823
| 57> H  -24.767   30.597   47.657
| 58> H  -25.112   28.876   47.425
| 59> H  -25.098   28.756   49.805
| 60> H  -24.142   30.248   49.966
| 61> H  -23.594   28.077   45.655
| 62> *
| 63>
| 64>                          ****END OF INPUT****
 Total Charge           Charge          ....    0
 Multiplicity           Mult            ....    1
 Number of Electrons    NEL             ....  102
FINAL SINGLE POINT ENERGY      -652.657504363611
FINAL SINGLE POINT ENERGY      -652.815840357762
FINAL SINGLE POINT ENERGY      -652.841144165088
FINAL SINGLE POINT ENERGY      -652.849149555351
FINAL SINGLE POINT ENERGY      -652.850884423659
FINAL SINGLE POINT ENERGY      -652.851714668869
FINAL SINGLE POINT ENERGY      -652.852070036945
FINAL SINGLE POINT ENERGY      -652.852173142914
FINAL SINGLE POINT ENERGY      -652.852213216385
FINAL SINGLE POINT ENERGY      -652.852217564416
FINAL SINGLE POINT ENERGY      -652.852218845951
                    ***********************HURRAY********************

CARTESIAN COORDINATES (ANGSTROEM)
---------------------------------
  C    -21.126971   26.248233   46.421742
  C    -20.271660   27.349402   45.784616
  C    -19.749398   28.116725   47.032406
  C    -19.559738   26.986087   48.071946
  O    -20.362951   25.835924   47.569266
  H    -21.177807   25.369033   45.774090
  H    -19.451608   26.859593   45.249677
  H    -20.820089   27.994105   45.096046
  H    -18.807454   28.637257   46.832087
  H    -20.478913   28.864950   47.337620
  H    -19.901070   27.242139   49.079288
  H    -18.524416   26.638871   48.126731
  C    -23.198195   26.931461   47.895872
  H    -24.258602   26.924103   47.632707
  H    -23.034361   26.175883   48.672249
  O    -22.557885   26.477486   46.650825
  C    -22.796026   28.290671   48.480079
  C    -23.164786   29.484413   47.581039
  C    -24.691223   29.627208   47.857265
  C    -24.813661   29.248773   49.348865
  O    -23.565328   28.510779   49.704430
  H    -21.753757   28.290969   48.791082
  H    -22.636280   30.384181   47.907090
  O    -22.830763   29.314629   46.183342
  H    -25.048365   30.638452   47.645820
  H    -25.242583   28.936565   47.210025
  H    -25.673745   28.607379   49.563588
  H    -24.853760   30.124520   50.002312
  H    -22.963608   28.373209   45.924898

 Multiplicity           Mult            ....    1
 Number of Electrons    NEL             ....  102
 Basis Dimension        Dim             ....  149

ORBITAL ENERGIES
----------------

  NO   OCC          E(Eh)            E(eV)
   0   2.0000     -19.153642      -521.1971
   1   2.0000     -19.152156      -521.1567
   2   2.0000     -19.146570      -521.0047
   3   2.0000     -19.136487      -520.7303
   4   2.0000     -10.284607      -279.8584
   5   2.0000     -10.242379      -278.7093
   6   2.0000     -10.237779      -278.5841
   7   2.0000     -10.235857      -278.5318
   8   2.0000     -10.233621      -278.4710
   9   2.0000     -10.232953      -278.4528
  10   2.0000     -10.189670      -277.2750
  11   2.0000     -10.189543      -277.2716
  12   2.0000     -10.189112      -277.2598
  13   2.0000      -1.055169       -28.7126
  14   2.0000      -1.032767       -28.1030
  15   2.0000      -1.012077       -27.5400
  16   2.0000      -0.997693       -27.1486
  17   2.0000      -0.790442       -21.5090
  18   2.0000      -0.781283       -21.2598
  19   2.0000      -0.773908       -21.0591
  20   2.0000      -0.737509       -20.0687
  21   2.0000      -0.685592       -18.6559
  22   2.0000      -0.609495       -16.5852
  23   2.0000      -0.607973       -16.5438
  24   2.0000      -0.602759       -16.4019
  25   2.0000      -0.573536       -15.6067
  26   2.0000      -0.533524       -14.5179
  27   2.0000      -0.507780       -13.8174
  28   2.0000      -0.503832       -13.7100
  29   2.0000      -0.490234       -13.3399
  30   2.0000      -0.474133       -12.9018
  31   2.0000      -0.459733       -12.5100
  32   2.0000      -0.454011       -12.3543
  33   2.0000      -0.431558       -11.7433
  34   2.0000      -0.426268       -11.5993
  35   2.0000      -0.416542       -11.3347
  36   2.0000      -0.412923       -11.2362
  37   2.0000      -0.400095       -10.8871
  38   2.0000      -0.380577       -10.3560
  39   2.0000      -0.376417       -10.2428
  40   2.0000      -0.361161        -9.8277
  41   2.0000      -0.354866        -9.6564
  42   2.0000      -0.349457        -9.5092
  43   2.0000      -0.343656        -9.3514
  44   2.0000      -0.329134        -8.9562
  45   2.0000      -0.317712        -8.6454
  46   2.0000      -0.304365        -8.2822
  47   2.0000      -0.274897        -7.4803
  48   2.0000      -0.263780        -7.1778
  49   2.0000      -0.263548        -7.1715
  50   2.0000      -0.241261        -6.5650
  51   0.0000       0.054906         1.4941
  52   0.0000       0.073567         2.0019
  53   0.0000       0.082670         2.2496
  54   0.0000       0.090028         2.4498
  55   0.0000       0.102443         2.7876

MULLIKEN ATOMIC CHARGES
-----------------------
   0 C :    0.311652
   1 C :   -0.276803
   2 C :   -0.322164
   3 C :   -0.024152
   4 O :   -0.511420
   5 H :    0.168433
   6 H :    0.153062
   7 H :    0.164967
   8 H :    0.145980
   9 H :    0.173207
  10 H :    0.154235
  11 H :    0.152183
  12 C :   -0.035806
  13 H :    0.160239
  14 H :    0.175350
  15 O :   -0.557474
  16 C :    0.041217
  17 C :    0.109473
  18 C :   -0.310545
  19 C :   -0.018265
  20 O :   -0.520111
  21 H :    0.159122
  22 H :    0.154315
  23 O :   -0.628399
  24 H :    0.152317
  25 H :    0.149214
  26 H :    0.144992
  27 H :    0.153065
  28 H :    0.382117
Sum of atomic charges:   -0.0000000

LOEWDIN ATOMIC CHARGES
----------------------
   0 C :    0.179450
   1 C :   -0.225809
   2 C :   -0.225673
   3 C :   -0.035995
   4 O :   -0.315892
   5 H :    0.111012
   6 H :    0.120242
   7 H :    0.128172
   8 H :    0.117374
   9 H :    0.119380
  10 H :    0.104073
  11 H :    0.108010
  12 C :   -0.050775
  13 H :    0.115175
  14 H :    0.120201
  15 O :   -0.345592
  16 C :   -0.000328
  17 C :    0.035473
  18 C :   -0.237651
  19 C :   -0.032111
  20 O :   -0.319973
  21 H :    0.113987
  22 H :    0.110798
  23 O :   -0.423346
  24 H :    0.122458
  25 H :    0.112722
  26 H :    0.103790
  27 H :    0.107965
  28 H :    0.282865

  Mayer bond orders larger than 0.100000
B(  0-C ,  1-C ) :   0.9197 B(  0-C ,  4-O ) :   0.9181 B(  0-C ,  5-H ) :   0.9352
B(  0-C , 15-O ) :   0.8333 B(  1-C ,  2-C ) :   0.9540 B(  1-C ,  6-H ) :   0.9324
B(  1-C ,  7-H ) :   0.9272 B(  2-C ,  3-C ) :   0.9490 B(  2-C ,  8-H ) :   0.9446
B(  2-C ,  9-H ) :   0.9235 B(  3-C ,  4-O ) :   0.8300 B(  3-C , 10-H ) :   0.9243
B(  3-C , 11-H ) :   0.9371 B( 12-C , 13-H ) :   0.9363 B( 12-C , 14-H ) :   0.9237
B( 12-C , 15-O ) :   0.8071 B( 12-C , 16-C ) :   0.8819 B( 16-C , 17-C ) :   0.8989
B( 16-C , 20-O ) :   0.8391 B( 16-C , 21-H ) :   0.9160 B( 17-C , 18-C ) :   0.9073
B( 17-C , 22-H ) :   0.9343 B( 17-C , 23-O ) :   0.9056 B( 18-C , 19-C ) :   0.9407
B( 18-C , 24-H ) :   0.9445 B( 18-C , 25-H ) :   0.9419 B( 19-C , 20-O ) :   0.8343
B( 19-C , 26-H ) :   0.9334 B( 19-C , 27-H ) :   0.9375 B( 23-O , 28-H ) :   0.7351

FINAL SINGLE POINT ENERGY      -652.852219310555

DIPOLE MOMENT
-------------
                                X             Y             Z
Electronic contribution:     -0.67619      -3.28606       0.29197
Nuclear contribution   :      0.73443       3.85186      -0.34823
                        -----------------------------------------
Total Dipole Moment    :      0.05824       0.56580      -0.05627
                        -----------------------------------------
Magnitude (a.u.)       :      0.57157
Magnitude (Debye)      :      1.45281

Rotational constants in cm-1:     0.048523     0.017603     0.016570
Rotational constants in MHz :  1454.689994   527.729254   496.742740

                             ****ORCA TERMINATED NORMALLY****
TOTAL RUN TIME: 0 days 0 hours 48 minutes 34 seconds 822 msec
