                         Program Version 4.2.0 -  RELEASE  -
|  1> # Test redundant internal optimization
|  2> #
|  3> ! RKS B3LYP  Opt TightSCF SmallPrint
|  4>
|  5> %basis
|  6>         Basis "6-31G"
|  7> end
|  8>
|  9> %geom
| 10> Constraints
| 11> { D 4  0  15  12  0.0   C } # D for Dihedral angle
| 12> { D 0  15  12  16  315.0   C } # D for Dihedral angle
| 13> { D 0  4  3  2   C } # D for Dihedral angle
| 14> { D 4  3  2  1   C } # D for Dihedral angle
| 15> { D 3  2  1  0   C } # D for Dihedral angle
| 16> { D 2  1  0  4   C } # D for Dihedral angle
| 17> { D 1  0  4  3   C } # D for Dihedral angle
| 18> { D 16  20  19  18   C } # D for Dihedral angle
| 19> { D 20  19  18  17   C } # D for Dihedral angle
| 20> { D 19  18  17  16   C } # D for Dihedral angle
| 21> { D 18  17  16  20   C } # D for Dihedral angle
| 22> { D 17  16  20  19   C } # D for Dihedral angle
| 23> { D 15  12  16  20   C } # D for Dihedral angle
| 24> end
| 25> end
| 26>
| 27>
| 28> #%pal
| 29> #nprocs 8
| 30> #end
| 31>
| 32> * xyz 0 1
| 33> C  -21.048   26.222   46.251
| 34> C  -20.361   27.558   45.944
| 35> C  -20.329   28.222   47.341
| 36> C  -20.110   27.022   48.296
| 37> O  -20.473   25.807   47.535
| 38> H  -20.833   25.428   45.533
| 39> H  -19.344   27.382   45.576
| 40> H  -20.898   28.157   45.201
| 41> H  -19.543   28.978   47.434
| 42> H  -21.289   28.710   47.548
| 43> H  -20.733   27.082   49.195
| 44> H  -19.064   26.913   48.597
| 45> C  -23.172   26.101   47.783
| 46> H  -22.943   26.939   48.453
| 47> H  -24.263   25.993   47.730
| 48> O  -22.586   26.394   46.375
| 49> C  -22.598   24.802   48.414
| 50> C  -23.281   24.482   49.748
| 51> C  -24.612   23.849   49.275
| 52> C  -24.200   23.081   47.995
| 53> O  -22.901   23.643   47.566
| 54> H  -21.511   24.881   48.470
| 55> O  -22.437   23.451   50.546
| 56> H  -23.432   25.366   50.377
| 57> H  -25.061   23.193   50.028
| 58> H  -25.339   24.634   49.038
| 59> H  -24.927   23.199   47.183
| 60> H  -24.045   22.014   48.179
| 61> H  -22.274   22.556   49.935
| 62> *
| 63>
| 64>                          ****END OF INPUT****
 Total Charge           Charge          ....    0
 Multiplicity           Mult            ....    1
 Number of Electrons    NEL             ....  102
FINAL SINGLE POINT ENERGY      -652.813844277534
FINAL SINGLE POINT ENERGY      -652.836845977073
FINAL SINGLE POINT ENERGY      -652.851430311476
FINAL SINGLE POINT ENERGY      -652.853761967965
FINAL SINGLE POINT ENERGY      -652.854235963552
FINAL SINGLE POINT ENERGY      -652.854276467056
FINAL SINGLE POINT ENERGY      -652.854283807807
                    ***********************HURRAY********************

CARTESIAN COORDINATES (ANGSTROEM)
---------------------------------
  C    -21.023230   26.277264   46.294299
  C    -20.495060   27.672484   45.952375
  C    -20.244477   28.270107   47.358701
  C    -19.773860   27.049101   48.179999
  O    -20.204589   25.849809   47.406421
  H    -20.883196   25.527017   45.514091
  H    -19.557292   27.577532   45.392396
  H    -21.211118   28.244373   45.359122
  H    -19.500269   29.072404   47.349626
  H    -21.176716   28.678519   47.762490
  H    -20.215211   27.000803   49.179999
  H    -18.685275   26.986969   48.266396
  C    -23.108156   26.014450   47.792174
  H    -22.993751   26.852782   48.501280
  H    -24.164525   25.951485   47.516012
  O    -22.458485   26.342659   46.536209
  C    -22.657179   24.732769   48.507500
  C    -23.469718   24.449491   49.780229
  C    -24.750211   23.789022   49.198538
  C    -24.205701   22.983819   47.990606
  O    -22.871676   23.543868   47.674421
  H    -21.588379   24.771185   48.707876
  O    -22.748994   23.544035   50.660639
  H    -23.676798   25.334676   50.383945
  H    -25.233990   23.158313   49.949131
  H    -25.464925   24.556761   48.882242
  H    -24.845858   23.063696   47.106276
  H    -24.065027   21.923516   48.224333
  H    -22.333335   22.840088   50.118673

 Multiplicity           Mult            ....    1
 Number of Electrons    NEL             ....  102
 Basis Dimension        Dim             ....  149

ORBITAL ENERGIES
----------------

  NO   OCC          E(Eh)            E(eV)
   0   2.0000     -19.150715      -521.1175
   1   2.0000     -19.135544      -520.7046
   2   2.0000     -19.135226      -520.6960
   3   2.0000     -19.133516      -520.6494
   4   2.0000     -10.277914      -279.6763
   5   2.0000     -10.239377      -278.6276
   6   2.0000     -10.233243      -278.4607
   7   2.0000     -10.232724      -278.4466
   8   2.0000     -10.226160      -278.2680
   9   2.0000     -10.223091      -278.1844
  10   2.0000     -10.191600      -277.3275
  11   2.0000     -10.186836      -277.1979
  12   2.0000     -10.184648      -277.1384
  13   2.0000      -1.052058       -28.6280
  14   2.0000      -1.031118       -28.0582
  15   2.0000      -1.001817       -27.2608
  16   2.0000      -0.989564       -26.9274
  17   2.0000      -0.791588       -21.5402
  18   2.0000      -0.779957       -21.2237
  19   2.0000      -0.763712       -20.7816
  20   2.0000      -0.734430       -19.9849
  21   2.0000      -0.672658       -18.3039
  22   2.0000      -0.604148       -16.4397
  23   2.0000      -0.601677       -16.3725
  24   2.0000      -0.599399       -16.3105
  25   2.0000      -0.569121       -15.4866
  26   2.0000      -0.516375       -14.0513
  27   2.0000      -0.514062       -13.9883
  28   2.0000      -0.498603       -13.5677
  29   2.0000      -0.486083       -13.2270
  30   2.0000      -0.470515       -12.8034
  31   2.0000      -0.461182       -12.5494
  32   2.0000      -0.446487       -12.1495
  33   2.0000      -0.440774       -11.9941
  34   2.0000      -0.417026       -11.3478
  35   2.0000      -0.409897       -11.1539
  36   2.0000      -0.399790       -10.8788
  37   2.0000      -0.389572       -10.6008
  38   2.0000      -0.373947       -10.1756
  39   2.0000      -0.370411       -10.0794
  40   2.0000      -0.361454        -9.8357
  41   2.0000      -0.360314        -9.8046
  42   2.0000      -0.350471        -9.5368
  43   2.0000      -0.336073        -9.1450
  44   2.0000      -0.321707        -8.7541
  45   2.0000      -0.309579        -8.4241
  46   2.0000      -0.298044        -8.1102
  47   2.0000      -0.268653        -7.3104
  48   2.0000      -0.261178        -7.1070
  49   2.0000      -0.250295        -6.8109
  50   2.0000      -0.232344        -6.3224
  51   0.0000       0.063887         1.7385
  52   0.0000       0.077682         2.1138
  53   0.0000       0.089334         2.4309
  54   0.0000       0.097501         2.6531
  55   0.0000       0.102898         2.8000

MULLIKEN ATOMIC CHARGES
-----------------------
   0 C :    0.313190
   1 C :   -0.259090
   2 C :   -0.310234
   3 C :   -0.021441
   4 O :   -0.512272
   5 H :    0.166973
   6 H :    0.145189
   7 H :    0.160955
   8 H :    0.148302
   9 H :    0.154573
  10 H :    0.143957
  11 H :    0.155251
  12 C :    0.012884
  13 H :    0.113185
  14 H :    0.152674
  15 O :   -0.543294
  16 C :    0.035216
  17 C :    0.074030
  18 C :   -0.296075
  19 C :   -0.030981
  20 O :   -0.516528
  21 H :    0.205653
  22 O :   -0.603675
  23 H :    0.146722
  24 H :    0.160580
  25 H :    0.142267
  26 H :    0.148698
  27 H :    0.146277
  28 H :    0.367013
Sum of atomic charges:   -0.0000000

LOEWDIN ATOMIC CHARGES
----------------------
   0 C :    0.188013
   1 C :   -0.219911
   2 C :   -0.219587
   3 C :   -0.034908
   4 O :   -0.315837
   5 H :    0.111045
   6 H :    0.113818
   7 H :    0.125989
   8 H :    0.117634
   9 H :    0.113813
  10 H :    0.101798
  11 H :    0.108773
  12 C :   -0.032728
  13 H :    0.085522
  14 H :    0.113321
  15 O :   -0.337364
  16 C :   -0.005495
  17 C :    0.034295
  18 C :   -0.242490
  19 C :   -0.039942
  20 O :   -0.325921
  21 H :    0.134209
  22 O :   -0.415530
  23 H :    0.112350
  24 H :    0.125471
  25 H :    0.111632
  26 H :    0.105071
  27 H :    0.102316
  28 H :    0.284644

  Mayer bond orders larger than 0.100000
B(  0-C ,  1-C ) :   0.9297 B(  0-C ,  4-O ) :   0.8947 B(  0-C ,  5-H ) :   0.9288
B(  0-C , 15-O ) :   0.8449 B(  1-C ,  2-C ) :   0.9537 B(  1-C ,  6-H ) :   0.9354
B(  1-C ,  7-H ) :   0.9365 B(  2-C ,  3-C ) :   0.9536 B(  2-C ,  8-H ) :   0.9445
B(  2-C ,  9-H ) :   0.9454 B(  3-C ,  4-O ) :   0.8299 B(  3-C , 10-H ) :   0.9322
B(  3-C , 11-H ) :   0.9393 B( 12-C , 13-H ) :   0.9095 B( 12-C , 14-H ) :   0.9374
B( 12-C , 15-O ) :   0.8513 B( 12-C , 16-C ) :   0.8854 B( 16-C , 17-C ) :   0.8917
B( 16-C , 20-O ) :   0.8497 B( 16-C , 21-H ) :   0.8965 B( 17-C , 18-C ) :   0.9100
B( 17-C , 22-O ) :   0.8941 B( 17-C , 23-H ) :   0.9332 B( 18-C , 19-C ) :   0.9411
B( 18-C , 24-H ) :   0.9381 B( 18-C , 25-H ) :   0.9340 B( 19-C , 20-O ) :   0.8529
B( 19-C , 26-H ) :   0.9336 B( 19-C , 27-H ) :   0.9372 B( 22-O , 28-H ) :   0.7927

FINAL SINGLE POINT ENERGY      -652.854285244723

DIPOLE MOMENT
-------------
                                X             Y             Z
Electronic contribution:      0.87497      -3.94575      -0.71627
Nuclear contribution   :     -1.06256       4.80720       0.74112
                        -----------------------------------------
Total Dipole Moment    :     -0.18760       0.86145       0.02486
                        -----------------------------------------
Magnitude (a.u.)       :      0.88199
Magnitude (Debye)      :      2.24185

Rotational constants in cm-1:     0.055626     0.014779     0.013503
Rotational constants in MHz :  1667.623714   443.054693   404.808905

                             ****ORCA TERMINATED NORMALLY****
TOTAL RUN TIME: 0 days 0 hours 25 minutes 26 seconds 722 msec
