                         Program Version 4.2.0 -  RELEASE  -
|  1> # Test redundant internal optimization
|  2> #
|  3> ! RKS B3LYP  Opt TightSCF SmallPrint
|  4>
|  5> %basis
|  6>         Basis "6-31G"
|  7> end
|  8>
|  9> %geom
| 10> Constraints
| 11> { D 4  0  15  12  240.0   C } # D for Dihedral angle
| 12> { D 0  15  12  16  255.0   C } # D for Dihedral angle
| 13> { D 0  4  3  2   C } # D for Dihedral angle
| 14> { D 4  3  2  1   C } # D for Dihedral angle
| 15> { D 3  2  1  0   C } # D for Dihedral angle
| 16> { D 2  1  0  4   C } # D for Dihedral angle
| 17> { D 1  0  4  3   C } # D for Dihedral angle
| 18> { D 16  20  19  18   C } # D for Dihedral angle
| 19> { D 20  19  18  17   C } # D for Dihedral angle
| 20> { D 19  18  17  16   C } # D for Dihedral angle
| 21> { D 18  17  16  20   C } # D for Dihedral angle
| 22> { D 17  16  20  19   C } # D for Dihedral angle
| 23> { D 15  12  16  20   C } # D for Dihedral angle
| 24> end
| 25> end
| 26>
| 27>
| 28> #%pal
| 29> #nprocs 8
| 30> #end
| 31>
| 32> * xyz 0 1
| 33> C  -21.048   26.222   46.251
| 34> C  -20.361   27.558   45.944
| 35> C  -20.329   28.222   47.341
| 36> C  -20.110   27.022   48.296
| 37> O  -20.473   25.807   47.535
| 38> H  -20.833   25.428   45.533
| 39> H  -19.344   27.382   45.576
| 40> H  -20.898   28.157   45.201
| 41> H  -19.543   28.978   47.434
| 42> H  -21.289   28.710   47.548
| 43> H  -20.733   27.082   49.195
| 44> H  -19.064   26.913   48.597
| 45> C  -23.430   25.483   45.442
| 46> H  -22.795   24.678   45.051
| 47> H  -24.259   25.026   45.998
| 48> O  -22.586   26.394   46.375
| 49> C  -24.037   26.254   44.238
| 50> C  -24.869   27.454   44.707
| 51> C  -23.767   28.496   45.017
| 52> C  -22.695   28.206   43.938
| 53> O  -22.974   26.848   43.421
| 54> H  -24.577   25.553   43.599
| 55> O  -25.784   27.951   43.556
| 56> H  -25.497   27.229   45.576
| 57> H  -24.134   29.527   44.975
| 58> H  -23.360   28.326   46.021
| 59> H  -21.676   28.235   44.340
| 60> H  -22.760   28.893   43.089
| 61> H  -25.176   28.182   42.675
| 62> *
| 63>
| 64>                          ****END OF INPUT****
 Total Charge           Charge          ....    0
 Multiplicity           Mult            ....    1
 Number of Electrons    NEL             ....  102
FINAL SINGLE POINT ENERGY      -652.811267327551
FINAL SINGLE POINT ENERGY      -652.839087897493
FINAL SINGLE POINT ENERGY      -652.855432098816
FINAL SINGLE POINT ENERGY      -652.859260147278
FINAL SINGLE POINT ENERGY      -652.859795571769
FINAL SINGLE POINT ENERGY      -652.859832906862
FINAL SINGLE POINT ENERGY      -652.859838369650
                    ***********************HURRAY********************

CARTESIAN COORDINATES (ANGSTROEM)
---------------------------------
  C    -20.970297   26.169630   46.283763
  C    -20.237065   27.495095   46.076182
  C    -20.235650   28.092220   47.507241
  C    -20.086247   26.835705   48.394576
  O    -20.461379   25.687830   47.539566
  H    -20.771678   25.402290   45.530715
  H    -19.213348   27.285863   45.743398
  H    -20.716821   28.136150   45.340223
  H    -19.427240   28.812460   47.663544
  H    -21.189413   28.592483   47.702034
  H    -20.739650   26.848782   49.270534
  H    -19.054113   26.666337   48.716299
  C    -23.279739   25.627025   45.513368
  H    -22.719684   24.770853   45.110776
  H    -24.090223   25.229386   46.136573
  O    -22.408080   26.381790   46.400564
  C    -23.921229   26.364677   44.334519
  C    -24.896111   27.503322   44.667482
  C    -23.940557   28.721559   44.751654
  C    -22.882055   28.410576   43.666097
  O    -22.988355   26.960149   43.378006
  H    -24.466304   25.588409   43.780091
  O    -25.891989   27.656140   43.616939
  H    -25.466934   27.339424   45.581503
  H    -24.476201   29.657388   44.574510
  H    -23.480328   28.746458   45.743520
  H    -21.864042   28.649397   43.976146
  H    -23.082587   28.933920   42.724450
  H    -25.443684   27.650683   42.744727

 Multiplicity           Mult            ....    1
 Number of Electrons    NEL             ....  102
 Basis Dimension        Dim             ....  149

ORBITAL ENERGIES
----------------

  NO   OCC          E(Eh)            E(eV)
   0   2.0000     -19.147817      -521.0386
   1   2.0000     -19.146115      -520.9923
   2   2.0000     -19.138927      -520.7967
   3   2.0000     -19.137910      -520.7690
   4   2.0000     -10.281496      -279.7737
   5   2.0000     -10.240027      -278.6453
   6   2.0000     -10.236909      -278.5605
   7   2.0000     -10.236141      -278.5396
   8   2.0000     -10.232238      -278.4333
   9   2.0000     -10.225012      -278.2367
  10   2.0000     -10.187745      -277.2226
  11   2.0000     -10.187075      -277.2044
  12   2.0000     -10.184681      -277.1393
  13   2.0000      -1.053975       -28.6801
  14   2.0000      -1.038266       -28.2527
  15   2.0000      -1.007344       -27.4112
  16   2.0000      -0.995173       -27.0800
  17   2.0000      -0.789504       -21.4835
  18   2.0000      -0.780394       -21.2356
  19   2.0000      -0.770332       -20.9618
  20   2.0000      -0.733679       -19.9644
  21   2.0000      -0.679626       -18.4936
  22   2.0000      -0.604462       -16.4482
  23   2.0000      -0.600365       -16.3368
  24   2.0000      -0.600250       -16.3336
  25   2.0000      -0.580758       -15.8032
  26   2.0000      -0.526513       -14.3271
  27   2.0000      -0.509011       -13.8509
  28   2.0000      -0.500102       -13.6085
  29   2.0000      -0.488844       -13.3021
  30   2.0000      -0.473385       -12.8815
  31   2.0000      -0.462834       -12.5943
  32   2.0000      -0.453330       -12.3357
  33   2.0000      -0.437294       -11.8994
  34   2.0000      -0.431811       -11.7502
  35   2.0000      -0.414276       -11.2730
  36   2.0000      -0.400583       -10.9004
  37   2.0000      -0.392976       -10.6934
  38   2.0000      -0.379295       -10.3211
  39   2.0000      -0.368040       -10.0149
  40   2.0000      -0.361486        -9.8365
  41   2.0000      -0.357120        -9.7177
  42   2.0000      -0.351524        -9.5655
  43   2.0000      -0.333264        -9.0686
  44   2.0000      -0.317674        -8.6443
  45   2.0000      -0.311191        -8.4679
  46   2.0000      -0.304445        -8.2844
  47   2.0000      -0.277667        -7.5557
  48   2.0000      -0.267024        -7.2661
  49   2.0000      -0.256515        -6.9801
  50   2.0000      -0.240772        -6.5517
  51   0.0000       0.059719         1.6250
  52   0.0000       0.077510         2.1092
  53   0.0000       0.086551         2.3552
  54   0.0000       0.098716         2.6862
  55   0.0000       0.104258         2.8370

MULLIKEN ATOMIC CHARGES
-----------------------
   0 C :    0.289912
   1 C :   -0.265760
   2 C :   -0.305241
   3 C :    0.002035
   4 O :   -0.500620
   5 H :    0.151170
   6 H :    0.147313
   7 H :    0.150249
   8 H :    0.142239
   9 H :    0.160019
  10 H :    0.151201
  11 H :    0.140867
  12 C :   -0.012641
  13 H :    0.139942
  14 H :    0.148926
  15 O :   -0.520709
  16 C :    0.074135
  17 C :    0.082906
  18 C :   -0.290629
  19 C :   -0.031745
  20 O :   -0.530486
  21 H :    0.154815
  22 O :   -0.605003
  23 H :    0.155814
  24 H :    0.153793
  25 H :    0.166908
  26 H :    0.145671
  27 H :    0.141493
  28 H :    0.363426
Sum of atomic charges:   -0.0000000

LOEWDIN ATOMIC CHARGES
----------------------
   0 C :    0.179545
   1 C :   -0.221171
   2 C :   -0.217912
   3 C :   -0.026101
   4 O :   -0.313720
   5 H :    0.103228
   6 H :    0.115803
   7 H :    0.115899
   8 H :    0.114088
   9 H :    0.116454
  10 H :    0.107547
  11 H :    0.101742
  12 C :   -0.035034
  13 H :    0.103238
  14 H :    0.112501
  15 O :   -0.335629
  16 C :    0.003170
  17 C :    0.038514
  18 C :   -0.239265
  19 C :   -0.035726
  20 O :   -0.331846
  21 H :    0.116421
  22 O :   -0.417044
  23 H :    0.118281
  24 H :    0.122241
  25 H :    0.124933
  26 H :    0.099117
  27 H :    0.098739
  28 H :    0.281988

  Mayer bond orders larger than 0.100000
B(  0-C ,  1-C ) :   0.9432 B(  0-C ,  4-O ) :   0.9286 B(  0-C ,  5-H ) :   0.9145
B(  0-C , 15-O ) :   0.8350 B(  1-C ,  2-C ) :   0.9551 B(  1-C ,  6-H ) :   0.9364
B(  1-C ,  7-H ) :   0.9189 B(  2-C ,  3-C ) :   0.9538 B(  2-C ,  8-H ) :   0.9450
B(  2-C ,  9-H ) :   0.9435 B(  3-C ,  4-O ) :   0.8384 B(  3-C , 10-H ) :   0.9348
B(  3-C , 11-H ) :   0.9397 B( 12-C , 13-H ) :   0.9200 B( 12-C , 14-H ) :   0.9239
B( 12-C , 15-O ) :   0.8741 B( 12-C , 16-C ) :   0.8861 B( 16-C , 17-C ) :   0.9096
B( 16-C , 20-O ) :   0.8644 B( 16-C , 21-H ) :   0.9143 B( 17-C , 18-C ) :   0.9216
B( 17-C , 22-O ) :   0.8901 B( 17-C , 23-H ) :   0.9348 B( 18-C , 19-C ) :   0.9447
B( 18-C , 24-H ) :   0.9372 B( 18-C , 25-H ) :   0.9225 B( 19-C , 20-O ) :   0.8465
B( 19-C , 26-H ) :   0.9138 B( 19-C , 27-H ) :   0.9362 B( 22-O , 28-H ) :   0.7962

FINAL SINGLE POINT ENERGY      -652.859837820767

DIPOLE MOMENT
-------------
                                X             Y             Z
Electronic contribution:     -2.85334      -4.19799      -1.76002
Nuclear contribution   :      3.49960       4.94005       1.72414
                        -----------------------------------------
Total Dipole Moment    :      0.64626       0.74206      -0.03588
                        -----------------------------------------
Magnitude (a.u.)       :      0.98468
Magnitude (Debye)      :      2.50285

Rotational constants in cm-1:     0.057747     0.014276     0.013383
Rotational constants in MHz :  1731.225875   427.991628   401.221488

                             ****ORCA TERMINATED NORMALLY****
TOTAL RUN TIME: 0 days 0 hours 53 minutes 52 seconds 823 msec
