                         Program Version 4.2.1 -  RELEASE  -
|  1> # Test redundant internal optimization
|  2> #
|  3> ! RKS B3LYP  Opt TightSCF SmallPrint
|  4>
|  5> %basis
|  6>         Basis "6-31G"
|  7> end
|  8>
|  9> %geom
| 10> Constraints
| 11> { D 4  0  19  14  210.0   C } # D for Dihedral angle
| 12> { D 0  19  14  12  165.0   C } # D for Dihedral angle
| 13> { D 0  4  3  2   C } # D for Dihedral angle
| 14> { D 4  3  2  1   C } # D for Dihedral angle
| 15> { D 3  2  1  0   C } # D for Dihedral angle
| 16> { D 2  1  0  4   C } # D for Dihedral angle
| 17> { D 1  0  4  3   C } # D for Dihedral angle
| 18> { D 14  15  16  17   C } # D for Dihedral angle
| 19> { D 15  16  17  12   C } # D for Dihedral angle
| 20> { D 16  17  12  14   C } # D for Dihedral angle
| 21> { D 17  12  14  15   C } # D for Dihedral angle
| 22> { D 12  14  15  16   C } # D for Dihedral angle
| 23> end
| 24> end
| 25>
| 26>
| 27> #%pal
| 28> #nprocs 8
| 29> #end
| 30>
| 31> * xyz 0 1
| 32> C  -21.048   26.222   46.251
| 33> C  -20.361   27.558   45.944
| 34> C  -20.329   28.222   47.341
| 35> C  -20.110   27.022   48.296
| 36> O  -20.473   25.807   47.535
| 37> H  -20.833   25.428   45.533
| 38> H  -19.344   27.382   45.576
| 39> H  -20.898   28.157   45.201
| 40> H  -19.543   28.978   47.434
| 41> H  -21.289   28.710   47.548
| 42> H  -20.733   27.082   49.195
| 43> H  -19.064   26.913   48.597
| 44> C  -24.690   25.944   45.463
| 45> H  -25.219   25.461   44.627
| 46> C  -23.197   26.114   45.155
| 47> C  -23.206   27.359   44.238
| 48> C  -24.352   28.221   44.823
| 49> O  -25.177   27.315   45.653
| 50> H  -24.903   25.399   46.384
| 51> O  -22.472   26.381   46.366
| 52> H  -22.755   25.235   44.674
| 53> H  -22.248   27.888   44.230
| 54> H  -23.433   27.066   43.205
| 55> H  -24.982   28.668   44.046
| 56> H  -23.984   29.014   45.481
| 57> *
| 58>
| 59>                          ****END OF INPUT****
 Total Charge           Charge          ....    0
 Multiplicity           Mult            ....    1
 Number of Electrons    NEL             ....   86
FINAL SINGLE POINT ENERGY      -538.424149209834
FINAL SINGLE POINT ENERGY      -538.429053821568
FINAL SINGLE POINT ENERGY      -538.429506707691
FINAL SINGLE POINT ENERGY      -538.429602150545
FINAL SINGLE POINT ENERGY      -538.429617194987
FINAL SINGLE POINT ENERGY      -538.429621652524
                    ***********************HURRAY********************

CARTESIAN COORDINATES (ANGSTROEM)
---------------------------------
  C    -20.963239   26.233183   46.205679
  C    -20.263523   27.573319   45.979110
  C    -20.334435   28.217859   47.387801
  C    -20.180712   26.999949   48.323976
  O    -20.489385   25.810208   47.492417
  H    -20.713751   25.447244   45.483373
  H    -19.221641   27.388302   45.689839
  H    -20.732205   28.186176   45.208113
  H    -19.556157   28.969919   47.546241
  H    -21.311696   28.689507   47.527312
  H    -20.869238   27.019096   49.172091
  H    -19.157184   26.870746   48.688427
  C    -24.647991   25.980443   45.546313
  H    -25.243817   25.459723   44.782119
  C    -23.195772   26.138132   45.092236
  C    -23.296742   27.345630   44.140742
  C    -24.382555   28.229653   44.798900
  O    -25.120039   27.354589   45.734121
  H    -24.728631   25.466074   46.503885
  O    -22.408874   26.375924   46.295639
  H    -22.813200   25.241270   44.581993
  H    -22.348803   27.868062   43.999992
  H    -23.627561   26.988489   43.158087
  H    -25.081717   28.649074   44.066831
  H    -23.954133   29.043429   45.390762

 Multiplicity           Mult            ....    1
 Number of Electrons    NEL             ....   86
 Basis Dimension        Dim             ....  127

ORBITAL ENERGIES
----------------

  NO   OCC          E(Eh)            E(eV)
   0   2.0000     -19.139714      -520.8181
   1   2.0000     -19.139151      -520.8028
   2   2.0000     -19.127712      -520.4915
   3   2.0000     -10.280896      -279.7574
   4   2.0000     -10.243350      -278.7357
   5   2.0000     -10.223597      -278.1982
   6   2.0000     -10.222737      -278.1748
   7   2.0000     -10.220624      -278.1173
   8   2.0000     -10.190144      -277.2879
   9   2.0000     -10.187705      -277.2215
  10   2.0000     -10.185999      -277.1751
  11   2.0000      -1.053709       -28.6729
  12   2.0000      -1.014751       -27.6128
  13   2.0000      -0.989586       -26.9280
  14   2.0000      -0.788617       -21.4593
  15   2.0000      -0.781576       -21.2678
  16   2.0000      -0.744204       -20.2508
  17   2.0000      -0.721290       -19.6273
  18   2.0000      -0.608898       -16.5690
  19   2.0000      -0.603736       -16.4285
  20   2.0000      -0.595159       -16.1951
  21   2.0000      -0.579071       -15.7573
  22   2.0000      -0.517801       -14.0901
  23   2.0000      -0.507058       -13.7977
  24   2.0000      -0.484913       -13.1952
  25   2.0000      -0.482738       -13.1360
  26   2.0000      -0.454333       -12.3630
  27   2.0000      -0.447775       -12.1846
  28   2.0000      -0.421987       -11.4828
  29   2.0000      -0.416719       -11.3395
  30   2.0000      -0.409897       -11.1539
  31   2.0000      -0.390112       -10.6155
  32   2.0000      -0.377484       -10.2719
  33   2.0000      -0.367951       -10.0125
  34   2.0000      -0.360817        -9.8183
  35   2.0000      -0.352821        -9.6007
  36   2.0000      -0.348358        -9.4793
  37   2.0000      -0.313155        -8.5214
  38   2.0000      -0.308310        -8.3896
  39   2.0000      -0.297028        -8.0826
  40   2.0000      -0.263640        -7.1740
  41   2.0000      -0.251453        -6.8424
  42   2.0000      -0.232418        -6.3244
  43   0.0000       0.070498         1.9183
  44   0.0000       0.081630         2.2213
  45   0.0000       0.098577         2.6824
  46   0.0000       0.113617         3.0917
  47   0.0000       0.118365         3.2209

MULLIKEN ATOMIC CHARGES
-----------------------
   0 C :    0.299037
   1 C :   -0.268001
   2 C :   -0.301486
   3 C :    0.000030
   4 O :   -0.501885
   5 H :    0.134720
   6 H :    0.143835
   7 H :    0.142316
   8 H :    0.141482
   9 H :    0.165628
  10 H :    0.156879
  11 H :    0.140322
  12 C :    0.001934
  13 H :    0.124887
  14 C :    0.074092
  15 C :   -0.305223
  16 C :    0.009565
  17 O :   -0.519196
  18 H :    0.174241
  19 O :   -0.506957
  20 H :    0.123254
  21 H :    0.146906
  22 H :    0.142092
  23 H :    0.135499
  24 H :    0.146029
Sum of atomic charges:   -0.0000000

LOEWDIN ATOMIC CHARGES
----------------------
   0 C :    0.180423
   1 C :   -0.228752
   2 C :   -0.217028
   3 C :   -0.024999
   4 O :   -0.305648
   5 H :    0.094505
   6 H :    0.113345
   7 H :    0.111984
   8 H :    0.114160
   9 H :    0.120438
  10 H :    0.110648
  11 H :    0.101573
  12 C :   -0.033309
  13 H :    0.091403
  14 C :    0.039652
  15 C :   -0.240003
  16 C :   -0.027026
  17 O :   -0.328267
  18 H :    0.126768
  19 O :   -0.325737
  20 H :    0.093868
  21 H :    0.115444
  22 H :    0.114014
  23 H :    0.098445
  24 H :    0.104099

  Mayer bond orders larger than 0.100000
B(  0-C ,  1-C ) :   0.9325 B(  0-C ,  4-O ) :   0.9353 B(  0-C ,  5-H ) :   0.9174
B(  0-C , 19-O ) :   0.8385 B(  1-C ,  2-C ) :   0.9541 B(  1-C ,  6-H ) :   0.9337
B(  1-C ,  7-H ) :   0.9281 B(  2-C ,  3-C ) :   0.9551 B(  2-C ,  8-H ) :   0.9448
B(  2-C ,  9-H ) :   0.9424 B(  3-C ,  4-O ) :   0.8349 B(  3-C , 10-H ) :   0.9340
B(  3-C , 11-H ) :   0.9397 B( 12-C , 13-H ) :   0.9160 B( 12-C , 14-C ) :   0.9358
B( 12-C , 17-O ) :   0.8674 B( 12-C , 18-H ) :   0.9291 B( 14-C , 15-C ) :   0.9269
B( 14-C , 19-O ) :   0.8444 B( 14-C , 20-H ) :   0.9180 B( 15-C , 16-C ) :   0.9463
B( 15-C , 21-H ) :   0.9316 B( 15-C , 22-H ) :   0.9354 B( 16-C , 17-O ) :   0.8623
B( 16-C , 23-H ) :   0.9330 B( 16-C , 24-H ) :   0.9365

FINAL SINGLE POINT ENERGY      -538.429621953389

DIPOLE MOMENT
-------------
                                X             Y             Z
Electronic contribution:     -1.92719      -3.52546       2.25898
Nuclear contribution   :      2.76441       4.01264      -3.36077
                        -----------------------------------------
Total Dipole Moment    :      0.83722       0.48718      -1.10179
                        -----------------------------------------
Magnitude (a.u.)       :      1.46705
Magnitude (Debye)      :      3.72894

Rotational constants in cm-1:     0.075235     0.021414     0.020357
Rotational constants in MHz :  2255.502770   641.977708   610.282714

                             ****ORCA TERMINATED NORMALLY****
TOTAL RUN TIME: 0 days 0 hours 6 minutes 50 seconds 908 msec
