                         Program Version 4.2.0 -  RELEASE  -
|  1> # Test redundant internal optimization
|  2> #
|  3> ! RKS B3LYP  Opt TightSCF SmallPrint
|  4>
|  5> %basis
|  6>         Basis "6-31G"
|  7> end
|  8>
|  9> %geom
| 10> Constraints
| 11> { D 4  0  15  12  315.0   C } # D for Dihedral angle
| 12> { D 0  15  12  16  285.0   C } # D for Dihedral angle
| 13> { D 0  4  3  2   C } # D for Dihedral angle
| 14> { D 4  3  2  1   C } # D for Dihedral angle
| 15> { D 3  2  1  0   C } # D for Dihedral angle
| 16> { D 2  1  0  4   C } # D for Dihedral angle
| 17> { D 1  0  4  3   C } # D for Dihedral angle
| 18> { D 16  20  19  18   C } # D for Dihedral angle
| 19> { D 20  19  18  17   C } # D for Dihedral angle
| 20> { D 19  18  17  16   C } # D for Dihedral angle
| 21> { D 18  17  16  20   C } # D for Dihedral angle
| 22> { D 17  16  20  19   C } # D for Dihedral angle
| 23> { D 15  12  16  20   C } # D for Dihedral angle
| 24> end
| 25> end
| 26>
| 27>
| 28> #%pal
| 29> #nprocs 8
| 30> #end
| 31>
| 32> * xyz 0 1
| 33> C  -21.048   26.222   46.251
| 34> C  -20.361   27.558   45.944
| 35> C  -20.329   28.222   47.341
| 36> C  -20.110   27.022   48.296
| 37> O  -20.473   25.807   47.535
| 38> H  -20.833   25.428   45.533
| 39> H  -19.344   27.382   45.576
| 40> H  -20.898   28.157   45.201
| 41> H  -19.543   28.978   47.434
| 42> H  -21.289   28.710   47.548
| 43> H  -20.733   27.082   49.195
| 44> H  -19.064   26.913   48.597
| 45> C  -23.319   25.255   47.135
| 46> H  -22.764   25.015   48.051
| 47> H  -24.330   25.572   47.420
| 48> O  -22.586   26.394   46.375
| 49> C  -23.451   23.957   46.290
| 50> C  -24.278   22.896   47.025
| 51> C  -25.721   23.393   46.771
| 52> C  -25.643   23.986   45.342
| 53> O  -24.210   24.220   45.063
| 54> H  -22.456   23.625   45.987
| 55> O  -24.055   21.503   46.376
| 56> H  -24.035   22.824   48.091
| 57> H  -26.465   22.593   46.850
| 58> H  -25.986   24.170   47.498
| 59> H  -26.185   24.935   45.252
| 60> H  -26.011   23.293   44.581
| 61> H  -24.293   21.552   45.307
| 62> *
| 63>
| 64>                          ****END OF INPUT****
 Total Charge           Charge          ....    0
 Multiplicity           Mult            ....    1
 Number of Electrons    NEL             ....  102
FINAL SINGLE POINT ENERGY      -652.836615009917
FINAL SINGLE POINT ENERGY      -652.860182111518
FINAL SINGLE POINT ENERGY      -652.864431178242
FINAL SINGLE POINT ENERGY      -652.865232072244
FINAL SINGLE POINT ENERGY      -652.865351578720
FINAL SINGLE POINT ENERGY      -652.865365223599
FINAL SINGLE POINT ENERGY      -652.865368126592
                    ***********************HURRAY********************

CARTESIAN COORDINATES (ANGSTROEM)
---------------------------------
  C    -21.090091   26.149673   46.249948
  C    -20.470835   27.516007   45.955914
  C    -20.414542   28.144707   47.365340
  C    -20.113816   26.938484   48.281749
  O    -20.462059   25.728356   47.486191
  H    -20.874820   25.364227   45.519993
  H    -19.466419   27.375520   45.541136
  H    -21.072586   28.092542   45.250404
  H    -19.652618   28.926047   47.448041
  H    -21.386984   28.581886   47.609437
  H    -20.703382   26.938227   49.202264
  H    -19.053224   26.847659   48.533420
  C    -23.249801   25.307546   47.101111
  H    -22.725661   25.070864   48.035107
  H    -24.212085   25.771300   47.330647
  O    -22.518557   26.342500   46.381928
  C    -23.442432   24.024511   46.289284
  C    -24.265667   22.959520   47.029587
  C    -25.717081   23.434088   46.752036
  C    -25.627604   24.009417   45.315937
  O    -24.191532   24.260030   45.051010
  H    -22.470343   23.619587   45.991766
  O    -24.020696   21.635077   46.480285
  H    -24.032288   22.877222   48.091985
  H    -26.417428   22.599397   46.836995
  H    -26.009596   24.204983   47.473805
  H    -26.180208   24.946608   45.200082
  H    -25.977842   23.301773   44.557922
  H    -23.992802   21.696242   45.501675

 Multiplicity           Mult            ....    1
 Number of Electrons    NEL             ....  102
 Basis Dimension        Dim             ....  149

ORBITAL ENERGIES
----------------

  NO   OCC          E(Eh)            E(eV)
   0   2.0000     -19.144018      -520.9352
   1   2.0000     -19.140195      -520.8312
   2   2.0000     -19.138868      -520.7951
   3   2.0000     -19.137388      -520.7548
   4   2.0000     -10.275388      -279.6075
   5   2.0000     -10.241655      -278.6896
   6   2.0000     -10.231338      -278.4089
   7   2.0000     -10.229199      -278.3507
   8   2.0000     -10.227418      -278.3022
   9   2.0000     -10.225650      -278.2541
  10   2.0000     -10.189080      -277.2590
  11   2.0000     -10.185123      -277.1513
  12   2.0000     -10.183303      -277.1018
  13   2.0000      -1.053791       -28.6751
  14   2.0000      -1.034268       -28.1439
  15   2.0000      -1.004580       -27.3360
  16   2.0000      -0.990339       -26.9485
  17   2.0000      -0.790164       -21.5015
  18   2.0000      -0.780478       -21.2379
  19   2.0000      -0.763617       -20.7791
  20   2.0000      -0.732719       -19.9383
  21   2.0000      -0.671053       -18.2603
  22   2.0000      -0.604296       -16.4437
  23   2.0000      -0.601750       -16.3745
  24   2.0000      -0.597781       -16.2665
  25   2.0000      -0.568339       -15.4653
  26   2.0000      -0.524920       -14.2838
  27   2.0000      -0.509492       -13.8640
  28   2.0000      -0.493658       -13.4331
  29   2.0000      -0.490540       -13.3483
  30   2.0000      -0.473083       -12.8733
  31   2.0000      -0.457272       -12.4430
  32   2.0000      -0.450391       -12.2558
  33   2.0000      -0.437731       -11.9113
  34   2.0000      -0.424020       -11.5382
  35   2.0000      -0.406013       -11.0482
  36   2.0000      -0.399160       -10.8617
  37   2.0000      -0.392150       -10.6709
  38   2.0000      -0.374201       -10.1825
  39   2.0000      -0.367983       -10.0133
  40   2.0000      -0.358237        -9.7481
  41   2.0000      -0.356181        -9.6922
  42   2.0000      -0.347273        -9.4498
  43   2.0000      -0.331781        -9.0282
  44   2.0000      -0.330957        -9.0058
  45   2.0000      -0.307129        -8.3574
  46   2.0000      -0.294965        -8.0264
  47   2.0000      -0.271737        -7.3943
  48   2.0000      -0.267522        -7.2796
  49   2.0000      -0.258261        -7.0276
  50   2.0000      -0.236054        -6.4233
  51   0.0000       0.068233         1.8567
  52   0.0000       0.086050         2.3415
  53   0.0000       0.090132         2.4526
  54   0.0000       0.097459         2.6520
  55   0.0000       0.105594         2.8734

MULLIKEN ATOMIC CHARGES
-----------------------
   0 C :    0.285656
   1 C :   -0.261137
   2 C :   -0.299613
   3 C :   -0.008755
   4 O :   -0.517653
   5 H :    0.153677
   6 H :    0.144492
   7 H :    0.163798
   8 H :    0.142261
   9 H :    0.161027
  10 H :    0.143700
  11 H :    0.146300
  12 C :   -0.013683
  13 H :    0.151524
  14 H :    0.145046
  15 O :   -0.511770
  16 C :    0.051914
  17 C :    0.078086
  18 C :   -0.300345
  19 C :   -0.026793
  20 O :   -0.514324
  21 H :    0.166838
  22 O :   -0.600445
  23 H :    0.153590
  24 H :    0.163484
  25 H :    0.144313
  26 H :    0.148928
  27 H :    0.145984
  28 H :    0.363900
Sum of atomic charges:   -0.0000000

LOEWDIN ATOMIC CHARGES
----------------------
   0 C :    0.172897
   1 C :   -0.213055
   2 C :   -0.216809
   3 C :   -0.029311
   4 O :   -0.330298
   5 H :    0.098690
   6 H :    0.113723
   7 H :    0.127848
   8 H :    0.114166
   9 H :    0.118552
  10 H :    0.103062
  11 H :    0.104577
  12 C :   -0.048042
  13 H :    0.108521
  14 H :    0.110263
  15 O :   -0.318998
  16 C :    0.005388
  17 C :    0.036003
  18 C :   -0.242222
  19 C :   -0.037729
  20 O :   -0.326045
  21 H :    0.116312
  22 O :   -0.413888
  23 H :    0.116213
  24 H :    0.126948
  25 H :    0.112623
  26 H :    0.105564
  27 H :    0.102287
  28 H :    0.282760

  Mayer bond orders larger than 0.100000
B(  0-C ,  1-C ) :   0.9490 B(  0-C ,  4-O ) :   0.8915 B(  0-C ,  5-H ) :   0.9169
B(  0-C , 15-O ) :   0.8600 B(  1-C ,  2-C ) :   0.9541 B(  1-C ,  6-H ) :   0.9397
B(  1-C ,  7-H ) :   0.9348 B(  2-C ,  3-C ) :   0.9560 B(  2-C ,  8-H ) :   0.9450
B(  2-C ,  9-H ) :   0.9445 B(  3-C ,  4-O ) :   0.8334 B(  3-C , 10-H ) :   0.9359
B(  3-C , 11-H ) :   0.9407 B( 12-C , 13-H ) :   0.9047 B( 12-C , 14-H ) :   0.9403
B( 12-C , 15-O ) :   0.8598 B( 12-C , 16-C ) :   0.8787 B( 16-C , 17-C ) :   0.9005
B( 16-C , 20-O ) :   0.8601 B( 16-C , 21-H ) :   0.9227 B( 17-C , 18-C ) :   0.9112
B( 17-C , 22-O ) :   0.8934 B( 17-C , 23-H ) :   0.9325 B( 18-C , 19-C ) :   0.9421
B( 18-C , 24-H ) :   0.9372 B( 18-C , 25-H ) :   0.9340 B( 19-C , 20-O ) :   0.8504
B( 19-C , 26-H ) :   0.9339 B( 19-C , 27-H ) :   0.9375 B( 22-O , 28-H ) :   0.7947

FINAL SINGLE POINT ENERGY      -652.865368318161

DIPOLE MOMENT
-------------
                                X             Y             Z
Electronic contribution:      0.09129      -3.77024      -2.15905
Nuclear contribution   :     -0.29597       4.55346       2.52692
                        -----------------------------------------
Total Dipole Moment    :     -0.20468       0.78322       0.36787
                        -----------------------------------------
Magnitude (a.u.)       :      0.88919
Magnitude (Debye)      :      2.26013

Rotational constants in cm-1:     0.063730     0.012290     0.011539
Rotational constants in MHz :  1910.581899   368.459875   345.928820

                             ****ORCA TERMINATED NORMALLY****
TOTAL RUN TIME: 0 days 0 hours 19 minutes 57 seconds 510 msec
