                         Program Version 4.2.0 -  RELEASE  -
|  1> # Test redundant internal optimization
|  2> #
|  3> ! RKS B3LYP  Opt TightSCF SmallPrint
|  4>
|  5> %basis
|  6>         Basis "6-31G"
|  7> end
|  8>
|  9> %geom
| 10> Constraints
| 11> { D 4  0  15  12  30.0   C } # D for Dihedral angle
| 12> { D 0  15  12  16  195.0   C } # D for Dihedral angle
| 13> { D 0  4  3  2   C } # D for Dihedral angle
| 14> { D 4  3  2  1   C } # D for Dihedral angle
| 15> { D 3  2  1  0   C } # D for Dihedral angle
| 16> { D 2  1  0  4   C } # D for Dihedral angle
| 17> { D 1  0  4  3   C } # D for Dihedral angle
| 18> { D 16  20  19  18   C } # D for Dihedral angle
| 19> { D 20  19  18  17   C } # D for Dihedral angle
| 20> { D 19  18  17  16   C } # D for Dihedral angle
| 21> { D 18  17  16  20   C } # D for Dihedral angle
| 22> { D 17  16  20  19   C } # D for Dihedral angle
| 23> { D 15  12  16  20   C } # D for Dihedral angle
| 24> end
| 25> end
| 26>
| 27>
| 28> #%pal
| 29> #nprocs 8
| 30> #end
| 31>
| 32> * xyz 0 1
| 33> C  -21.048   26.222   46.251
| 34> C  -20.361   27.558   45.944
| 35> C  -20.329   28.222   47.341
| 36> C  -20.110   27.022   48.296
| 37> O  -20.473   25.807   47.535
| 38> H  -20.833   25.428   45.533
| 39> H  -19.344   27.382   45.576
| 40> H  -20.898   28.157   45.201
| 41> H  -19.543   28.978   47.434
| 42> H  -21.289   28.710   47.548
| 43> H  -20.733   27.082   49.195
| 44> H  -19.064   26.913   48.597
| 45> C  -23.091   26.824   47.779
| 46> H  -22.576   26.232   48.546
| 47> H  -22.871   27.884   47.959
| 48> O  -22.586   26.394   46.375
| 49> C  -24.622   26.623   47.954
| 50> C  -25.104   27.164   49.305
| 51> C  -25.179   28.684   49.026
| 52> C  -25.635   28.747   47.547
| 53> O  -25.359   27.416   46.965
| 54> H  -24.869   25.575   47.773
| 55> H  -26.097   26.764   49.539
| 56> O  -24.147   26.814   50.478
| 57> H  -25.869   29.205   49.698
| 58> H  -24.188   29.138   49.145
| 59> H  -25.093   29.508   46.973
| 60> H  -26.709   28.927   47.448
| 61> H  -23.146   27.205   50.268
| 62> *
| 63>
| 64>                          ****END OF INPUT****
 Total Charge           Charge          ....    0
 Multiplicity           Mult            ....    1
 Number of Electrons    NEL             ....  102
FINAL SINGLE POINT ENERGY      -652.819362938819
FINAL SINGLE POINT ENERGY      -652.844262246244
FINAL SINGLE POINT ENERGY      -652.850087408113
FINAL SINGLE POINT ENERGY      -652.852365834995
FINAL SINGLE POINT ENERGY      -652.852555484965
FINAL SINGLE POINT ENERGY      -652.852618543566
FINAL SINGLE POINT ENERGY      -652.852623548221
                    ***********************HURRAY********************

CARTESIAN COORDINATES (ANGSTROEM)
---------------------------------
  C    -21.154758   26.289249   46.371861
  C    -20.385541   27.530949   45.905818
  C    -20.025977   28.211006   47.254792
  C    -19.779239   27.004069   48.191528
  O    -20.418077   25.835785   47.531807
  H    -21.133872   25.470812   45.650409
  H    -19.480559   27.212037   45.376529
  H    -20.983846   28.161642   45.244747
  H    -19.143596   28.854090   47.178721
  H    -20.858342   28.829058   47.605394
  H    -20.214409   27.131017   49.187573
  H    -18.717319   26.763235   48.295185
  C    -23.036381   26.911521   47.910257
  H    -22.566787   26.292044   48.683456
  H    -22.797226   27.968565   48.099375
  O    -22.570329   26.506663   46.597500
  C    -24.546838   26.693124   47.938455
  C    -25.211029   27.117312   49.259982
  C    -25.402693   28.649183   49.045416
  C    -25.712879   28.743255   47.535399
  O    -25.253762   27.469553   46.925117
  H    -24.737741   25.644448   47.695391
  H    -26.179395   26.621783   49.351389
  O    -24.502158   26.749903   50.467959
  H    -26.199813   29.056994   49.672761
  H    -24.471976   29.174729   49.298053
  H    -25.202413   29.578435   47.045952
  H    -26.786097   28.823552   47.338025
  H    -23.692946   27.290987   50.570149

 Multiplicity           Mult            ....    1
 Number of Electrons    NEL             ....  102
 Basis Dimension        Dim             ....  149

ORBITAL ENERGIES
----------------

  NO   OCC          E(Eh)            E(eV)
   0   2.0000     -19.149574      -521.0864
   1   2.0000     -19.149378      -521.0811
   2   2.0000     -19.138042      -520.7726
   3   2.0000     -19.134298      -520.6707
   4   2.0000     -10.277524      -279.6656
   5   2.0000     -10.244090      -278.7558
   6   2.0000     -10.235213      -278.5143
   7   2.0000     -10.229020      -278.3458
   8   2.0000     -10.228840      -278.3409
   9   2.0000     -10.228079      -278.3202
  10   2.0000     -10.195591      -277.4361
  11   2.0000     -10.194965      -277.4191
  12   2.0000     -10.187223      -277.2084
  13   2.0000      -1.054829       -28.7034
  14   2.0000      -1.032911       -28.1069
  15   2.0000      -1.014458       -27.6048
  16   2.0000      -0.993272       -27.0283
  17   2.0000      -0.791248       -21.5309
  18   2.0000      -0.781998       -21.2793
  19   2.0000      -0.770881       -20.9767
  20   2.0000      -0.733777       -19.9671
  21   2.0000      -0.680751       -18.5242
  22   2.0000      -0.610339       -16.6082
  23   2.0000      -0.606471       -16.5029
  24   2.0000      -0.596362       -16.2278
  25   2.0000      -0.571432       -15.5494
  26   2.0000      -0.527642       -14.3579
  27   2.0000      -0.508443       -13.8354
  28   2.0000      -0.501312       -13.6414
  29   2.0000      -0.498087       -13.5536
  30   2.0000      -0.471665       -12.8346
  31   2.0000      -0.462002       -12.5717
  32   2.0000      -0.447800       -12.1853
  33   2.0000      -0.430334       -11.7100
  34   2.0000      -0.424866       -11.5612
  35   2.0000      -0.417435       -11.3590
  36   2.0000      -0.412676       -11.2295
  37   2.0000      -0.399747       -10.8777
  38   2.0000      -0.379869       -10.3368
  39   2.0000      -0.374583       -10.1929
  40   2.0000      -0.362583        -9.8664
  41   2.0000      -0.356430        -9.6990
  42   2.0000      -0.347347        -9.4518
  43   2.0000      -0.336136        -9.1467
  44   2.0000      -0.324239        -8.8230
  45   2.0000      -0.313001        -8.5172
  46   2.0000      -0.306645        -8.3442
  47   2.0000      -0.270328        -7.3560
  48   2.0000      -0.264248        -7.1906
  49   2.0000      -0.249506        -6.7894
  50   2.0000      -0.238596        -6.4925
  51   0.0000       0.044593         1.2134
  52   0.0000       0.070041         1.9059
  53   0.0000       0.085538         2.3276
  54   0.0000       0.091672         2.4945
  55   0.0000       0.102878         2.7995

MULLIKEN ATOMIC CHARGES
-----------------------
   0 C :    0.295060
   1 C :   -0.258985
   2 C :   -0.316256
   3 C :   -0.012250
   4 O :   -0.509268
   5 H :    0.166166
   6 H :    0.148136
   7 H :    0.160871
   8 H :    0.147706
   9 H :    0.149144
  10 H :    0.133986
  11 H :    0.153072
  12 C :   -0.012587
  13 H :    0.156303
  14 H :    0.105919
  15 O :   -0.516545
  16 C :    0.093581
  17 C :    0.079270
  18 C :   -0.320598
  19 C :   -0.009276
  20 O :   -0.503642
  21 H :    0.167242
  22 H :    0.170228
  23 O :   -0.596872
  24 H :    0.158120
  25 H :    0.128527
  26 H :    0.141501
  27 H :    0.148577
  28 H :    0.352871
Sum of atomic charges:    0.0000000

LOEWDIN ATOMIC CHARGES
----------------------
   0 C :    0.178718
   1 C :   -0.225294
   2 C :   -0.222805
   3 C :   -0.033739
   4 O :   -0.319107
   5 H :    0.112829
   6 H :    0.116685
   7 H :    0.125398
   8 H :    0.116966
   9 H :    0.108581
  10 H :    0.097170
  11 H :    0.107771
  12 C :   -0.053223
  13 H :    0.110160
  14 H :    0.079064
  15 O :   -0.316318
  16 C :    0.023147
  17 C :    0.034314
  18 C :   -0.241877
  19 C :   -0.030629
  20 O :   -0.312263
  21 H :    0.122109
  22 H :    0.120940
  23 O :   -0.405758
  24 H :    0.122582
  25 H :    0.101392
  26 H :    0.101716
  27 H :    0.105689
  28 H :    0.275782

  Mayer bond orders larger than 0.100000
B(  0-C ,  1-C ) :   0.9164 B(  0-C ,  4-O ) :   0.9007 B(  0-C ,  5-H ) :   0.9340
B(  0-C , 15-O ) :   0.8783 B(  1-C ,  2-C ) :   0.9544 B(  1-C ,  6-H ) :   0.9347
B(  1-C ,  7-H ) :   0.9363 B(  2-C ,  3-C ) :   0.9494 B(  2-C ,  8-H ) :   0.9446
B(  2-C ,  9-H ) :   0.9423 B(  3-C ,  4-O ) :   0.8394 B(  3-C , 10-H ) :   0.9336
B(  3-C , 11-H ) :   0.9398 B( 12-C , 13-H ) :   0.8956 B( 12-C , 14-H ) :   0.9065
B( 12-C , 15-O ) :   0.8456 B( 12-C , 16-C ) :   0.9080 B( 16-C , 17-C ) :   0.8740
B( 16-C , 20-O ) :   0.8689 B( 16-C , 21-H ) :   0.9284 B( 17-C , 18-C ) :   0.9212
B( 17-C , 22-H ) :   0.9335 B( 17-C , 23-O ) :   0.8972 B( 18-C , 19-C ) :   0.9393
B( 18-C , 24-H ) :   0.9416 B( 18-C , 25-H ) :   0.9416 B( 19-C , 20-O ) :   0.8545
B( 19-C , 26-H ) :   0.9318 B( 19-C , 27-H ) :   0.9377 B( 23-O , 28-H ) :   0.7988

FINAL SINGLE POINT ENERGY      -652.852613700346

DIPOLE MOMENT
-------------
                                X             Y             Z
Electronic contribution:     -2.67124      -5.56649      -1.17538
Nuclear contribution   :      3.40940       7.15397       1.62844
                        -----------------------------------------
Total Dipole Moment    :      0.73817       1.58748       0.45306
                        -----------------------------------------
Magnitude (a.u.)       :      1.80839
Magnitude (Debye)      :      4.59655

Rotational constants in cm-1:     0.046953     0.014489     0.013270
Rotational constants in MHz :  1407.619069   434.365809   397.811614

                             ****ORCA TERMINATED NORMALLY****
TOTAL RUN TIME: 0 days 1 hours 24 minutes 30 seconds 223 msec
