                         Program Version 4.2.0 -  RELEASE  -
|  1> # Test redundant internal optimization
|  2> #
|  3> ! RKS B3LYP  Opt TightSCF SmallPrint
|  4>
|  5> %basis
|  6>         Basis "6-31G"
|  7> end
|  8>
|  9> %geom
| 10> Constraints
| 11> { D 4  0  15  12  195.0   C } # D for Dihedral angle
| 12> { D 0  15  12  16  300.0   C } # D for Dihedral angle
| 13> { D 0  4  3  2   C } # D for Dihedral angle
| 14> { D 4  3  2  1   C } # D for Dihedral angle
| 15> { D 3  2  1  0   C } # D for Dihedral angle
| 16> { D 2  1  0  4   C } # D for Dihedral angle
| 17> { D 1  0  4  3   C } # D for Dihedral angle
| 18> { D 16  20  19  18   C } # D for Dihedral angle
| 19> { D 20  19  18  17   C } # D for Dihedral angle
| 20> { D 19  18  17  16   C } # D for Dihedral angle
| 21> { D 18  17  16  20   C } # D for Dihedral angle
| 22> { D 17  16  20  19   C } # D for Dihedral angle
| 23> { D 15  12  16  20   C } # D for Dihedral angle
| 24> end
| 25> end
| 26>
| 27>
| 28> #%pal
| 29> #nprocs 8
| 30> #end
| 31>
| 32> * xyz 0 1
| 33> C  -21.048   26.222   46.251
| 34> C  -20.361   27.558   45.944
| 35> C  -20.329   28.222   47.341
| 36> C  -20.110   27.022   48.296
| 37> O  -20.473   25.807   47.535
| 38> H  -20.833   25.428   45.533
| 39> H  -19.344   27.382   45.576
| 40> H  -20.898   28.157   45.201
| 41> H  -19.543   28.978   47.434
| 42> H  -21.289   28.710   47.548
| 43> H  -20.733   27.082   49.195
| 44> H  -19.064   26.913   48.597
| 45> C  -23.353   26.472   45.026
| 46> H  -23.191   25.544   44.464
| 47> H  -24.430   26.583   45.203
| 48> O  -22.586   26.394   46.375
| 49> C  -22.894   27.665   44.143
| 50> C  -23.748   27.780   42.876
| 51> C  -25.021   28.472   43.418
| 52> C  -24.468   29.423   44.507
| 53> O  -23.113   28.935   44.842
| 54> H  -21.820   27.582   43.959
| 55> H  -23.246   28.417   42.139
| 56> O  -24.044   26.407   42.213
| 57> H  -25.578   29.006   42.641
| 58> H  -25.695   27.728   43.860
| 59> H  -25.083   29.425   45.415
| 60> H  -24.362   30.451   44.150
| 61> H  -24.548   25.751   42.931
| 62> *
| 63>
| 64>                          ****END OF INPUT****
 Total Charge           Charge          ....    0
 Multiplicity           Mult            ....    1
 Number of Electrons    NEL             ....  102
FINAL SINGLE POINT ENERGY      -652.818290082653
FINAL SINGLE POINT ENERGY      -652.843099109389
FINAL SINGLE POINT ENERGY      -652.849445476660
FINAL SINGLE POINT ENERGY      -652.851552605101
FINAL SINGLE POINT ENERGY      -652.851881944663
FINAL SINGLE POINT ENERGY      -652.851962787171
FINAL SINGLE POINT ENERGY      -652.851968784953
FINAL SINGLE POINT ENERGY      -652.851969939905
                    ***********************HURRAY********************

CARTESIAN COORDINATES (ANGSTROEM)
---------------------------------
  C    -20.956435   26.239205   46.184017
  C    -20.217088   27.562269   45.981908
  C    -20.333739   28.216903   47.384393
  C    -20.248151   27.001033   48.329335
  O    -20.547754   25.813991   47.491102
  H    -20.704194   25.442803   45.474054
  H    -19.169121   27.344061   45.740178
  H    -20.631085   28.202828   45.206357
  H    -19.544914   28.951397   47.570889
  H    -21.305017   28.712446   47.465598
  H    -20.971352   27.037455   49.148136
  H    -19.244267   26.849413   48.737963
  C    -23.198279   26.511543   45.046253
  H    -23.106649   25.576224   44.467592
  H    -24.221573   26.583865   45.427082
  O    -22.404697   26.403422   46.256378
  C    -22.900826   27.668728   44.087907
  C    -23.861768   27.703733   42.884609
  C    -25.105347   28.432708   43.486640
  C    -24.462532   29.445184   44.460336
  O    -23.075976   28.975996   44.713214
  H    -21.865535   27.621946   43.745748
  H    -23.417843   28.310187   42.091947
  O    -24.134916   26.430327   42.256367
  H    -25.714098   28.911490   42.715395
  H    -25.738080   27.708447   44.016310
  H    -24.991263   29.515063   45.415195
  H    -24.385269   30.445597   44.024690
  H    -24.747232   25.897736   42.803408

 Multiplicity           Mult            ....    1
 Number of Electrons    NEL             ....  102
 Basis Dimension        Dim             ....  149

ORBITAL ENERGIES
----------------

  NO   OCC          E(Eh)            E(eV)
   0   2.0000     -19.155774      -521.2551
   1   2.0000     -19.146517      -521.0032
   2   2.0000     -19.134102      -520.6654
   3   2.0000     -19.132383      -520.6186
   4   2.0000     -10.273980      -279.5692
   5   2.0000     -10.252197      -278.9765
   6   2.0000     -10.237398      -278.5738
   7   2.0000     -10.237371      -278.5730
   8   2.0000     -10.232708      -278.4462
   9   2.0000     -10.216385      -278.0020
  10   2.0000     -10.201779      -277.6045
  11   2.0000     -10.175754      -276.8964
  12   2.0000     -10.175240      -276.8824
  13   2.0000      -1.047408       -28.5014
  14   2.0000      -1.039537       -28.2872
  15   2.0000      -1.022961       -27.8362
  16   2.0000      -0.985994       -26.8303
  17   2.0000      -0.789079       -21.4719
  18   2.0000      -0.775770       -21.1098
  19   2.0000      -0.770634       -20.9700
  20   2.0000      -0.730970       -19.8907
  21   2.0000      -0.682051       -18.5595
  22   2.0000      -0.618480       -16.8297
  23   2.0000      -0.600752       -16.3473
  24   2.0000      -0.590641       -16.0722
  25   2.0000      -0.570353       -15.5201
  26   2.0000      -0.530784       -14.4434
  27   2.0000      -0.515222       -14.0199
  28   2.0000      -0.492895       -13.4123
  29   2.0000      -0.488747       -13.2995
  30   2.0000      -0.466014       -12.6809
  31   2.0000      -0.451276       -12.2798
  32   2.0000      -0.449024       -12.2186
  33   2.0000      -0.438547       -11.9335
  34   2.0000      -0.433521       -11.7967
  35   2.0000      -0.419419       -11.4130
  36   2.0000      -0.410678       -11.1751
  37   2.0000      -0.401019       -10.9123
  38   2.0000      -0.382844       -10.4177
  39   2.0000      -0.366614        -9.9761
  40   2.0000      -0.362649        -9.8682
  41   2.0000      -0.346215        -9.4210
  42   2.0000      -0.342074        -9.3083
  43   2.0000      -0.335762        -9.1365
  44   2.0000      -0.322912        -8.7869
  45   2.0000      -0.305357        -8.3092
  46   2.0000      -0.293820        -7.9952
  47   2.0000      -0.278206        -7.5704
  48   2.0000      -0.263405        -7.1676
  49   2.0000      -0.250215        -6.8087
  50   2.0000      -0.236594        -6.4381
  51   0.0000       0.048373         1.3163
  52   0.0000       0.072820         1.9815
  53   0.0000       0.081632         2.2213
  54   0.0000       0.093113         2.5337
  55   0.0000       0.102419         2.7870

MULLIKEN ATOMIC CHARGES
-----------------------
   0 C :    0.292065
   1 C :   -0.276427
   2 C :   -0.300354
   3 C :   -0.000134
   4 O :   -0.502722
   5 H :    0.134552
   6 H :    0.137965
   7 H :    0.171172
   8 H :    0.136987
   9 H :    0.172828
  10 H :    0.151391
  11 H :    0.137403
  12 C :   -0.006452
  13 H :    0.123764
  14 H :    0.144651
  15 O :   -0.505572
  16 C :    0.073257
  17 C :    0.081315
  18 C :   -0.322568
  19 C :   -0.010157
  20 O :   -0.518028
  21 H :    0.152670
  22 H :    0.168861
  23 O :   -0.597068
  24 H :    0.160564
  25 H :    0.136664
  26 H :    0.152354
  27 H :    0.151718
  28 H :    0.359300
Sum of atomic charges:   -0.0000000

LOEWDIN ATOMIC CHARGES
----------------------
   0 C :    0.181833
   1 C :   -0.233116
   2 C :   -0.215930
   3 C :   -0.025868
   4 O :   -0.304411
   5 H :    0.094085
   6 H :    0.110913
   7 H :    0.125814
   8 H :    0.112410
   9 H :    0.124287
  10 H :    0.107736
  11 H :    0.100001
  12 C :   -0.049496
  13 H :    0.093142
  14 H :    0.109862
  15 O :   -0.325554
  16 C :    0.000961
  17 C :    0.036595
  18 C :   -0.240840
  19 C :   -0.027907
  20 O :   -0.323676
  21 H :    0.110781
  22 H :    0.119379
  23 O :   -0.405084
  24 H :    0.124195
  25 H :    0.105762
  26 H :    0.107028
  27 H :    0.107259
  28 H :    0.279840

  Mayer bond orders larger than 0.100000
B(  0-C ,  1-C ) :   0.9304 B(  0-C ,  4-O ) :   0.9379 B(  0-C ,  5-H ) :   0.9187
B(  0-C , 15-O ) :   0.8327 B(  1-C ,  2-C ) :   0.9520 B(  1-C ,  6-H ) :   0.9333
B(  1-C ,  7-H ) :   0.9181 B(  2-C ,  3-C ) :   0.9556 B(  2-C ,  8-H ) :   0.9452
B(  2-C ,  9-H ) :   0.9391 B(  3-C ,  4-O ) :   0.8328 B(  3-C , 10-H ) :   0.9354
B(  3-C , 11-H ) :   0.9400 B( 12-C , 13-H ) :   0.9014 B( 12-C , 14-H ) :   0.9391
B( 12-C , 15-O ) :   0.8793 B( 12-C , 16-C ) :   0.8812 B( 16-C , 17-C ) :   0.8677
B( 16-C , 20-O ) :   0.8528 B( 16-C , 21-H ) :   0.9251 B( 17-C , 18-C ) :   0.9240
B( 17-C , 22-H ) :   0.9330 B( 17-C , 23-O ) :   0.9036 B( 18-C , 19-C ) :   0.9375
B( 18-C , 24-H ) :   0.9416 B( 18-C , 25-H ) :   0.9402 B( 19-C , 20-O ) :   0.8414
B( 19-C , 26-H ) :   0.9311 B( 19-C , 27-H ) :   0.9373 B( 23-O , 28-H ) :   0.7961

FINAL SINGLE POINT ENERGY      -652.851969835096

DIPOLE MOMENT
-------------
                                X             Y             Z
Electronic contribution:      0.06213      -3.60559      -0.34613
Nuclear contribution   :     -0.75445       4.44412      -0.17098
                        -----------------------------------------
Total Dipole Moment    :     -0.69232       0.83853      -0.51711
                        -----------------------------------------
Magnitude (a.u.)       :      1.20410
Magnitude (Debye)      :      3.06058

Rotational constants in cm-1:     0.055921     0.013975     0.012531
Rotational constants in MHz :  1676.468956   418.962217   375.664415

                             ****ORCA TERMINATED NORMALLY****
TOTAL RUN TIME: 0 days 0 hours 56 minutes 15 seconds 457 msec
