                         Program Version 4.2.1 -  RELEASE  -
|  1> # Test redundant internal optimization
|  2> #
|  3> ! RKS B3LYP  Opt TightSCF SmallPrint
|  4>
|  5> %basis
|  6>         Basis "6-31G"
|  7> end
|  8>
|  9> %geom
| 10> Constraints
| 11> { D 4  0  19  14  285.0   C } # D for Dihedral angle
| 12> { D 0  19  14  12  225.0   C } # D for Dihedral angle
| 13> { D 0  4  3  2   C } # D for Dihedral angle
| 14> { D 4  3  2  1   C } # D for Dihedral angle
| 15> { D 3  2  1  0   C } # D for Dihedral angle
| 16> { D 2  1  0  4   C } # D for Dihedral angle
| 17> { D 1  0  4  3   C } # D for Dihedral angle
| 18> { D 14  15  16  17   C } # D for Dihedral angle
| 19> { D 15  16  17  12   C } # D for Dihedral angle
| 20> { D 16  17  12  14   C } # D for Dihedral angle
| 21> { D 17  12  14  15   C } # D for Dihedral angle
| 22> { D 12  14  15  16   C } # D for Dihedral angle
| 23> end
| 24> end
| 25>
| 26>
| 27> #%pal
| 28> #nprocs 8
| 29> #end
| 30>
| 31> * xyz 0 1
| 32> C  -21.048   26.222   46.251
| 33> C  -20.361   27.558   45.944
| 34> C  -20.329   28.222   47.341
| 35> C  -20.110   27.022   48.296
| 36> O  -20.473   25.807   47.535
| 37> H  -20.833   25.428   45.533
| 38> H  -19.344   27.382   45.576
| 39> H  -20.898   28.157   45.201
| 40> H  -19.543   28.978   47.434
| 41> H  -21.289   28.710   47.548
| 42> H  -20.733   27.082   49.195
| 43> H  -19.064   26.913   48.597
| 44> C  -24.425   25.217   45.497
| 45> H  -25.151   24.422   45.730
| 46> C  -23.203   25.146   46.420
| 47> C  -22.389   24.000   45.776
| 48> C  -22.663   24.182   44.262
| 49> O  -23.872   25.027   44.151
| 50> H  -24.937   26.181   45.498
| 51> O  -22.472   26.381   46.366
| 52> H  -23.466   24.945   47.465
| 53> H  -21.323   24.049   46.016
| 54> H  -22.766   23.029   46.122
| 55> H  -22.842   23.231   43.749
| 56> H  -21.852   24.712   43.752
| 57> *
| 58>
| 59>                          ****END OF INPUT****
 Total Charge           Charge          ....    0
 Multiplicity           Mult            ....    1
 Number of Electrons    NEL             ....   86
FINAL SINGLE POINT ENERGY      -538.419046635044
FINAL SINGLE POINT ENERGY      -538.431880506796
FINAL SINGLE POINT ENERGY      -538.433631563609
FINAL SINGLE POINT ENERGY      -538.434025672210
FINAL SINGLE POINT ENERGY      -538.434051910818
FINAL SINGLE POINT ENERGY      -538.434056991430
                    ***********************HURRAY********************

CARTESIAN COORDINATES (ANGSTROEM)
---------------------------------
  C    -20.893727   26.255249   46.215503
  C    -20.403117   27.686347   45.986526
  C    -20.434008   28.265014   47.420932
  C    -20.034777   27.053420   48.294594
  O    -20.249046   25.851802   47.450747
  H    -20.585299   25.533609   45.457592
  H    -19.379718   27.657829   45.595257
  H    -21.040253   28.229024   45.285880
  H    -19.752226   29.111178   47.548913
  H    -21.448462   28.595957   47.660188
  H    -20.639235   26.962815   49.201005
  H    -18.975257   27.059119   48.568383
  C    -24.325392   25.332282   45.447438
  H    -25.160744   24.666406   45.707593
  C    -23.136035   25.102392   46.378809
  C    -22.508403   23.835711   45.772614
  C    -22.742444   24.009871   44.252366
  O    -23.807690   25.025621   44.109799
  H    -24.660392   26.369757   45.442907
  O    -22.321609   26.323145   46.338635
  H    -23.436914   24.945251   47.420267
  H    -21.461953   23.688692   46.047956
  H    -23.066710   22.972858   46.152935
  H    -23.063033   23.079422   43.770468
  H    -21.859558   24.390227   43.727694

 Multiplicity           Mult            ....    1
 Number of Electrons    NEL             ....   86
 Basis Dimension        Dim             ....  127

ORBITAL ENERGIES
----------------

  NO   OCC          E(Eh)            E(eV)
   0   2.0000     -19.140735      -520.8459
   1   2.0000     -19.136270      -520.7244
   2   2.0000     -19.129749      -520.5469
   3   2.0000     -10.276478      -279.6372
   4   2.0000     -10.239431      -278.6291
   5   2.0000     -10.224605      -278.2256
   6   2.0000     -10.222826      -278.1772
   7   2.0000     -10.219824      -278.0955
   8   2.0000     -10.189521      -277.2710
   9   2.0000     -10.181956      -277.0651
  10   2.0000     -10.181536      -277.0537
  11   2.0000      -1.051255       -28.6061
  12   2.0000      -1.013931       -27.5905
  13   2.0000      -0.987115       -26.8608
  14   2.0000      -0.791917       -21.5492
  15   2.0000      -0.774661       -21.0796
  16   2.0000      -0.746195       -20.3050
  17   2.0000      -0.717559       -19.5258
  18   2.0000      -0.614557       -16.7229
  19   2.0000      -0.602107       -16.3842
  20   2.0000      -0.593167       -16.1409
  21   2.0000      -0.564183       -15.3522
  22   2.0000      -0.527665       -14.3585
  23   2.0000      -0.498523       -13.5655
  24   2.0000      -0.484963       -13.1965
  25   2.0000      -0.476814       -12.9748
  26   2.0000      -0.455541       -12.3959
  27   2.0000      -0.438886       -11.9427
  28   2.0000      -0.423040       -11.5115
  29   2.0000      -0.417417       -11.3585
  30   2.0000      -0.402722       -10.9586
  31   2.0000      -0.391270       -10.6470
  32   2.0000      -0.370137       -10.0719
  33   2.0000      -0.365058        -9.9337
  34   2.0000      -0.358505        -9.7554
  35   2.0000      -0.353048        -9.6069
  36   2.0000      -0.342225        -9.3124
  37   2.0000      -0.323929        -8.8146
  38   2.0000      -0.304680        -8.2908
  39   2.0000      -0.294066        -8.0019
  40   2.0000      -0.265906        -7.2357
  41   2.0000      -0.248392        -6.7591
  42   2.0000      -0.236503        -6.4356
  43   0.0000       0.075983         2.0676
  44   0.0000       0.101181         2.7533
  45   0.0000       0.101242         2.7549
  46   0.0000       0.108928         2.9641
  47   0.0000       0.116002         3.1566

MULLIKEN ATOMIC CHARGES
-----------------------
   0 C :    0.287461
   1 C :   -0.257586
   2 C :   -0.296064
   3 C :   -0.002658
   4 O :   -0.518920
   5 H :    0.142944
   6 H :    0.142384
   7 H :    0.161138
   8 H :    0.138668
   9 H :    0.161405
  10 H :    0.144560
  11 H :    0.141129
  12 C :    0.003573
  13 H :    0.122212
  14 C :    0.100155
  15 C :   -0.337520
  16 C :   -0.002512
  17 O :   -0.521569
  18 H :    0.166599
  19 O :   -0.527830
  20 H :    0.142127
  21 H :    0.175657
  22 H :    0.149813
  23 H :    0.139820
  24 H :    0.145016
Sum of atomic charges:   -0.0000000

LOEWDIN ATOMIC CHARGES
----------------------
   0 C :    0.170683
   1 C :   -0.212790
   2 C :   -0.215482
   3 C :   -0.027659
   4 O :   -0.336894
   5 H :    0.096296
   6 H :    0.112358
   7 H :    0.126242
   8 H :    0.112335
   9 H :    0.118811
  10 H :    0.103816
  11 H :    0.101666
  12 C :   -0.035786
  13 H :    0.090009
  14 C :    0.045357
  15 C :   -0.241328
  16 C :   -0.032557
  17 O :   -0.331604
  18 H :    0.122657
  19 O :   -0.321934
  20 H :    0.104664
  21 H :    0.130085
  22 H :    0.120311
  23 H :    0.100428
  24 H :    0.100316

  Mayer bond orders larger than 0.100000
B(  0-C ,  1-C ) :   0.9470 B(  0-C ,  4-O ) :   0.8964 B(  0-C ,  5-H ) :   0.9122
B(  0-C , 19-O ) :   0.8674 B(  1-C ,  2-C ) :   0.9572 B(  1-C ,  6-H ) :   0.9413
B(  1-C ,  7-H ) :   0.9356 B(  2-C ,  3-C ) :   0.9549 B(  2-C ,  8-H ) :   0.9455
B(  2-C ,  9-H ) :   0.9443 B(  3-C ,  4-O ) :   0.8389 B(  3-C , 10-H ) :   0.9361
B(  3-C , 11-H ) :   0.9404 B( 12-C , 13-H ) :   0.9147 B( 12-C , 14-C ) :   0.9247
B( 12-C , 17-O ) :   0.8664 B( 12-C , 18-H ) :   0.9308 B( 14-C , 15-C ) :   0.9434
B( 14-C , 19-O ) :   0.8290 B( 14-C , 20-H ) :   0.9273 B( 15-C , 16-C ) :   0.9384
B( 15-C , 21-H ) :   0.9249 B( 15-C , 22-H ) :   0.9360 B( 16-C , 17-O ) :   0.8615
B( 16-C , 23-H ) :   0.9319 B( 16-C , 24-H ) :   0.9328

FINAL SINGLE POINT ENERGY      -538.434057384021

DIPOLE MOMENT
-------------
                                X             Y             Z
Electronic contribution:     -1.59366      -0.93423      -0.90731
Nuclear contribution   :      1.93997       0.88338       1.42711
                        -----------------------------------------
Total Dipole Moment    :      0.34631      -0.05085       0.51980
                        -----------------------------------------
Magnitude (a.u.)       :      0.62666
Magnitude (Debye)      :      1.59285

Rotational constants in cm-1:     0.083922     0.021106     0.020252
Rotational constants in MHz :  2515.918707   632.736647   607.137064

                             ****ORCA TERMINATED NORMALLY****
TOTAL RUN TIME: 0 days 0 hours 15 minutes 15 seconds 631 msec
