                         Program Version 4.2.0 -  RELEASE  -
|  1> # Test redundant internal optimization
|  2> #
|  3> ! RKS B3LYP  Opt TightSCF SmallPrint
|  4>
|  5> %basis
|  6>         Basis "6-31G"
|  7> end
|  8>
|  9> %geom
| 10> Constraints
| 11> { D 4  0  15  12  330.0   C } # D for Dihedral angle
| 12> { D 0  15  12  16  180.0   C } # D for Dihedral angle
| 13> { D 0  4  3  2   C } # D for Dihedral angle
| 14> { D 4  3  2  1   C } # D for Dihedral angle
| 15> { D 3  2  1  0   C } # D for Dihedral angle
| 16> { D 2  1  0  4   C } # D for Dihedral angle
| 17> { D 1  0  4  3   C } # D for Dihedral angle
| 18> { D 16  20  19  18   C } # D for Dihedral angle
| 19> { D 20  19  18  17   C } # D for Dihedral angle
| 20> { D 19  18  17  16   C } # D for Dihedral angle
| 21> { D 18  17  16  20   C } # D for Dihedral angle
| 22> { D 17  16  20  19   C } # D for Dihedral angle
| 23> { D 15  12  16  20   C } # D for Dihedral angle
| 24> end
| 25> end
| 26>
| 27>
| 28> #%pal
| 29> #nprocs 8
| 30> #end
| 31>
| 32> * xyz 0 1
| 33> C  -21.048   26.222   46.251
| 34> C  -20.361   27.558   45.944
| 35> C  -20.329   28.222   47.341
| 36> C  -20.110   27.022   48.296
| 37> O  -20.473   25.807   47.535
| 38> H  -20.833   25.428   45.533
| 39> H  -19.344   27.382   45.576
| 40> H  -20.898   28.157   45.201
| 41> H  -19.543   28.978   47.434
| 42> H  -21.289   28.710   47.548
| 43> H  -20.733   27.082   49.195
| 44> H  -19.064   26.913   48.597
| 45> C  -23.271   25.476   47.424
| 46> H  -23.084   24.426   47.163
| 47> H  -22.857   25.659   48.424
| 48> O  -22.586   26.394   46.375
| 49> C  -24.807   25.694   47.501
| 50> C  -25.148   27.164   47.775
| 51> C  -24.974   27.792   46.371
| 52> C  -25.458   26.668   45.421
| 53> O  -25.431   25.414   46.204
| 54> H  -25.233   24.991   48.220
| 55> O  -26.620   27.289   48.253
| 56> H  -24.499   27.623   48.528
| 57> H  -25.545   28.718   46.246
| 58> H  -23.918   28.022   46.190
| 59> H  -24.815   26.556   44.541
| 60> H  -26.490   26.817   45.088
| 61> H  -27.288   26.836   47.512
| 62> *
| 63>
| 64>                          ****END OF INPUT****
 Total Charge           Charge          ....    0
 Multiplicity           Mult            ....    1
 Number of Electrons    NEL             ....  102
FINAL SINGLE POINT ENERGY      -652.838429140921
FINAL SINGLE POINT ENERGY      -652.860921926575
FINAL SINGLE POINT ENERGY      -652.865136805016
FINAL SINGLE POINT ENERGY      -652.866158902615
FINAL SINGLE POINT ENERGY      -652.866272695100
FINAL SINGLE POINT ENERGY      -652.866287707134
                    ***********************HURRAY********************

CARTESIAN COORDINATES (ANGSTROEM)
---------------------------------
  C    -21.092014   26.147562   46.325620
  C    -20.474490   27.499319   45.969001
  C    -20.403877   28.187578   47.350301
  C    -20.095424   27.020222   48.313395
  O    -20.454052   25.779178   47.569106
  H    -20.879551   25.329283   45.630347
  H    -19.472934   27.337575   45.555180
  H    -21.074717   28.049722   45.241209
  H    -19.639841   28.970016   47.391226
  H    -21.370547   28.641802   47.588436
  H    -20.676576   27.056706   49.238810
  H    -19.033023   26.937462   48.558557
  C    -23.204438   25.485018   47.435063
  H    -23.045152   24.422174   47.208781
  H    -22.796309   25.681951   48.433623
  O    -22.532179   26.304989   46.434761
  C    -24.703477   25.767104   47.423040
  C    -25.144710   27.207206   47.727288
  C    -25.020054   27.877678   46.332463
  C    -25.430019   26.740124   45.363575
  O    -25.311841   25.474791   46.124818
  H    -25.162355   25.080467   48.144912
  O    -26.510532   27.228824   48.231609
  H    -24.548235   27.696174   48.498233
  H    -25.672161   28.752847   46.264339
  H    -23.984201   28.172171   46.160504
  H    -24.775564   26.683939   44.489948
  H    -26.469582   26.819054   45.028870
  H    -27.071146   26.669065   47.653984

 Multiplicity           Mult            ....    1
 Number of Electrons    NEL             ....  102
 Basis Dimension        Dim             ....  149

ORBITAL ENERGIES
----------------

  NO   OCC          E(Eh)            E(eV)
   0   2.0000     -19.152021      -521.1530
   1   2.0000     -19.146506      -521.0029
   2   2.0000     -19.134550      -520.6776
   3   2.0000     -19.132943      -520.6338
   4   2.0000     -10.283587      -279.8306
   5   2.0000     -10.234965      -278.5076
   6   2.0000     -10.234758      -278.5019
   7   2.0000     -10.231307      -278.4080
   8   2.0000     -10.228445      -278.3301
   9   2.0000     -10.219899      -278.0976
  10   2.0000     -10.193982      -277.3924
  11   2.0000     -10.191805      -277.3331
  12   2.0000     -10.174470      -276.8614
  13   2.0000      -1.060464       -28.8567
  14   2.0000      -1.030176       -28.0325
  15   2.0000      -1.002513       -27.2798
  16   2.0000      -0.993900       -27.0454
  17   2.0000      -0.796365       -21.6702
  18   2.0000      -0.775547       -21.1037
  19   2.0000      -0.762413       -20.7463
  20   2.0000      -0.735075       -20.0024
  21   2.0000      -0.671421       -18.2703
  22   2.0000      -0.607730       -16.5372
  23   2.0000      -0.598015       -16.2728
  24   2.0000      -0.594572       -16.1791
  25   2.0000      -0.571506       -15.5515
  26   2.0000      -0.525174       -14.2907
  27   2.0000      -0.510600       -13.8941
  28   2.0000      -0.499410       -13.5896
  29   2.0000      -0.489020       -13.3069
  30   2.0000      -0.470407       -12.8004
  31   2.0000      -0.461429       -12.5561
  32   2.0000      -0.447496       -12.1770
  33   2.0000      -0.431013       -11.7285
  34   2.0000      -0.422006       -11.4834
  35   2.0000      -0.411710       -11.2032
  36   2.0000      -0.404077       -10.9955
  37   2.0000      -0.384491       -10.4625
  38   2.0000      -0.379620       -10.3300
  39   2.0000      -0.366092        -9.9619
  40   2.0000      -0.364369        -9.9150
  41   2.0000      -0.357345        -9.7239
  42   2.0000      -0.350316        -9.5326
  43   2.0000      -0.342092        -9.3088
  44   2.0000      -0.321357        -8.7446
  45   2.0000      -0.306547        -8.3416
  46   2.0000      -0.299807        -8.1582
  47   2.0000      -0.267323        -7.2742
  48   2.0000      -0.265827        -7.2335
  49   2.0000      -0.257269        -7.0006
  50   2.0000      -0.240117        -6.5339
  51   0.0000       0.060599         1.6490
  52   0.0000       0.078789         2.1440
  53   0.0000       0.096100         2.6150
  54   0.0000       0.099609         2.7105
  55   0.0000       0.105294         2.8652

MULLIKEN ATOMIC CHARGES
-----------------------
   0 C :    0.304189
   1 C :   -0.262610
   2 C :   -0.303424
   3 C :   -0.014507
   4 O :   -0.512212
   5 H :    0.154679
   6 H :    0.148305
   7 H :    0.158145
   8 H :    0.147738
   9 H :    0.156267
  10 H :    0.146130
  11 H :    0.151145
  12 C :    0.020166
  13 H :    0.148243
  14 H :    0.137202
  15 O :   -0.543806
  16 C :    0.057198
  17 C :    0.073885
  18 C :   -0.285568
  19 C :   -0.017042
  20 O :   -0.525915
  21 H :    0.157924
  22 O :   -0.602422
  23 H :    0.145466
  24 H :    0.146228
  25 H :    0.167546
  26 H :    0.150521
  27 H :    0.133898
  28 H :    0.362630
Sum of atomic charges:    0.0000000

LOEWDIN ATOMIC CHARGES
----------------------
   0 C :    0.179920
   1 C :   -0.215531
   2 C :   -0.217727
   3 C :   -0.030854
   4 O :   -0.322258
   5 H :    0.101290
   6 H :    0.115992
   7 H :    0.124087
   8 H :    0.117151
   9 H :    0.114816
  10 H :    0.103459
  11 H :    0.107251
  12 C :   -0.033693
  13 H :    0.106645
  14 H :    0.101008
  15 O :   -0.338487
  16 C :    0.013601
  17 C :    0.038675
  18 C :   -0.242164
  19 C :   -0.032892
  20 O :   -0.330051
  21 H :    0.116646
  22 O :   -0.417485
  23 H :    0.112702
  24 H :    0.117263
  25 H :    0.125568
  26 H :    0.107812
  27 H :    0.095434
  28 H :    0.281822

  Mayer bond orders larger than 0.100000
B(  0-C ,  1-C ) :   0.9458 B(  0-C ,  4-O ) :   0.9026 B(  0-C ,  5-H ) :   0.9220
B(  0-C , 15-O ) :   0.8401 B(  1-C ,  2-C ) :   0.9531 B(  1-C ,  6-H ) :   0.9371
B(  1-C ,  7-H ) :   0.9358 B(  2-C ,  3-C ) :   0.9544 B(  2-C ,  8-H ) :   0.9445
B(  2-C ,  9-H ) :   0.9446 B(  3-C ,  4-O ) :   0.8320 B(  3-C , 10-H ) :   0.9337
B(  3-C , 11-H ) :   0.9403 B( 12-C , 13-H ) :   0.9195 B( 12-C , 14-H ) :   0.9087
B( 12-C , 15-O ) :   0.8248 B( 12-C , 16-C ) :   0.9087 B( 16-C , 17-C ) :   0.9084
B( 16-C , 20-O ) :   0.8686 B( 16-C , 21-H ) :   0.9225 B( 17-C , 18-C ) :   0.9237
B( 17-C , 22-O ) :   0.8931 B( 17-C , 23-H ) :   0.9361 B( 18-C , 19-C ) :   0.9471
B( 18-C , 24-H ) :   0.9374 B( 18-C , 25-H ) :   0.9190 B( 19-C , 20-O ) :   0.8410
B( 19-C , 26-H ) :   0.9342 B( 19-C , 27-H ) :   0.9375 B( 22-O , 28-H ) :   0.7957

FINAL SINGLE POINT ENERGY      -652.866287459732

DIPOLE MOMENT
-------------
                                X             Y             Z
Electronic contribution:     -3.24836      -4.58223       0.29699
Nuclear contribution   :      4.17583       5.35201      -0.50800
                        -----------------------------------------
Total Dipole Moment    :      0.92747       0.76978      -0.21101
                        -----------------------------------------
Magnitude (a.u.)       :      1.22363
Magnitude (Debye)      :      3.11023

Rotational constants in cm-1:     0.051639     0.014512     0.014326
Rotational constants in MHz :  1548.098057   435.047040   429.494155

                             ****ORCA TERMINATED NORMALLY****
TOTAL RUN TIME: 0 days 0 hours 24 minutes 12 seconds 579 msec
