                         Program Version 4.2.0 -  RELEASE  -
|  1> # Test redundant internal optimization
|  2> #
|  3> ! RKS B3LYP  Opt TightSCF SmallPrint
|  4>
|  5> %basis
|  6>         Basis "6-31G"
|  7> end
|  8>
|  9> %geom
| 10> Constraints
| 11> { D 4  0  15  12  240.0   C } # D for Dihedral angle
| 12> { D 0  15  12  16  150.0   C } # D for Dihedral angle
| 13> { D 0  4  3  2   C } # D for Dihedral angle
| 14> { D 4  3  2  1   C } # D for Dihedral angle
| 15> { D 3  2  1  0   C } # D for Dihedral angle
| 16> { D 2  1  0  4   C } # D for Dihedral angle
| 17> { D 1  0  4  3   C } # D for Dihedral angle
| 18> { D 16  20  19  18   C } # D for Dihedral angle
| 19> { D 20  19  18  17   C } # D for Dihedral angle
| 20> { D 19  18  17  16   C } # D for Dihedral angle
| 21> { D 18  17  16  20   C } # D for Dihedral angle
| 22> { D 17  16  20  19   C } # D for Dihedral angle
| 23> { D 15  12  16  20   C } # D for Dihedral angle
| 24> end
| 25> end
| 26>
| 27>
| 28> #%pal
| 29> #nprocs 8
| 30> #end
| 31>
| 32> * xyz 0 1
| 33> C  -21.048   26.222   46.251
| 34> C  -20.361   27.558   45.944
| 35> C  -20.329   28.222   47.341
| 36> C  -20.110   27.022   48.296
| 37> O  -20.473   25.807   47.535
| 38> H  -20.833   25.428   45.533
| 39> H  -19.344   27.382   45.576
| 40> H  -20.898   28.157   45.201
| 41> H  -19.543   28.978   47.434
| 42> H  -21.289   28.710   47.548
| 43> H  -20.733   27.082   49.195
| 44> H  -19.064   26.913   48.597
| 45> C  -23.430   25.483   45.442
| 46> H  -23.596   25.997   44.488
| 47> H  -22.898   24.545   45.238
| 48> O  -22.586   26.394   46.375
| 49> C  -24.813   25.119   46.049
| 50> C  -25.569   24.128   45.157
| 51> C  -24.884   22.790   45.523
| 52> C  -24.574   22.956   47.032
| 53> O  -24.644   24.405   47.319
| 54> H  -25.360   26.038   46.269
| 55> O  -27.072   24.099   45.546
| 56> H  -25.493   24.366   44.090
| 57> H  -25.517   21.920   45.320
| 58> H  -23.957   22.672   44.949
| 59> H  -23.578   22.585   47.298
| 60> H  -25.317   22.465   47.667
| 61> H  -27.172   23.863   46.611
| 62> *
| 63>
| 64>                          ****END OF INPUT****
 Total Charge           Charge          ....    0
 Multiplicity           Mult            ....    1
 Number of Electrons    NEL             ....  102
FINAL SINGLE POINT ENERGY      -652.831285086502
FINAL SINGLE POINT ENERGY      -652.854303109573
FINAL SINGLE POINT ENERGY      -652.858187761456
FINAL SINGLE POINT ENERGY      -652.858890942144
FINAL SINGLE POINT ENERGY      -652.858976074193
FINAL SINGLE POINT ENERGY      -652.858985953418
FINAL SINGLE POINT ENERGY      -652.858988018755
                    ***********************HURRAY********************

CARTESIAN COORDINATES (ANGSTROEM)
---------------------------------
  C    -21.048596   26.171430   46.169432
  C    -20.467806   27.567201   45.946213
  C    -20.540746   28.175254   47.367602
  C    -20.256552   26.959400   48.277007
  O    -20.496354   25.760577   47.434539
  H    -20.760880   25.413854   45.433582
  H    -19.426593   27.482036   45.612385
  H    -21.031940   28.136824   45.204031
  H    -19.822604   28.986905   47.516658
  H    -21.547790   28.562476   47.548762
  H    -20.914929   26.910794   49.147391
  H    -19.213884   26.908176   48.605346
  C    -23.277154   25.433143   45.367754
  H    -23.477775   25.959254   44.421731
  H    -22.726044   24.509305   45.137600
  O    -22.492560   26.270562   46.250262
  C    -24.603094   25.107929   46.053106
  C    -25.510424   24.181269   45.231821
  C    -24.933850   22.783494   45.579427
  C    -24.509416   22.941227   47.061224
  O    -24.420308   24.399208   47.319577
  H    -25.108908   26.046930   46.298141
  O    -26.897300   24.309651   45.648941
  H    -25.512220   24.392934   44.161372
  H    -25.689297   22.008119   45.429057
  H    -24.074219   22.555865   44.939032
  H    -23.539881   22.482664   47.277401
  H    -25.250737   22.534907   47.756400
  H    -26.933139   24.354613   46.628205

 Multiplicity           Mult            ....    1
 Number of Electrons    NEL             ....  102
 Basis Dimension        Dim             ....  149

ORBITAL ENERGIES
----------------

  NO   OCC          E(Eh)            E(eV)
   0   2.0000     -19.138413      -520.7827
   1   2.0000     -19.138386      -520.7820
   2   2.0000     -19.138108      -520.7744
   3   2.0000     -19.133441      -520.6474
   4   2.0000     -10.277265      -279.6586
   5   2.0000     -10.243037      -278.7272
   6   2.0000     -10.235239      -278.5150
   7   2.0000     -10.233140      -278.4579
   8   2.0000     -10.227950      -278.3167
   9   2.0000     -10.219192      -278.0783
  10   2.0000     -10.189640      -277.2742
  11   2.0000     -10.182121      -277.0696
  12   2.0000     -10.181172      -277.0438
  13   2.0000      -1.049520       -28.5589
  14   2.0000      -1.034578       -28.1523
  15   2.0000      -1.005163       -27.3519
  16   2.0000      -0.990986       -26.9661
  17   2.0000      -0.787740       -21.4355
  18   2.0000      -0.779835       -21.2204
  19   2.0000      -0.766148       -20.8480
  20   2.0000      -0.727683       -19.8013
  21   2.0000      -0.673300       -18.3214
  22   2.0000      -0.603502       -16.4221
  23   2.0000      -0.594299       -16.1717
  24   2.0000      -0.589653       -16.0453
  25   2.0000      -0.586067       -15.9477
  26   2.0000      -0.525778       -14.3071
  27   2.0000      -0.510609       -13.8944
  28   2.0000      -0.491449       -13.3730
  29   2.0000      -0.485224       -13.2036
  30   2.0000      -0.475759       -12.9460
  31   2.0000      -0.457949       -12.4614
  32   2.0000      -0.451754       -12.2928
  33   2.0000      -0.436030       -11.8650
  34   2.0000      -0.427691       -11.6381
  35   2.0000      -0.405718       -11.0401
  36   2.0000      -0.398146       -10.8341
  37   2.0000      -0.392753       -10.6873
  38   2.0000      -0.373306       -10.1582
  39   2.0000      -0.371159       -10.0998
  40   2.0000      -0.354276        -9.6403
  41   2.0000      -0.352685        -9.5970
  42   2.0000      -0.347467        -9.4550
  43   2.0000      -0.331283        -9.0147
  44   2.0000      -0.312491        -8.5033
  45   2.0000      -0.306166        -8.3312
  46   2.0000      -0.302551        -8.2328
  47   2.0000      -0.270821        -7.3694
  48   2.0000      -0.262563        -7.1447
  49   2.0000      -0.244698        -6.6586
  50   2.0000      -0.240794        -6.5523
  51   0.0000       0.066441         1.8079
  52   0.0000       0.082345         2.2407
  53   0.0000       0.087979         2.3940
  54   0.0000       0.101018         2.7489
  55   0.0000       0.107562         2.9269

MULLIKEN ATOMIC CHARGES
-----------------------
   0 C :    0.286675
   1 C :   -0.253289
   2 C :   -0.300082
   3 C :    0.000005
   4 O :   -0.499730
   5 H :    0.135217
   6 H :    0.140498
   7 H :    0.144341
   8 H :    0.138978
   9 H :    0.164549
  10 H :    0.156213
  11 H :    0.137969
  12 C :    0.000644
  13 H :    0.127950
  14 H :    0.128034
  15 O :   -0.509051
  16 C :    0.069950
  17 C :    0.075762
  18 C :   -0.301145
  19 C :   -0.029005
  20 O :   -0.504617
  21 H :    0.169895
  22 O :   -0.600940
  23 H :    0.149297
  24 H :    0.163501
  25 H :    0.143118
  26 H :    0.152489
  27 H :    0.147078
  28 H :    0.365698
Sum of atomic charges:   -0.0000000

LOEWDIN ATOMIC CHARGES
----------------------
   0 C :    0.177127
   1 C :   -0.221401
   2 C :   -0.216382
   3 C :   -0.025937
   4 O :   -0.314288
   5 H :    0.095925
   6 H :    0.111149
   7 H :    0.117218
   8 H :    0.112741
   9 H :    0.120382
  10 H :    0.110292
  11 H :    0.100391
  12 C :   -0.038513
  13 H :    0.094024
  14 H :    0.094051
  15 O :   -0.323900
  16 C :    0.016465
  17 C :    0.034477
  18 C :   -0.243008
  19 C :   -0.038109
  20 O :   -0.316589
  21 H :    0.120679
  22 O :   -0.413960
  23 H :    0.113928
  24 H :    0.127002
  25 H :    0.111694
  26 H :    0.107716
  27 H :    0.102801
  28 H :    0.284024

  Mayer bond orders larger than 0.100000
B(  0-C ,  1-C ) :   0.9424 B(  0-C ,  4-O ) :   0.9325 B(  0-C ,  5-H ) :   0.9192
B(  0-C , 15-O ) :   0.8450 B(  1-C ,  2-C ) :   0.9582 B(  1-C ,  6-H ) :   0.9372
B(  1-C ,  7-H ) :   0.9389 B(  2-C ,  3-C ) :   0.9545 B(  2-C ,  8-H ) :   0.9454
B(  2-C ,  9-H ) :   0.9432 B(  3-C ,  4-O ) :   0.8379 B(  3-C , 10-H ) :   0.9340
B(  3-C , 11-H ) :   0.9399 B( 12-C , 13-H ) :   0.9128 B( 12-C , 14-H ) :   0.9147
B( 12-C , 15-O ) :   0.8503 B( 12-C , 16-C ) :   0.8970 B( 16-C , 17-C ) :   0.9000
B( 16-C , 20-O ) :   0.8725 B( 16-C , 21-H ) :   0.9236 B( 17-C , 18-C ) :   0.9099
B( 17-C , 22-O ) :   0.8959 B( 17-C , 23-H ) :   0.9328 B( 18-C , 19-C ) :   0.9403
B( 18-C , 24-H ) :   0.9374 B( 18-C , 25-H ) :   0.9339 B( 19-C , 20-O ) :   0.8506
B( 19-C , 26-H ) :   0.9335 B( 19-C , 27-H ) :   0.9374 B( 22-O , 28-H ) :   0.7932

FINAL SINGLE POINT ENERGY      -652.858988261832

DIPOLE MOMENT
-------------
                                X             Y             Z
Electronic contribution:     -3.06987      -1.08228       1.25440
Nuclear contribution   :      3.68507       1.12130      -1.90826
                        -----------------------------------------
Total Dipole Moment    :      0.61520       0.03902      -0.65386
                        -----------------------------------------
Magnitude (a.u.)       :      0.89863
Magnitude (Debye)      :      2.28413

Rotational constants in cm-1:     0.065066     0.011757     0.011174
Rotational constants in MHz :  1950.644456   352.456792   334.978013

                             ****ORCA TERMINATED NORMALLY****
TOTAL RUN TIME: 0 days 2 hours 33 minutes 8 seconds 173 msec
