                         Program Version 4.2.0 -  RELEASE  -
|  1> # Test redundant internal optimization
|  2> #
|  3> ! RKS B3LYP  Opt TightSCF SmallPrint
|  4>
|  5> %basis
|  6>         Basis "6-31G"
|  7> end
|  8>
|  9> %geom
| 10> Constraints
| 11> { D 4  0  15  12  255.0   C } # D for Dihedral angle
| 12> { D 0  15  12  16  330.0   C } # D for Dihedral angle
| 13> { D 0  4  3  2   C } # D for Dihedral angle
| 14> { D 4  3  2  1   C } # D for Dihedral angle
| 15> { D 3  2  1  0   C } # D for Dihedral angle
| 16> { D 2  1  0  4   C } # D for Dihedral angle
| 17> { D 1  0  4  3   C } # D for Dihedral angle
| 18> { D 16  20  19  18   C } # D for Dihedral angle
| 19> { D 20  19  18  17   C } # D for Dihedral angle
| 20> { D 19  18  17  16   C } # D for Dihedral angle
| 21> { D 18  17  16  20   C } # D for Dihedral angle
| 22> { D 17  16  20  19   C } # D for Dihedral angle
| 23> { D 15  12  16  20   C } # D for Dihedral angle
| 24> end
| 25> end
| 26>
| 27>
| 28> #%pal
| 29> #nprocs 8
| 30> #end
| 31>
| 32> * xyz 0 1
| 33> C  -21.048   26.222   46.251
| 34> C  -20.361   27.558   45.944
| 35> C  -20.329   28.222   47.341
| 36> C  -20.110   27.022   48.296
| 37> O  -20.473   25.807   47.535
| 38> H  -20.833   25.428   45.533
| 39> H  -19.344   27.382   45.576
| 40> H  -20.898   28.157   45.201
| 41> H  -19.543   28.978   47.434
| 42> H  -21.289   28.710   47.548
| 43> H  -20.733   27.082   49.195
| 44> H  -19.064   26.913   48.597
| 45> C  -23.431   25.260   45.734
| 46> H  -23.621   24.482   46.483
| 47> H  -24.399   25.649   45.390
| 48> O  -22.586   26.394   46.375
| 49> C  -22.727   24.602   44.515
| 50> C  -23.635   23.569   43.838
| 51> C  -24.572   24.475   43.003
| 52> C  -23.642   25.634   42.565
| 53> O  -22.473   25.599   43.470
| 54> H  -21.756   24.213   44.829
| 55> H  -23.044   22.918   43.184
| 56> O  -24.405   22.677   44.850
| 57> H  -25.018   23.953   42.150
| 58> H  -25.389   24.851   43.630
| 59> H  -24.127   26.613   42.644
| 60> H  -23.265   25.505   41.547
| 61> H  -25.006   23.307   45.515
| 62> *
| 63>
| 64>                          ****END OF INPUT****
 Total Charge           Charge          ....    0
 Multiplicity           Mult            ....    1
 Number of Electrons    NEL             ....  102
FINAL SINGLE POINT ENERGY      -652.822574312972
FINAL SINGLE POINT ENERGY      -652.846911697879
FINAL SINGLE POINT ENERGY      -652.851884114412
FINAL SINGLE POINT ENERGY      -652.854119239854
FINAL SINGLE POINT ENERGY      -652.854347723775
FINAL SINGLE POINT ENERGY      -652.854412139096
FINAL SINGLE POINT ENERGY      -652.854417124200
FINAL SINGLE POINT ENERGY      -652.854417410559
                    ***********************HURRAY********************

CARTESIAN COORDINATES (ANGSTROEM)
---------------------------------
  C    -20.908306   26.205865   46.209514
  C    -20.360933   27.616242   45.984478
  C    -20.453737   28.224238   47.404710
  C    -20.142379   27.016798   48.318143
  O    -20.347485   25.809189   47.483437
  H    -20.588894   25.467867   45.477108
  H    -19.317303   27.551499   45.654585
  H    -20.939338   28.158858   45.235222
  H    -19.755164   29.052573   47.556746
  H    -21.470007   28.588532   47.581280
  H    -20.799498   26.959507   49.190048
  H    -19.099868   26.995398   48.651060
  C    -23.231315   25.307101   45.713056
  H    -23.469487   24.559059   46.482702
  H    -24.142595   25.866203   45.474210
  O    -22.347179   26.311578   46.289831
  C    -22.719288   24.561910   44.479841
  C    -23.753227   23.575671   43.905190
  C    -24.656391   24.519722   43.049708
  C    -23.644664   25.553436   42.506922
  O    -22.435990   25.462140   43.365207
  H    -21.784658   24.043082   44.705818
  H    -23.239181   22.860135   43.259841
  O    -24.452983   22.756479   44.868123
  H    -25.180643   23.979792   42.257442
  H    -25.408250   24.993095   43.694212
  H    -24.023999   26.579420   42.536497
  H    -23.326774   25.324418   41.485296
  H    -25.121463   23.282192   45.352775

 Multiplicity           Mult            ....    1
 Number of Electrons    NEL             ....  102
 Basis Dimension        Dim             ....  149

ORBITAL ENERGIES
----------------

  NO   OCC          E(Eh)            E(eV)
   0   2.0000     -19.154238      -521.2133
   1   2.0000     -19.144765      -520.9556
   2   2.0000     -19.134153      -520.6668
   3   2.0000     -19.127421      -520.4836
   4   2.0000     -10.268483      -279.4196
   5   2.0000     -10.251306      -278.9522
   6   2.0000     -10.237609      -278.5795
   7   2.0000     -10.236877      -278.5596
   8   2.0000     -10.231473      -278.4125
   9   2.0000     -10.215201      -277.9697
  10   2.0000     -10.200655      -277.5739
  11   2.0000     -10.175340      -276.8851
  12   2.0000     -10.172901      -276.8187
  13   2.0000      -1.044345       -28.4181
  14   2.0000      -1.036915       -28.2159
  15   2.0000      -1.021619       -27.7997
  16   2.0000      -0.983695       -26.7677
  17   2.0000      -0.788695       -21.4615
  18   2.0000      -0.778129       -21.1740
  19   2.0000      -0.766280       -20.8515
  20   2.0000      -0.729118       -19.8403
  21   2.0000      -0.679947       -18.5023
  22   2.0000      -0.617574       -16.8051
  23   2.0000      -0.605087       -16.4653
  24   2.0000      -0.587682       -15.9916
  25   2.0000      -0.559871       -15.2349
  26   2.0000      -0.536980       -14.6120
  27   2.0000      -0.513692       -13.9783
  28   2.0000      -0.494618       -13.4592
  29   2.0000      -0.479578       -13.0500
  30   2.0000      -0.469076       -12.7642
  31   2.0000      -0.453466       -12.3394
  32   2.0000      -0.439523       -11.9600
  33   2.0000      -0.434551       -11.8247
  34   2.0000      -0.431813       -11.7502
  35   2.0000      -0.424400       -11.5485
  36   2.0000      -0.406528       -11.0622
  37   2.0000      -0.393045       -10.6953
  38   2.0000      -0.384051       -10.4505
  39   2.0000      -0.366686        -9.9780
  40   2.0000      -0.356824        -9.7097
  41   2.0000      -0.346317        -9.4238
  42   2.0000      -0.340079        -9.2540
  43   2.0000      -0.335138        -9.1196
  44   2.0000      -0.321876        -8.7587
  45   2.0000      -0.309343        -8.4176
  46   2.0000      -0.296974        -8.0811
  47   2.0000      -0.276721        -7.5300
  48   2.0000      -0.262308        -7.1378
  49   2.0000      -0.244365        -6.6495
  50   2.0000      -0.235856        -6.4180
  51   0.0000       0.047508         1.2928
  52   0.0000       0.074450         2.0259
  53   0.0000       0.084406         2.2968
  54   0.0000       0.095904         2.6097
  55   0.0000       0.101480         2.7614

MULLIKEN ATOMIC CHARGES
-----------------------
   0 C :    0.280185
   1 C :   -0.247292
   2 C :   -0.298728
   3 C :    0.000761
   4 O :   -0.509876
   5 H :    0.157064
   6 H :    0.139251
   7 H :    0.155769
   8 H :    0.135535
   9 H :    0.159501
  10 H :    0.145050
  11 H :    0.137124
  12 C :    0.019667
  13 H :    0.139717
  14 H :    0.136639
  15 O :   -0.530848
  16 C :    0.046622
  17 C :    0.085168
  18 C :   -0.319402
  19 C :   -0.010979
  20 O :   -0.517441
  21 H :    0.168574
  22 H :    0.169763
  23 O :   -0.595639
  24 H :    0.158920
  25 H :    0.135678
  26 H :    0.148846
  27 H :    0.152247
  28 H :    0.358126
Sum of atomic charges:   -0.0000000

LOEWDIN ATOMIC CHARGES
----------------------
   0 C :    0.175706
   1 C :   -0.214760
   2 C :   -0.217288
   3 C :   -0.027314
   4 O :   -0.326710
   5 H :    0.104601
   6 H :    0.110828
   7 H :    0.123462
   8 H :    0.110817
   9 H :    0.117789
  10 H :    0.104081
  11 H :    0.099682
  12 C :   -0.042839
  13 H :    0.102096
  14 H :    0.104225
  15 O :   -0.325813
  16 C :    0.001750
  17 C :    0.038579
  18 C :   -0.240318
  19 C :   -0.028432
  20 O :   -0.325014
  21 H :    0.116698
  22 H :    0.120073
  23 O :   -0.403190
  24 H :    0.123732
  25 H :    0.105324
  26 H :    0.105270
  27 H :    0.107387
  28 H :    0.279579

  Mayer bond orders larger than 0.100000
B(  0-C ,  1-C ) :   0.9468 B(  0-C ,  4-O ) :   0.9101 B(  0-C ,  5-H ) :   0.9088
B(  0-C , 15-O ) :   0.8488 B(  1-C ,  2-C ) :   0.9570 B(  1-C ,  6-H ) :   0.9401
B(  1-C ,  7-H ) :   0.9372 B(  2-C ,  3-C ) :   0.9541 B(  2-C ,  8-H ) :   0.9459
B(  2-C ,  9-H ) :   0.9444 B(  3-C ,  4-O ) :   0.8429 B(  3-C , 10-H ) :   0.9357
B(  3-C , 11-H ) :   0.9404 B( 12-C , 13-H ) :   0.9027 B( 12-C , 14-H ) :   0.9345
B( 12-C , 15-O ) :   0.8569 B( 12-C , 16-C ) :   0.9000 B( 16-C , 17-C ) :   0.8672
B( 16-C , 20-O ) :   0.8511 B( 16-C , 21-H ) :   0.9213 B( 17-C , 18-C ) :   0.9227
B( 17-C , 22-H ) :   0.9330 B( 17-C , 23-O ) :   0.9059 B( 18-C , 19-C ) :   0.9398
B( 18-C , 24-H ) :   0.9417 B( 18-C , 25-H ) :   0.9403 B( 19-C , 20-O ) :   0.8420
B( 19-C , 26-H ) :   0.9316 B( 19-C , 27-H ) :   0.9377 B( 23-O , 28-H ) :   0.7963

FINAL SINGLE POINT ENERGY      -652.854417170302

DIPOLE MOMENT
-------------
                                X             Y             Z
Electronic contribution:      0.23869      -3.89973       0.41487
Nuclear contribution   :     -1.05573       4.50893      -1.07369
                        -----------------------------------------
Total Dipole Moment    :     -0.81704       0.60920      -0.65882
                        -----------------------------------------
Magnitude (a.u.)       :      1.21356
Magnitude (Debye)      :      3.08462

Rotational constants in cm-1:     0.059492     0.012892     0.011534
Rotational constants in MHz :  1783.516502   386.496653   345.793646

                             ****ORCA TERMINATED NORMALLY****
TOTAL RUN TIME: 0 days 0 hours 24 minutes 53 seconds 216 msec
