                         Program Version 4.2.0 -  RELEASE  -
|  1> # Test redundant internal optimization
|  2> #
|  3> ! RKS B3LYP  Opt TightSCF SmallPrint
|  4>
|  5> %basis
|  6>         Basis "6-31G"
|  7> end
|  8>
|  9> %geom
| 10> Constraints
| 11> { D 4  0  15  12  300.0   C } # D for Dihedral angle
| 12> { D 0  15  12  16  60.0   C } # D for Dihedral angle
| 13> { D 0  4  3  2   C } # D for Dihedral angle
| 14> { D 4  3  2  1   C } # D for Dihedral angle
| 15> { D 3  2  1  0   C } # D for Dihedral angle
| 16> { D 2  1  0  4   C } # D for Dihedral angle
| 17> { D 1  0  4  3   C } # D for Dihedral angle
| 18> { D 16  20  19  18   C } # D for Dihedral angle
| 19> { D 20  19  18  17   C } # D for Dihedral angle
| 20> { D 19  18  17  16   C } # D for Dihedral angle
| 21> { D 18  17  16  20   C } # D for Dihedral angle
| 22> { D 17  16  20  19   C } # D for Dihedral angle
| 23> { D 15  12  16  20   C } # D for Dihedral angle
| 24> end
| 25> end
| 26>
| 27>
| 28> #%pal
| 29> #nprocs 8
| 30> #end
| 31>
| 32> * xyz 0 1
| 33> C  -21.048   26.222   46.251
| 34> C  -20.361   27.558   45.944
| 35> C  -20.329   28.222   47.341
| 36> C  -20.110   27.022   48.296
| 37> O  -20.473   25.807   47.535
| 38> H  -20.833   25.428   45.533
| 39> H  -19.344   27.382   45.576
| 40> H  -20.898   28.157   45.201
| 41> H  -19.543   28.978   47.434
| 42> H  -21.289   28.710   47.548
| 43> H  -20.733   27.082   49.195
| 44> H  -19.064   26.913   48.597
| 45> C  -23.362   25.116   46.798
| 46> H  -24.434   25.343   46.847
| 47> H  -23.214   24.316   46.061
| 48> O  -22.586   26.394   46.375
| 49> C  -22.914   24.573   48.183
| 50> C  -23.615   23.251   48.515
| 51> C  -22.792   22.241   47.680
| 52> C  -21.355   22.816   47.749
| 53> O  -21.488   24.230   48.162
| 54> H  -23.044   25.355   48.933
| 55> H  -23.523   23.034   49.585
| 56> O  -25.123   23.250   48.144
| 57> H  -22.852   21.219   48.070
| 58> H  -23.153   22.226   46.645
| 59> H  -20.839   22.772   46.784
| 60> H  -20.741   22.316   48.503
| 61> H  -25.241   23.464   47.077
| 62> *
| 63>
| 64>                          ****END OF INPUT****
 Total Charge           Charge          ....    0
 Multiplicity           Mult            ....    1
 Number of Electrons    NEL             ....  102
FINAL SINGLE POINT ENERGY      -652.778086740151
FINAL SINGLE POINT ENERGY      -652.820734128753
FINAL SINGLE POINT ENERGY      -652.842939315533
FINAL SINGLE POINT ENERGY      -652.847766753510
FINAL SINGLE POINT ENERGY      -652.848529918159
FINAL SINGLE POINT ENERGY      -652.848707720800
FINAL SINGLE POINT ENERGY      -652.848730834637
FINAL SINGLE POINT ENERGY      -652.848737525423
                    ***********************HURRAY********************

CARTESIAN COORDINATES (ANGSTROEM)
---------------------------------
  C    -20.881131   26.313648   46.231565
  C    -20.535763   27.769498   45.925181
  C    -20.438028   28.379636   47.342959
  C    -19.843301   27.224413   48.177342
  O    -20.069263   25.993045   47.374410
  H    -20.607150   25.581878   45.462673
  H    -19.566936   27.806927   45.413216
  H    -21.289669   28.250448   45.299058
  H    -19.816002   29.279479   47.372276
  H    -21.439586   28.637643   47.698175
  H    -20.323234   27.100586   49.151270
  H    -18.761311   27.310608   48.317208
  C    -23.092839   25.136146   46.847735
  H    -24.115808   25.522282   46.880855
  H    -23.040511   24.384103   46.037205
  O    -22.315272   26.288307   46.430756
  C    -22.831247   24.432931   48.188617
  C    -23.768332   23.229773   48.393685
  C    -22.985097   22.083642   47.677896
  C    -21.514747   22.445114   47.979303
  O    -21.502296   23.875317   48.382963
  H    -22.949735   25.172423   48.988323
  H    -23.848661   23.019678   49.462280
  O    -25.137156   23.407687   47.956065
  H    -23.269812   21.097157   48.052274
  H    -23.194335   22.112332   46.600480
  H    -20.853631   22.313808   47.117205
  H    -21.112568   21.873119   48.820846
  H    -25.197579   23.355373   46.980179

 Multiplicity           Mult            ....    1
 Number of Electrons    NEL             ....  102
 Basis Dimension        Dim             ....  149

ORBITAL ENERGIES
----------------

  NO   OCC          E(Eh)            E(eV)
   0   2.0000     -19.149283      -521.0785
   1   2.0000     -19.136167      -520.7216
   2   2.0000     -19.131557      -520.5961
   3   2.0000     -19.128031      -520.5002
   4   2.0000     -10.271109      -279.4911
   5   2.0000     -10.244064      -278.7551
   6   2.0000     -10.230283      -278.3802
   7   2.0000     -10.227847      -278.3139
   8   2.0000     -10.226204      -278.2691
   9   2.0000     -10.215452      -277.9766
  10   2.0000     -10.193569      -277.3811
  11   2.0000     -10.177171      -276.9349
  12   2.0000     -10.176771      -276.9240
  13   2.0000      -1.042058       -28.3558
  14   2.0000      -1.031480       -28.0680
  15   2.0000      -1.011978       -27.5373
  16   2.0000      -0.986048       -26.8317
  17   2.0000      -0.783187       -21.3116
  18   2.0000      -0.778413       -21.1817
  19   2.0000      -0.762419       -20.7465
  20   2.0000      -0.727222       -19.7887
  21   2.0000      -0.676387       -18.4054
  22   2.0000      -0.609723       -16.5914
  23   2.0000      -0.595245       -16.1974
  24   2.0000      -0.589278       -16.0351
  25   2.0000      -0.564095       -15.3498
  26   2.0000      -0.523034       -14.2325
  27   2.0000      -0.510767       -13.8987
  28   2.0000      -0.492619       -13.4048
  29   2.0000      -0.478021       -13.0076
  30   2.0000      -0.460329       -12.5262
  31   2.0000      -0.454353       -12.3636
  32   2.0000      -0.444053       -12.0833
  33   2.0000      -0.426659       -11.6100
  34   2.0000      -0.421231       -11.4623
  35   2.0000      -0.413229       -11.2445
  36   2.0000      -0.403787       -10.9876
  37   2.0000      -0.391755       -10.6602
  38   2.0000      -0.379440       -10.3251
  39   2.0000      -0.363068        -9.8796
  40   2.0000      -0.350806        -9.5459
  41   2.0000      -0.348434        -9.4814
  42   2.0000      -0.337987        -9.1971
  43   2.0000      -0.330486        -8.9930
  44   2.0000      -0.319096        -8.6830
  45   2.0000      -0.310931        -8.4609
  46   2.0000      -0.279310        -7.6004
  47   2.0000      -0.269973        -7.3463
  48   2.0000      -0.260790        -7.0965
  49   2.0000      -0.250851        -6.8260
  50   2.0000      -0.225216        -6.1284
  51   0.0000       0.052312         1.4235
  52   0.0000       0.078091         2.1250
  53   0.0000       0.090731         2.4689
  54   0.0000       0.098049         2.6680
  55   0.0000       0.111637         3.0378

MULLIKEN ATOMIC CHARGES
-----------------------
   0 C :    0.308784
   1 C :   -0.262805
   2 C :   -0.297814
   3 C :   -0.010512
   4 O :   -0.482367
   5 H :    0.132494
   6 H :    0.141654
   7 H :    0.154602
   8 H :    0.136471
   9 H :    0.158466
  10 H :    0.148203
  11 H :    0.141974
  12 C :    0.001833
  13 H :    0.160182
  14 H :    0.100430
  15 O :   -0.541864
  16 C :    0.087432
  17 C :    0.078928
  18 C :   -0.317106
  19 C :   -0.017143
  20 O :   -0.485140
  21 H :    0.153414
  22 H :    0.168983
  23 O :   -0.599106
  24 H :    0.153798
  25 H :    0.133001
  26 H :    0.147513
  27 H :    0.149615
  28 H :    0.356078
Sum of atomic charges:   -0.0000000

LOEWDIN ATOMIC CHARGES
----------------------
   0 C :    0.180113
   1 C :   -0.215372
   2 C :   -0.217379
   3 C :   -0.030141
   4 O :   -0.304519
   5 H :    0.091202
   6 H :    0.111680
   7 H :    0.122474
   8 H :    0.111432
   9 H :    0.117172
  10 H :    0.105606
  11 H :    0.102040
  12 C :   -0.045470
  13 H :    0.120578
  14 H :    0.077474
  15 O :   -0.334260
  16 C :    0.008352
  17 C :    0.034671
  18 C :   -0.241373
  19 C :   -0.031903
  20 O :   -0.300731
  21 H :    0.112558
  22 H :    0.119760
  23 O :   -0.406971
  24 H :    0.121220
  25 H :    0.103420
  26 H :    0.104256
  27 H :    0.105865
  28 H :    0.278247

  Mayer bond orders larger than 0.100000
B(  0-C ,  1-C ) :   0.9440 B(  0-C ,  4-O ) :   0.9316 B(  0-C ,  5-H ) :   0.9247
B(  0-C , 15-O ) :   0.8364 B(  1-C ,  2-C ) :   0.9594 B(  1-C ,  6-H ) :   0.9407
B(  1-C ,  7-H ) :   0.9365 B(  2-C ,  3-C ) :   0.9535 B(  2-C ,  8-H ) :   0.9454
B(  2-C ,  9-H ) :   0.9447 B(  3-C ,  4-O ) :   0.8424 B(  3-C , 10-H ) :   0.9341
B(  3-C , 11-H ) :   0.9401 B( 12-C , 13-H ) :   0.9192 B( 12-C , 14-H ) :   0.9225
B( 12-C , 15-O ) :   0.8616 B( 12-C , 16-C ) :   0.8838 B( 16-C , 17-C ) :   0.8639
B( 16-C , 20-O ) :   0.8780 B( 16-C , 21-H ) :   0.9306 B( 17-C , 18-C ) :   0.9229
B( 17-C , 22-H ) :   0.9334 B( 17-C , 23-O ) :   0.8976 B( 18-C , 19-C ) :   0.9385
B( 18-C , 24-H ) :   0.9424 B( 18-C , 25-H ) :   0.9400 B( 19-C , 20-O ) :   0.8530
B( 19-C , 26-H ) :   0.9301 B( 19-C , 27-H ) :   0.9372 B( 23-O , 28-H ) :   0.7978

FINAL SINGLE POINT ENERGY      -652.848738492835

DIPOLE MOMENT
-------------
                                X             Y             Z
Electronic contribution:     -1.43251      -1.30767       0.91227
Nuclear contribution   :      1.50889       1.03028      -1.48711
                        -----------------------------------------
Total Dipole Moment    :      0.07638      -0.27740      -0.57483
                        -----------------------------------------
Magnitude (a.u.)       :      0.64282
Magnitude (Debye)      :      1.63392

Rotational constants in cm-1:     0.054904     0.014799     0.013279
Rotational constants in MHz :  1645.990518   443.663368   398.088111

                             ****ORCA TERMINATED NORMALLY****
TOTAL RUN TIME: 0 days 1 hours 22 minutes 48 seconds 580 msec
