                         Program Version 4.2.0 -  RELEASE  -
|  1> # Test redundant internal optimization
|  2> #
|  3> ! RKS B3LYP  Opt TightSCF SmallPrint
|  4>
|  5> %basis
|  6>         Basis "6-31G"
|  7> end
|  8>
|  9> %geom
| 10> Constraints
| 11> { D 4  0  15  12  90.0   C } # D for Dihedral angle
| 12> { D 0  15  12  16  60.0   C } # D for Dihedral angle
| 13> { D 0  4  3  2   C } # D for Dihedral angle
| 14> { D 4  3  2  1   C } # D for Dihedral angle
| 15> { D 3  2  1  0   C } # D for Dihedral angle
| 16> { D 2  1  0  4   C } # D for Dihedral angle
| 17> { D 1  0  4  3   C } # D for Dihedral angle
| 18> { D 16  20  19  18   C } # D for Dihedral angle
| 19> { D 20  19  18  17   C } # D for Dihedral angle
| 20> { D 19  18  17  16   C } # D for Dihedral angle
| 21> { D 18  17  16  20   C } # D for Dihedral angle
| 22> { D 17  16  20  19   C } # D for Dihedral angle
| 23> { D 15  12  16  20   C } # D for Dihedral angle
| 24> end
| 25> end
| 26>
| 27>
| 28> #%pal
| 29> #nprocs 8
| 30> #end
| 31>
| 32> * xyz 0 1
| 33> C  -21.048   26.222   46.251
| 34> C  -20.361   27.558   45.944
| 35> C  -20.329   28.222   47.341
| 36> C  -20.110   27.022   48.296
| 37> O  -20.473   25.807   47.535
| 38> H  -20.833   25.428   45.533
| 39> H  -19.344   27.382   45.576
| 40> H  -20.898   28.157   45.201
| 41> H  -19.543   28.978   47.434
| 42> H  -21.289   28.710   47.548
| 43> H  -20.733   27.082   49.195
| 44> H  -19.064   26.913   48.597
| 45> C  -23.061   27.816   46.783
| 46> H  -24.156   27.826   46.851
| 47> H  -22.654   28.089   47.765
| 48> O  -22.586   26.394   46.375
| 49> C  -22.623   28.909   45.770
| 50> C  -23.287   28.699   44.404
| 51> C  -24.702   29.276   44.651
| 52> C  -24.436   30.456   45.619
| 53> O  -23.097   30.228   46.203
| 54> H  -21.533   28.954   45.741
| 55> H  -22.761   29.280   43.637
| 56> O  -23.312   27.211   43.959
| 57> H  -25.196   29.596   43.728
| 58> H  -25.337   28.520   45.127
| 59> H  -25.174   30.511   46.425
| 60> H  -24.403   31.419   45.103
| 61> H  -23.834   26.611   44.712
| 62> *
| 63>
| 64>                          ****END OF INPUT****
 Total Charge           Charge          ....    0
 Multiplicity           Mult            ....    1
 Number of Electrons    NEL             ....  102
FINAL SINGLE POINT ENERGY      -652.758227327119
FINAL SINGLE POINT ENERGY      -652.823258854486
FINAL SINGLE POINT ENERGY      -652.845728164822
FINAL SINGLE POINT ENERGY      -652.851762882281
FINAL SINGLE POINT ENERGY      -652.852923063220
FINAL SINGLE POINT ENERGY      -652.853195716720
FINAL SINGLE POINT ENERGY      -652.853262226840
FINAL SINGLE POINT ENERGY      -652.853272171162
FINAL SINGLE POINT ENERGY      -652.853272288439
                    ***********************HURRAY********************

CARTESIAN COORDINATES (ANGSTROEM)
---------------------------------
  C    -21.191505   26.274252   46.449307
  C    -20.155839   27.294799   45.963021
  C    -19.828533   28.074690   47.268581
  C    -19.921076   26.968952   48.349136
  O    -20.687196   25.859453   47.733792
  H    -21.227121   25.371290   45.839614
  H    -19.275482   26.732779   45.632438
  H    -20.497410   27.903707   45.125869
  H    -18.837104   28.536092   47.237597
  H    -20.556179   28.870764   47.455253
  H    -20.435615   27.295762   49.257207
  H    -18.941100   26.565704   48.619412
  C    -23.200758   27.943824   46.788806
  H    -24.273253   27.735998   46.757025
  H    -22.955702   28.261085   47.810156
  O    -22.604382   26.629400   46.509964
  C    -22.849707   29.095847   45.833075
  C    -23.348378   28.894186   44.392083
  C    -24.855832   29.252108   44.529067
  C    -24.858141   30.379817   45.581410
  O    -23.544679   30.298030   46.292912
  H    -21.790346   29.340249   45.872509
  H    -22.855144   29.606976   43.725476
  O    -23.073328   27.587866   43.839951
  H    -25.286758   29.564368   43.574291
  H    -25.409621   28.370491   44.870764
  H    -25.662386   30.286566   46.317308
  H    -24.904522   31.375035   45.130942
  H    -23.149902   26.905911   44.547032

 Multiplicity           Mult            ....    1
 Number of Electrons    NEL             ....  102
 Basis Dimension        Dim             ....  149

ORBITAL ENERGIES
----------------

  NO   OCC          E(Eh)            E(eV)
   0   2.0000     -19.156561      -521.2765
   1   2.0000     -19.147966      -521.0427
   2   2.0000     -19.144718      -520.9543
   3   2.0000     -19.133112      -520.6385
   4   2.0000     -10.287442      -279.9355
   5   2.0000     -10.241164      -278.6762
   6   2.0000     -10.240665      -278.6627
   7   2.0000     -10.239141      -278.6212
   8   2.0000     -10.233652      -278.4718
   9   2.0000     -10.231911      -278.4244
  10   2.0000     -10.197461      -277.4870
  11   2.0000     -10.196432      -277.4590
  12   2.0000     -10.188689      -277.2483
  13   2.0000      -1.056286       -28.7430
  14   2.0000      -1.032639       -28.0995
  15   2.0000      -1.010436       -27.4954
  16   2.0000      -0.998901       -27.1815
  17   2.0000      -0.794214       -21.6117
  18   2.0000      -0.781894       -21.2764
  19   2.0000      -0.774726       -21.0814
  20   2.0000      -0.741231       -20.1699
  21   2.0000      -0.687295       -18.7022
  22   2.0000      -0.610636       -16.6162
  23   2.0000      -0.607727       -16.5371
  24   2.0000      -0.605653       -16.4807
  25   2.0000      -0.576649       -15.6914
  26   2.0000      -0.537930       -14.6378
  27   2.0000      -0.510496       -13.8913
  28   2.0000      -0.505120       -13.7450
  29   2.0000      -0.490508       -13.3474
  30   2.0000      -0.474403       -12.9092
  31   2.0000      -0.460734       -12.5372
  32   2.0000      -0.449955       -12.2439
  33   2.0000      -0.438361       -11.9284
  34   2.0000      -0.427344       -11.6286
  35   2.0000      -0.419438       -11.4135
  36   2.0000      -0.415876       -11.3166
  37   2.0000      -0.402764       -10.9598
  38   2.0000      -0.391031       -10.6405
  39   2.0000      -0.373257       -10.1568
  40   2.0000      -0.366998        -9.9865
  41   2.0000      -0.356228        -9.6935
  42   2.0000      -0.355025        -9.6607
  43   2.0000      -0.342161        -9.3107
  44   2.0000      -0.320132        -8.7112
  45   2.0000      -0.313199        -8.5226
  46   2.0000      -0.300847        -8.1865
  47   2.0000      -0.282710        -7.6929
  48   2.0000      -0.262370        -7.1395
  49   2.0000      -0.260552        -7.0900
  50   2.0000      -0.244808        -6.6616
  51   0.0000       0.052720         1.4346
  52   0.0000       0.067956         1.8492
  53   0.0000       0.083495         2.2720
  54   0.0000       0.092273         2.5109
  55   0.0000       0.102234         2.7819

MULLIKEN ATOMIC CHARGES
-----------------------
   0 C :    0.312063
   1 C :   -0.300114
   2 C :   -0.321631
   3 C :   -0.009421
   4 O :   -0.498446
   5 H :    0.170566
   6 H :    0.161176
   7 H :    0.166205
   8 H :    0.150121
   9 H :    0.159155
  10 H :    0.149010
  11 H :    0.149076
  12 C :   -0.035672
  13 H :    0.165272
  14 H :    0.157120
  15 O :   -0.546464
  16 C :    0.046606
  17 C :    0.107018
  18 C :   -0.311566
  19 C :   -0.017355
  20 O :   -0.522388
  21 H :    0.158525
  22 H :    0.155692
  23 O :   -0.626201
  24 H :    0.155760
  25 H :    0.148491
  26 H :    0.146742
  27 H :    0.150187
  28 H :    0.380474
Sum of atomic charges:    0.0000000

LOEWDIN ATOMIC CHARGES
----------------------
   0 C :    0.179237
   1 C :   -0.234271
   2 C :   -0.225102
   3 C :   -0.030841
   4 O :   -0.313039
   5 H :    0.115189
   6 H :    0.126470
   7 H :    0.123807
   8 H :    0.118895
   9 H :    0.112153
  10 H :    0.105092
  11 H :    0.105417
  12 C :   -0.050550
  13 H :    0.117461
  14 H :    0.109388
  15 O :   -0.334297
  16 C :   -0.000941
  17 C :    0.038004
  18 C :   -0.239466
  19 C :   -0.030902
  20 O :   -0.322496
  21 H :    0.112566
  22 H :    0.111739
  23 O :   -0.423653
  24 H :    0.123367
  25 H :    0.112351
  26 H :    0.104356
  27 H :    0.107116
  28 H :    0.282951

  Mayer bond orders larger than 0.100000
B(  0-C ,  1-C ) :   0.9235 B(  0-C ,  4-O ) :   0.9192 B(  0-C ,  5-H ) :   0.9340
B(  0-C , 15-O ) :   0.8475 B(  1-C ,  2-C ) :   0.9504 B(  1-C ,  6-H ) :   0.9302
B(  1-C ,  7-H ) :   0.9181 B(  2-C ,  3-C ) :   0.9433 B(  2-C ,  8-H ) :   0.9451
B(  2-C ,  9-H ) :   0.9327 B(  3-C ,  4-O ) :   0.8430 B(  3-C , 10-H ) :   0.9347
B(  3-C , 11-H ) :   0.9384 B( 12-C , 13-H ) :   0.9363 B( 12-C , 14-H ) :   0.9224
B( 12-C , 15-O ) :   0.8118 B( 12-C , 16-C ) :   0.8767 B( 16-C , 17-C ) :   0.8995
B( 16-C , 20-O ) :   0.8404 B( 16-C , 21-H ) :   0.9167 B( 17-C , 18-C ) :   0.9054
B( 17-C , 22-H ) :   0.9342 B( 17-C , 23-O ) :   0.9218 B( 18-C , 19-C ) :   0.9378
B( 18-C , 24-H ) :   0.9434 B( 18-C , 25-H ) :   0.9420 B( 19-C , 20-O ) :   0.8332
B( 19-C , 26-H ) :   0.9336 B( 19-C , 27-H ) :   0.9387 B( 23-O , 28-H ) :   0.7405

FINAL SINGLE POINT ENERGY      -652.853265690247

DIPOLE MOMENT
-------------
                                X             Y             Z
Electronic contribution:     -0.86206      -3.20154       0.11873
Nuclear contribution   :      1.06356       4.01254      -0.06687
                        -----------------------------------------
Total Dipole Moment    :      0.20150       0.81100       0.05186
                        -----------------------------------------
Magnitude (a.u.)       :      0.83727
Magnitude (Debye)      :      2.12816

Rotational constants in cm-1:     0.052922     0.015787     0.014506
Rotational constants in MHz :  1586.547040   473.294513   434.891326

                             ****ORCA TERMINATED NORMALLY****
TOTAL RUN TIME: 0 days 0 hours 59 minutes 2 seconds 735 msec
