                         Program Version 4.2.0 -  RELEASE  -
|  1> # Test redundant internal optimization
|  2> #
|  3> ! RKS B3LYP  Opt TightSCF SmallPrint
|  4>
|  5> %basis
|  6>         Basis "6-31G"
|  7> end
|  8>
|  9> %geom
| 10> Constraints
| 11> { D 4  0  15  12  165.0   C } # D for Dihedral angle
| 12> { D 0  15  12  16  225.0   C } # D for Dihedral angle
| 13> { D 0  4  3  2   C } # D for Dihedral angle
| 14> { D 4  3  2  1   C } # D for Dihedral angle
| 15> { D 3  2  1  0   C } # D for Dihedral angle
| 16> { D 2  1  0  4   C } # D for Dihedral angle
| 17> { D 1  0  4  3   C } # D for Dihedral angle
| 18> { D 16  20  19  18   C } # D for Dihedral angle
| 19> { D 20  19  18  17   C } # D for Dihedral angle
| 20> { D 19  18  17  16   C } # D for Dihedral angle
| 21> { D 18  17  16  20   C } # D for Dihedral angle
| 22> { D 17  16  20  19   C } # D for Dihedral angle
| 23> { D 15  12  16  20   C } # D for Dihedral angle
| 24> end
| 25> end
| 26>
| 27>
| 28> #%pal
| 29> #nprocs 8
| 30> #end
| 31>
| 32> * xyz 0 1
| 33> C  -21.048   26.222   46.251
| 34> C  -20.361   27.558   45.944
| 35> C  -20.329   28.222   47.341
| 36> C  -20.110   27.022   48.296
| 37> O  -20.473   25.807   47.535
| 38> H  -20.833   25.428   45.533
| 39> H  -19.344   27.382   45.576
| 40> H  -20.898   28.157   45.201
| 41> H  -19.543   28.978   47.434
| 42> H  -21.289   28.710   47.548
| 43> H  -20.733   27.082   49.195
| 44> H  -19.064   26.913   48.597
| 45> C  -23.260   27.170   45.210
| 46> H  -22.488   27.686   44.625
| 47> H  -23.790   26.478   44.544
| 48> O  -22.586   26.394   46.375
| 49> C  -24.285   28.227   45.707
| 50> C  -25.348   27.590   46.610
| 51> C  -24.588   27.471   47.953
| 52> C  -23.693   28.736   47.963
| 53> O  -23.627   29.216   46.566
| 54> H  -24.687   28.766   44.847
| 55> O  -26.566   28.543   46.752
| 56> H  -25.707   26.624   46.238
| 57> H  -25.258   27.427   48.817
| 58> H  -23.973   26.563   47.958
| 59> H  -22.679   28.530   48.321
| 60> H  -24.122   29.546   48.561
| 61> H  -26.230   29.517   47.124
| 62> *
| 63>
| 64>                          ****END OF INPUT****
 Total Charge           Charge          ....    0
 Multiplicity           Mult            ....    1
 Number of Electrons    NEL             ....  102
FINAL SINGLE POINT ENERGY      -652.826096293291
FINAL SINGLE POINT ENERGY      -652.848984722484
FINAL SINGLE POINT ENERGY      -652.855229367107
FINAL SINGLE POINT ENERGY      -652.858263537459
FINAL SINGLE POINT ENERGY      -652.858652229028
FINAL SINGLE POINT ENERGY      -652.858706975798
FINAL SINGLE POINT ENERGY      -652.858711524296
                    ***********************HURRAY********************

CARTESIAN COORDINATES (ANGSTROEM)
---------------------------------
  C    -21.051908   26.287779   46.161890
  C    -20.237306   27.549715   45.880390
  C    -20.215367   28.236409   47.270030
  C    -20.152665   27.039116   48.240106
  O    -20.590523   25.857868   47.448799
  H    -20.853529   25.465525   45.466629
  H    -19.231610   27.238294   45.576672
  H    -20.639617   28.197745   45.098815
  H    -19.358535   28.907147   47.387000
  H    -21.128736   28.821128   47.393994
  H    -20.813072   27.142961   49.105529
  H    -19.137675   26.823518   48.585184
  C    -23.217592   27.188075   45.232437
  H    -22.521368   27.755232   44.605383
  H    -23.750805   26.476532   44.584759
  O    -22.505266   26.453890   46.264941
  C    -24.227477   28.171113   45.823852
  C    -25.363971   27.575752   46.668622
  C    -24.703915   27.495946   48.069352
  C    -23.797195   28.747156   48.105743
  O    -23.620864   29.182091   46.693083
  H    -24.661618   28.717952   44.977029
  O    -26.530336   28.447453   46.649602
  H    -25.721536   26.612479   46.305147
  H    -25.460577   27.491883   48.858684
  H    -24.099661   26.588048   48.130717
  H    -22.819027   28.540713   48.542545
  H    -24.251513   29.590048   48.637981
  H    -26.248736   29.363431   46.857085

 Multiplicity           Mult            ....    1
 Number of Electrons    NEL             ....  102
 Basis Dimension        Dim             ....  149

ORBITAL ENERGIES
----------------

  NO   OCC          E(Eh)            E(eV)
   0   2.0000     -19.145768      -520.9828
   1   2.0000     -19.144406      -520.9458
   2   2.0000     -19.143471      -520.9203
   3   2.0000     -19.135328      -520.6988
   4   2.0000     -10.283232      -279.8210
   5   2.0000     -10.236872      -278.5595
   6   2.0000     -10.236235      -278.5421
   7   2.0000     -10.235575      -278.5242
   8   2.0000     -10.228008      -278.3183
   9   2.0000     -10.227359      -278.3006
  10   2.0000     -10.191206      -277.3168
  11   2.0000     -10.186221      -277.1812
  12   2.0000     -10.176828      -276.9256
  13   2.0000      -1.054885       -28.7049
  14   2.0000      -1.034720       -28.1562
  15   2.0000      -1.004903       -27.3448
  16   2.0000      -0.994299       -27.0562
  17   2.0000      -0.789102       -21.4726
  18   2.0000      -0.779372       -21.2078
  19   2.0000      -0.766732       -20.8638
  20   2.0000      -0.735847       -20.0234
  21   2.0000      -0.678757       -18.4699
  22   2.0000      -0.606248       -16.4968
  23   2.0000      -0.598392       -16.2831
  24   2.0000      -0.598341       -16.2817
  25   2.0000      -0.572823       -15.5873
  26   2.0000      -0.527231       -14.3467
  27   2.0000      -0.506373       -13.7791
  28   2.0000      -0.497915       -13.5490
  29   2.0000      -0.492988       -13.4149
  30   2.0000      -0.476311       -12.9611
  31   2.0000      -0.459625       -12.5070
  32   2.0000      -0.448821       -12.2130
  33   2.0000      -0.445943       -12.1347
  34   2.0000      -0.419396       -11.4123
  35   2.0000      -0.413267       -11.2456
  36   2.0000      -0.405899       -11.0451
  37   2.0000      -0.392830       -10.6894
  38   2.0000      -0.377550       -10.2737
  39   2.0000      -0.367965       -10.0128
  40   2.0000      -0.359662        -9.7869
  41   2.0000      -0.357560        -9.7297
  42   2.0000      -0.350316        -9.5326
  43   2.0000      -0.330319        -8.9885
  44   2.0000      -0.317061        -8.6277
  45   2.0000      -0.309305        -8.4166
  46   2.0000      -0.298468        -8.1217
  47   2.0000      -0.272432        -7.4133
  48   2.0000      -0.263322        -7.1654
  49   2.0000      -0.258378        -7.0308
  50   2.0000      -0.244495        -6.6530
  51   0.0000       0.063258         1.7213
  52   0.0000       0.082027         2.2321
  53   0.0000       0.094004         2.5580
  54   0.0000       0.100574         2.7368
  55   0.0000       0.102184         2.7806

MULLIKEN ATOMIC CHARGES
-----------------------
   0 C :    0.318137
   1 C :   -0.291989
   2 C :   -0.317157
   3 C :   -0.006763
   4 O :   -0.501165
   5 H :    0.146068
   6 H :    0.151581
   7 H :    0.153329
   8 H :    0.142211
   9 H :    0.185986
  10 H :    0.147873
  11 H :    0.144269
  12 C :   -0.009607
  13 H :    0.134859
  14 H :    0.137127
  15 O :   -0.525928
  16 C :    0.077371
  17 C :    0.077296
  18 C :   -0.288436
  19 C :   -0.031813
  20 O :   -0.530834
  21 H :    0.153723
  22 O :   -0.601841
  23 H :    0.154942
  24 H :    0.150112
  25 H :    0.186317
  26 H :    0.144364
  27 H :    0.138938
  28 H :    0.361028
Sum of atomic charges:   -0.0000000

LOEWDIN ATOMIC CHARGES
----------------------
   0 C :    0.185294
   1 C :   -0.230755
   2 C :   -0.222705
   3 C :   -0.027652
   4 O :   -0.303866
   5 H :    0.097274
   6 H :    0.118938
   7 H :    0.117826
   8 H :    0.115007
   9 H :    0.126796
  10 H :    0.103469
  11 H :    0.104228
  12 C :   -0.039460
  13 H :    0.100920
  14 H :    0.101349
  15 O :   -0.339454
  16 C :    0.011780
  17 C :    0.039621
  18 C :   -0.240592
  19 C :   -0.036259
  20 O :   -0.334522
  21 H :    0.114684
  22 O :   -0.416832
  23 H :    0.118085
  24 H :    0.119992
  25 H :    0.136599
  26 H :    0.102333
  27 H :    0.097099
  28 H :    0.280803

  Mayer bond orders larger than 0.100000
B(  0-C ,  1-C ) :   0.9296 B(  0-C ,  4-O ) :   0.9376 B(  0-C ,  5-H ) :   0.9250
B(  0-C , 15-O ) :   0.8277 B(  1-C ,  2-C ) :   0.9497 B(  1-C ,  6-H ) :   0.9327
B(  1-C ,  7-H ) :   0.9250 B(  2-C ,  3-C ) :   0.9555 B(  2-C ,  8-H ) :   0.9449
B(  2-C ,  9-H ) :   0.9202 B(  3-C ,  4-O ) :   0.8351 B(  3-C , 10-H ) :   0.9307
B(  3-C , 11-H ) :   0.9385 B( 12-C , 13-H ) :   0.9121 B( 12-C , 14-H ) :   0.9154
B( 12-C , 15-O ) :   0.8573 B( 12-C , 16-C ) :   0.8961 B( 16-C , 17-C ) :   0.9108
B( 16-C , 20-O ) :   0.8683 B( 16-C , 21-H ) :   0.9195 B( 17-C , 18-C ) :   0.9251
B( 17-C , 22-O ) :   0.8911 B( 17-C , 23-H ) :   0.9358 B( 18-C , 19-C ) :   0.9475
B( 18-C , 24-H ) :   0.9368 B( 18-C , 25-H ) :   0.9168 B( 19-C , 20-O ) :   0.8338
B( 19-C , 26-H ) :   0.9225 B( 19-C , 27-H ) :   0.9380 B( 22-O , 28-H ) :   0.7977

FINAL SINGLE POINT ENERGY      -652.858710590985

DIPOLE MOMENT
-------------
                                X             Y             Z
Electronic contribution:     -3.11620      -1.91337      -1.28775
Nuclear contribution   :      3.96250       2.51422       1.06504
                        -----------------------------------------
Total Dipole Moment    :      0.84631       0.60086      -0.22271
                        -----------------------------------------
Magnitude (a.u.)       :      1.06154
Magnitude (Debye)      :      2.69822

Rotational constants in cm-1:     0.053056     0.016417     0.015552
Rotational constants in MHz :  1590.576705   492.164306   466.227295

                             ****ORCA TERMINATED NORMALLY****
TOTAL RUN TIME: 0 days 1 hours 28 minutes 10 seconds 102 msec
