                         Program Version 4.2.1 -  RELEASE  -
|  1> # Test redundant internal optimization
|  2> #
|  3> ! RKS B3LYP  Opt TightSCF SmallPrint
|  4>
|  5> %basis
|  6>         Basis "6-31G"
|  7> end
|  8>
|  9> %geom
| 10> Constraints
| 11> { D 4  0  19  14  255.0   C } # D for Dihedral angle
| 12> { D 0  19  14  12  120.0   C } # D for Dihedral angle
| 13> { D 0  4  3  2   C } # D for Dihedral angle
| 14> { D 4  3  2  1   C } # D for Dihedral angle
| 15> { D 3  2  1  0   C } # D for Dihedral angle
| 16> { D 2  1  0  4   C } # D for Dihedral angle
| 17> { D 1  0  4  3   C } # D for Dihedral angle
| 18> { D 14  15  16  17   C } # D for Dihedral angle
| 19> { D 15  16  17  12   C } # D for Dihedral angle
| 20> { D 16  17  12  14   C } # D for Dihedral angle
| 21> { D 17  12  14  15   C } # D for Dihedral angle
| 22> { D 12  14  15  16   C } # D for Dihedral angle
| 23> end
| 24> end
| 25>
| 26>
| 27> #%pal
| 28> #nprocs 8
| 29> #end
| 30>
| 31> * xyz 0 1
| 32> C  -21.048   26.222   46.251
| 33> C  -20.361   27.558   45.944
| 34> C  -20.329   28.222   47.341
| 35> C  -20.110   27.022   48.296
| 36> O  -20.473   25.807   47.535
| 37> H  -20.833   25.428   45.533
| 38> H  -19.344   27.382   45.576
| 39> H  -20.898   28.157   45.201
| 40> H  -19.543   28.978   47.434
| 41> H  -21.289   28.710   47.548
| 42> H  -20.733   27.082   49.195
| 43> H  -19.064   26.913   48.597
| 44> C  -24.108   24.639   46.827
| 45> H  -24.475   23.662   46.475
| 46> C  -23.236   25.322   45.767
| 47> C  -24.303   25.895   44.805
| 48> C  -25.459   26.293   45.757
| 49> O  -25.229   25.565   47.024
| 50> H  -23.625   24.511   47.797
| 51> O  -22.472   26.381   46.366
| 52> H  -22.543   24.634   45.272
| 53> H  -23.935   26.743   44.218
| 54> H  -24.632   25.120   44.101
| 55> H  -26.443   26.020   45.360
| 56> H  -25.456   27.361   45.994
| 57> *
| 58>
| 59>                          ****END OF INPUT****
 Total Charge           Charge          ....    0
 Multiplicity           Mult            ....    1
 Number of Electrons    NEL             ....   86
FINAL SINGLE POINT ENERGY      -538.431411527315
FINAL SINGLE POINT ENERGY      -538.433767511001
FINAL SINGLE POINT ENERGY      -538.433998744724
FINAL SINGLE POINT ENERGY      -538.434032107362
FINAL SINGLE POINT ENERGY      -538.434038655226
FINAL SINGLE POINT ENERGY      -538.434040100734
                    ***********************HURRAY********************

CARTESIAN COORDINATES (ANGSTROEM)
---------------------------------
  C    -20.974102   26.178912   46.229749
  C    -20.381870   27.559571   45.943917
  C    -20.422606   28.220153   47.343248
  C    -20.135117   27.035183   48.292704
  O    -20.401831   25.807474   47.503219
  H    -20.704537   25.390171   45.519964
  H    -19.348251   27.446774   45.595786
  H    -20.954236   28.104863   45.190804
  H    -19.692407   29.027803   47.450738
  H    -21.421702   28.625913   47.527120
  H    -20.777204   27.030374   49.176821
  H    -19.087545   26.985740   48.605127
  C    -24.120559   24.637501   46.828921
  H    -24.543678   23.680540   46.487551
  C    -23.240768   25.259823   45.744378
  C    -24.294007   25.892405   44.812933
  C    -25.395778   26.364782   45.791543
  O    -25.173522   25.627596   47.053059
  H    -23.589425   24.496306   47.770808
  O    -22.409421   26.311906   46.315728
  H    -22.609889   24.520630   45.233591
  H    -23.865994   26.709210   44.226739
  H    -24.677227   25.130694   44.123507
  H    -26.405417   26.152181   45.422474
  H    -25.313909   27.430495   46.023572

 Multiplicity           Mult            ....    1
 Number of Electrons    NEL             ....   86
 Basis Dimension        Dim             ....  127

ORBITAL ENERGIES
----------------

  NO   OCC          E(Eh)            E(eV)
   0   2.0000     -19.140593      -520.8420
   1   2.0000     -19.135885      -520.7139
   2   2.0000     -19.124785      -520.4118
   3   2.0000     -10.279762      -279.7266
   4   2.0000     -10.241632      -278.6890
   5   2.0000     -10.221468      -278.1403
   6   2.0000     -10.218686      -278.0646
   7   2.0000     -10.217018      -278.0192
   8   2.0000     -10.185530      -277.1624
   9   2.0000     -10.183854      -277.1168
  10   2.0000     -10.182602      -277.0827
  11   2.0000      -1.051964       -28.6254
  12   2.0000      -1.011922       -27.5358
  13   2.0000      -0.989204       -26.9176
  14   2.0000      -0.790298       -21.5051
  15   2.0000      -0.775553       -21.1039
  16   2.0000      -0.737748       -20.0751
  17   2.0000      -0.719162       -19.5694
  18   2.0000      -0.605501       -16.4765
  19   2.0000      -0.598166       -16.2769
  20   2.0000      -0.593994       -16.1634
  21   2.0000      -0.580911       -15.8074
  22   2.0000      -0.520231       -14.1562
  23   2.0000      -0.502909       -13.6848
  24   2.0000      -0.480119       -13.0647
  25   2.0000      -0.474730       -12.9181
  26   2.0000      -0.449692       -12.2367
  27   2.0000      -0.444211       -12.0876
  28   2.0000      -0.428784       -11.6678
  29   2.0000      -0.412060       -11.2127
  30   2.0000      -0.405723       -11.0403
  31   2.0000      -0.385243       -10.4830
  32   2.0000      -0.370127       -10.0717
  33   2.0000      -0.363887        -9.9019
  34   2.0000      -0.354672        -9.6511
  35   2.0000      -0.351846        -9.5742
  36   2.0000      -0.342988        -9.3332
  37   2.0000      -0.317759        -8.6467
  38   2.0000      -0.306929        -8.3520
  39   2.0000      -0.298204        -8.1145
  40   2.0000      -0.266295        -7.2463
  41   2.0000      -0.247469        -6.7340
  42   2.0000      -0.229265        -6.2386
  43   0.0000       0.074938         2.0392
  44   0.0000       0.095626         2.6021
  45   0.0000       0.098108         2.6697
  46   0.0000       0.115286         3.1371
  47   0.0000       0.125725         3.4212

MULLIKEN ATOMIC CHARGES
-----------------------
   0 C :    0.281066
   1 C :   -0.253165
   2 C :   -0.299717
   3 C :   -0.000720
   4 O :   -0.506488
   5 H :    0.137588
   6 H :    0.142209
   7 H :    0.146371
   8 H :    0.139670
   9 H :    0.166341
  10 H :    0.152772
  11 H :    0.139490
  12 C :    0.013978
  13 H :    0.117949
  14 C :    0.063968
  15 C :   -0.287066
  16 C :    0.004770
  17 O :   -0.520019
  18 H :    0.171340
  19 O :   -0.512292
  20 H :    0.125359
  21 H :    0.151983
  22 H :    0.139810
  23 H :    0.132098
  24 H :    0.152706
Sum of atomic charges:   -0.0000000

LOEWDIN ATOMIC CHARGES
----------------------
   0 C :    0.174017
   1 C :   -0.218658
   2 C :   -0.216209
   3 C :   -0.026703
   4 O :   -0.324649
   5 H :    0.095695
   6 H :    0.112200
   7 H :    0.118445
   8 H :    0.112929
   9 H :    0.121189
  10 H :    0.108418
  11 H :    0.101112
  12 C :   -0.039047
  13 H :    0.088867
  14 C :    0.041579
  15 C :   -0.230023
  16 C :   -0.027839
  17 O :   -0.329274
  18 H :    0.124634
  19 O :   -0.322097
  20 H :    0.097685
  21 H :    0.121884
  22 H :    0.111627
  23 H :    0.096786
  24 H :    0.107432

  Mayer bond orders larger than 0.100000
B(  0-C ,  1-C ) :   0.9455 B(  0-C ,  4-O ) :   0.9235 B(  0-C ,  5-H ) :   0.9168
B(  0-C , 19-O ) :   0.8593 B(  1-C ,  2-C ) :   0.9584 B(  1-C ,  6-H ) :   0.9384
B(  1-C ,  7-H ) :   0.9382 B(  2-C ,  3-C ) :   0.9544 B(  2-C ,  8-H ) :   0.9453
B(  2-C ,  9-H ) :   0.9431 B(  3-C ,  4-O ) :   0.8376 B(  3-C , 10-H ) :   0.9346
B(  3-C , 11-H ) :   0.9401 B( 12-C , 13-H ) :   0.9124 B( 12-C , 14-C ) :   0.9266
B( 12-C , 17-O ) :   0.8697 B( 12-C , 18-H ) :   0.9306 B( 14-C , 15-C ) :   0.9463
B( 14-C , 19-O ) :   0.8286 B( 14-C , 20-H ) :   0.9187 B( 15-C , 16-C ) :   0.9475
B( 15-C , 21-H ) :   0.9403 B( 15-C , 22-H ) :   0.9398 B( 16-C , 17-O ) :   0.8583
B( 16-C , 23-H ) :   0.9335 B( 16-C , 24-H ) :   0.9360

FINAL SINGLE POINT ENERGY      -538.434040372356

DIPOLE MOMENT
-------------
                                X             Y             Z
Electronic contribution:     -0.76844      -2.63259       1.94826
Nuclear contribution   :      1.31887       2.93353      -3.05485
                        -----------------------------------------
Total Dipole Moment    :      0.55043       0.30093      -1.10658
                        -----------------------------------------
Magnitude (a.u.)       :      1.27203
Magnitude (Debye)      :      3.23324

Rotational constants in cm-1:     0.077425     0.020329     0.019455
Rotational constants in MHz :  2321.129018   609.448032   583.253888

                             ****ORCA TERMINATED NORMALLY****
TOTAL RUN TIME: 0 days 0 hours 6 minutes 27 seconds 264 msec
