                         Program Version 4.2.0 -  RELEASE  -
|  1> # Test redundant internal optimization
|  2> #
|  3> ! RKS B3LYP  Opt TightSCF SmallPrint
|  4>
|  5> %basis
|  6>         Basis "6-31G"
|  7> end
|  8>
|  9> %geom
| 10> Constraints
| 11> { D 4  0  15  12  45.0   C } # D for Dihedral angle
| 12> { D 0  15  12  16  255.0   C } # D for Dihedral angle
| 13> { D 0  4  3  2   C } # D for Dihedral angle
| 14> { D 4  3  2  1   C } # D for Dihedral angle
| 15> { D 3  2  1  0   C } # D for Dihedral angle
| 16> { D 2  1  0  4   C } # D for Dihedral angle
| 17> { D 1  0  4  3   C } # D for Dihedral angle
| 18> { D 16  20  19  18   C } # D for Dihedral angle
| 19> { D 20  19  18  17   C } # D for Dihedral angle
| 20> { D 19  18  17  16   C } # D for Dihedral angle
| 21> { D 18  17  16  20   C } # D for Dihedral angle
| 22> { D 17  16  20  19   C } # D for Dihedral angle
| 23> { D 15  12  16  20   C } # D for Dihedral angle
| 24> end
| 25> end
| 26>
| 27>
| 28> #%pal
| 29> #nprocs 8
| 30> #end
| 31>
| 32> * xyz 0 1
| 33> C  -21.048   26.222   46.251
| 34> C  -20.361   27.558   45.944
| 35> C  -20.329   28.222   47.341
| 36> C  -20.110   27.022   48.296
| 37> O  -20.473   25.807   47.535
| 38> H  -20.833   25.428   45.533
| 39> H  -19.344   27.382   45.576
| 40> H  -20.898   28.157   45.201
| 41> H  -19.543   28.978   47.434
| 42> H  -21.289   28.710   47.548
| 43> H  -20.733   27.082   49.195
| 44> H  -19.064   26.913   48.597
| 45> C  -23.065   27.161   47.638
| 46> H  -22.213   27.688   48.086
| 47> H  -23.826   27.906   47.369
| 48> O  -22.586   26.394   46.375
| 49> C  -23.680   26.224   48.713
| 50> C  -24.246   27.024   49.892
| 51> C  -25.599   27.510   49.320
| 52> C  -26.048   26.326   48.427
| 53> O  -24.842   25.512   48.169
| 54> H  -22.943   25.468   48.992
| 55> O  -24.470   26.090   51.112
| 56> H  -23.595   27.849   50.203
| 57> H  -26.330   27.745   50.101
| 58> H  -25.450   28.414   48.717
| 59> H  -26.468   26.659   47.471
| 60> H  -26.774   25.679   48.927
| 61> H  -25.119   25.256   50.823
| 62> *
| 63>
| 64>                          ****END OF INPUT****
 Total Charge           Charge          ....    0
 Multiplicity           Mult            ....    1
 Number of Electrons    NEL             ....  102
FINAL SINGLE POINT ENERGY      -652.810953439358
FINAL SINGLE POINT ENERGY      -652.838187054703
FINAL SINGLE POINT ENERGY      -652.851276397325
FINAL SINGLE POINT ENERGY      -652.853730887542
FINAL SINGLE POINT ENERGY      -652.854164674486
FINAL SINGLE POINT ENERGY      -652.854218515547
FINAL SINGLE POINT ENERGY      -652.854223008329
                    ***********************HURRAY********************

CARTESIAN COORDINATES (ANGSTROEM)
---------------------------------
  C    -21.179040   26.324330   46.433796
  C    -20.339323   27.505770   45.925381
  C    -19.983317   28.243124   47.248686
  C    -19.817902   27.074656   48.253630
  O    -20.492390   25.902863   47.638208
  H    -21.152206   25.470193   45.755134
  H    -19.436810   27.113816   45.444740
  H    -20.883554   28.126774   45.210004
  H    -19.064993   28.832746   47.162548
  H    -20.784324   28.928199   47.540594
  H    -20.268992   27.272578   49.231034
  H    -18.769814   26.797002   48.397450
  C    -23.140656   27.274768   47.717844
  H    -22.382258   27.863848   48.242175
  H    -23.885587   27.961815   47.300685
  O    -22.596579   26.541839   46.585143
  C    -23.786478   26.303874   48.710034
  C    -24.436655   26.992207   49.919259
  C    -25.816000   27.408394   49.342418
  C    -26.153378   26.245443   48.376268
  O    -24.878858   25.540732   48.103263
  H    -23.030972   25.574794   49.016159
  O    -24.578168   26.065331   51.030921
  H    -23.864139   27.832461   50.316273
  H    -26.548926   27.528659   50.143883
  H    -25.730837   28.360838   48.806279
  H    -26.580506   26.590585   47.430089
  H    -26.837522   25.515619   48.821616
  H    -24.858817   25.192743   50.682485

 Multiplicity           Mult            ....    1
 Number of Electrons    NEL             ....  102
 Basis Dimension        Dim             ....  149

ORBITAL ENERGIES
----------------

  NO   OCC          E(Eh)            E(eV)
   0   2.0000     -19.146986      -521.0160
   1   2.0000     -19.140143      -520.8298
   2   2.0000     -19.136787      -520.7384
   3   2.0000     -19.136683      -520.7356
   4   2.0000     -10.278221      -279.6846
   5   2.0000     -10.241361      -278.6816
   6   2.0000     -10.233873      -278.4778
   7   2.0000     -10.233655      -278.4719
   8   2.0000     -10.228282      -278.3257
   9   2.0000     -10.227164      -278.2953
  10   2.0000     -10.196320      -277.4560
  11   2.0000     -10.190021      -277.2846
  12   2.0000     -10.188361      -277.2394
  13   2.0000      -1.053625       -28.6706
  14   2.0000      -1.033272       -28.1168
  15   2.0000      -1.004152       -27.3244
  16   2.0000      -0.993804       -27.0428
  17   2.0000      -0.791272       -21.5316
  18   2.0000      -0.783692       -21.3253
  19   2.0000      -0.768579       -20.9141
  20   2.0000      -0.734297       -19.9812
  21   2.0000      -0.677296       -18.4302
  22   2.0000      -0.606499       -16.5037
  23   2.0000      -0.604560       -16.4509
  24   2.0000      -0.599298       -16.3077
  25   2.0000      -0.573604       -15.6086
  26   2.0000      -0.520760       -14.1706
  27   2.0000      -0.516820       -14.0634
  28   2.0000      -0.502452       -13.6724
  29   2.0000      -0.488755       -13.2997
  30   2.0000      -0.472754       -12.8643
  31   2.0000      -0.462257       -12.5787
  32   2.0000      -0.447608       -12.1800
  33   2.0000      -0.440921       -11.9981
  34   2.0000      -0.421999       -11.4832
  35   2.0000      -0.419495       -11.4150
  36   2.0000      -0.401677       -10.9302
  37   2.0000      -0.391117       -10.6428
  38   2.0000      -0.381054       -10.3690
  39   2.0000      -0.371490       -10.1087
  40   2.0000      -0.363384        -9.8882
  41   2.0000      -0.359625        -9.7859
  42   2.0000      -0.349035        -9.4977
  43   2.0000      -0.331507        -9.0208
  44   2.0000      -0.320990        -8.7346
  45   2.0000      -0.313447        -8.5293
  46   2.0000      -0.299411        -8.1474
  47   2.0000      -0.268480        -7.3057
  48   2.0000      -0.265919        -7.2360
  49   2.0000      -0.257463        -7.0059
  50   2.0000      -0.234087        -6.3698
  51   0.0000       0.063527         1.7287
  52   0.0000       0.075734         2.0608
  53   0.0000       0.084804         2.3076
  54   0.0000       0.096311         2.6208
  55   0.0000       0.099583         2.7098

MULLIKEN ATOMIC CHARGES
-----------------------
   0 C :    0.293753
   1 C :   -0.263312
   2 C :   -0.318263
   3 C :   -0.019197
   4 O :   -0.507765
   5 H :    0.169105
   6 H :    0.152329
   7 H :    0.153767
   8 H :    0.147708
   9 H :    0.149823
  10 H :    0.145774
  11 H :    0.152073
  12 C :   -0.015953
  13 H :    0.123443
  14 H :    0.144463
  15 O :   -0.507747
  16 C :    0.070778
  17 C :    0.074951
  18 C :   -0.296334
  19 C :   -0.028205
  20 O :   -0.509206
  21 H :    0.182619
  22 O :   -0.602880
  23 H :    0.144181
  24 H :    0.163985
  25 H :    0.137776
  26 H :    0.149023
  27 H :    0.145933
  28 H :    0.367377
Sum of atomic charges:   -0.0000000

LOEWDIN ATOMIC CHARGES
----------------------
   0 C :    0.176409
   1 C :   -0.226776
   2 C :   -0.225271
   3 C :   -0.037091
   4 O :   -0.323195
   5 H :    0.114556
   6 H :    0.119507
   7 H :    0.121680
   8 H :    0.116898
   9 H :    0.108337
  10 H :    0.101225
  11 H :    0.107549
  12 C :   -0.042667
  13 H :    0.097670
  14 H :    0.106942
  15 O :   -0.310493
  16 C :    0.009566
  17 C :    0.033159
  18 C :   -0.242056
  19 C :   -0.038619
  20 O :   -0.319345
  21 H :    0.126604
  22 O :   -0.415244
  23 H :    0.111024
  24 H :    0.127203
  25 H :    0.109848
  26 H :    0.105570
  27 H :    0.102264
  28 H :    0.284747

  Mayer bond orders larger than 0.100000
B(  0-C ,  1-C ) :   0.9145 B(  0-C ,  4-O ) :   0.8930 B(  0-C ,  5-H ) :   0.9349
B(  0-C , 15-O ) :   0.8985 B(  1-C ,  2-C ) :   0.9541 B(  1-C ,  6-H ) :   0.9348
B(  1-C ,  7-H ) :   0.9376 B(  2-C ,  3-C ) :   0.9467 B(  2-C ,  8-H ) :   0.9444
B(  2-C ,  9-H ) :   0.9403 B(  3-C ,  4-O ) :   0.8432 B(  3-C , 10-H ) :   0.9311
B(  3-C , 11-H ) :   0.9382 B( 12-C , 13-H ) :   0.9040 B( 12-C , 14-H ) :   0.9372
B( 12-C , 15-O ) :   0.8488 B( 12-C , 16-C ) :   0.8811 B( 16-C , 17-C ) :   0.8981
B( 16-C , 20-O ) :   0.8641 B( 16-C , 21-H ) :   0.9186 B( 17-C , 18-C ) :   0.9107
B( 17-C , 22-O ) :   0.8946 B( 17-C , 23-H ) :   0.9335 B( 18-C , 19-C ) :   0.9397
B( 18-C , 24-H ) :   0.9369 B( 18-C , 25-H ) :   0.9351 B( 19-C , 20-O ) :   0.8527
B( 19-C , 26-H ) :   0.9339 B( 19-C , 27-H ) :   0.9374 B( 22-O , 28-H ) :   0.7925

FINAL SINGLE POINT ENERGY      -652.854221728634

DIPOLE MOMENT
-------------
                                X             Y             Z
Electronic contribution:     -1.49468      -5.71627       0.14097
Nuclear contribution   :      1.79514       7.18250      -0.36177
                        -----------------------------------------
Total Dipole Moment    :      0.30046       1.46623      -0.22080
                        -----------------------------------------
Magnitude (a.u.)       :      1.51290
Magnitude (Debye)      :      3.84547

Rotational constants in cm-1:     0.054432     0.013829     0.012768
Rotational constants in MHz :  1631.830426   414.594488   382.787313

                             ****ORCA TERMINATED NORMALLY****
TOTAL RUN TIME: 0 days 0 hours 24 minutes 6 seconds 297 msec
