                         Program Version 4.2.0 -  RELEASE  -
|  1> # Test redundant internal optimization
|  2> #
|  3> ! RKS B3LYP  Opt TightSCF SmallPrint
|  4>
|  5> %basis
|  6>         Basis "6-31G"
|  7> end
|  8>
|  9> %geom
| 10> Constraints
| 11> { D 4  0  15  12  180.0   C } # D for Dihedral angle
| 12> { D 0  15  12  16  30.0   C } # D for Dihedral angle
| 13> { D 0  4  3  2   C } # D for Dihedral angle
| 14> { D 4  3  2  1   C } # D for Dihedral angle
| 15> { D 3  2  1  0   C } # D for Dihedral angle
| 16> { D 2  1  0  4   C } # D for Dihedral angle
| 17> { D 1  0  4  3   C } # D for Dihedral angle
| 18> { D 16  20  19  18   C } # D for Dihedral angle
| 19> { D 20  19  18  17   C } # D for Dihedral angle
| 20> { D 19  18  17  16   C } # D for Dihedral angle
| 21> { D 18  17  16  20   C } # D for Dihedral angle
| 22> { D 17  16  20  19   C } # D for Dihedral angle
| 23> { D 15  12  16  20   C } # D for Dihedral angle
| 24> end
| 25> end
| 26>
| 27>
| 28> #%pal
| 29> #nprocs 8
| 30> #end
| 31>
| 32> * xyz 0 1
| 33> C  -21.048   26.222   46.251
| 34> C  -20.361   27.558   45.944
| 35> C  -20.329   28.222   47.341
| 36> C  -20.110   27.022   48.296
| 37> O  -20.473   25.807   47.535
| 38> H  -20.833   25.428   45.533
| 39> H  -19.344   27.382   45.576
| 40> H  -20.898   28.157   45.201
| 41> H  -19.543   28.978   47.434
| 42> H  -21.289   28.710   47.548
| 43> H  -20.733   27.082   49.195
| 44> H  -19.064   26.913   48.597
| 45> C  -23.309   26.834   45.072
| 46> H  -24.332   26.437   45.074
| 47> H  -23.365   27.928   45.015
| 48> O  -22.586   26.394   46.375
| 49> C  -22.592   26.329   43.789
| 50> C  -23.264   26.877   42.525
| 51> C  -22.695   28.314   42.464
| 52> C  -21.253   28.144   43.004
| 53> O  -21.224   26.854   43.726
| 54> H  -22.517   25.241   43.825
| 55> H  -22.949   26.298   41.649
| 56> O  -24.816   26.847   42.597
| 57> H  -22.715   28.737   41.454
| 58> H  -23.276   28.977   43.116
| 59> H  -20.965   28.947   43.692
| 60> H  -20.511   28.082   42.202
| 61> H  -25.156   27.420   43.466
| 62> *
| 63>
| 64>                          ****END OF INPUT****
 Total Charge           Charge          ....    0
 Multiplicity           Mult            ....    1
 Number of Electrons    NEL             ....  102
FINAL SINGLE POINT ENERGY      -652.806066608386
FINAL SINGLE POINT ENERGY      -652.832385354855
FINAL SINGLE POINT ENERGY      -652.847033523073
FINAL SINGLE POINT ENERGY      -652.849249002343
FINAL SINGLE POINT ENERGY      -652.849658551668
FINAL SINGLE POINT ENERGY      -652.849729201812
FINAL SINGLE POINT ENERGY      -652.849735340250
FINAL SINGLE POINT ENERGY      -652.849724676761
                    ***********************HURRAY********************

CARTESIAN COORDINATES (ANGSTROEM)
---------------------------------
  C    -20.878797   26.204093   46.291980
  C    -20.118454   27.518692   46.118036
  C    -20.329488   28.202206   47.495518
  C    -20.318913   27.002300   48.466273
  O    -20.566094   25.804163   47.631854
  H    -20.591257   25.397867   45.617027
  H    -19.058066   27.295249   45.949814
  H    -20.474079   28.113867   45.280532
  H    -19.549142   28.933690   47.726580
  H    -21.299010   28.708814   47.517468
  H    -21.096166   27.059360   49.233231
  H    -19.346730   26.854162   48.947109
  C    -23.081782   26.814304   45.104435
  H    -24.070189   26.361492   45.228540
  H    -23.200549   27.911049   45.140484
  O    -22.331736   26.400679   46.278382
  C    -22.552786   26.408916   43.721393
  C    -23.432669   26.917665   42.563897
  C    -22.861764   28.351948   42.332125
  C    -21.355853   28.167976   42.620045
  O    -21.219420   26.901998   43.392155
  H    -22.467216   25.317026   43.695456
  H    -23.260162   26.295628   41.683172
  O    -24.859678   26.851139   42.781567
  H    -23.060073   28.714955   41.320430
  H    -23.324088   29.050792   43.041333
  H    -20.928661   28.989312   43.204929
  H    -20.768114   28.043711   41.706737
  H    -25.149066   27.547945   43.405500

 Multiplicity           Mult            ....    1
 Number of Electrons    NEL             ....  102
 Basis Dimension        Dim             ....  149

ORBITAL ENERGIES
----------------

  NO   OCC          E(Eh)            E(eV)
   0   2.0000     -19.157341      -521.2977
   1   2.0000     -19.153874      -521.2034
   2   2.0000     -19.129932      -520.5519
   3   2.0000     -19.129427      -520.5382
   4   2.0000     -10.268829      -279.4290
   5   2.0000     -10.254612      -279.0422
   6   2.0000     -10.243135      -278.7299
   7   2.0000     -10.240691      -278.6634
   8   2.0000     -10.233526      -278.4684
   9   2.0000     -10.216434      -278.0033
  10   2.0000     -10.205106      -277.6951
  11   2.0000     -10.178029      -276.9582
  12   2.0000     -10.172306      -276.8025
  13   2.0000      -1.047064       -28.4920
  14   2.0000      -1.039854       -28.2959
  15   2.0000      -1.027334       -27.9552
  16   2.0000      -0.981428       -26.7060
  17   2.0000      -0.792777       -21.5726
  18   2.0000      -0.776371       -21.1261
  19   2.0000      -0.771076       -20.9820
  20   2.0000      -0.729315       -19.8457
  21   2.0000      -0.683793       -18.6070
  22   2.0000      -0.622504       -16.9392
  23   2.0000      -0.603699       -16.4275
  24   2.0000      -0.589801       -16.0493
  25   2.0000      -0.561150       -15.2697
  26   2.0000      -0.536374       -14.5955
  27   2.0000      -0.517137       -14.0720
  28   2.0000      -0.495854       -13.4929
  29   2.0000      -0.478100       -13.0098
  30   2.0000      -0.474921       -12.9233
  31   2.0000      -0.457336       -12.4448
  32   2.0000      -0.445960       -12.1352
  33   2.0000      -0.439210       -11.9515
  34   2.0000      -0.431764       -11.7489
  35   2.0000      -0.425107       -11.5678
  36   2.0000      -0.406840       -11.0707
  37   2.0000      -0.397281       -10.8106
  38   2.0000      -0.389692       -10.6041
  39   2.0000      -0.366971        -9.9858
  40   2.0000      -0.359910        -9.7937
  41   2.0000      -0.350928        -9.5492
  42   2.0000      -0.344217        -9.3666
  43   2.0000      -0.338418        -9.2088
  44   2.0000      -0.324868        -8.8401
  45   2.0000      -0.304728        -8.2921
  46   2.0000      -0.295779        -8.0486
  47   2.0000      -0.281060        -7.6480
  48   2.0000      -0.254328        -6.9206
  49   2.0000      -0.247519        -6.7353
  50   2.0000      -0.240696        -6.5497
  51   0.0000       0.044001         1.1973
  52   0.0000       0.062157         1.6914
  53   0.0000       0.081926         2.2293
  54   0.0000       0.093381         2.5410
  55   0.0000       0.102217         2.7815

MULLIKEN ATOMIC CHARGES
-----------------------
   0 C :    0.313567
   1 C :   -0.264697
   2 C :   -0.304603
   3 C :    0.003022
   4 O :   -0.503367
   5 H :    0.153615
   6 H :    0.142192
   7 H :    0.151907
   8 H :    0.135967
   9 H :    0.150190
  10 H :    0.149789
  11 H :    0.138508
  12 C :    0.004814
  13 H :    0.159262
  14 H :    0.107104
  15 O :   -0.531706
  16 C :    0.060008
  17 C :    0.084842
  18 C :   -0.318589
  19 C :   -0.018487
  20 O :   -0.517883
  21 H :    0.168919
  22 H :    0.172860
  23 O :   -0.595823
  24 H :    0.159179
  25 H :    0.138533
  26 H :    0.142559
  27 H :    0.159170
  28 H :    0.359149
Sum of atomic charges:    0.0000000

LOEWDIN ATOMIC CHARGES
----------------------
   0 C :    0.190759
   1 C :   -0.227517
   2 C :   -0.221520
   3 C :   -0.025383
   4 O :   -0.302770
   5 H :    0.104545
   6 H :    0.114800
   7 H :    0.117314
   8 H :    0.111146
   9 H :    0.112272
  10 H :    0.106573
  11 H :    0.100383
  12 C :   -0.048213
  13 H :    0.120192
  14 H :    0.080145
  15 O :   -0.340129
  16 C :    0.002632
  17 C :    0.038109
  18 C :   -0.240306
  19 C :   -0.031396
  20 O :   -0.321145
  21 H :    0.117907
  22 H :    0.121465
  23 O :   -0.402386
  24 H :    0.124380
  25 H :    0.106486
  26 H :    0.100577
  27 H :    0.110628
  28 H :    0.280451

  Mayer bond orders larger than 0.100000
B(  0-C ,  1-C ) :   0.9351 B(  0-C ,  4-O ) :   0.9281 B(  0-C ,  5-H ) :   0.9215
B(  0-C , 15-O ) :   0.8130 B(  1-C ,  2-C ) :   0.9434 B(  1-C ,  6-H ) :   0.9370
B(  1-C ,  7-H ) :   0.9253 B(  2-C ,  3-C ) :   0.9543 B(  2-C ,  8-H ) :   0.9455
B(  2-C ,  9-H ) :   0.9467 B(  3-C ,  4-O ) :   0.8369 B(  3-C , 10-H ) :   0.9357
B(  3-C , 11-H ) :   0.9402 B( 12-C , 13-H ) :   0.9138 B( 12-C , 14-H ) :   0.9194
B( 12-C , 15-O ) :   0.8651 B( 12-C , 16-C ) :   0.8971 B( 16-C , 17-C ) :   0.8697
B( 16-C , 20-O ) :   0.8479 B( 16-C , 21-H ) :   0.9263 B( 17-C , 18-C ) :   0.9224
B( 17-C , 22-H ) :   0.9321 B( 17-C , 23-O ) :   0.9058 B( 18-C , 19-C ) :   0.9407
B( 18-C , 24-H ) :   0.9418 B( 18-C , 25-H ) :   0.9396 B( 19-C , 20-O ) :   0.8387
B( 19-C , 26-H ) :   0.9264 B( 19-C , 27-H ) :   0.9376 B( 23-O , 28-H ) :   0.7963

FINAL SINGLE POINT ENERGY      -652.849721753574

DIPOLE MOMENT
-------------
                                X             Y             Z
Electronic contribution:     -1.93231      -5.74142       0.10357
Nuclear contribution   :      2.02153       7.46657      -0.94712
                        -----------------------------------------
Total Dipole Moment    :      0.08922       1.72515      -0.84355
                        -----------------------------------------
Magnitude (a.u.)       :      1.92241
Magnitude (Debye)      :      4.88638

Rotational constants in cm-1:     0.056691     0.014401     0.012973
Rotational constants in MHz :  1699.547319   431.744612   388.910302

                             ****ORCA TERMINATED NORMALLY****
TOTAL RUN TIME: 0 days 0 hours 24 minutes 54 seconds 461 msec
