                         Program Version 4.2.0 -  RELEASE  -
|  1> # Test redundant internal optimization
|  2> #
|  3> ! RKS B3LYP  Opt TightSCF SmallPrint
|  4>
|  5> %basis
|  6>         Basis "6-31G"
|  7> end
|  8>
|  9> %geom
| 10> Constraints
| 11> { D 4  0  15  12  120.0   C } # D for Dihedral angle
| 12> { D 0  15  12  16  195.0   C } # D for Dihedral angle
| 13> { D 0  4  3  2   C } # D for Dihedral angle
| 14> { D 4  3  2  1   C } # D for Dihedral angle
| 15> { D 3  2  1  0   C } # D for Dihedral angle
| 16> { D 2  1  0  4   C } # D for Dihedral angle
| 17> { D 1  0  4  3   C } # D for Dihedral angle
| 18> { D 16  20  19  18   C } # D for Dihedral angle
| 19> { D 20  19  18  17   C } # D for Dihedral angle
| 20> { D 19  18  17  16   C } # D for Dihedral angle
| 21> { D 18  17  16  20   C } # D for Dihedral angle
| 22> { D 17  16  20  19   C } # D for Dihedral angle
| 23> { D 15  12  16  20   C } # D for Dihedral angle
| 24> end
| 25> end
| 26>
| 27>
| 28> #%pal
| 29> #nprocs 8
| 30> #end
| 31>
| 32> * xyz 0 1
| 33> C  -21.048   26.222   46.251
| 34> C  -20.361   27.558   45.944
| 35> C  -20.329   28.222   47.341
| 36> C  -20.110   27.022   48.296
| 37> O  -20.473   25.807   47.535
| 38> H  -20.833   25.428   45.533
| 39> H  -19.344   27.382   45.576
| 40> H  -20.898   28.157   45.201
| 41> H  -19.543   28.978   47.434
| 42> H  -21.289   28.710   47.548
| 43> H  -20.733   27.082   49.195
| 44> H  -19.064   26.913   48.597
| 45> C  -23.119   27.818   46.058
| 46> H  -22.477   28.562   46.546
| 47> H  -23.098   28.004   44.976
| 48> O  -22.586   26.394   46.375
| 49> C  -24.578   28.036   46.547
| 50> C  -25.110   29.407   46.116
| 51> C  -25.481   29.149   44.636
| 52> C  -25.987   27.685   44.651
| 53> O  -25.483   27.079   45.902
| 54> H  -24.627   27.849   47.621
| 55> O  -26.373   29.772   46.942
| 56> H  -24.375   30.211   46.236
| 57> H  -26.235   29.848   44.259
| 58> H  -24.591   29.244   44.003
| 59> H  -25.618   27.105   43.797
| 60> H  -27.078   27.621   44.678
| 61> H  -27.124   28.981   46.837
| 62> *
| 63>
| 64>                          ****END OF INPUT****
 Total Charge           Charge          ....    0
 Multiplicity           Mult            ....    1
 Number of Electrons    NEL             ....  102
FINAL SINGLE POINT ENERGY      -652.815343635056
FINAL SINGLE POINT ENERGY      -652.840192995715
FINAL SINGLE POINT ENERGY      -652.847410751970
FINAL SINGLE POINT ENERGY      -652.849747881142
FINAL SINGLE POINT ENERGY      -652.850088916274
FINAL SINGLE POINT ENERGY      -652.850129144924
FINAL SINGLE POINT ENERGY      -652.850133000141
                    ***********************HURRAY********************

CARTESIAN COORDINATES (ANGSTROEM)
---------------------------------
  C    -21.181729   26.349814   46.317810
  C    -20.190099   27.471192   45.985554
  C    -20.050675   28.199888   47.353522
  C    -20.155544   27.030935   48.363506
  O    -20.767928   25.903594   47.624751
  H    -21.091041   25.472240   45.674900
  H    -19.237711   27.015184   45.696963
  H    -20.513531   28.127782   45.172985
  H    -19.100174   28.735320   47.440520
  H    -20.854533   28.926652   47.503536
  H    -20.776924   27.268715   49.231480
  H    -19.175762   26.687815   48.707809
  C    -23.098694   27.993514   45.968398
  H    -22.555624   28.792954   46.488138
  H    -23.016546   28.171342   44.886108
  O    -22.595773   26.676157   46.298509
  C    -24.558276   28.041472   46.418210
  C    -25.263027   29.369073   46.105555
  C    -25.688392   29.161744   44.627091
  C    -26.027792   27.651633   44.571924
  O    -25.387045   27.032523   45.756909
  H    -24.592957   27.811344   47.487181
  O    -26.411894   29.559947   46.974652
  H    -24.639056   30.252118   46.254774
  H    -26.537669   29.802980   44.378098
  H    -24.859723   29.410026   43.954231
  H    -25.650651   27.164674   43.667756
  H    -27.102742   27.459887   44.648440
  H    -26.883490   28.705476   47.071689

 Multiplicity           Mult            ....    1
 Number of Electrons    NEL             ....  102
 Basis Dimension        Dim             ....  149

ORBITAL ENERGIES
----------------

  NO   OCC          E(Eh)            E(eV)
   0   2.0000     -19.139714      -520.8181
   1   2.0000     -19.139286      -520.8064
   2   2.0000     -19.138531      -520.7859
   3   2.0000     -19.137974      -520.7707
   4   2.0000     -10.278786      -279.7000
   5   2.0000     -10.244694      -278.7723
   6   2.0000     -10.237152      -278.5671
   7   2.0000     -10.234790      -278.5028
   8   2.0000     -10.229577      -278.3609
   9   2.0000     -10.227623      -278.3078
  10   2.0000     -10.196414      -277.4585
  11   2.0000     -10.196215      -277.4531
  12   2.0000     -10.191101      -277.3140
  13   2.0000      -1.050213       -28.5777
  14   2.0000      -1.036307       -28.1993
  15   2.0000      -1.006864       -27.3982
  16   2.0000      -0.993047       -27.0222
  17   2.0000      -0.791609       -21.5408
  18   2.0000      -0.786963       -21.4144
  19   2.0000      -0.771059       -20.9816
  20   2.0000      -0.733788       -19.9674
  21   2.0000      -0.680469       -18.5165
  22   2.0000      -0.608257       -16.5515
  23   2.0000      -0.604876       -16.4595
  24   2.0000      -0.596925       -16.2432
  25   2.0000      -0.577530       -15.7154
  26   2.0000      -0.525460       -14.2985
  27   2.0000      -0.514766       -14.0075
  28   2.0000      -0.501081       -13.6351
  29   2.0000      -0.492753       -13.4085
  30   2.0000      -0.477029       -12.9806
  31   2.0000      -0.462429       -12.5833
  32   2.0000      -0.447884       -12.1876
  33   2.0000      -0.445181       -12.1140
  34   2.0000      -0.428126       -11.6499
  35   2.0000      -0.417342       -11.3564
  36   2.0000      -0.403072       -10.9681
  37   2.0000      -0.394032       -10.7221
  38   2.0000      -0.384498       -10.4627
  39   2.0000      -0.373595       -10.1660
  40   2.0000      -0.366968        -9.9857
  41   2.0000      -0.360773        -9.8171
  42   2.0000      -0.352477        -9.5914
  43   2.0000      -0.332979        -9.0608
  44   2.0000      -0.313753        -8.5377
  45   2.0000      -0.306924        -8.3518
  46   2.0000      -0.291057        -7.9201
  47   2.0000      -0.272718        -7.4210
  48   2.0000      -0.266221        -7.2442
  49   2.0000      -0.249945        -6.8013
  50   2.0000      -0.243118        -6.6156
  51   0.0000       0.062091         1.6896
  52   0.0000       0.075713         2.0603
  53   0.0000       0.080598         2.1932
  54   0.0000       0.096857         2.6356
  55   0.0000       0.101141         2.7522

MULLIKEN ATOMIC CHARGES
-----------------------
   0 C :    0.317487
   1 C :   -0.299380
   2 C :   -0.312730
   3 C :   -0.002908
   4 O :   -0.493755
   5 H :    0.160976
   6 H :    0.157727
   7 H :    0.143791
   8 H :    0.146572
   9 H :    0.152355
  10 H :    0.149264
  11 H :    0.145582
  12 C :    0.006788
  13 H :    0.119604
  14 H :    0.123957
  15 O :   -0.515709
  16 C :    0.066916
  17 C :    0.079466
  18 C :   -0.300324
  19 C :   -0.026213
  20 O :   -0.504327
  21 H :    0.173277
  22 O :   -0.602980
  23 H :    0.147008
  24 H :    0.164663
  25 H :    0.141871
  26 H :    0.147098
  27 H :    0.146657
  28 H :    0.367265
Sum of atomic charges:   -0.0000000

LOEWDIN ATOMIC CHARGES
----------------------
   0 C :    0.181581
   1 C :   -0.231919
   2 C :   -0.221786
   3 C :   -0.030369
   4 O :   -0.311598
   5 H :    0.107885
   6 H :    0.123889
   7 H :    0.114203
   8 H :    0.116518
   9 H :    0.108050
  10 H :    0.105884
  11 H :    0.104234
  12 C :   -0.039410
  13 H :    0.091786
  14 H :    0.089954
  15 O :   -0.318689
  16 C :    0.018915
  17 C :    0.034937
  18 C :   -0.242633
  19 C :   -0.037805
  20 O :   -0.315837
  21 H :    0.122857
  22 O :   -0.414172
  23 H :    0.112421
  24 H :    0.127338
  25 H :    0.111130
  26 H :    0.105085
  27 H :    0.102782
  28 H :    0.284771

  Mayer bond orders larger than 0.100000
B(  0-C ,  1-C ) :   0.9290 B(  0-C ,  4-O ) :   0.9154 B(  0-C ,  5-H ) :   0.9313
B(  0-C , 15-O ) :   0.8744 B(  1-C ,  2-C ) :   0.9510 B(  1-C ,  6-H ) :   0.9345
B(  1-C ,  7-H ) :   0.9316 B(  2-C ,  3-C ) :   0.9478 B(  2-C ,  8-H ) :   0.9454
B(  2-C ,  9-H ) :   0.9373 B(  3-C ,  4-O ) :   0.8478 B(  3-C , 10-H ) :   0.9340
B(  3-C , 11-H ) :   0.9391 B( 12-C , 13-H ) :   0.8934 B( 12-C , 14-H ) :   0.9170
B( 12-C , 15-O ) :   0.8507 B( 12-C , 16-C ) :   0.8964 B( 16-C , 17-C ) :   0.8985
B( 16-C , 20-O ) :   0.8711 B( 16-C , 21-H ) :   0.9222 B( 17-C , 18-C ) :   0.9109
B( 17-C , 22-O ) :   0.8943 B( 17-C , 23-H ) :   0.9335 B( 18-C , 19-C ) :   0.9394
B( 18-C , 24-H ) :   0.9368 B( 18-C , 25-H ) :   0.9342 B( 19-C , 20-O ) :   0.8537
B( 19-C , 26-H ) :   0.9343 B( 19-C , 27-H ) :   0.9375 B( 22-O , 28-H ) :   0.7924

FINAL SINGLE POINT ENERGY      -652.850120058727

DIPOLE MOMENT
-------------
                                X             Y             Z
Electronic contribution:     -3.58681      -4.59008       2.15972
Nuclear contribution   :      4.45941       5.83046      -3.06554
                        -----------------------------------------
Total Dipole Moment    :      0.87260       1.24038      -0.90582
                        -----------------------------------------
Magnitude (a.u.)       :      1.76649
Magnitude (Debye)      :      4.49006

Rotational constants in cm-1:     0.058293     0.012094     0.011593
Rotational constants in MHz :  1747.582162   362.572383   347.538309

                             ****ORCA TERMINATED NORMALLY****
TOTAL RUN TIME: 0 days 0 hours 25 minutes 26 seconds 490 msec
