                         Program Version 4.2.0 -  RELEASE  -
|  1> # Test redundant internal optimization
|  2> #
|  3> ! RKS B3LYP  Opt TightSCF SmallPrint
|  4>
|  5> %basis
|  6>         Basis "6-31G"
|  7> end
|  8>
|  9> %geom
| 10> Constraints
| 11> { D 4  0  15  12  75.0   C } # D for Dihedral angle
| 12> { D 0  15  12  16  105.0   C } # D for Dihedral angle
| 13> { D 0  4  3  2   C } # D for Dihedral angle
| 14> { D 4  3  2  1   C } # D for Dihedral angle
| 15> { D 3  2  1  0   C } # D for Dihedral angle
| 16> { D 2  1  0  4   C } # D for Dihedral angle
| 17> { D 1  0  4  3   C } # D for Dihedral angle
| 18> { D 16  20  19  18   C } # D for Dihedral angle
| 19> { D 20  19  18  17   C } # D for Dihedral angle
| 20> { D 19  18  17  16   C } # D for Dihedral angle
| 21> { D 18  17  16  20   C } # D for Dihedral angle
| 22> { D 17  16  20  19   C } # D for Dihedral angle
| 23> { D 15  12  16  20   C } # D for Dihedral angle
| 24> end
| 25> end
| 26>
| 27>
| 28> #%pal
| 29> #nprocs 8
| 30> #end
| 31>
| 32> * xyz 0 1
| 33> C  -21.048   26.222   46.251
| 34> C  -20.361   27.558   45.944
| 35> C  -20.329   28.222   47.341
| 36> C  -20.110   27.022   48.296
| 37> O  -20.473   25.807   47.535
| 38> H  -20.833   25.428   45.533
| 39> H  -19.344   27.382   45.576
| 40> H  -20.898   28.157   45.201
| 41> H  -19.543   28.978   47.434
| 42> H  -21.289   28.710   47.548
| 43> H  -20.733   27.082   49.195
| 44> H  -19.064   26.913   48.597
| 45> C  -23.049   27.675   47.122
| 46> H  -23.840   27.411   47.836
| 47> H  -22.215   28.116   47.682
| 48> O  -22.586   26.394   46.375
| 49> C  -23.602   28.764   46.161
| 50> C  -24.879   28.290   45.458
| 51> C  -25.942   28.505   46.561
| 52> C  -25.447   29.783   47.283
| 53> O  -24.024   29.948   46.917
| 54> H  -22.805   29.082   45.486
| 55> H  -25.088   28.926   44.590
| 56> O  -24.799   26.815   44.976
| 57> H  -26.954   28.618   46.159
| 58> H  -25.948   27.650   47.249
| 59> H  -25.531   29.709   48.372
| 60> H  -25.972   30.682   46.948
| 61> H  -24.590   26.161   45.830
| 62> *
| 63>
| 64>                          ****END OF INPUT****
 Total Charge           Charge          ....    0
 Multiplicity           Mult            ....    1
 Number of Electrons    NEL             ....  102
FINAL SINGLE POINT ENERGY      -652.786844930369
FINAL SINGLE POINT ENERGY      -652.829425551066
FINAL SINGLE POINT ENERGY      -652.850137765735
FINAL SINGLE POINT ENERGY      -652.855674844410
FINAL SINGLE POINT ENERGY      -652.857465890810
FINAL SINGLE POINT ENERGY      -652.858531570087
FINAL SINGLE POINT ENERGY      -652.858986427425
FINAL SINGLE POINT ENERGY      -652.859106483271
FINAL SINGLE POINT ENERGY      -652.859127914756
FINAL SINGLE POINT ENERGY      -652.859122631097
                    ***********************HURRAY********************

CARTESIAN COORDINATES (ANGSTROEM)
---------------------------------
  C    -21.223745   26.346317   46.439193
  C    -20.308549   27.473411   45.941777
  C    -19.903837   28.176113   47.272013
  C    -19.816933   26.989701   48.263783
  O    -20.569529   25.873752   47.632549
  H    -21.253709   25.493567   45.759509
  H    -19.434921   27.018042   45.464677
  H    -20.791990   28.139077   45.222529
  H    -18.945811   28.698161   47.184419
  H    -20.648759   28.916278   47.573197
  H    -20.257445   27.205940   49.241381
  H    -18.791219   26.637903   48.403561
  C    -23.189978   27.779205   47.308812
  H    -23.989920   27.387079   47.944016
  H    -22.455875   28.257843   47.958405
  O    -22.639755   26.611045   46.607651
  C    -23.741902   28.790462   46.298179
  C    -24.923110   28.277184   45.456595
  C    -26.109967   28.436307   46.450567
  C    -25.746407   29.715341   47.232025
  O    -24.283730   29.942162   47.016660
  H    -22.927979   29.169105   45.671951
  H    -25.068327   28.953113   44.606916
  O    -24.782945   26.949436   44.916992
  H    -27.066486   28.515781   45.927893
  H    -26.154732   27.553644   47.097986
  H    -25.933048   29.637721   48.307410
  H    -26.256754   30.603236   46.848190
  H    -24.078637   26.463076   45.407161

 Multiplicity           Mult            ....    1
 Number of Electrons    NEL             ....  102
 Basis Dimension        Dim             ....  149

ORBITAL ENERGIES
----------------

  NO   OCC          E(Eh)            E(eV)
   0   2.0000     -19.164012      -521.4793
   1   2.0000     -19.151167      -521.1297
   2   2.0000     -19.143763      -520.9283
   3   2.0000     -19.115831      -520.1682
   4   2.0000     -10.291766      -280.0532
   5   2.0000     -10.240320      -278.6533
   6   2.0000     -10.237291      -278.5708
   7   2.0000     -10.236897      -278.5601
   8   2.0000     -10.232791      -278.4484
   9   2.0000     -10.229283      -278.3529
  10   2.0000     -10.201206      -277.5889
  11   2.0000     -10.201056      -277.5848
  12   2.0000     -10.181146      -277.0431
  13   2.0000      -1.063177       -28.9305
  14   2.0000      -1.028172       -27.9780
  15   2.0000      -1.009189       -27.4614
  16   2.0000      -0.994537       -27.0627
  17   2.0000      -0.797623       -21.7044
  18   2.0000      -0.780228       -21.2311
  19   2.0000      -0.770923       -20.9779
  20   2.0000      -0.740373       -20.1466
  21   2.0000      -0.686053       -18.6684
  22   2.0000      -0.613876       -16.7044
  23   2.0000      -0.604256       -16.4426
  24   2.0000      -0.598702       -16.2915
  25   2.0000      -0.578265       -15.7354
  26   2.0000      -0.539074       -14.6690
  27   2.0000      -0.511488       -13.9183
  28   2.0000      -0.508459       -13.8359
  29   2.0000      -0.490714       -13.3530
  30   2.0000      -0.474945       -12.9239
  31   2.0000      -0.461346       -12.5539
  32   2.0000      -0.446482       -12.1494
  33   2.0000      -0.437544       -11.9062
  34   2.0000      -0.427260       -11.6263
  35   2.0000      -0.424257       -11.5446
  36   2.0000      -0.413493       -11.2517
  37   2.0000      -0.393495       -10.7075
  38   2.0000      -0.391709       -10.6589
  39   2.0000      -0.373858       -10.1732
  40   2.0000      -0.368218       -10.0197
  41   2.0000      -0.356373        -9.6974
  42   2.0000      -0.351439        -9.5631
  43   2.0000      -0.341273        -9.2865
  44   2.0000      -0.324851        -8.8397
  45   2.0000      -0.320212        -8.7134
  46   2.0000      -0.287618        -7.8265
  47   2.0000      -0.285224        -7.7613
  48   2.0000      -0.268986        -7.3195
  49   2.0000      -0.249987        -6.8025
  50   2.0000      -0.241842        -6.5808
  51   0.0000       0.053972         1.4686
  52   0.0000       0.066818         1.8182
  53   0.0000       0.088028         2.3954
  54   0.0000       0.093039         2.5317
  55   0.0000       0.101308         2.7567

MULLIKEN ATOMIC CHARGES
-----------------------
   0 C :    0.312152
   1 C :   -0.284426
   2 C :   -0.323337
   3 C :   -0.013789
   4 O :   -0.497556
   5 H :    0.171720
   6 H :    0.162707
   7 H :    0.154681
   8 H :    0.151104
   9 H :    0.160997
  10 H :    0.150327
  11 H :    0.153075
  12 C :   -0.036958
  13 H :    0.163473
  14 H :    0.155081
  15 O :   -0.555361
  16 C :    0.054452
  17 C :    0.122667
  18 C :   -0.302656
  19 C :   -0.023103
  20 O :   -0.523339
  21 H :    0.150608
  22 H :    0.147774
  23 O :   -0.639412
  24 H :    0.152216
  25 H :    0.148056
  26 H :    0.144534
  27 H :    0.149929
  28 H :    0.394384
Sum of atomic charges:   -0.0000000

LOEWDIN ATOMIC CHARGES
----------------------
   0 C :    0.178457
   1 C :   -0.228638
   2 C :   -0.224646
   3 C :   -0.033210
   4 O :   -0.314090
   5 H :    0.116261
   6 H :    0.125908
   7 H :    0.119316
   8 H :    0.118908
   9 H :    0.113420
  10 H :    0.105705
  11 H :    0.108042
  12 C :   -0.048234
  13 H :    0.114442
  14 H :    0.110960
  15 O :   -0.329610
  16 C :    0.009214
  17 C :    0.042514
  18 C :   -0.237211
  19 C :   -0.032486
  20 O :   -0.326995
  21 H :    0.107326
  22 H :    0.105911
  23 O :   -0.432992
  24 H :    0.122052
  25 H :    0.112430
  26 H :    0.102900
  27 H :    0.106475
  28 H :    0.287871

  Mayer bond orders larger than 0.100000
B(  0-C ,  1-C ) :   0.9229 B(  0-C ,  4-O ) :   0.9237 B(  0-C ,  5-H ) :   0.9346
B(  0-C , 15-O ) :   0.8502 B(  1-C ,  2-C ) :   0.9528 B(  1-C ,  6-H ) :   0.9330
B(  1-C ,  7-H ) :   0.9313 B(  2-C ,  3-C ) :   0.9452 B(  2-C ,  8-H ) :   0.9440
B(  2-C ,  9-H ) :   0.9368 B(  3-C ,  4-O ) :   0.8404 B(  3-C , 10-H ) :   0.9336
B(  3-C , 11-H ) :   0.9382 B( 12-C , 13-H ) :   0.9345 B( 12-C , 14-H ) :   0.9178
B( 12-C , 15-O ) :   0.7873 B( 12-C , 16-C ) :   0.8852 B( 16-C , 17-C ) :   0.9107
B( 16-C , 20-O ) :   0.8532 B( 16-C , 21-H ) :   0.9283 B( 17-C , 18-C ) :   0.9003
B( 17-C , 22-H ) :   0.9318 B( 17-C , 23-O ) :   0.9366 B( 18-C , 19-C ) :   0.9399
B( 18-C , 24-H ) :   0.9448 B( 18-C , 25-H ) :   0.9425 B( 19-C , 20-O ) :   0.8302
B( 19-C , 26-H ) :   0.9337 B( 19-C , 27-H ) :   0.9385 B( 23-O , 28-H ) :   0.7249

FINAL SINGLE POINT ENERGY      -652.859120847906

DIPOLE MOMENT
-------------
                                X             Y             Z
Electronic contribution:     -1.00758      -3.10295      -1.21418
Nuclear contribution   :      1.77409       3.89425       1.66070
                        -----------------------------------------
Total Dipole Moment    :      0.76652       0.79130       0.44652
                        -----------------------------------------
Magnitude (a.u.)       :      1.18873
Magnitude (Debye)      :      3.02151

Rotational constants in cm-1:     0.052970     0.014701     0.013200
Rotational constants in MHz :  1587.996005   440.712435   395.716763

                             ****ORCA TERMINATED NORMALLY****
TOTAL RUN TIME: 0 days 0 hours 27 minutes 20 seconds 649 msec
