                         Program Version 4.2.0 -  RELEASE  -
|  1> # Test redundant internal optimization
|  2> #
|  3> ! RKS B3LYP  Opt TightSCF SmallPrint
|  4>
|  5> %basis
|  6>         Basis "6-31G"
|  7> end
|  8>
|  9> %geom
| 10> Constraints
| 11> { D 4  0  15  12  210.0   C } # D for Dihedral angle
| 12> { D 0  15  12  16  30.0   C } # D for Dihedral angle
| 13> { D 0  4  3  2   C } # D for Dihedral angle
| 14> { D 4  3  2  1   C } # D for Dihedral angle
| 15> { D 3  2  1  0   C } # D for Dihedral angle
| 16> { D 2  1  0  4   C } # D for Dihedral angle
| 17> { D 1  0  4  3   C } # D for Dihedral angle
| 18> { D 16  20  19  18   C } # D for Dihedral angle
| 19> { D 20  19  18  17   C } # D for Dihedral angle
| 20> { D 19  18  17  16   C } # D for Dihedral angle
| 21> { D 18  17  16  20   C } # D for Dihedral angle
| 22> { D 17  16  20  19   C } # D for Dihedral angle
| 23> { D 15  12  16  20   C } # D for Dihedral angle
| 24> end
| 25> end
| 26>
| 27>
| 28> #%pal
| 29> #nprocs 8
| 30> #end
| 31>
| 32> * xyz 0 1
| 33> C  -21.048   26.222   46.251
| 34> C  -20.361   27.558   45.944
| 35> C  -20.329   28.222   47.341
| 36> C  -20.110   27.022   48.296
| 37> O  -20.473   25.807   47.535
| 38> H  -20.833   25.428   45.533
| 39> H  -19.344   27.382   45.576
| 40> H  -20.898   28.157   45.201
| 41> H  -19.543   28.978   47.434
| 42> H  -21.289   28.710   47.548
| 43> H  -20.733   27.082   49.195
| 44> H  -19.064   26.913   48.597
| 45> C  -23.389   26.110   45.076
| 46> H  -24.388   25.742   45.341
| 47> H  -23.508   27.030   44.489
| 48> O  -22.586   26.394   46.375
| 49> C  -22.705   25.054   44.165
| 50> C  -22.651   23.682   44.848
| 51> C  -24.092   23.165   44.626
| 52> C  -24.457   23.729   43.230
| 53> O  -23.503   24.825   42.957
| 54> H  -21.735   25.436   43.841
| 55> H  -21.926   23.037   44.338
| 56> O  -22.263   23.762   46.350
| 57> H  -24.162   22.074   44.667
| 58> H  -24.760   23.572   45.395
| 59> H  -25.478   24.124   43.191
| 60> H  -24.335   22.988   42.436
| 61> H  -22.976   24.404   46.880
| 62> *
| 63>
| 64>                          ****END OF INPUT****
 Total Charge           Charge          ....    0
 Multiplicity           Mult            ....    1
 Number of Electrons    NEL             ....  102
FINAL SINGLE POINT ENERGY      -652.822721323439
FINAL SINGLE POINT ENERGY      -652.848419386955
FINAL SINGLE POINT ENERGY      -652.854947797747
FINAL SINGLE POINT ENERGY      -652.856769951412
FINAL SINGLE POINT ENERGY      -652.857033777061
FINAL SINGLE POINT ENERGY      -652.857091537344
FINAL SINGLE POINT ENERGY      -652.857098015406
FINAL SINGLE POINT ENERGY      -652.857099886275
                    ***********************HURRAY********************

CARTESIAN COORDINATES (ANGSTROEM)
---------------------------------
  C    -20.935155   26.217655   46.257822
  C    -20.236464   27.548865   45.989402
  C    -20.438232   28.292169   47.331176
  C    -20.351682   27.156528   48.371891
  O    -20.571461   25.897452   47.609844
  H    -20.629154   25.376472   45.639224
  H    -19.172212   27.368317   45.795690
  H    -20.659846   28.085150   45.135276
  H    -19.687110   29.069926   47.498408
  H    -21.428716   28.755381   47.349049
  H    -21.112537   27.227657   49.153411
  H    -19.362926   27.072191   48.832381
  C    -23.193005   26.088342   45.058680
  H    -24.178033   25.826806   45.454883
  H    -23.310578   26.999501   44.456902
  O    -22.389064   26.389637   46.244666
  C    -22.690490   24.985971   44.109803
  C    -22.652522   23.568957   44.715071
  C    -24.158978   23.165007   44.672911
  C    -24.657597   23.833217   43.374586
  O    -23.658826   24.881461   43.019824
  H    -21.741024   25.267884   43.646808
  H    -22.077169   22.914340   44.055175
  O    -22.024658   23.428350   46.004722
  H    -24.285917   22.079407   44.669206
  H    -24.667121   23.560927   45.559548
  H    -25.639109   24.305331   43.479160
  H    -24.690378   23.136309   42.531499
  H    -22.339034   24.109791   46.638980

 Multiplicity           Mult            ....    1
 Number of Electrons    NEL             ....  102
 Basis Dimension        Dim             ....  149

ORBITAL ENERGIES
----------------

  NO   OCC          E(Eh)            E(eV)
   0   2.0000     -19.146615      -521.0059
   1   2.0000     -19.145648      -520.9796
   2   2.0000     -19.141423      -520.8646
   3   2.0000     -19.136559      -520.7322
   4   2.0000     -10.278989      -279.7055
   5   2.0000     -10.241827      -278.6943
   6   2.0000     -10.239985      -278.6442
   7   2.0000     -10.234871      -278.5050
   8   2.0000     -10.233396      -278.4648
   9   2.0000     -10.225053      -278.2378
  10   2.0000     -10.189689      -277.2755
  11   2.0000     -10.186484      -277.1883
  12   2.0000     -10.185577      -277.1636
  13   2.0000      -1.054244       -28.6874
  14   2.0000      -1.032671       -28.1004
  15   2.0000      -1.012019       -27.5384
  16   2.0000      -0.992819       -27.0160
  17   2.0000      -0.786689       -21.4069
  18   2.0000      -0.779483       -21.2108
  19   2.0000      -0.768105       -20.9012
  20   2.0000      -0.735812       -20.0225
  21   2.0000      -0.681184       -18.5360
  22   2.0000      -0.610300       -16.6071
  23   2.0000      -0.607093       -16.5198
  24   2.0000      -0.598813       -16.2945
  25   2.0000      -0.565700       -15.3935
  26   2.0000      -0.531676       -14.4676
  27   2.0000      -0.521370       -14.1872
  28   2.0000      -0.496228       -13.5030
  29   2.0000      -0.486125       -13.2281
  30   2.0000      -0.465420       -12.6647
  31   2.0000      -0.459420       -12.5015
  32   2.0000      -0.449919       -12.2429
  33   2.0000      -0.431170       -11.7327
  34   2.0000      -0.424365       -11.5475
  35   2.0000      -0.418513       -11.3883
  36   2.0000      -0.406396       -11.0586
  37   2.0000      -0.400958       -10.9106
  38   2.0000      -0.376926       -10.2567
  39   2.0000      -0.374291       -10.1850
  40   2.0000      -0.359672        -9.7872
  41   2.0000      -0.357155        -9.7187
  42   2.0000      -0.353367        -9.6156
  43   2.0000      -0.337263        -9.1774
  44   2.0000      -0.315233        -8.5779
  45   2.0000      -0.313207        -8.5228
  46   2.0000      -0.306672        -8.3450
  47   2.0000      -0.266024        -7.2389
  48   2.0000      -0.261726        -7.1219
  49   2.0000      -0.254918        -6.9367
  50   2.0000      -0.243866        -6.6359
  51   0.0000       0.057613         1.5677
  52   0.0000       0.074499         2.0272
  53   0.0000       0.090019         2.4496
  54   0.0000       0.097154         2.6437
  55   0.0000       0.109274         2.9735

MULLIKEN ATOMIC CHARGES
-----------------------
   0 C :    0.264697
   1 C :   -0.259423
   2 C :   -0.298424
   3 C :   -0.003415
   4 O :   -0.506679
   5 H :    0.172139
   6 H :    0.147158
   7 H :    0.143557
   8 H :    0.141726
   9 H :    0.162698
  10 H :    0.153096
  11 H :    0.144390
  12 C :   -0.014826
  13 H :    0.152786
  14 H :    0.152859
  15 O :   -0.540320
  16 C :    0.038909
  17 C :    0.109089
  18 C :   -0.313689
  19 C :   -0.023755
  20 O :   -0.519710
  21 H :    0.153493
  22 H :    0.162824
  23 O :   -0.607247
  24 H :    0.159788
  25 H :    0.143545
  26 H :    0.147068
  27 H :    0.153898
  28 H :    0.383770
Sum of atomic charges:    0.0000000

LOEWDIN ATOMIC CHARGES
----------------------
   0 C :    0.164923
   1 C :   -0.224706
   2 C :   -0.216020
   3 C :   -0.025816
   4 O :   -0.307430
   5 H :    0.109974
   6 H :    0.114635
   7 H :    0.115750
   8 H :    0.114118
   9 H :    0.119408
  10 H :    0.108674
  11 H :    0.103617
  12 C :   -0.050561
  13 H :    0.110593
  14 H :    0.106041
  15 O :   -0.346282
  16 C :    0.001787
  17 C :    0.035325
  18 C :   -0.239643
  19 C :   -0.032610
  20 O :   -0.319319
  21 H :    0.110664
  22 H :    0.115761
  23 O :   -0.406234
  24 H :    0.124625
  25 H :    0.110163
  26 H :    0.104129
  27 H :    0.108052
  28 H :    0.290379

  Mayer bond orders larger than 0.100000
B(  0-C ,  1-C ) :   0.9355 B(  0-C ,  4-O ) :   0.9189 B(  0-C ,  5-H ) :   0.9007
B(  0-C , 15-O ) :   0.8042 B(  1-C ,  2-C ) :   0.9526 B(  1-C ,  6-H ) :   0.9352
B(  1-C ,  7-H ) :   0.9389 B(  2-C ,  3-C ) :   0.9547 B(  2-C ,  8-H ) :   0.9451
B(  2-C ,  9-H ) :   0.9437 B(  3-C ,  4-O ) :   0.8334 B(  3-C , 10-H ) :   0.9352
B(  3-C , 11-H ) :   0.9397 B( 12-C , 13-H ) :   0.9349 B( 12-C , 14-H ) :   0.9217
B( 12-C , 15-O ) :   0.8261 B( 12-C , 16-C ) :   0.8898 B( 16-C , 17-C ) :   0.8883
B( 16-C , 20-O ) :   0.8406 B( 16-C , 21-H ) :   0.9292 B( 17-C , 18-C ) :   0.9095
B( 17-C , 22-H ) :   0.9324 B( 17-C , 23-O ) :   0.9224 B( 18-C , 19-C ) :   0.9398
B( 18-C , 24-H ) :   0.9423 B( 18-C , 25-H ) :   0.9431 B( 19-C , 20-O ) :   0.8305
B( 19-C , 26-H ) :   0.9330 B( 19-C , 27-H ) :   0.9382 B( 23-O , 28-H ) :   0.7560

FINAL SINGLE POINT ENERGY      -652.857100025228

DIPOLE MOMENT
-------------
                                X             Y             Z
Electronic contribution:      0.20737      -2.54716      -0.35942
Nuclear contribution   :     -0.47685       3.17752       0.14568
                        -----------------------------------------
Total Dipole Moment    :     -0.26948       0.63036      -0.21374
                        -----------------------------------------
Magnitude (a.u.)       :      0.71810
Magnitude (Debye)      :      1.82526

Rotational constants in cm-1:     0.063484     0.014067     0.012666
Rotational constants in MHz :  1903.207649   421.723248   379.715180

                             ****ORCA TERMINATED NORMALLY****
TOTAL RUN TIME: 0 days 1 hours 41 minutes 45 seconds 265 msec
