                         Program Version 4.2.0 -  RELEASE  -
|  1> # Test redundant internal optimization
|  2> #
|  3> ! RKS B3LYP  Opt TightSCF SmallPrint
|  4>
|  5> %basis
|  6>         Basis "6-31G"
|  7> end
|  8>
|  9> %geom
| 10> Constraints
| 11> { D 4  0  15  12  270.0   C } # D for Dihedral angle
| 12> { D 0  15  12  16  15.0   C } # D for Dihedral angle
| 13> { D 0  4  3  2   C } # D for Dihedral angle
| 14> { D 4  3  2  1   C } # D for Dihedral angle
| 15> { D 3  2  1  0   C } # D for Dihedral angle
| 16> { D 2  1  0  4   C } # D for Dihedral angle
| 17> { D 1  0  4  3   C } # D for Dihedral angle
| 18> { D 16  20  19  18   C } # D for Dihedral angle
| 19> { D 20  19  18  17   C } # D for Dihedral angle
| 20> { D 19  18  17  16   C } # D for Dihedral angle
| 21> { D 18  17  16  20   C } # D for Dihedral angle
| 22> { D 17  16  20  19   C } # D for Dihedral angle
| 23> { D 15  12  16  20   C } # D for Dihedral angle
| 24> end
| 25> end
| 26>
| 27>
| 28> #%pal
| 29> #nprocs 8
| 30> #end
| 31>
| 32> * xyz 0 1
| 33> C  -21.048   26.222   46.251
| 34> C  -20.361   27.558   45.944
| 35> C  -20.329   28.222   47.341
| 36> C  -20.110   27.022   48.296
| 37> O  -20.473   25.807   47.535
| 38> H  -20.833   25.428   45.533
| 39> H  -19.344   27.382   45.576
| 40> H  -20.898   28.157   45.201
| 41> H  -19.543   28.978   47.434
| 42> H  -21.289   28.710   47.548
| 43> H  -20.733   27.082   49.195
| 44> H  -19.064   26.913   48.597
| 45> C  -23.420   25.119   46.072
| 46> H  -24.201   25.008   46.835
| 47> H  -23.906   25.202   45.092
| 48> O  -22.586   26.394   46.375
| 49> C  -22.558   23.826   46.064
| 50> C  -21.973   23.538   47.451
| 51> C  -23.186   22.910   48.179
| 52> C  -23.896   22.114   47.055
| 53> O  -23.393   22.655   45.774
| 54> H  -21.817   23.895   45.266
| 55> O  -20.811   22.514   47.337
| 56> H  -21.594   24.434   47.954
| 57> H  -22.893   22.273   49.020
| 58> H  -23.841   23.699   48.568
| 59> H  -24.985   22.224   47.088
| 60> H  -23.648   21.050   47.076
| 61> H  -21.168   21.606   46.837
| 62> *
| 63>
| 64>                          ****END OF INPUT****
 Total Charge           Charge          ....    0
 Multiplicity           Mult            ....    1
 Number of Electrons    NEL             ....  102
FINAL SINGLE POINT ENERGY      -652.825334531113
FINAL SINGLE POINT ENERGY      -652.847887913683
FINAL SINGLE POINT ENERGY      -652.858685495369
FINAL SINGLE POINT ENERGY      -652.860510055859
FINAL SINGLE POINT ENERGY      -652.860884741173
FINAL SINGLE POINT ENERGY      -652.860931127842
FINAL SINGLE POINT ENERGY      -652.860936303093
                    ***********************HURRAY********************

CARTESIAN COORDINATES (ANGSTROEM)
---------------------------------
  C    -20.881232   26.240000   46.247095
  C    -20.401755   27.662536   45.946811
  C    -20.522285   28.337286   47.334991
  C    -20.152750   27.196025   48.310384
  O    -20.299837   25.934744   47.540990
  H    -20.519173   25.472360   45.560036
  H    -19.357491   27.630418   45.615893
  H    -21.008382   28.142685   45.177129
  H    -19.862848   29.203570   47.441385
  H    -21.553982   28.662444   47.495441
  H    -20.806350   27.153431   49.185598
  H    -19.110789   27.239993   48.640640
  C    -23.145963   25.093378   46.067603
  H    -23.932571   25.139776   46.828036
  H    -23.623680   25.206610   45.087850
  O    -22.316974   26.279935   46.302616
  C    -22.493954   23.699825   46.094321
  C    -21.884251   23.227259   47.422838
  C    -23.151123   22.823886   48.222669
  C    -24.089047   22.247909   47.132401
  O    -23.575204   22.739164   45.828072
  H    -21.773392   23.584072   45.279264
  O    -21.016363   22.079589   47.187102
  H    -21.263007   23.975020   47.911653
  H    -22.899330   22.093956   48.996102
  H    -23.590910   23.701757   48.707448
  H    -25.128354   22.570867   47.246746
  H    -24.066328   21.153939   47.092654
  H    -21.473675   21.449567   46.590232

 Multiplicity           Mult            ....    1
 Number of Electrons    NEL             ....  102
 Basis Dimension        Dim             ....  149

ORBITAL ENERGIES
----------------

  NO   OCC          E(Eh)            E(eV)
   0   2.0000     -19.145837      -520.9847
   1   2.0000     -19.142682      -520.8989
   2   2.0000     -19.142187      -520.8854
   3   2.0000     -19.130144      -520.5577
   4   2.0000     -10.281774      -279.7813
   5   2.0000     -10.235015      -278.5089
   6   2.0000     -10.231042      -278.4008
   7   2.0000     -10.230731      -278.3923
   8   2.0000     -10.227739      -278.3109
   9   2.0000     -10.226094      -278.2662
  10   2.0000     -10.185381      -277.1583
  11   2.0000     -10.185152      -277.1521
  12   2.0000     -10.184718      -277.1403
  13   2.0000      -1.052782       -28.6477
  14   2.0000      -1.034447       -28.1487
  15   2.0000      -1.000037       -27.2124
  16   2.0000      -0.993038       -27.0219
  17   2.0000      -0.789136       -21.4735
  18   2.0000      -0.773435       -21.0462
  19   2.0000      -0.764783       -20.8108
  20   2.0000      -0.734895       -19.9975
  21   2.0000      -0.673697       -18.3322
  22   2.0000      -0.605809       -16.4849
  23   2.0000      -0.601342       -16.3634
  24   2.0000      -0.596158       -16.2223
  25   2.0000      -0.568402       -15.4670
  26   2.0000      -0.523191       -14.2368
  27   2.0000      -0.517761       -14.0890
  28   2.0000      -0.496313       -13.5054
  29   2.0000      -0.480821       -13.0838
  30   2.0000      -0.465080       -12.6555
  31   2.0000      -0.459161       -12.4944
  32   2.0000      -0.451905       -12.2970
  33   2.0000      -0.430512       -11.7148
  34   2.0000      -0.422298       -11.4913
  35   2.0000      -0.412551       -11.2261
  36   2.0000      -0.401249       -10.9185
  37   2.0000      -0.389367       -10.5952
  38   2.0000      -0.374720       -10.1967
  39   2.0000      -0.365423        -9.9437
  40   2.0000      -0.360380        -9.8064
  41   2.0000      -0.355723        -9.6797
  42   2.0000      -0.348606        -9.4861
  43   2.0000      -0.332689        -9.0529
  44   2.0000      -0.322054        -8.7635
  45   2.0000      -0.307177        -8.3587
  46   2.0000      -0.301641        -8.2081
  47   2.0000      -0.267308        -7.2738
  48   2.0000      -0.264074        -7.1858
  49   2.0000      -0.253818        -6.9067
  50   2.0000      -0.241275        -6.5654
  51   0.0000       0.065270         1.7761
  52   0.0000       0.074411         2.0248
  53   0.0000       0.095888         2.6092
  54   0.0000       0.099333         2.7030
  55   0.0000       0.103033         2.8037

MULLIKEN ATOMIC CHARGES
-----------------------
   0 C :    0.280692
   1 C :   -0.251402
   2 C :   -0.297381
   3 C :   -0.001417
   4 O :   -0.509765
   5 H :    0.151162
   6 H :    0.145331
   7 H :    0.155780
   8 H :    0.140282
   9 H :    0.163983
  10 H :    0.146776
  11 H :    0.144889
  12 C :    0.014420
  13 H :    0.146036
  14 H :    0.153758
  15 O :   -0.536563
  16 C :    0.019926
  17 C :    0.059408
  18 C :   -0.297218
  19 C :   -0.040933
  20 O :   -0.526923
  21 H :    0.160159
  22 O :   -0.601268
  23 H :    0.215466
  24 H :    0.162391
  25 H :    0.146806
  26 H :    0.147967
  27 H :    0.149261
  28 H :    0.358376
Sum of atomic charges:    0.0000000

LOEWDIN ATOMIC CHARGES
----------------------
   0 C :    0.171822
   1 C :   -0.212731
   2 C :   -0.214858
   3 C :   -0.027766
   4 O :   -0.326083
   5 H :    0.100597
   6 H :    0.113714
   7 H :    0.123678
   8 H :    0.113406
   9 H :    0.120056
  10 H :    0.105090
  11 H :    0.103808
  12 C :   -0.038209
  13 H :    0.107786
  14 H :    0.109884
  15 O :   -0.332371
  16 C :    0.001892
  17 C :    0.025602
  18 C :   -0.240656
  19 C :   -0.041735
  20 O :   -0.328383
  21 H :    0.110901
  22 O :   -0.415018
  23 H :    0.142286
  24 H :    0.126766
  25 H :    0.114799
  26 H :    0.104455
  27 H :    0.103367
  28 H :    0.277901

  Mayer bond orders larger than 0.100000
B(  0-C ,  1-C ) :   0.9462 B(  0-C ,  4-O ) :   0.8891 B(  0-C ,  5-H ) :   0.9167
B(  0-C , 15-O ) :   0.8639 B(  1-C ,  2-C ) :   0.9580 B(  1-C ,  6-H ) :   0.9399
B(  1-C ,  7-H ) :   0.9376 B(  2-C ,  3-C ) :   0.9538 B(  2-C ,  8-H ) :   0.9455
B(  2-C ,  9-H ) :   0.9436 B(  3-C ,  4-O ) :   0.8315 B(  3-C , 10-H ) :   0.9360
B(  3-C , 11-H ) :   0.9402 B( 12-C , 13-H ) :   0.9336 B( 12-C , 14-H ) :   0.9229
B( 12-C , 15-O ) :   0.8275 B( 12-C , 16-C ) :   0.8923 B( 16-C , 17-C ) :   0.9036
B( 16-C , 20-O ) :   0.8254 B( 16-C , 21-H ) :   0.9238 B( 17-C , 18-C ) :   0.9106
B( 17-C , 22-O ) :   0.8829 B( 17-C , 23-H ) :   0.8892 B( 18-C , 19-C ) :   0.9408
B( 18-C , 24-H ) :   0.9374 B( 18-C , 25-H ) :   0.9348 B( 19-C , 20-O ) :   0.8413
B( 19-C , 26-H ) :   0.9354 B( 19-C , 27-H ) :   0.9374 B( 22-O , 28-H ) :   0.7970

FINAL SINGLE POINT ENERGY      -652.860937533536

DIPOLE MOMENT
-------------
                                X             Y             Z
Electronic contribution:      0.18693      -3.66774      -2.21186
Nuclear contribution   :     -0.49053       4.32783       2.39147
                        -----------------------------------------
Total Dipole Moment    :     -0.30360       0.66009       0.17961
                        -----------------------------------------
Magnitude (a.u.)       :      0.74843
Magnitude (Debye)      :      1.90236

Rotational constants in cm-1:     0.054836     0.014704     0.013424
Rotational constants in MHz :  1643.947557   440.815871   402.452488

                             ****ORCA TERMINATED NORMALLY****
TOTAL RUN TIME: 0 days 0 hours 29 minutes 24 seconds 316 msec
