                         Program Version 4.2.0 -  RELEASE  -
|  1> # Test redundant internal optimization
|  2> #
|  3> ! RKS B3LYP  Opt TightSCF SmallPrint
|  4>
|  5> %basis
|  6>         Basis "6-31G"
|  7> end
|  8>
|  9> %geom
| 10> Constraints
| 11> { D 4  0  15  12  210.0   C } # D for Dihedral angle
| 12> { D 0  15  12  16  195.0   C } # D for Dihedral angle
| 13> { D 0  4  3  2   C } # D for Dihedral angle
| 14> { D 4  3  2  1   C } # D for Dihedral angle
| 15> { D 3  2  1  0   C } # D for Dihedral angle
| 16> { D 2  1  0  4   C } # D for Dihedral angle
| 17> { D 1  0  4  3   C } # D for Dihedral angle
| 18> { D 16  20  19  18   C } # D for Dihedral angle
| 19> { D 20  19  18  17   C } # D for Dihedral angle
| 20> { D 19  18  17  16   C } # D for Dihedral angle
| 21> { D 18  17  16  20   C } # D for Dihedral angle
| 22> { D 17  16  20  19   C } # D for Dihedral angle
| 23> { D 15  12  16  20   C } # D for Dihedral angle
| 24> end
| 25> end
| 26>
| 27>
| 28> #%pal
| 29> #nprocs 8
| 30> #end
| 31>
| 32> * xyz 0 1
| 33> C  -21.048   26.222   46.251
| 34> C  -20.361   27.558   45.944
| 35> C  -20.329   28.222   47.341
| 36> C  -20.110   27.022   48.296
| 37> O  -20.473   25.807   47.535
| 38> H  -20.833   25.428   45.533
| 39> H  -19.344   27.382   45.576
| 40> H  -20.898   28.157   45.201
| 41> H  -19.543   28.978   47.434
| 42> H  -21.289   28.710   47.548
| 43> H  -20.733   27.082   49.195
| 44> H  -19.064   26.913   48.597
| 45> C  -23.389   26.110   45.076
| 46> H  -22.885   26.588   44.227
| 47> H  -23.438   25.031   44.883
| 48> O  -22.586   26.394   46.375
| 49> C  -24.847   26.645   45.142
| 50> C  -25.642   26.248   43.894
| 51> C  -26.004   24.776   44.209
| 52> C  -26.223   24.788   45.742
| 53> O  -25.574   26.016   46.250
| 54> H  -24.825   27.719   45.342
| 55> O  -26.925   27.116   43.781
| 56> H  -25.070   26.355   42.967
| 57> H  -26.889   24.431   43.664
| 58> H  -25.169   24.118   43.943
| 59> H  -25.778   23.917   46.236
| 60> H  -27.281   24.847   46.013
| 61> H  -27.515   27.023   44.700
| 62> *
| 63>
| 64>                          ****END OF INPUT****
 Total Charge           Charge          ....    0
 Multiplicity           Mult            ....    1
 Number of Electrons    NEL             ....  102
FINAL SINGLE POINT ENERGY      -652.829796651077
FINAL SINGLE POINT ENERGY      -652.853477261974
FINAL SINGLE POINT ENERGY      -652.857180913808
FINAL SINGLE POINT ENERGY      -652.857852676266
FINAL SINGLE POINT ENERGY      -652.857940959586
FINAL SINGLE POINT ENERGY      -652.857950989886
                    ***********************HURRAY********************

CARTESIAN COORDINATES (ANGSTROEM)
---------------------------------
  C    -21.089563   26.199676   46.170100
  C    -20.452131   27.561055   45.901792
  C    -20.522766   28.227925   47.295945
  C    -20.300198   27.041875   48.257754
  O    -20.575122   25.819586   47.455212
  H    -20.825470   25.404398   45.464886
  H    -19.411097   27.422272   45.585837
  H    -20.975453   28.130386   45.128165
  H    -19.776166   29.017328   47.423242
  H    -21.516599   28.660038   47.444870
  H    -20.974000   27.051265   49.117490
  H    -19.265740   26.961112   48.604571
  C    -23.257687   26.025756   45.040395
  H    -22.789438   26.526199   44.176872
  H    -23.245626   24.941279   44.855709
  O    -22.537973   26.322088   46.263399
  C    -24.682830   26.551917   45.186061
  C    -25.575907   26.265398   43.971289
  C    -26.036223   24.809245   44.254181
  C    -26.167899   24.779724   45.796888
  O    -25.394383   25.937395   46.307428
  H    -24.635472   27.622895   45.403390
  O    -26.699682   27.186761   43.928935
  H    -25.073274   26.380259   43.009793
  H    -26.975649   24.595749   43.738638
  H    -25.280835   24.096766   43.903745
  H    -25.768658   23.862771   46.239791
  H    -27.201566   24.908194   46.132854
  H    -27.057591   27.293687   44.835767

 Multiplicity           Mult            ....    1
 Number of Electrons    NEL             ....  102
 Basis Dimension        Dim             ....  149

ORBITAL ENERGIES
----------------

  NO   OCC          E(Eh)            E(eV)
   0   2.0000     -19.140394      -520.8366
   1   2.0000     -19.140232      -520.8322
   2   2.0000     -19.139162      -520.8031
   3   2.0000     -19.137601      -520.7606
   4   2.0000     -10.278217      -279.6845
   5   2.0000     -10.245024      -278.7813
   6   2.0000     -10.236257      -278.5427
   7   2.0000     -10.236104      -278.5385
   8   2.0000     -10.229393      -278.3559
   9   2.0000     -10.221971      -278.1540
  10   2.0000     -10.190795      -277.3056
  11   2.0000     -10.185728      -277.1678
  12   2.0000     -10.183932      -277.1189
  13   2.0000      -1.052157       -28.6306
  14   2.0000      -1.036962       -28.2172
  15   2.0000      -1.007342       -27.4112
  16   2.0000      -0.993054       -27.0224
  17   2.0000      -0.788390       -21.4532
  18   2.0000      -0.782714       -21.2987
  19   2.0000      -0.768488       -20.9116
  20   2.0000      -0.729858       -19.8604
  21   2.0000      -0.675254       -18.3746
  22   2.0000      -0.605756       -16.4835
  23   2.0000      -0.598150       -16.2765
  24   2.0000      -0.590748       -16.0751
  25   2.0000      -0.585941       -15.9443
  26   2.0000      -0.525467       -14.2987
  27   2.0000      -0.512843       -13.9552
  28   2.0000      -0.496087       -13.4992
  29   2.0000      -0.488361       -13.2890
  30   2.0000      -0.475571       -12.9409
  31   2.0000      -0.459967       -12.5163
  32   2.0000      -0.453671       -12.3450
  33   2.0000      -0.439330       -11.9548
  34   2.0000      -0.429662       -11.6917
  35   2.0000      -0.404724       -11.0131
  36   2.0000      -0.402845       -10.9620
  37   2.0000      -0.394455       -10.7337
  38   2.0000      -0.374771       -10.1980
  39   2.0000      -0.373015       -10.1503
  40   2.0000      -0.359571        -9.7844
  41   2.0000      -0.355954        -9.6860
  42   2.0000      -0.352340        -9.5877
  43   2.0000      -0.332655        -9.0520
  44   2.0000      -0.311521        -8.4769
  45   2.0000      -0.309309        -8.4167
  46   2.0000      -0.303924        -8.2702
  47   2.0000      -0.272716        -7.4210
  48   2.0000      -0.259503        -7.0614
  49   2.0000      -0.252236        -6.8637
  50   2.0000      -0.241225        -6.5641
  51   0.0000       0.065070         1.7706
  52   0.0000       0.082512         2.2453
  53   0.0000       0.085614         2.3297
  54   0.0000       0.096845         2.6353
  55   0.0000       0.101104         2.7512

MULLIKEN ATOMIC CHARGES
-----------------------
   0 C :    0.292534
   1 C :   -0.262437
   2 C :   -0.298814
   3 C :   -0.001214
   4 O :   -0.501820
   5 H :    0.135862
   6 H :    0.142939
   7 H :    0.141077
   8 H :    0.140895
   9 H :    0.163753
  10 H :    0.157624
  11 H :    0.140019
  12 C :   -0.000191
  13 H :    0.119156
  14 H :    0.131957
  15 O :   -0.497984
  16 C :    0.066123
  17 C :    0.077245
  18 C :   -0.296532
  19 C :   -0.025426
  20 O :   -0.505720
  21 H :    0.166214
  22 O :   -0.602484
  23 H :    0.148446
  24 H :    0.162829
  25 H :    0.143676
  26 H :    0.151219
  27 H :    0.144575
  28 H :    0.366481
Sum of atomic charges:    0.0000000

LOEWDIN ATOMIC CHARGES
----------------------
   0 C :    0.177332
   1 C :   -0.227598
   2 C :   -0.216624
   3 C :   -0.024887
   4 O :   -0.305816
   5 H :    0.095959
   6 H :    0.112502
   7 H :    0.113807
   8 H :    0.113946
   9 H :    0.120113
  10 H :    0.111209
  11 H :    0.101534
  12 C :   -0.042597
  13 H :    0.089675
  14 H :    0.094704
  15 O :   -0.323226
  16 C :    0.018655
  17 C :    0.035188
  18 C :   -0.241395
  19 C :   -0.036801
  20 O :   -0.317167
  21 H :    0.119581
  22 O :   -0.414264
  23 H :    0.113559
  24 H :    0.126851
  25 H :    0.112275
  26 H :    0.107295
  27 H :    0.101931
  28 H :    0.284260

  Mayer bond orders larger than 0.100000
B(  0-C ,  1-C ) :   0.9332 B(  0-C ,  4-O ) :   0.9377 B(  0-C ,  5-H ) :   0.9192
B(  0-C , 15-O ) :   0.8328 B(  1-C ,  2-C ) :   0.9544 B(  1-C ,  6-H ) :   0.9343
B(  1-C ,  7-H ) :   0.9372 B(  2-C ,  3-C ) :   0.9555 B(  2-C ,  8-H ) :   0.9450
B(  2-C ,  9-H ) :   0.9431 B(  3-C ,  4-O ) :   0.8357 B(  3-C , 10-H ) :   0.9338
B(  3-C , 11-H ) :   0.9397 B( 12-C , 13-H ) :   0.9070 B( 12-C , 14-H ) :   0.9140
B( 12-C , 15-O ) :   0.8492 B( 12-C , 16-C ) :   0.9006 B( 16-C , 17-C ) :   0.8989
B( 16-C , 20-O ) :   0.8729 B( 16-C , 21-H ) :   0.9240 B( 17-C , 18-C ) :   0.9119
B( 17-C , 22-O ) :   0.8940 B( 17-C , 23-H ) :   0.9338 B( 18-C , 19-C ) :   0.9376
B( 18-C , 24-H ) :   0.9375 B( 18-C , 25-H ) :   0.9340 B( 19-C , 20-O ) :   0.8508
B( 19-C , 26-H ) :   0.9340 B( 19-C , 27-H ) :   0.9382 B( 22-O , 28-H ) :   0.7927

FINAL SINGLE POINT ENERGY      -652.857952801664

DIPOLE MOMENT
-------------
                                X             Y             Z
Electronic contribution:     -2.31576      -0.88853       1.41158
Nuclear contribution   :      2.72692       0.96223      -2.12999
                        -----------------------------------------
Total Dipole Moment    :      0.41116       0.07370      -0.71840
                        -----------------------------------------
Magnitude (a.u.)       :      0.83102
Magnitude (Debye)      :      2.11228

Rotational constants in cm-1:     0.064018     0.011332     0.010814
Rotational constants in MHz :  1919.205463   339.731217   324.203886

                             ****ORCA TERMINATED NORMALLY****
TOTAL RUN TIME: 0 days 1 hours 2 minutes 0 seconds 276 msec
