                         Program Version 4.2.0 -  RELEASE  -
|  1> # Test redundant internal optimization
|  2> #
|  3> ! RKS B3LYP  Opt TightSCF SmallPrint
|  4>
|  5> %basis
|  6>         Basis "6-31G"
|  7> end
|  8>
|  9> %geom
| 10> Constraints
| 11> { D 4  0  15  12  60.0   C } # D for Dihedral angle
| 12> { D 0  15  12  16  225.0   C } # D for Dihedral angle
| 13> { D 0  4  3  2   C } # D for Dihedral angle
| 14> { D 4  3  2  1   C } # D for Dihedral angle
| 15> { D 3  2  1  0   C } # D for Dihedral angle
| 16> { D 2  1  0  4   C } # D for Dihedral angle
| 17> { D 1  0  4  3   C } # D for Dihedral angle
| 18> { D 16  20  19  18   C } # D for Dihedral angle
| 19> { D 20  19  18  17   C } # D for Dihedral angle
| 20> { D 19  18  17  16   C } # D for Dihedral angle
| 21> { D 18  17  16  20   C } # D for Dihedral angle
| 22> { D 17  16  20  19   C } # D for Dihedral angle
| 23> { D 15  12  16  20   C } # D for Dihedral angle
| 24> end
| 25> end
| 26>
| 27>
| 28> #%pal
| 29> #nprocs 8
| 30> #end
| 31>
| 32> * xyz 0 1
| 33> C  -21.048   26.222   46.251
| 34> C  -20.361   27.558   45.944
| 35> C  -20.329   28.222   47.341
| 36> C  -20.110   27.022   48.296
| 37> O  -20.473   25.807   47.535
| 38> H  -20.833   25.428   45.533
| 39> H  -19.344   27.382   45.576
| 40> H  -20.898   28.157   45.201
| 41> H  -19.543   28.978   47.434
| 42> H  -21.289   28.710   47.548
| 43> H  -20.733   27.082   49.195
| 44> H  -19.064   26.913   48.597
| 45> C  -23.051   27.452   47.413
| 46> H  -22.208   27.713   48.066
| 47> H  -23.388   28.365   46.907
| 48> O  -22.586   26.394   46.375
| 49> C  -24.219   26.946   48.304
| 50> C  -25.405   26.476   47.453
| 51> C  -24.933   25.071   47.008
| 52> C  -24.138   24.560   48.236
| 53> O  -23.814   25.751   49.051
| 54> H  -24.467   27.714   49.039
| 55> O  -26.682   26.371   48.331
| 56> H  -25.619   27.139   46.609
| 57> H  -25.763   24.408   46.742
| 58> H  -24.278   25.154   46.132
| 59> H  -23.209   24.054   47.954
| 60> H  -24.730   23.890   48.866
| 61> H  -26.490   25.710   49.183
| 62> *
| 63>
| 64>                          ****END OF INPUT****
 Total Charge           Charge          ....    0
 Multiplicity           Mult            ....    1
 Number of Electrons    NEL             ....  102
FINAL SINGLE POINT ENERGY      -652.810701277240
FINAL SINGLE POINT ENERGY      -652.840187312989
FINAL SINGLE POINT ENERGY      -652.855229597245
FINAL SINGLE POINT ENERGY      -652.857812496780
FINAL SINGLE POINT ENERGY      -652.858141954660
FINAL SINGLE POINT ENERGY      -652.858194995683
FINAL SINGLE POINT ENERGY      -652.858202637086
FINAL SINGLE POINT ENERGY      -652.858202005387
                    ***********************HURRAY********************

CARTESIAN COORDINATES (ANGSTROEM)
---------------------------------
  C    -21.159396   26.374015   46.427799
  C    -20.336141   27.580855   45.956820
  C    -20.011585   28.298217   47.299580
  C    -19.837764   27.110739   48.280877
  O    -20.483127   25.943342   47.627408
  H    -21.110543   25.532373   45.735045
  H    -19.419230   27.215157   45.483015
  H    -20.876070   28.209116   45.243479
  H    -19.102250   28.904092   47.234468
  H    -20.826551   28.962843   47.597922
  H    -20.309212   27.274237   49.254215
  H    -18.786895   26.847631   48.432167
  C    -23.175510   27.498095   47.498972
  H    -22.444221   27.794959   48.253947
  H    -23.515032   28.391011   46.956042
  O    -22.586385   26.552694   46.559211
  C    -24.345670   26.860700   48.252557
  C    -25.519891   26.351596   47.403918
  C    -25.015120   24.947557   46.974542
  C    -24.212975   24.473432   48.210960
  O    -23.919354   25.688347   49.009996
  H    -24.705281   27.599465   48.979855
  O    -26.735651   26.283971   48.203558
  H    -25.767795   26.998600   46.561612
  H    -25.856708   24.291866   46.734178
  H    -24.361465   25.046605   46.106880
  H    -23.264917   24.002549   47.941777
  H    -24.784005   23.796542   48.855792
  H    -26.536256   25.818397   49.043406

 Multiplicity           Mult            ....    1
 Number of Electrons    NEL             ....  102
 Basis Dimension        Dim             ....  149

ORBITAL ENERGIES
----------------

  NO   OCC          E(Eh)            E(eV)
   0   2.0000     -19.147692      -521.0352
   1   2.0000     -19.145072      -520.9639
   2   2.0000     -19.132444      -520.6203
   3   2.0000     -19.130728      -520.5736
   4   2.0000     -10.282604      -279.8039
   5   2.0000     -10.234352      -278.4909
   6   2.0000     -10.232063      -278.4286
   7   2.0000     -10.231916      -278.4246
   8   2.0000     -10.230263      -278.3796
   9   2.0000     -10.216079      -277.9936
  10   2.0000     -10.196231      -277.4536
  11   2.0000     -10.193286      -277.3734
  12   2.0000     -10.170568      -276.7552
  13   2.0000      -1.055518       -28.7221
  14   2.0000      -1.028069       -27.9752
  15   2.0000      -1.001808       -27.2606
  16   2.0000      -0.993407       -27.0320
  17   2.0000      -0.791696       -21.5431
  18   2.0000      -0.778355       -21.1801
  19   2.0000      -0.760798       -20.7024
  20   2.0000      -0.733761       -19.9667
  21   2.0000      -0.675786       -18.3891
  22   2.0000      -0.607271       -16.5247
  23   2.0000      -0.603826       -16.4309
  24   2.0000      -0.591564       -16.0973
  25   2.0000      -0.567279       -15.4364
  26   2.0000      -0.523856       -14.2549
  27   2.0000      -0.509518       -13.8647
  28   2.0000      -0.496943       -13.5225
  29   2.0000      -0.483486       -13.1563
  30   2.0000      -0.475097       -12.9280
  31   2.0000      -0.458235       -12.4692
  32   2.0000      -0.446696       -12.1552
  33   2.0000      -0.433966       -11.8088
  34   2.0000      -0.423617       -11.5272
  35   2.0000      -0.415063       -11.2944
  36   2.0000      -0.400331       -10.8936
  37   2.0000      -0.384744       -10.4694
  38   2.0000      -0.381845       -10.3905
  39   2.0000      -0.364361        -9.9148
  40   2.0000      -0.363128        -9.8812
  41   2.0000      -0.357241        -9.7210
  42   2.0000      -0.347989        -9.4693
  43   2.0000      -0.323730        -8.8091
  44   2.0000      -0.318660        -8.6712
  45   2.0000      -0.308678        -8.3996
  46   2.0000      -0.295201        -8.0328
  47   2.0000      -0.270905        -7.3717
  48   2.0000      -0.261915        -7.1271
  49   2.0000      -0.255864        -6.9624
  50   2.0000      -0.236025        -6.4226
  51   0.0000       0.068514         1.8644
  52   0.0000       0.078865         2.1460
  53   0.0000       0.092223         2.5095
  54   0.0000       0.105101         2.8599
  55   0.0000       0.108317         2.9475

MULLIKEN ATOMIC CHARGES
-----------------------
   0 C :    0.303641
   1 C :   -0.271256
   2 C :   -0.320154
   3 C :   -0.015424
   4 O :   -0.500133
   5 H :    0.162669
   6 H :    0.154899
   7 H :    0.149896
   8 H :    0.147951
   9 H :    0.149668
  10 H :    0.155784
  11 H :    0.149017
  12 C :   -0.003755
  13 H :    0.149756
  14 H :    0.130449
  15 O :   -0.529778
  16 C :    0.073596
  17 C :    0.071955
  18 C :   -0.285804
  19 C :   -0.023462
  20 O :   -0.524720
  21 H :    0.151625
  22 O :   -0.603731
  23 H :    0.149081
  24 H :    0.146103
  25 H :    0.174561
  26 H :    0.162665
  27 H :    0.133057
  28 H :    0.361846
Sum of atomic charges:   -0.0000000

LOEWDIN ATOMIC CHARGES
----------------------
   0 C :    0.176029
   1 C :   -0.227925
   2 C :   -0.225850
   3 C :   -0.034613
   4 O :   -0.315824
   5 H :    0.111586
   6 H :    0.121076
   7 H :    0.119244
   8 H :    0.116927
   9 H :    0.109763
  10 H :    0.106981
  11 H :    0.106049
  12 C :   -0.039756
  13 H :    0.108697
  14 H :    0.098346
  15 O :   -0.324457
  16 C :    0.012946
  17 C :    0.038012
  18 C :   -0.242042
  19 C :   -0.033357
  20 O :   -0.328158
  21 H :    0.113526
  22 O :   -0.418521
  23 H :    0.114392
  24 H :    0.117127
  25 H :    0.130455
  26 H :    0.113420
  27 H :    0.094642
  28 H :    0.281282

  Mayer bond orders larger than 0.100000
B(  0-C ,  1-C ) :   0.9186 B(  0-C ,  4-O ) :   0.9106 B(  0-C ,  5-H ) :   0.9366
B(  0-C , 15-O ) :   0.8854 B(  1-C ,  2-C ) :   0.9546 B(  1-C ,  6-H ) :   0.9352
B(  1-C ,  7-H ) :   0.9376 B(  2-C ,  3-C ) :   0.9473 B(  2-C ,  8-H ) :   0.9448
B(  2-C ,  9-H ) :   0.9409 B(  3-C ,  4-O ) :   0.8405 B(  3-C , 10-H ) :   0.9301
B(  3-C , 11-H ) :   0.9383 B( 12-C , 13-H ) :   0.9102 B( 12-C , 14-H ) :   0.9184
B( 12-C , 15-O ) :   0.8436 B( 12-C , 16-C ) :   0.8910 B( 16-C , 17-C ) :   0.9110
B( 16-C , 20-O ) :   0.8812 B( 16-C , 21-H ) :   0.9208 B( 17-C , 18-C ) :   0.9263
B( 17-C , 22-O ) :   0.8912 B( 17-C , 23-H ) :   0.9359 B( 18-C , 19-C ) :   0.9447
B( 18-C , 24-H ) :   0.9372 B( 18-C , 25-H ) :   0.9191 B( 19-C , 20-O ) :   0.8347
B( 19-C , 26-H ) :   0.9317 B( 19-C , 27-H ) :   0.9375 B( 22-O , 28-H ) :   0.7960

FINAL SINGLE POINT ENERGY      -652.858200705402

DIPOLE MOMENT
-------------
                                X             Y             Z
Electronic contribution:     -3.33995      -2.49552       1.55104
Nuclear contribution   :      4.35826       3.28496      -1.98478
                        -----------------------------------------
Total Dipole Moment    :      1.01831       0.78944      -0.43374
                        -----------------------------------------
Magnitude (a.u.)       :      1.35952
Magnitude (Debye)      :      3.45562

Rotational constants in cm-1:     0.060391     0.014416     0.014068
Rotational constants in MHz :  1810.477843   432.166656   421.741093

                             ****ORCA TERMINATED NORMALLY****
TOTAL RUN TIME: 0 days 1 hours 8 minutes 48 seconds 427 msec
