                         Program Version 4.2.0 -  RELEASE  -
|  1> # Test redundant internal optimization
|  2> #
|  3> ! RKS B3LYP  Opt TightSCF SmallPrint
|  4>
|  5> %basis
|  6>         Basis "6-31G"
|  7> end
|  8>
|  9> %geom
| 10> Constraints
| 11> { D 4  0  15  12  150.0   C } # D for Dihedral angle
| 12> { D 0  15  12  16  60.0   C } # D for Dihedral angle
| 13> { D 0  4  3  2   C } # D for Dihedral angle
| 14> { D 4  3  2  1   C } # D for Dihedral angle
| 15> { D 3  2  1  0   C } # D for Dihedral angle
| 16> { D 2  1  0  4   C } # D for Dihedral angle
| 17> { D 1  0  4  3   C } # D for Dihedral angle
| 18> { D 16  20  19  18   C } # D for Dihedral angle
| 19> { D 20  19  18  17   C } # D for Dihedral angle
| 20> { D 19  18  17  16   C } # D for Dihedral angle
| 21> { D 18  17  16  20   C } # D for Dihedral angle
| 22> { D 17  16  20  19   C } # D for Dihedral angle
| 23> { D 15  12  16  20   C } # D for Dihedral angle
| 24> end
| 25> end
| 26>
| 27>
| 28> #%pal
| 29> #nprocs 8
| 30> #end
| 31>
| 32> * xyz 0 1
| 33> C  -21.048   26.222   46.251
| 34> C  -20.361   27.558   45.944
| 35> C  -20.329   28.222   47.341
| 36> C  -20.110   27.022   48.296
| 37> O  -20.473   25.807   47.535
| 38> H  -20.833   25.428   45.533
| 39> H  -19.344   27.382   45.576
| 40> H  -20.898   28.157   45.201
| 41> H  -19.543   28.978   47.434
| 42> H  -21.289   28.710   47.548
| 43> H  -20.733   27.082   49.195
| 44> H  -19.064   26.913   48.597
| 45> C  -23.210   27.459   45.431
| 46> H  -24.292   27.506   45.605
| 47> H  -22.785   28.450   45.637
| 48> O  -22.586   26.394   46.375
| 49> C  -22.969   27.144   43.929
| 50> C  -23.495   28.271   43.033
| 51> C  -22.365   29.321   43.153
| 52> C  -21.087   28.451   43.256
| 53> O  -21.532   27.094   43.639
| 54> H  -23.376   26.157   43.700
| 55> O  -23.626   27.771   41.569
| 56> H  -24.469   28.657   43.355
| 57> H  -22.333   30.010   42.303
| 58> H  -22.501   29.918   44.063
| 59> H  -20.385   28.825   44.011
| 60> H  -20.565   28.362   42.300
| 61> H  -22.661   27.381   41.226
| 62> *
| 63>
| 64>                          ****END OF INPUT****
 Total Charge           Charge          ....    0
 Multiplicity           Mult            ....    1
 Number of Electrons    NEL             ....  102
FINAL SINGLE POINT ENERGY      -652.803163349680
FINAL SINGLE POINT ENERGY      -652.834347291552
FINAL SINGLE POINT ENERGY      -652.849466850691
FINAL SINGLE POINT ENERGY      -652.851923698400
FINAL SINGLE POINT ENERGY      -652.852388825099
FINAL SINGLE POINT ENERGY      -652.852462842067
FINAL SINGLE POINT ENERGY      -652.852472004158
                    ***********************HURRAY********************

CARTESIAN COORDINATES (ANGSTROEM)
---------------------------------
  C    -20.945916   26.209009   46.306067
  C    -20.071697   27.452126   46.135604
  C    -20.228477   28.153791   47.512463
  C    -20.328107   26.955652   48.482083
  O    -20.674747   25.785310   47.649637
  H    -20.720234   25.376693   45.640269
  H    -19.035719   27.127350   45.983490
  H    -20.353902   28.074635   45.293232
  H    -19.385944   28.811667   47.746555
  H    -21.146392   28.751012   47.535487
  H    -21.098842   27.084077   49.247052
  H    -19.374226   26.725918   48.967284
  C    -23.030179   27.453558   45.404801
  H    -24.094722   27.343339   45.633154
  H    -22.726054   28.473873   45.691082
  O    -22.387111   26.479057   46.259283
  C    -22.842225   27.249586   43.891999
  C    -23.565242   28.284719   43.015960
  C    -22.506186   29.415349   42.924176
  C    -21.165789   28.640616   42.896763
  O    -21.458066   27.275846   43.411483
  H    -23.205199   26.242729   43.654864
  O    -23.881545   27.735995   41.708626
  H    -24.518875   28.621190   43.424622
  H    -22.666351   30.023027   42.030321
  H    -22.570839   30.067662   43.802691
  H    -20.394533   29.104899   43.519035
  H    -20.767663   28.518087   41.885296
  H    -23.117221   27.215229   41.382621

 Multiplicity           Mult            ....    1
 Number of Electrons    NEL             ....  102
 Basis Dimension        Dim             ....  149

ORBITAL ENERGIES
----------------

  NO   OCC          E(Eh)            E(eV)
   0   2.0000     -19.157607      -521.3050
   1   2.0000     -19.145755      -520.9825
   2   2.0000     -19.132462      -520.6208
   3   2.0000     -19.132168      -520.6128
   4   2.0000     -10.272871      -279.5390
   5   2.0000     -10.251271      -278.9513
   6   2.0000     -10.242869      -278.7226
   7   2.0000     -10.241127      -278.6752
   8   2.0000     -10.238240      -278.5967
   9   2.0000     -10.220744      -278.1206
  10   2.0000     -10.199310      -277.5373
  11   2.0000     -10.185744      -277.1682
  12   2.0000     -10.180146      -277.0159
  13   2.0000      -1.050190       -28.5771
  14   2.0000      -1.042789       -28.3757
  15   2.0000      -1.015671       -27.6378
  16   2.0000      -0.985635       -26.8205
  17   2.0000      -0.793047       -21.5799
  18   2.0000      -0.781498       -21.2656
  19   2.0000      -0.774506       -21.0754
  20   2.0000      -0.732346       -19.9282
  21   2.0000      -0.681843       -18.5539
  22   2.0000      -0.613863       -16.7041
  23   2.0000      -0.607881       -16.5413
  24   2.0000      -0.595994       -16.2178
  25   2.0000      -0.569057       -15.4848
  26   2.0000      -0.531487       -14.4625
  27   2.0000      -0.517051       -14.0697
  28   2.0000      -0.501599       -13.6492
  29   2.0000      -0.485790       -13.2190
  30   2.0000      -0.478641       -13.0245
  31   2.0000      -0.461860       -12.5678
  32   2.0000      -0.452397       -12.3103
  33   2.0000      -0.443162       -12.0590
  34   2.0000      -0.431628       -11.7452
  35   2.0000      -0.411773       -11.2049
  36   2.0000      -0.408716       -11.1217
  37   2.0000      -0.398475       -10.8431
  38   2.0000      -0.382188       -10.3999
  39   2.0000      -0.373815       -10.1720
  40   2.0000      -0.364116        -9.9081
  41   2.0000      -0.355241        -9.6666
  42   2.0000      -0.349522        -9.5110
  43   2.0000      -0.341296        -9.2871
  44   2.0000      -0.319509        -8.6943
  45   2.0000      -0.306743        -8.3469
  46   2.0000      -0.291342        -7.9278
  47   2.0000      -0.280801        -7.6410
  48   2.0000      -0.267012        -7.2658
  49   2.0000      -0.252021        -6.8579
  50   2.0000      -0.239862        -6.5270
  51   0.0000       0.053192         1.4474
  52   0.0000       0.075662         2.0589
  53   0.0000       0.086851         2.3633
  54   0.0000       0.090476         2.4620
  55   0.0000       0.098971         2.6931

MULLIKEN ATOMIC CHARGES
-----------------------
   0 C :    0.322072
   1 C :   -0.286116
   2 C :   -0.307798
   3 C :    0.003404
   4 O :   -0.497763
   5 H :    0.158585
   6 H :    0.146667
   7 H :    0.155191
   8 H :    0.139688
   9 H :    0.147062
  10 H :    0.149586
  11 H :    0.140951
  12 C :   -0.001382
  13 H :    0.161500
  14 H :    0.112164
  15 O :   -0.529606
  16 C :    0.058737
  17 C :    0.078179
  18 C :   -0.286879
  19 C :   -0.041075
  20 O :   -0.523392
  21 H :    0.169393
  22 O :   -0.600039
  23 H :    0.154874
  24 H :    0.167045
  25 H :    0.144266
  26 H :    0.145000
  27 H :    0.153520
  28 H :    0.366165
Sum of atomic charges:   -0.0000000

LOEWDIN ATOMIC CHARGES
----------------------
   0 C :    0.192413
   1 C :   -0.230618
   2 C :   -0.221240
   3 C :   -0.026883
   4 O :   -0.304536
   5 H :    0.108330
   6 H :    0.118420
   7 H :    0.119222
   8 H :    0.112912
   9 H :    0.108588
  10 H :    0.106425
  11 H :    0.101713
  12 C :   -0.039450
  13 H :    0.122783
  14 H :    0.083170
  15 O :   -0.337803
  16 C :    0.001281
  17 C :    0.037461
  18 C :   -0.238900
  19 C :   -0.041751
  20 O :   -0.329446
  21 H :    0.118377
  22 O :   -0.411855
  23 H :    0.117311
  24 H :    0.129328
  25 H :    0.113235
  26 H :    0.101015
  27 H :    0.106473
  28 H :    0.284022

  Mayer bond orders larger than 0.100000
B(  0-C ,  1-C ) :   0.9374 B(  0-C ,  4-O ) :   0.9262 B(  0-C ,  5-H ) :   0.9259
B(  0-C , 15-O ) :   0.8191 B(  1-C ,  2-C ) :   0.9443 B(  1-C ,  6-H ) :   0.9374
B(  1-C ,  7-H ) :   0.9135 B(  2-C ,  3-C ) :   0.9527 B(  2-C ,  8-H ) :   0.9454
B(  2-C ,  9-H ) :   0.9453 B(  3-C ,  4-O ) :   0.8400 B(  3-C , 10-H ) :   0.9353
B(  3-C , 11-H ) :   0.9398 B( 12-C , 13-H ) :   0.9266 B( 12-C , 14-H ) :   0.9128
B( 12-C , 15-O ) :   0.8709 B( 12-C , 16-C ) :   0.8846 B( 16-C , 17-C ) :   0.8935
B( 16-C , 20-O ) :   0.8491 B( 16-C , 21-H ) :   0.9228 B( 17-C , 18-C ) :   0.9117
B( 17-C , 22-O ) :   0.8926 B( 17-C , 23-H ) :   0.9340 B( 18-C , 19-C ) :   0.9415
B( 18-C , 24-H ) :   0.9361 B( 18-C , 25-H ) :   0.9339 B( 19-C , 20-O ) :   0.8403
B( 19-C , 26-H ) :   0.9238 B( 19-C , 27-H ) :   0.9387 B( 22-O , 28-H ) :   0.7944

FINAL SINGLE POINT ENERGY      -652.852471987990

DIPOLE MOMENT
-------------
                                X             Y             Z
Electronic contribution:     -2.56747      -6.08524      -1.30197
Nuclear contribution   :      3.17007       7.70678       0.95192
                        -----------------------------------------
Total Dipole Moment    :      0.60260       1.62153      -0.35005
                        -----------------------------------------
Magnitude (a.u.)       :      1.76495
Magnitude (Debye)      :      4.48614

Rotational constants in cm-1:     0.062519     0.014014     0.013063
Rotational constants in MHz :  1874.261557   420.128103   391.618670

                             ****ORCA TERMINATED NORMALLY****
TOTAL RUN TIME: 0 days 1 hours 28 minutes 29 seconds 247 msec
