                         Program Version 4.2.0 -  RELEASE  -
|  1> # Test redundant internal optimization
|  2> #
|  3> ! RKS B3LYP  Opt TightSCF SmallPrint
|  4>
|  5> %basis
|  6>         Basis "6-31G"
|  7> end
|  8>
|  9> %geom
| 10> Constraints
| 11> { D 4  0  15  12  225.0   C } # D for Dihedral angle
| 12> { D 0  15  12  16  135.0   C } # D for Dihedral angle
| 13> { D 0  4  3  2   C } # D for Dihedral angle
| 14> { D 4  3  2  1   C } # D for Dihedral angle
| 15> { D 3  2  1  0   C } # D for Dihedral angle
| 16> { D 2  1  0  4   C } # D for Dihedral angle
| 17> { D 1  0  4  3   C } # D for Dihedral angle
| 18> { D 16  20  19  18   C } # D for Dihedral angle
| 19> { D 20  19  18  17   C } # D for Dihedral angle
| 20> { D 19  18  17  16   C } # D for Dihedral angle
| 21> { D 18  17  16  20   C } # D for Dihedral angle
| 22> { D 17  16  20  19   C } # D for Dihedral angle
| 23> { D 15  12  16  20   C } # D for Dihedral angle
| 24> end
| 25> end
| 26>
| 27>
| 28> #%pal
| 29> #nprocs 8
| 30> #end
| 31>
| 32> * xyz 0 1
| 33> C  -21.048   26.222   46.251
| 34> C  -20.361   27.558   45.944
| 35> C  -20.329   28.222   47.341
| 36> C  -20.110   27.022   48.296
| 37> O  -20.473   25.807   47.535
| 38> H  -20.833   25.428   45.533
| 39> H  -19.344   27.382   45.576
| 40> H  -20.898   28.157   45.201
| 41> H  -19.543   28.978   47.434
| 42> H  -21.289   28.710   47.548
| 43> H  -20.733   27.082   49.195
| 44> H  -19.064   26.913   48.597
| 45> C  -23.415   25.773   45.218
| 46> H  -23.771   26.573   44.557
| 47> H  -22.795   25.089   44.624
| 48> O  -22.586   26.394   46.375
| 49> C  -24.648   24.973   45.724
| 50> C  -24.234   23.889   46.727
| 51> C  -24.046   24.716   48.022
| 52> C  -25.143   25.804   47.908
| 53> O  -25.548   25.846   46.485
| 54> H  -25.211   24.603   44.866
| 55> O  -25.382   22.857   46.899
| 56> H  -23.327   23.351   46.431
| 57> H  -24.149   24.113   48.929
| 58> H  -23.049   25.173   48.034
| 59> H  -24.785   26.794   48.209
| 60> H  -26.036   25.558   48.489
| 61> H  -26.301   23.374   47.196
| 62> *
| 63>
| 64>                          ****END OF INPUT****
 Total Charge           Charge          ....    0
 Multiplicity           Mult            ....    1
 Number of Electrons    NEL             ....  102
FINAL SINGLE POINT ENERGY      -652.835866616429
FINAL SINGLE POINT ENERGY      -652.858189089469
FINAL SINGLE POINT ENERGY      -652.862090988530
FINAL SINGLE POINT ENERGY      -652.863632522320
FINAL SINGLE POINT ENERGY      -652.863755554368
FINAL SINGLE POINT ENERGY      -652.863777208979
                    ***********************HURRAY********************

CARTESIAN COORDINATES (ANGSTROEM)
---------------------------------
  C    -21.060636   26.199529   46.194573
  C    -20.378099   27.535287   45.900548
  C    -20.425558   28.228572   47.283295
  C    -20.241291   27.053399   48.267678
  O    -20.556189   25.823785   47.490961
  H    -20.818220   25.385896   45.502777
  H    -19.342652   27.355350   45.587765
  H    -20.889614   28.100922   45.117961
  H    -19.652244   28.993763   47.398514
  H    -21.403413   28.698837   47.423305
  H    -20.911640   27.102267   49.128886
  H    -19.209846   26.946187   48.615570
  C    -23.323912   25.786855   45.228585
  H    -23.679737   26.594111   44.577477
  H    -22.734753   25.081945   44.621308
  O    -22.498147   26.367072   46.277665
  C    -24.535697   25.058437   45.808520
  C    -24.257092   23.889513   46.765429
  C    -24.053989   24.627348   48.115698
  C    -25.049733   25.809208   48.020486
  O    -25.387809   25.960263   46.583826
  H    -25.138409   24.708500   44.960942
  O    -25.389778   22.974617   46.791063
  H    -23.402906   23.275446   46.477343
  H    -24.269166   23.957729   48.953659
  H    -23.025539   24.984794   48.185228
  H    -24.614769   26.747098   48.375181
  H    -25.988962   25.624647   48.553100
  H    -26.211198   23.489625   46.936655

 Multiplicity           Mult            ....    1
 Number of Electrons    NEL             ....  102
 Basis Dimension        Dim             ....  149

ORBITAL ENERGIES
----------------

  NO   OCC          E(Eh)            E(eV)
   0   2.0000     -19.147827      -521.0389
   1   2.0000     -19.147503      -521.0300
   2   2.0000     -19.133446      -520.6475
   3   2.0000     -19.130827      -520.5763
   4   2.0000     -10.287276      -279.9310
   5   2.0000     -10.236627      -278.5528
   6   2.0000     -10.231921      -278.4247
   7   2.0000     -10.230326      -278.3813
   8   2.0000     -10.230129      -278.3760
   9   2.0000     -10.217698      -278.0377
  10   2.0000     -10.190189      -277.2891
  11   2.0000     -10.189841      -277.2797
  12   2.0000     -10.168379      -276.6957
  13   2.0000      -1.059385       -28.8273
  14   2.0000      -1.028318       -27.9820
  15   2.0000      -1.002829       -27.2884
  16   2.0000      -0.994293       -27.0561
  17   2.0000      -0.791833       -21.5469
  18   2.0000      -0.773996       -21.0615
  19   2.0000      -0.759829       -20.6760
  20   2.0000      -0.734338       -19.9823
  21   2.0000      -0.674028       -18.3412
  22   2.0000      -0.603955       -16.4345
  23   2.0000      -0.599700       -16.3187
  24   2.0000      -0.591176       -16.0867
  25   2.0000      -0.577365       -15.7109
  26   2.0000      -0.527113       -14.3435
  27   2.0000      -0.501159       -13.6372
  28   2.0000      -0.500751       -13.6261
  29   2.0000      -0.488645       -13.2967
  30   2.0000      -0.473916       -12.8959
  31   2.0000      -0.450180       -12.2500
  32   2.0000      -0.449388       -12.2285
  33   2.0000      -0.438820       -11.9409
  34   2.0000      -0.426893       -11.6163
  35   2.0000      -0.409814       -11.1516
  36   2.0000      -0.402590       -10.9550
  37   2.0000      -0.382416       -10.4061
  38   2.0000      -0.373225       -10.1560
  39   2.0000      -0.363854        -9.9010
  40   2.0000      -0.360620        -9.8130
  41   2.0000      -0.354359        -9.6426
  42   2.0000      -0.352033        -9.5793
  43   2.0000      -0.326068        -8.8727
  44   2.0000      -0.319609        -8.6970
  45   2.0000      -0.312687        -8.5086
  46   2.0000      -0.299063        -8.1379
  47   2.0000      -0.271526        -7.3886
  48   2.0000      -0.261722        -7.1218
  49   2.0000      -0.257002        -6.9934
  50   2.0000      -0.235161        -6.3991
  51   0.0000       0.066694         1.8148
  52   0.0000       0.081738         2.2242
  53   0.0000       0.087704         2.3865
  54   0.0000       0.105141         2.8610
  55   0.0000       0.111038         3.0215

MULLIKEN ATOMIC CHARGES
-----------------------
   0 C :    0.287633
   1 C :   -0.253612
   2 C :   -0.300929
   3 C :   -0.004864
   4 O :   -0.504011
   5 H :    0.141382
   6 H :    0.144250
   7 H :    0.149152
   8 H :    0.144091
   9 H :    0.165723
  10 H :    0.152250
  11 H :    0.144551
  12 C :    0.002051
  13 H :    0.152711
  14 H :    0.120196
  15 O :   -0.520827
  16 C :    0.071787
  17 C :    0.076800
  18 C :   -0.295962
  19 C :   -0.017692
  20 O :   -0.527213
  21 H :    0.151921
  22 O :   -0.605601
  23 H :    0.149276
  24 H :    0.143704
  25 H :    0.190603
  26 H :    0.147307
  27 H :    0.133224
  28 H :    0.362100
Sum of atomic charges:   -0.0000000

LOEWDIN ATOMIC CHARGES
----------------------
   0 C :    0.177027
   1 C :   -0.222989
   2 C :   -0.216525
   3 C :   -0.026896
   4 O :   -0.314497
   5 H :    0.097319
   6 H :    0.113550
   7 H :    0.119298
   8 H :    0.115507
   9 H :    0.120933
  10 H :    0.107832
  11 H :    0.103761
  12 C :   -0.034103
  13 H :    0.108151
  14 H :    0.094970
  15 O :   -0.331065
  16 C :    0.010400
  17 C :    0.039463
  18 C :   -0.244949
  19 C :   -0.032469
  20 O :   -0.331508
  21 H :    0.114231
  22 O :   -0.418489
  23 H :    0.114767
  24 H :    0.116521
  25 H :    0.136994
  26 H :    0.106536
  27 H :    0.094742
  28 H :    0.281488

  Mayer bond orders larger than 0.100000
B(  0-C ,  1-C ) :   0.9382 B(  0-C ,  4-O ) :   0.9207 B(  0-C ,  5-H ) :   0.9168
B(  0-C , 15-O ) :   0.8378 B(  1-C ,  2-C ) :   0.9554 B(  1-C ,  6-H ) :   0.9348
B(  1-C ,  7-H ) :   0.9386 B(  2-C ,  3-C ) :   0.9547 B(  2-C ,  8-H ) :   0.9448
B(  2-C ,  9-H ) :   0.9429 B(  3-C ,  4-O ) :   0.8325 B(  3-C , 10-H ) :   0.9347
B(  3-C , 11-H ) :   0.9397 B( 12-C , 13-H ) :   0.9232 B( 12-C , 14-H ) :   0.9095
B( 12-C , 15-O ) :   0.8461 B( 12-C , 16-C ) :   0.9020 B( 16-C , 17-C ) :   0.9076
B( 16-C , 20-O ) :   0.8761 B( 16-C , 21-H ) :   0.9193 B( 17-C , 18-C ) :   0.9252
B( 17-C , 22-O ) :   0.8893 B( 17-C , 23-H ) :   0.9361 B( 18-C , 19-C ) :   0.9444
B( 18-C , 24-H ) :   0.9382 B( 18-C , 25-H ) :   0.9063 B( 19-C , 20-O ) :   0.8357
B( 19-C , 26-H ) :   0.9355 B( 19-C , 27-H ) :   0.9376 B( 22-O , 28-H ) :   0.7964

FINAL SINGLE POINT ENERGY      -652.863777521392

DIPOLE MOMENT
-------------
                                X             Y             Z
Electronic contribution:     -3.62645      -3.41695      -1.31639
Nuclear contribution   :      4.53740       4.35622       1.08686
                        -----------------------------------------
Total Dipole Moment    :      0.91095       0.93928      -0.22953
                        -----------------------------------------
Magnitude (a.u.)       :      1.32844
Magnitude (Debye)      :      3.37663

Rotational constants in cm-1:     0.053617     0.014664     0.014124
Rotational constants in MHz :  1607.408318   439.612998   423.431448

                             ****ORCA TERMINATED NORMALLY****
TOTAL RUN TIME: 0 days 0 hours 25 minutes 41 seconds 689 msec
