                         Program Version 4.2.0 -  RELEASE  -
|  1> # Test redundant internal optimization
|  2> #
|  3> ! RKS B3LYP  Opt TightSCF SmallPrint
|  4>
|  5> %basis
|  6>         Basis "6-31G"
|  7> end
|  8>
|  9> %geom
| 10> Constraints
| 11> { D 4  0  15  12  105.0   C } # D for Dihedral angle
| 12> { D 0  15  12  16  165.0   C } # D for Dihedral angle
| 13> { D 0  4  3  2   C } # D for Dihedral angle
| 14> { D 4  3  2  1   C } # D for Dihedral angle
| 15> { D 3  2  1  0   C } # D for Dihedral angle
| 16> { D 2  1  0  4   C } # D for Dihedral angle
| 17> { D 1  0  4  3   C } # D for Dihedral angle
| 18> { D 16  20  19  18   C } # D for Dihedral angle
| 19> { D 20  19  18  17   C } # D for Dihedral angle
| 20> { D 19  18  17  16   C } # D for Dihedral angle
| 21> { D 18  17  16  20   C } # D for Dihedral angle
| 22> { D 17  16  20  19   C } # D for Dihedral angle
| 23> { D 15  12  16  20   C } # D for Dihedral angle
| 24> end
| 25> end
| 26>
| 27>
| 28> #%pal
| 29> #nprocs 8
| 30> #end
| 31>
| 32> * xyz 0 1
| 33> C  -21.048   26.222   46.251
| 34> C  -20.361   27.558   45.944
| 35> C  -20.329   28.222   47.341
| 36> C  -20.110   27.022   48.296
| 37> O  -20.473   25.807   47.535
| 38> H  -20.833   25.428   45.533
| 39> H  -19.344   27.382   45.576
| 40> H  -20.898   28.157   45.201
| 41> H  -19.543   28.978   47.434
| 42> H  -21.289   28.710   47.548
| 43> H  -20.733   27.082   49.195
| 44> H  -19.064   26.913   48.597
| 45> C  -23.085   27.864   46.420
| 46> H  -22.860   28.293   47.405
| 47> H  -22.573   28.467   45.659
| 48> O  -22.586   26.394   46.375
| 49> C  -24.613   27.988   46.171
| 50> C  -25.017   27.328   44.848
| 51> C  -25.047   25.831   45.241
| 52> C  -25.560   25.861   46.702
| 53> O  -25.361   27.244   47.190
| 54> H  -24.907   29.036   46.261
| 55> H  -26.014   27.668   44.547
| 56> O  -24.027   27.626   43.689
| 57> H  -25.687   25.232   44.586
| 58> H  -24.035   25.410   45.196
| 59> H  -25.015   25.169   47.353
| 60> H  -26.630   25.646   46.774
| 61> H  -23.022   27.293   43.969
| 62> *
| 63>
| 64>                          ****END OF INPUT****
 Total Charge           Charge          ....    0
 Multiplicity           Mult            ....    1
 Number of Electrons    NEL             ....  102
FINAL SINGLE POINT ENERGY      -652.814625558392
FINAL SINGLE POINT ENERGY      -652.840462016260
FINAL SINGLE POINT ENERGY      -652.851991678171
FINAL SINGLE POINT ENERGY      -652.854331492160
FINAL SINGLE POINT ENERGY      -652.854791124139
FINAL SINGLE POINT ENERGY      -652.854864696815
FINAL SINGLE POINT ENERGY      -652.854868723529
                    ***********************HURRAY********************

CARTESIAN COORDINATES (ANGSTROEM)
---------------------------------
  C    -21.162312   26.370951   46.388745
  C    -20.254643   27.536862   45.980451
  C    -20.031756   28.265009   47.335216
  C    -19.995965   27.092019   48.345524
  O    -20.619349   25.937883   47.652914
  H    -21.087752   25.500076   45.735153
  H    -19.313034   27.119209   45.609635
  H    -20.669469   28.181490   45.200712
  H    -19.102954   28.843367   47.344471
  H    -20.853936   28.952923   47.550906
  H    -20.552950   27.297889   49.263683
  H    -18.976255   26.792773   48.603691
  C    -23.166272   27.953930   46.492996
  H    -23.035143   28.396580   47.487978
  H    -22.698735   28.607842   45.745930
  O    -22.592099   26.615050   46.462544
  C    -24.663614   27.891164   46.198484
  C    -25.052774   27.304873   44.831153
  C    -25.081822   25.774313   45.132484
  C    -25.609297   25.727525   46.582868
  O    -25.415579   27.088237   47.149028
  H    -25.036705   28.917973   46.303436
  H    -26.039585   27.670300   44.539393
  O    -24.171976   27.688950   43.744773
  H    -25.722167   25.230072   44.432009
  H    -24.064975   25.379577   45.079413
  H    -25.065454   25.012513   47.204922
  H    -26.681631   25.515293   46.633339
  H    -23.345797   27.166355   43.805148

 Multiplicity           Mult            ....    1
 Number of Electrons    NEL             ....  102
 Basis Dimension        Dim             ....  149

ORBITAL ENERGIES
----------------

  NO   OCC          E(Eh)            E(eV)
   0   2.0000     -19.150399      -521.1088
   1   2.0000     -19.143230      -520.9138
   2   2.0000     -19.141812      -520.8752
   3   2.0000     -19.130913      -520.5786
   4   2.0000     -10.286994      -279.9233
   5   2.0000     -10.236359      -278.5455
   6   2.0000     -10.234089      -278.4837
   7   2.0000     -10.231332      -278.4087
   8   2.0000     -10.230391      -278.3831
   9   2.0000     -10.217979      -278.0454
  10   2.0000     -10.201129      -277.5868
  11   2.0000     -10.198303      -277.5099
  12   2.0000     -10.178224      -276.9635
  13   2.0000      -1.055981       -28.7347
  14   2.0000      -1.027114       -27.9492
  15   2.0000      -1.009593       -27.4724
  16   2.0000      -0.998095       -27.1596
  17   2.0000      -0.795724       -21.6527
  18   2.0000      -0.776204       -21.1216
  19   2.0000      -0.765801       -20.8385
  20   2.0000      -0.736348       -20.0371
  21   2.0000      -0.682504       -18.5719
  22   2.0000      -0.610508       -16.6128
  23   2.0000      -0.602789       -16.4027
  24   2.0000      -0.600663       -16.3449
  25   2.0000      -0.562348       -15.3023
  26   2.0000      -0.526601       -14.3295
  27   2.0000      -0.512928       -13.9575
  28   2.0000      -0.508411       -13.8346
  29   2.0000      -0.488849       -13.3023
  30   2.0000      -0.473037       -12.8720
  31   2.0000      -0.457978       -12.4622
  32   2.0000      -0.443022       -12.0552
  33   2.0000      -0.432575       -11.7710
  34   2.0000      -0.424548       -11.5525
  35   2.0000      -0.417094       -11.3497
  36   2.0000      -0.407550       -11.0900
  37   2.0000      -0.399668       -10.8755
  38   2.0000      -0.388932       -10.5834
  39   2.0000      -0.370312       -10.0767
  40   2.0000      -0.366540        -9.9741
  41   2.0000      -0.359876        -9.7927
  42   2.0000      -0.347299        -9.4505
  43   2.0000      -0.325102        -8.8465
  44   2.0000      -0.317649        -8.6437
  45   2.0000      -0.308734        -8.4011
  46   2.0000      -0.300348        -8.1729
  47   2.0000      -0.274683        -7.4745
  48   2.0000      -0.262072        -7.1314
  49   2.0000      -0.257823        -7.0157
  50   2.0000      -0.236368        -6.4319
  51   0.0000       0.053869         1.4659
  52   0.0000       0.078144         2.1264
  53   0.0000       0.087531         2.3818
  54   0.0000       0.094795         2.5795
  55   0.0000       0.099777         2.7151

MULLIKEN ATOMIC CHARGES
-----------------------
   0 C :    0.312170
   1 C :   -0.302487
   2 C :   -0.308491
   3 C :   -0.007464
   4 O :   -0.494451
   5 H :    0.156482
   6 H :    0.160353
   7 H :    0.147307
   8 H :    0.148652
   9 H :    0.151760
  10 H :    0.152768
  11 H :    0.147054
  12 C :   -0.014008
  13 H :    0.149996
  14 H :    0.135528
  15 O :   -0.536213
  16 C :    0.093611
  17 C :    0.083166
  18 C :   -0.310476
  19 C :   -0.002129
  20 O :   -0.520019
  21 H :    0.147072
  22 H :    0.159977
  23 O :   -0.607943
  24 H :    0.142921
  25 H :    0.161637
  26 H :    0.156976
  27 H :    0.138970
  28 H :    0.357281
Sum of atomic charges:   -0.0000000

LOEWDIN ATOMIC CHARGES
----------------------
   0 C :    0.174805
   1 C :   -0.232371
   2 C :   -0.221062
   3 C :   -0.030522
   4 O :   -0.314515
   5 H :    0.106324
   6 H :    0.124850
   7 H :    0.115401
   8 H :    0.117680
   9 H :    0.111388
  10 H :    0.107750
  11 H :    0.104988
  12 C :   -0.047219
  13 H :    0.104304
  14 H :    0.098006
  15 O :   -0.329385
  16 C :    0.020594
  17 C :    0.037289
  18 C :   -0.241704
  19 C :   -0.023574
  20 O :   -0.321292
  21 H :    0.112916
  22 H :    0.115547
  23 O :   -0.413429
  24 H :    0.114225
  25 H :    0.120281
  26 H :    0.111020
  27 H :    0.100030
  28 H :    0.277671

  Mayer bond orders larger than 0.100000
B(  0-C ,  1-C ) :   0.9298 B(  0-C ,  4-O ) :   0.9189 B(  0-C ,  5-H ) :   0.9349
B(  0-C , 15-O ) :   0.8752 B(  1-C ,  2-C ) :   0.9515 B(  1-C ,  6-H ) :   0.9335
B(  1-C ,  7-H ) :   0.9301 B(  2-C ,  3-C ) :   0.9493 B(  2-C ,  8-H ) :   0.9451
B(  2-C ,  9-H ) :   0.9399 B(  3-C ,  4-O ) :   0.8441 B(  3-C , 10-H ) :   0.9336
B(  3-C , 11-H ) :   0.9390 B( 12-C , 13-H ) :   0.9152 B( 12-C , 14-H ) :   0.8950
B( 12-C , 15-O ) :   0.8324 B( 12-C , 16-C ) :   0.9088 B( 16-C , 17-C ) :   0.8843
B( 16-C , 20-O ) :   0.8863 B( 16-C , 21-H ) :   0.9288 B( 17-C , 18-C ) :   0.9366
B( 17-C , 22-H ) :   0.9363 B( 17-C , 23-O ) :   0.8941 B( 18-C , 19-C ) :   0.9483
B( 18-C , 24-H ) :   0.9406 B( 18-C , 25-H ) :   0.9271 B( 19-C , 20-O ) :   0.8360
B( 19-C , 26-H ) :   0.9309 B( 19-C , 27-H ) :   0.9381 B( 23-O , 28-H ) :   0.7962

FINAL SINGLE POINT ENERGY      -652.854868332088

DIPOLE MOMENT
-------------
                                X             Y             Z
Electronic contribution:     -3.01494      -1.74055       0.20489
Nuclear contribution   :      4.03953       2.18259      -0.54697
                        -----------------------------------------
Total Dipole Moment    :      1.02459       0.44204      -0.34208
                        -----------------------------------------
Magnitude (a.u.)       :      1.16714
Magnitude (Debye)      :      2.96663

Rotational constants in cm-1:     0.049758     0.015384     0.014164
Rotational constants in MHz :  1491.715360   461.206547   424.616604

                             ****ORCA TERMINATED NORMALLY****
TOTAL RUN TIME: 0 days 0 hours 35 minutes 53 seconds 303 msec
