                         Program Version 4.2.0 -  RELEASE  -
|  1> # Test redundant internal optimization
|  2> #
|  3> ! RKS B3LYP  Opt TightSCF SmallPrint
|  4>
|  5> %basis
|  6>         Basis "6-31G"
|  7> end
|  8>
|  9> %geom
| 10> Constraints
| 11> { D 4  0  15  12  15.0   C } # D for Dihedral angle
| 12> { D 0  15  12  16  180.0   C } # D for Dihedral angle
| 13> { D 0  4  3  2   C } # D for Dihedral angle
| 14> { D 4  3  2  1   C } # D for Dihedral angle
| 15> { D 3  2  1  0   C } # D for Dihedral angle
| 16> { D 2  1  0  4   C } # D for Dihedral angle
| 17> { D 1  0  4  3   C } # D for Dihedral angle
| 18> { D 16  20  19  18   C } # D for Dihedral angle
| 19> { D 20  19  18  17   C } # D for Dihedral angle
| 20> { D 19  18  17  16   C } # D for Dihedral angle
| 21> { D 18  17  16  20   C } # D for Dihedral angle
| 22> { D 17  16  20  19   C } # D for Dihedral angle
| 23> { D 15  12  16  20   C } # D for Dihedral angle
| 24> end
| 25> end
| 26>
| 27>
| 28> #%pal
| 29> #nprocs 8
| 30> #end
| 31>
| 32> * xyz 0 1
| 33> C  -21.048   26.222   46.251
| 34> C  -20.361   27.558   45.944
| 35> C  -20.329   28.222   47.341
| 36> C  -20.110   27.022   48.296
| 37> O  -20.473   25.807   47.535
| 38> H  -20.833   25.428   45.533
| 39> H  -19.344   27.382   45.576
| 40> H  -20.898   28.157   45.201
| 41> H  -19.543   28.978   47.434
| 42> H  -21.289   28.710   47.548
| 43> H  -20.733   27.082   49.195
| 44> H  -19.064   26.913   48.597
| 45> C  -23.128   26.462   47.829
| 46> H  -22.864   25.538   48.358
| 47> H  -22.677   27.306   48.368
| 48> O  -22.586   26.394   46.375
| 49> C  -24.671   26.634   47.888
| 50> C  -25.390   25.412   47.305
| 51> C  -25.303   24.408   48.480
| 52> C  -25.430   25.317   49.729
| 53> O  -25.128   26.693   49.280
| 54> H  -24.943   27.583   47.422
| 55> H  -26.435   25.660   47.085
| 56> O  -24.729   24.878   46.005
| 57> H  -26.082   23.641   48.441
| 58> H  -24.331   23.900   48.468
| 59> H  -24.730   25.037   50.523
| 60> H  -26.444   25.325   50.137
| 61> H  -23.682   24.623   46.202
| 62> *
| 63>
| 64>                          ****END OF INPUT****
 Total Charge           Charge          ....    0
 Multiplicity           Mult            ....    1
 Number of Electrons    NEL             ....  102
FINAL SINGLE POINT ENERGY      -652.827497676768
FINAL SINGLE POINT ENERGY      -652.851933575343
FINAL SINGLE POINT ENERGY      -652.859138170201
FINAL SINGLE POINT ENERGY      -652.861728781136
FINAL SINGLE POINT ENERGY      -652.863197417092
FINAL SINGLE POINT ENERGY      -652.864098641102
FINAL SINGLE POINT ENERGY      -652.864418894504
FINAL SINGLE POINT ENERGY      -652.864494115248
FINAL SINGLE POINT ENERGY      -652.864503056857
                    ***********************HURRAY********************

CARTESIAN COORDINATES (ANGSTROEM)
---------------------------------
  C    -21.110097   26.213054   46.413779
  C    -20.477140   27.527259   45.953806
  C    -20.253557   28.261196   47.299078
  C    -19.902260   27.112679   48.270337
  O    -20.376977   25.864412   47.602075
  H    -20.993153   25.384940   45.713150
  H    -19.523445   27.309687   45.459636
  H    -21.120493   28.075958   45.262637
  H    -19.455762   29.007936   47.241801
  H    -21.169933   28.775427   47.606392
  H    -20.391322   27.194711   49.244166
  H    -18.825407   26.992343   48.415819
  C    -23.090404   26.433892   47.982042
  H    -22.794217   25.552095   48.559888
  H    -22.712808   27.326269   48.490913
  O    -22.557422   26.334771   46.617182
  C    -24.614612   26.548157   47.865608
  C    -25.323340   25.328105   47.252609
  C    -25.351173   24.342541   48.457927
  C    -25.545302   25.276834   49.669880
  O    -25.170107   26.649109   49.213347
  H    -24.869552   27.474791   47.344104
  H    -26.350009   25.616049   46.999164
  O    -24.723507   24.779032   46.065179
  H    -26.151029   23.603588   48.358397
  H    -24.398836   23.803315   48.499309
  H    -24.920320   25.010907   50.527825
  H    -26.587338   25.334035   49.996797
  H    -23.818477   25.158911   45.963152

 Multiplicity           Mult            ....    1
 Number of Electrons    NEL             ....  102
 Basis Dimension        Dim             ....  149

ORBITAL ENERGIES
----------------

  NO   OCC          E(Eh)            E(eV)
   0   2.0000     -19.161796      -521.4190
   1   2.0000     -19.161318      -521.4060
   2   2.0000     -19.139056      -520.8002
   3   2.0000     -19.109760      -520.0030
   4   2.0000     -10.293224      -280.0929
   5   2.0000     -10.241787      -278.6932
   6   2.0000     -10.236417      -278.5471
   7   2.0000     -10.232583      -278.4427
   8   2.0000     -10.227212      -278.2966
   9   2.0000     -10.224522      -278.2234
  10   2.0000     -10.201033      -277.5842
  11   2.0000     -10.196605      -277.4637
  12   2.0000     -10.176333      -276.9121
  13   2.0000      -1.068332       -29.0708
  14   2.0000      -1.024787       -27.8859
  15   2.0000      -1.007467       -27.4146
  16   2.0000      -0.989547       -26.9269
  17   2.0000      -0.800574       -21.7847
  18   2.0000      -0.776538       -21.1307
  19   2.0000      -0.766170       -20.8486
  20   2.0000      -0.738026       -20.0827
  21   2.0000      -0.678047       -18.4506
  22   2.0000      -0.614106       -16.7107
  23   2.0000      -0.600673       -16.3451
  24   2.0000      -0.593276       -16.1439
  25   2.0000      -0.576341       -15.6830
  26   2.0000      -0.532733       -14.4964
  27   2.0000      -0.515061       -14.0155
  28   2.0000      -0.508842       -13.8463
  29   2.0000      -0.486938       -13.2503
  30   2.0000      -0.476048       -12.9539
  31   2.0000      -0.459882       -12.5140
  32   2.0000      -0.442244       -12.0341
  33   2.0000      -0.432154       -11.7595
  34   2.0000      -0.425360       -11.5746
  35   2.0000      -0.422432       -11.4949
  36   2.0000      -0.407759       -11.0957
  37   2.0000      -0.386802       -10.5254
  38   2.0000      -0.386222       -10.5096
  39   2.0000      -0.371124       -10.0988
  40   2.0000      -0.367202        -9.9921
  41   2.0000      -0.358835        -9.7644
  42   2.0000      -0.356953        -9.7132
  43   2.0000      -0.338445        -9.2096
  44   2.0000      -0.334515        -9.1026
  45   2.0000      -0.319922        -8.7055
  46   2.0000      -0.290251        -7.8981
  47   2.0000      -0.276039        -7.5114
  48   2.0000      -0.262934        -7.1548
  49   2.0000      -0.248571        -6.7640
  50   2.0000      -0.239408        -6.5146
  51   0.0000       0.057882         1.5750
  52   0.0000       0.071564         1.9473
  53   0.0000       0.089031         2.4227
  54   0.0000       0.098646         2.6843
  55   0.0000       0.099905         2.7186

MULLIKEN ATOMIC CHARGES
-----------------------
   0 C :    0.304832
   1 C :   -0.256221
   2 C :   -0.315836
   3 C :   -0.021145
   4 O :   -0.506755
   5 H :    0.166189
   6 H :    0.151907
   7 H :    0.162834
   8 H :    0.153382
   9 H :    0.159099
  10 H :    0.153075
  11 H :    0.156973
  12 C :   -0.009840
  13 H :    0.161517
  14 H :    0.146750
  15 O :   -0.575063
  16 C :    0.052085
  17 C :    0.120964
  18 C :   -0.304381
  19 C :   -0.019546
  20 O :   -0.524210
  21 H :    0.156288
  22 H :    0.145231
  23 O :   -0.640682
  24 H :    0.152503
  25 H :    0.147612
  26 H :    0.141568
  27 H :    0.147453
  28 H :    0.393416
Sum of atomic charges:    0.0000000

LOEWDIN ATOMIC CHARGES
----------------------
   0 C :    0.182748
   1 C :   -0.220717
   2 C :   -0.220888
   3 C :   -0.032932
   4 O :   -0.313257
   5 H :    0.111909
   6 H :    0.118139
   7 H :    0.126522
   8 H :    0.120593
   9 H :    0.114959
  10 H :    0.106671
  11 H :    0.110454
  12 C :   -0.043319
  13 H :    0.108688
  14 H :    0.103316
  15 O :   -0.348952
  16 C :    0.020062
  17 C :    0.042215
  18 C :   -0.237549
  19 C :   -0.032301
  20 O :   -0.325660
  21 H :    0.113800
  22 H :    0.104359
  23 O :   -0.436033
  24 H :    0.121495
  25 H :    0.112436
  26 H :    0.101492
  27 H :    0.105514
  28 H :    0.286236

  Mayer bond orders larger than 0.100000
B(  0-C ,  1-C ) :   0.9296 B(  0-C ,  4-O ) :   0.9291 B(  0-C ,  5-H ) :   0.9322
B(  0-C , 15-O ) :   0.8050 B(  1-C ,  2-C ) :   0.9511 B(  1-C ,  6-H ) :   0.9340
B(  1-C ,  7-H ) :   0.9355 B(  2-C ,  3-C ) :   0.9519 B(  2-C ,  8-H ) :   0.9435
B(  2-C ,  9-H ) :   0.9422 B(  3-C ,  4-O ) :   0.8235 B(  3-C , 10-H ) :   0.9316
B(  3-C , 11-H ) :   0.9391 B( 12-C , 13-H ) :   0.9183 B( 12-C , 14-H ) :   0.9168
B( 12-C , 15-O ) :   0.7746 B( 12-C , 16-C ) :   0.9053 B( 16-C , 17-C ) :   0.9140
B( 16-C , 20-O ) :   0.8561 B( 16-C , 21-H ) :   0.9296 B( 17-C , 18-C ) :   0.9003
B( 17-C , 22-H ) :   0.9299 B( 17-C , 23-O ) :   0.9363 B( 18-C , 19-C ) :   0.9401
B( 18-C , 24-H ) :   0.9445 B( 18-C , 25-H ) :   0.9428 B( 19-C , 20-O ) :   0.8317
B( 19-C , 26-H ) :   0.9343 B( 19-C , 27-H ) :   0.9388 B( 23-O , 28-H ) :   0.7215

FINAL SINGLE POINT ENERGY      -652.864505065387

DIPOLE MOMENT
-------------
                                X             Y             Z
Electronic contribution:     -1.98781      -1.60301      -1.81869
Nuclear contribution   :      3.12685       2.36468       2.19286
                        -----------------------------------------
Total Dipole Moment    :      1.13904       0.76167       0.37417
                        -----------------------------------------
Magnitude (a.u.)       :      1.42041
Magnitude (Debye)      :      3.61039

Rotational constants in cm-1:     0.052125     0.014519     0.013154
Rotational constants in MHz :  1562.681154   435.278691   394.343868

                             ****ORCA TERMINATED NORMALLY****
TOTAL RUN TIME: 0 days 0 hours 53 minutes 19 seconds 650 msec
