                         Program Version 4.2.0 -  RELEASE  -
|  1> # Test redundant internal optimization
|  2> #
|  3> ! RKS B3LYP  Opt TightSCF SmallPrint
|  4>
|  5> %basis
|  6>         Basis "6-31G"
|  7> end
|  8>
|  9> %geom
| 10> Constraints
| 11> { D 4  0  15  12  255.0   C } # D for Dihedral angle
| 12> { D 0  15  12  16  195.0   C } # D for Dihedral angle
| 13> { D 0  4  3  2   C } # D for Dihedral angle
| 14> { D 4  3  2  1   C } # D for Dihedral angle
| 15> { D 3  2  1  0   C } # D for Dihedral angle
| 16> { D 2  1  0  4   C } # D for Dihedral angle
| 17> { D 1  0  4  3   C } # D for Dihedral angle
| 18> { D 16  20  19  18   C } # D for Dihedral angle
| 19> { D 20  19  18  17   C } # D for Dihedral angle
| 20> { D 19  18  17  16   C } # D for Dihedral angle
| 21> { D 18  17  16  20   C } # D for Dihedral angle
| 22> { D 17  16  20  19   C } # D for Dihedral angle
| 23> { D 15  12  16  20   C } # D for Dihedral angle
| 24> end
| 25> end
| 26>
| 27>
| 28> #%pal
| 29> #nprocs 8
| 30> #end
| 31>
| 32> * xyz 0 1
| 33> C  -21.048   26.222   46.251
| 34> C  -20.361   27.558   45.944
| 35> C  -20.329   28.222   47.341
| 36> C  -20.110   27.022   48.296
| 37> O  -20.473   25.807   47.535
| 38> H  -20.833   25.428   45.533
| 39> H  -19.344   27.382   45.576
| 40> H  -20.898   28.157   45.201
| 41> H  -19.543   28.978   47.434
| 42> H  -21.289   28.710   47.548
| 43> H  -20.733   27.082   49.195
| 44> H  -19.064   26.913   48.597
| 45> C  -23.431   25.260   45.734
| 46> H  -23.019   25.014   44.747
| 47> H  -23.395   24.355   46.355
| 48> O  -22.586   26.394   46.375
| 49> C  -24.924   25.651   45.555
| 50> C  -25.750   24.471   45.029
| 51> C  -25.962   23.638   46.315
| 52> C  -26.096   24.720   47.416
| 53> O  -25.531   25.965   46.853
| 54> H  -24.987   26.554   44.945
| 55> O  -27.109   24.977   44.473
| 56> H  -25.241   23.909   44.238
| 57> H  -26.841   22.988   46.260
| 58> H  -25.087   23.004   46.501
| 59> H  -25.548   24.458   48.329
| 60> H  -27.138   24.926   47.674
| 61> H  -27.636   25.543   45.249
| 62> *
| 63>
| 64>                          ****END OF INPUT****
 Total Charge           Charge          ....    0
 Multiplicity           Mult            ....    1
 Number of Electrons    NEL             ....  102
FINAL SINGLE POINT ENERGY      -652.832910481727
FINAL SINGLE POINT ENERGY      -652.856625054100
FINAL SINGLE POINT ENERGY      -652.860614349566
FINAL SINGLE POINT ENERGY      -652.861325167437
FINAL SINGLE POINT ENERGY      -652.861414495961
FINAL SINGLE POINT ENERGY      -652.861423651201
                    ***********************HURRAY********************

CARTESIAN COORDINATES (ANGSTROEM)
---------------------------------
  C    -21.075428   26.141829   46.193185
  C    -20.540116   27.547009   45.916682
  C    -20.577140   28.185159   47.325980
  C    -20.227746   26.998944   48.251812
  O    -20.464927   25.773280   47.449336
  H    -20.796545   25.374347   45.464859
  H    -19.510481   27.478302   45.545689
  H    -21.148242   28.081589   45.184162
  H    -19.875057   29.017688   47.430747
  H    -21.586573   28.550790   47.534998
  H    -20.852334   26.957590   49.147392
  H    -19.173105   26.982740   48.543475
  C    -23.287707   25.149400   45.739622
  H    -22.915708   24.906319   44.731656
  H    -23.197699   24.251520   46.366723
  O    -22.514487   26.233838   46.314021
  C    -24.738675   25.608685   45.636639
  C    -25.690559   24.537945   45.082666
  C    -25.996719   23.699462   46.351538
  C    -26.012110   24.764016   47.476794
  O    -25.309588   25.954543   46.939652
  H    -24.772762   26.522541   45.036433
  O    -26.891858   25.148008   44.536182
  H    -25.270637   23.948724   44.265817
  H    -26.949027   23.173864   46.245289
  H    -25.209027   22.955890   46.516355
  H    -25.501077   24.428833   48.383893
  H    -27.025509   25.079661   47.742982
  H    -27.195154   25.855484   45.144420

 Multiplicity           Mult            ....    1
 Number of Electrons    NEL             ....  102
 Basis Dimension        Dim             ....  149

ORBITAL ENERGIES
----------------

  NO   OCC          E(Eh)            E(eV)
   0   2.0000     -19.140127      -520.8293
   1   2.0000     -19.139895      -520.8230
   2   2.0000     -19.139834      -520.8214
   3   2.0000     -19.134192      -520.6678
   4   2.0000     -10.276620      -279.6410
   5   2.0000     -10.244338      -278.7626
   6   2.0000     -10.234889      -278.5055
   7   2.0000     -10.234283      -278.4890
   8   2.0000     -10.229022      -278.3458
   9   2.0000     -10.219776      -278.0942
  10   2.0000     -10.190141      -277.2878
  11   2.0000     -10.181362      -277.0490
  12   2.0000     -10.180072      -277.0138
  13   2.0000      -1.050555       -28.5870
  14   2.0000      -1.035941       -28.1894
  15   2.0000      -1.006471       -27.3875
  16   2.0000      -0.991518       -26.9806
  17   2.0000      -0.788675       -21.4609
  18   2.0000      -0.779965       -21.2239
  19   2.0000      -0.766881       -20.8679
  20   2.0000      -0.727674       -19.8010
  21   2.0000      -0.673348       -18.3227
  22   2.0000      -0.605118       -16.4661
  23   2.0000      -0.594175       -16.1683
  24   2.0000      -0.590325       -16.0635
  25   2.0000      -0.584528       -15.9058
  26   2.0000      -0.527328       -14.3493
  27   2.0000      -0.510927       -13.9030
  28   2.0000      -0.493208       -13.4209
  29   2.0000      -0.485589       -13.2135
  30   2.0000      -0.475327       -12.9343
  31   2.0000      -0.458076       -12.4649
  32   2.0000      -0.450844       -12.2681
  33   2.0000      -0.437356       -11.9011
  34   2.0000      -0.427229       -11.6255
  35   2.0000      -0.405474       -11.0335
  36   2.0000      -0.397188       -10.8080
  37   2.0000      -0.393922       -10.7192
  38   2.0000      -0.373294       -10.1579
  39   2.0000      -0.371266       -10.1027
  40   2.0000      -0.359776        -9.7900
  41   2.0000      -0.352063        -9.5801
  42   2.0000      -0.346002        -9.4152
  43   2.0000      -0.330350        -8.9893
  44   2.0000      -0.317219        -8.6320
  45   2.0000      -0.308268        -8.3884
  46   2.0000      -0.300513        -8.1774
  47   2.0000      -0.272114        -7.4046
  48   2.0000      -0.263396        -7.1674
  49   2.0000      -0.250439        -6.8148
  50   2.0000      -0.239401        -6.5144
  51   0.0000       0.066039         1.7970
  52   0.0000       0.081571         2.2197
  53   0.0000       0.089441         2.4338
  54   0.0000       0.098879         2.6906
  55   0.0000       0.104170         2.8346

MULLIKEN ATOMIC CHARGES
-----------------------
   0 C :    0.281547
   1 C :   -0.252819
   2 C :   -0.299974
   3 C :    0.000159
   4 O :   -0.506321
   5 H :    0.136796
   6 H :    0.141023
   7 H :    0.149175
   8 H :    0.138304
   9 H :    0.169930
  10 H :    0.151613
  11 H :    0.138689
  12 C :    0.006606
  13 H :    0.121687
  14 H :    0.139703
  15 O :   -0.508049
  16 C :    0.066974
  17 C :    0.072315
  18 C :   -0.293696
  19 C :   -0.028933
  20 O :   -0.508138
  21 H :    0.164770
  22 O :   -0.601468
  23 H :    0.150276
  24 H :    0.162531
  25 H :    0.145160
  26 H :    0.151480
  27 H :    0.144881
  28 H :    0.365780
Sum of atomic charges:    0.0000000

LOEWDIN ATOMIC CHARGES
----------------------
   0 C :    0.173304
   1 C :   -0.218192
   2 C :   -0.216195
   3 C :   -0.026254
   4 O :   -0.323661
   5 H :    0.096723
   6 H :    0.111492
   7 H :    0.119982
   8 H :    0.112441
   9 H :    0.123018
  10 H :    0.107928
  11 H :    0.100599
  12 C :   -0.038990
  13 H :    0.092504
  14 H :    0.098736
  15 O :   -0.320445
  16 C :    0.018130
  17 C :    0.034643
  18 C :   -0.241036
  19 C :   -0.037909
  20 O :   -0.319226
  21 H :    0.119112
  22 O :   -0.414039
  23 H :    0.114294
  24 H :    0.126637
  25 H :    0.113296
  26 H :    0.107177
  27 H :    0.101964
  28 H :    0.283965

  Mayer bond orders larger than 0.100000
B(  0-C ,  1-C ) :   0.9446 B(  0-C ,  4-O ) :   0.9256 B(  0-C ,  5-H ) :   0.9190
B(  0-C , 15-O ) :   0.8518 B(  1-C ,  2-C ) :   0.9582 B(  1-C ,  6-H ) :   0.9389
B(  1-C ,  7-H ) :   0.9379 B(  2-C ,  3-C ) :   0.9549 B(  2-C ,  8-H ) :   0.9453
B(  2-C ,  9-H ) :   0.9422 B(  3-C ,  4-O ) :   0.8373 B(  3-C , 10-H ) :   0.9350
B(  3-C , 11-H ) :   0.9401 B( 12-C , 13-H ) :   0.9108 B( 12-C , 14-H ) :   0.9152
B( 12-C , 15-O ) :   0.8455 B( 12-C , 16-C ) :   0.9026 B( 16-C , 17-C ) :   0.8995
B( 16-C , 20-O ) :   0.8694 B( 16-C , 21-H ) :   0.9241 B( 17-C , 18-C ) :   0.9121
B( 17-C , 22-O ) :   0.8943 B( 17-C , 23-H ) :   0.9335 B( 18-C , 19-C ) :   0.9393
B( 18-C , 24-H ) :   0.9372 B( 18-C , 25-H ) :   0.9336 B( 19-C , 20-O ) :   0.8508
B( 19-C , 26-H ) :   0.9338 B( 19-C , 27-H ) :   0.9380 B( 22-O , 28-H ) :   0.7933

FINAL SINGLE POINT ENERGY      -652.861425483159

DIPOLE MOMENT
-------------
                                X             Y             Z
Electronic contribution:     -2.24974      -0.48305      -0.93051
Nuclear contribution   :      2.57538       0.35523       0.85507
                        -----------------------------------------
Total Dipole Moment    :      0.32564      -0.12783      -0.07544
                        -----------------------------------------
Magnitude (a.u.)       :      0.35787
Magnitude (Debye)      :      0.90964

Rotational constants in cm-1:     0.064175     0.011350     0.010937
Rotational constants in MHz :  1923.922103   340.255257   327.878890

                             ****ORCA TERMINATED NORMALLY****
TOTAL RUN TIME: 0 days 0 hours 21 minutes 26 seconds 299 msec
