                         Program Version 4.2.0 -  RELEASE  -
|  1> # Test redundant internal optimization
|  2> #
|  3> ! RKS B3LYP  Opt TightSCF SmallPrint
|  4>
|  5> %basis
|  6>         Basis "6-31G"
|  7> end
|  8>
|  9> %geom
| 10> Constraints
| 11> { D 4  0  15  12  120.0   C } # D for Dihedral angle
| 12> { D 0  15  12  16  150.0   C } # D for Dihedral angle
| 13> { D 0  4  3  2   C } # D for Dihedral angle
| 14> { D 4  3  2  1   C } # D for Dihedral angle
| 15> { D 3  2  1  0   C } # D for Dihedral angle
| 16> { D 2  1  0  4   C } # D for Dihedral angle
| 17> { D 1  0  4  3   C } # D for Dihedral angle
| 18> { D 16  20  19  18   C } # D for Dihedral angle
| 19> { D 20  19  18  17   C } # D for Dihedral angle
| 20> { D 19  18  17  16   C } # D for Dihedral angle
| 21> { D 18  17  16  20   C } # D for Dihedral angle
| 22> { D 17  16  20  19   C } # D for Dihedral angle
| 23> { D 15  12  16  20   C } # D for Dihedral angle
| 24> end
| 25> end
| 26>
| 27>
| 28> #%pal
| 29> #nprocs 8
| 30> #end
| 31>
| 32> * xyz 0 1
| 33> C  -21.048   26.222   46.251
| 34> C  -20.361   27.558   45.944
| 35> C  -20.329   28.222   47.341
| 36> C  -20.110   27.022   48.296
| 37> O  -20.473   25.807   47.535
| 38> H  -20.833   25.428   45.533
| 39> H  -19.344   27.382   45.576
| 40> H  -20.898   28.157   45.201
| 41> H  -19.543   28.978   47.434
| 42> H  -21.289   28.710   47.548
| 43> H  -20.733   27.082   49.195
| 44> H  -19.064   26.913   48.597
| 45> C  -23.119   27.818   46.058
| 46> H  -23.125   28.416   46.978
| 47> H  -22.468   28.318   45.329
| 48> O  -22.586   26.394   46.375
| 49> C  -24.559   27.804   45.475
| 50> C  -25.569   27.275   46.499
| 51> C  -25.780   28.515   47.401
| 52> C  -25.683   29.696   46.403
| 53> O  -25.012   29.171   45.195
| 54> H  -24.555   27.267   44.524
| 55> H  -26.504   26.998   45.997
| 56> O  -25.051   26.039   47.285
| 57> H  -26.737   28.495   47.932
| 58> H  -24.982   28.575   48.150
| 59> H  -25.102   30.534   46.801
| 60> H  -26.665   30.062   46.093
| 61> H  -24.116   26.294   47.795
| 62> *
| 63>
| 64>                          ****END OF INPUT****
 Total Charge           Charge          ....    0
 Multiplicity           Mult            ....    1
 Number of Electrons    NEL             ....  102
FINAL SINGLE POINT ENERGY      -652.816149692463
FINAL SINGLE POINT ENERGY      -652.841721652744
FINAL SINGLE POINT ENERGY      -652.852646256568
FINAL SINGLE POINT ENERGY      -652.856101532611
FINAL SINGLE POINT ENERGY      -652.857936521148
FINAL SINGLE POINT ENERGY      -652.859027501024
FINAL SINGLE POINT ENERGY      -652.859567108628
FINAL SINGLE POINT ENERGY      -652.859689973837
FINAL SINGLE POINT ENERGY      -652.859712401962
                    ***********************HURRAY********************

CARTESIAN COORDINATES (ANGSTROEM)
---------------------------------
  C    -21.183717   26.348390   46.321955
  C    -20.200835   27.457622   45.942158
  C    -20.007432   28.195102   47.293558
  C    -20.080296   27.043158   48.321640
  O    -20.728842   25.910138   47.612895
  H    -21.158059   25.468751   45.678133
  H    -19.265940   26.982085   45.626967
  H    -20.533831   28.108330   45.130541
  H    -19.055105   28.731403   47.338780
  H    -20.808158   28.924131   47.456494
  H    -20.671721   27.290167   49.207048
  H    -19.092896   26.692824   48.633822
  C    -23.124482   28.052547   46.087982
  H    -23.124378   28.673133   46.992320
  H    -22.536193   28.557692   45.316547
  O    -22.594158   26.723860   46.394529
  C    -24.548455   27.848195   45.556986
  C    -25.538637   27.231823   46.559631
  C    -25.912514   28.465853   47.433251
  C    -25.902203   29.628081   46.420240
  O    -25.127756   29.150256   45.234214
  H    -24.500081   27.279104   44.624646
  H    -26.426182   26.901550   46.007258
  O    -25.062479   26.110418   47.323566
  H    -26.882293   28.335834   47.920795
  H    -25.158407   28.590271   48.217844
  H    -25.428315   30.537022   46.803552
  H    -26.901959   29.879779   46.055783
  H    -24.082679   26.034479   47.227867

 Multiplicity           Mult            ....    1
 Number of Electrons    NEL             ....  102
 Basis Dimension        Dim             ....  149

ORBITAL ENERGIES
----------------

  NO   OCC          E(Eh)            E(eV)
   0   2.0000     -19.161485      -521.4105
   1   2.0000     -19.150481      -521.1111
   2   2.0000     -19.140239      -520.8324
   3   2.0000     -19.107421      -519.9394
   4   2.0000     -10.294587      -280.1300
   5   2.0000     -10.242533      -278.7135
   6   2.0000     -10.236491      -278.5491
   7   2.0000     -10.233725      -278.4738
   8   2.0000     -10.227730      -278.3107
   9   2.0000     -10.225991      -278.2634
  10   2.0000     -10.205195      -277.6975
  11   2.0000     -10.203070      -277.6397
  12   2.0000     -10.177516      -276.9443
  13   2.0000      -1.064126       -28.9563
  14   2.0000      -1.025254       -27.8986
  15   2.0000      -1.007368       -27.4119
  16   2.0000      -0.987761       -26.8783
  17   2.0000      -0.801412       -21.8075
  18   2.0000      -0.778037       -21.1715
  19   2.0000      -0.767194       -20.8764
  20   2.0000      -0.739388       -20.1198
  21   2.0000      -0.684723       -18.6322
  22   2.0000      -0.614951       -16.7337
  23   2.0000      -0.600886       -16.3509
  24   2.0000      -0.595680       -16.2093
  25   2.0000      -0.576761       -15.6945
  26   2.0000      -0.530238       -14.4285
  27   2.0000      -0.519273       -14.1301
  28   2.0000      -0.512383       -13.9426
  29   2.0000      -0.486948       -13.2505
  30   2.0000      -0.477360       -12.9896
  31   2.0000      -0.463228       -12.6051
  32   2.0000      -0.441605       -12.0167
  33   2.0000      -0.435825       -11.8594
  34   2.0000      -0.430227       -11.7071
  35   2.0000      -0.423574       -11.5260
  36   2.0000      -0.410918       -11.1816
  37   2.0000      -0.391995       -10.6667
  38   2.0000      -0.386419       -10.5150
  39   2.0000      -0.373598       -10.1661
  40   2.0000      -0.367196        -9.9919
  41   2.0000      -0.362564        -9.8659
  42   2.0000      -0.347757        -9.4629
  43   2.0000      -0.341197        -9.2844
  44   2.0000      -0.322227        -8.7682
  45   2.0000      -0.311845        -8.4857
  46   2.0000      -0.289180        -7.8690
  47   2.0000      -0.274985        -7.4827
  48   2.0000      -0.268909        -7.3174
  49   2.0000      -0.247200        -6.7266
  50   2.0000      -0.237939        -6.4747
  51   0.0000       0.055428         1.5083
  52   0.0000       0.068938         1.8759
  53   0.0000       0.088954         2.4206
  54   0.0000       0.095763         2.6058
  55   0.0000       0.102470         2.7883

MULLIKEN ATOMIC CHARGES
-----------------------
   0 C :    0.327889
   1 C :   -0.304734
   2 C :   -0.309517
   3 C :   -0.006981
   4 O :   -0.493389
   5 H :    0.168492
   6 H :    0.163329
   7 H :    0.153773
   8 H :    0.151262
   9 H :    0.153429
  10 H :    0.154185
  11 H :    0.150963
  12 C :   -0.011301
  13 H :    0.143347
  14 H :    0.153918
  15 O :   -0.574510
  16 C :    0.053670
  17 C :    0.123718
  18 C :   -0.300103
  19 C :   -0.018244
  20 O :   -0.524044
  21 H :    0.157976
  22 H :    0.145589
  23 O :   -0.640192
  24 H :    0.151222
  25 H :    0.144151
  26 H :    0.137305
  27 H :    0.148750
  28 H :    0.400047
Sum of atomic charges:   -0.0000000

LOEWDIN ATOMIC CHARGES
----------------------
   0 C :    0.184710
   1 C :   -0.230281
   2 C :   -0.219689
   3 C :   -0.029136
   4 O :   -0.309455
   5 H :    0.112773
   6 H :    0.126454
   7 H :    0.118767
   8 H :    0.119427
   9 H :    0.111747
  10 H :    0.108898
  11 H :    0.107357
  12 C :   -0.042683
  13 H :    0.097497
  14 H :    0.108469
  15 O :   -0.343141
  16 C :    0.017460
  17 C :    0.042728
  18 C :   -0.236854
  19 C :   -0.032121
  20 O :   -0.326451
  21 H :    0.114905
  22 H :    0.104394
  23 O :   -0.434227
  24 H :    0.121468
  25 H :    0.110275
  26 H :    0.099724
  27 H :    0.105936
  28 H :    0.291052

  Mayer bond orders larger than 0.100000
B(  0-C ,  1-C ) :   0.9395 B(  0-C ,  4-O ) :   0.9330 B(  0-C ,  5-H ) :   0.9303
B(  0-C , 15-O ) :   0.8157 B(  1-C ,  2-C ) :   0.9483 B(  1-C ,  6-H ) :   0.9322
B(  1-C ,  7-H ) :   0.9265 B(  2-C ,  3-C ) :   0.9498 B(  2-C ,  8-H ) :   0.9447
B(  2-C ,  9-H ) :   0.9415 B(  3-C ,  4-O ) :   0.8374 B(  3-C , 10-H ) :   0.9342
B(  3-C , 11-H ) :   0.9389 B( 12-C , 13-H ) :   0.9185 B( 12-C , 14-H ) :   0.9147
B( 12-C , 15-O ) :   0.7873 B( 12-C , 16-C ) :   0.8964 B( 16-C , 17-C ) :   0.9149
B( 16-C , 20-O ) :   0.8539 B( 16-C , 21-H ) :   0.9290 B( 17-C , 18-C ) :   0.9000
B( 17-C , 22-H ) :   0.9291 B( 17-C , 23-O ) :   0.9415 B( 18-C , 19-C ) :   0.9382
B( 18-C , 24-H ) :   0.9447 B( 18-C , 25-H ) :   0.9437 B( 19-C , 20-O ) :   0.8314
B( 19-C , 26-H ) :   0.9353 B( 19-C , 27-H ) :   0.9389 B( 23-O , 28-H ) :   0.7193

FINAL SINGLE POINT ENERGY      -652.859715345293

DIPOLE MOMENT
-------------
                                X             Y             Z
Electronic contribution:     -2.16386      -4.71496      -1.66132
Nuclear contribution   :      3.46927       5.99193       1.53638
                        -----------------------------------------
Total Dipole Moment    :      1.30541       1.27697      -0.12494
                        -----------------------------------------
Magnitude (a.u.)       :      1.83040
Magnitude (Debye)      :      4.65251

Rotational constants in cm-1:     0.051388     0.014161     0.013053
Rotational constants in MHz :  1540.579402   424.547806   391.327287

                             ****ORCA TERMINATED NORMALLY****
TOTAL RUN TIME: 0 days 0 hours 47 minutes 59 seconds 414 msec
