                         Program Version 4.2.0 -  RELEASE  -
|  1> # Test redundant internal optimization
|  2> #
|  3> ! RKS B3LYP  Opt TightSCF SmallPrint
|  4>
|  5> %basis
|  6>         Basis "6-31G"
|  7> end
|  8>
|  9> %geom
| 10> Constraints
| 11> { D 4  0  15  12  90.0   C } # D for Dihedral angle
| 12> { D 0  15  12  16  300.0   C } # D for Dihedral angle
| 13> { D 0  4  3  2   C } # D for Dihedral angle
| 14> { D 4  3  2  1   C } # D for Dihedral angle
| 15> { D 3  2  1  0   C } # D for Dihedral angle
| 16> { D 2  1  0  4   C } # D for Dihedral angle
| 17> { D 1  0  4  3   C } # D for Dihedral angle
| 18> { D 16  20  19  18   C } # D for Dihedral angle
| 19> { D 20  19  18  17   C } # D for Dihedral angle
| 20> { D 19  18  17  16   C } # D for Dihedral angle
| 21> { D 18  17  16  20   C } # D for Dihedral angle
| 22> { D 17  16  20  19   C } # D for Dihedral angle
| 23> { D 15  12  16  20   C } # D for Dihedral angle
| 24> end
| 25> end
| 26>
| 27>
| 28> #%pal
| 29> #nprocs 8
| 30> #end
| 31>
| 32> * xyz 0 1
| 33> C  -21.048   26.222   46.251
| 34> C  -20.361   27.558   45.944
| 35> C  -20.329   28.222   47.341
| 36> C  -20.110   27.022   48.296
| 37> O  -20.473   25.807   47.535
| 38> H  -20.833   25.428   45.533
| 39> H  -19.344   27.382   45.576
| 40> H  -20.898   28.157   45.201
| 41> H  -19.543   28.978   47.434
| 42> H  -21.289   28.710   47.548
| 43> H  -20.733   27.082   49.195
| 44> H  -19.064   26.913   48.597
| 45> C  -23.061   27.816   46.783
| 46> H  -22.730   28.539   46.027
| 47> H  -24.156   27.853   46.838
| 48> O  -22.586   26.394   46.375
| 49> C  -22.503   28.262   48.163
| 50> C  -23.082   29.616   48.586
| 51> C  -24.480   29.210   49.110
| 52> C  -24.223   27.828   49.762
| 53> O  -22.939   27.338   49.215
| 54> H  -21.412   28.225   48.137
| 55> H  -22.478   30.050   49.391
| 56> O  -23.151   30.641   47.420
| 57> H  -24.895   29.934   49.818
| 58> H  -25.183   29.117   48.274
| 59> H  -25.011   27.102   49.531
| 60> H  -24.108   27.894   50.847
| 61> H  -23.752   30.230   46.602
| 62> *
| 63>
| 64>                          ****END OF INPUT****
 Total Charge           Charge          ....    0
 Multiplicity           Mult            ....    1
 Number of Electrons    NEL             ....  102
FINAL SINGLE POINT ENERGY      -652.595322449410
FINAL SINGLE POINT ENERGY      -652.662231668387
FINAL SINGLE POINT ENERGY      -652.709740380410
FINAL SINGLE POINT ENERGY      -652.744468739055
FINAL SINGLE POINT ENERGY      -652.770374560607
FINAL SINGLE POINT ENERGY      -652.789766612058
FINAL SINGLE POINT ENERGY      -652.804014099655
FINAL SINGLE POINT ENERGY      -652.814272021267
FINAL SINGLE POINT ENERGY      -652.821635979561
FINAL SINGLE POINT ENERGY      -652.826928591091
FINAL SINGLE POINT ENERGY      -652.839288537357
FINAL SINGLE POINT ENERGY      -652.839539805990
FINAL SINGLE POINT ENERGY      -652.839763083739
FINAL SINGLE POINT ENERGY      -652.839881231841
FINAL SINGLE POINT ENERGY      -652.839913852545
FINAL SINGLE POINT ENERGY      -652.839926474287
FINAL SINGLE POINT ENERGY      -652.839935726783
FINAL SINGLE POINT ENERGY      -652.839943781624
FINAL SINGLE POINT ENERGY      -652.839947945235
                    ***********************HURRAY********************

CARTESIAN COORDINATES (ANGSTROEM)
---------------------------------
  C    -21.082181   26.361755   46.343670
  C    -20.077694   27.396575   45.817206
  C    -19.563401   28.051015   47.133695
  C    -19.560520   26.855784   48.122603
  O    -20.437171   25.821806   47.517109
  H    -21.156551   25.505868   45.668178
  H    -19.270533   26.856376   45.313080
  H    -20.512754   28.113381   45.114581
  H    -18.559351   28.471682   47.014008
  H    -20.214013   28.867240   47.448889
  H    -19.950010   27.110735   49.112876
  H    -18.567806   26.409663   48.228501
  C    -23.101889   27.918793   46.900586
  H    -22.864441   28.712930   46.174449
  H    -24.169425   27.690696   46.826147
  O    -22.486461   26.672031   46.477858
  C    -22.772594   28.453633   48.298187
  C    -23.544231   29.741515   48.637427
  C    -24.921040   29.177398   49.109767
  C    -24.519468   27.867657   49.826052
  O    -23.150747   27.527578   49.362057
  H    -21.701793   28.596728   48.412856
  H    -23.042918   30.250881   49.463752
  O    -23.607746   30.733911   47.584359
  H    -25.449966   29.876611   49.763296
  H    -25.558331   28.980332   48.237350
  H    -25.190171   27.033913   49.596403
  H    -24.467552   27.990129   50.912298
  H    -24.274242   30.483383   46.912762

 Multiplicity           Mult            ....    1
 Number of Electrons    NEL             ....  102
 Basis Dimension        Dim             ....  149

ORBITAL ENERGIES
----------------

  NO   OCC          E(Eh)            E(eV)
   0   2.0000     -19.155080      -521.2362
   1   2.0000     -19.138162      -520.7759
   2   2.0000     -19.137078      -520.7464
   3   2.0000     -19.132492      -520.6216
   4   2.0000     -10.272479      -279.5284
   5   2.0000     -10.250241      -278.9232
   6   2.0000     -10.233335      -278.4632
   7   2.0000     -10.232790      -278.4484
   8   2.0000     -10.232025      -278.4276
   9   2.0000     -10.221558      -278.1427
  10   2.0000     -10.199679      -277.5474
  11   2.0000     -10.189403      -277.2677
  12   2.0000     -10.188868      -277.2532
  13   2.0000      -1.042082       -28.3565
  14   2.0000      -1.036081       -28.1932
  15   2.0000      -1.017534       -27.6885
  16   2.0000      -0.989208       -26.9177
  17   2.0000      -0.786594       -21.4043
  18   2.0000      -0.784458       -21.3462
  19   2.0000      -0.772263       -21.0143
  20   2.0000      -0.731688       -19.9102
  21   2.0000      -0.685636       -18.6571
  22   2.0000      -0.615072       -16.7370
  23   2.0000      -0.609361       -16.5816
  24   2.0000      -0.597820       -16.2675
  25   2.0000      -0.563780       -15.3412
  26   2.0000      -0.527400       -14.3513
  27   2.0000      -0.506269       -13.7763
  28   2.0000      -0.502727       -13.6799
  29   2.0000      -0.493814       -13.4374
  30   2.0000      -0.466228       -12.6867
  31   2.0000      -0.453933       -12.3521
  32   2.0000      -0.445891       -12.1333
  33   2.0000      -0.432630       -11.7725
  34   2.0000      -0.430095       -11.7035
  35   2.0000      -0.424324       -11.5464
  36   2.0000      -0.411038       -11.1849
  37   2.0000      -0.405095       -11.0232
  38   2.0000      -0.382006       -10.3949
  39   2.0000      -0.376457       -10.2439
  40   2.0000      -0.357615        -9.7312
  41   2.0000      -0.353651        -9.6233
  42   2.0000      -0.345197        -9.3933
  43   2.0000      -0.333054        -9.0629
  44   2.0000      -0.319151        -8.6846
  45   2.0000      -0.306613        -8.3434
  46   2.0000      -0.289617        -7.8809
  47   2.0000      -0.275244        -7.4898
  48   2.0000      -0.263004        -7.1567
  49   2.0000      -0.251985        -6.8568
  50   2.0000      -0.234773        -6.3885
  51   0.0000       0.047674         1.2973
  52   0.0000       0.073411         1.9976
  53   0.0000       0.079773         2.1707
  54   0.0000       0.086403         2.3511
  55   0.0000       0.100868         2.7447

MULLIKEN ATOMIC CHARGES
-----------------------
   0 C :    0.313171
   1 C :   -0.291982
   2 C :   -0.320491
   3 C :   -0.011944
   4 O :   -0.495075
   5 H :    0.164554
   6 H :    0.159948
   7 H :    0.146705
   8 H :    0.142787
   9 H :    0.154830
  10 H :    0.158987
  11 H :    0.144300
  12 C :   -0.004188
  13 H :    0.122151
  14 H :    0.149828
  15 O :   -0.523278
  16 C :    0.070491
  17 C :    0.083620
  18 C :   -0.330476
  19 C :   -0.015054
  20 O :   -0.501844
  21 H :    0.155184
  22 H :    0.167179
  23 O :   -0.600245
  24 H :    0.159934
  25 H :    0.137084
  26 H :    0.152309
  27 H :    0.153245
  28 H :    0.358268
Sum of atomic charges:   -0.0000000

LOEWDIN ATOMIC CHARGES
----------------------
   0 C :    0.175931
   1 C :   -0.230024
   2 C :   -0.226092
   3 C :   -0.034836
   4 O :   -0.313803
   5 H :    0.110812
   6 H :    0.124169
   7 H :    0.116649
   8 H :    0.114600
   9 H :    0.109144
  10 H :    0.108862
  11 H :    0.104254
  12 C :   -0.046648
  13 H :    0.092148
  14 H :    0.112366
  15 O :   -0.314152
  16 C :    0.002306
  17 C :    0.035163
  18 C :   -0.243292
  19 C :   -0.030694
  20 O :   -0.312767
  21 H :    0.113003
  22 H :    0.118664
  23 O :   -0.408258
  24 H :    0.123538
  25 H :    0.105264
  26 H :    0.107025
  27 H :    0.107458
  28 H :    0.279211

  Mayer bond orders larger than 0.100000
B(  0-C ,  1-C ) :   0.9152 B(  0-C ,  4-O ) :   0.9064 B(  0-C ,  5-H ) :   0.9379
B(  0-C , 15-O ) :   0.9005 B(  1-C ,  2-C ) :   0.9557 B(  1-C ,  6-H ) :   0.9353
B(  1-C ,  7-H ) :   0.9364 B(  2-C ,  3-C ) :   0.9461 B(  2-C ,  8-H ) :   0.9444
B(  2-C ,  9-H ) :   0.9282 B(  3-C ,  4-O ) :   0.8481 B(  3-C , 10-H ) :   0.9267
B(  3-C , 11-H ) :   0.9376 B( 12-C , 13-H ) :   0.9016 B( 12-C , 14-H ) :   0.9379
B( 12-C , 15-O ) :   0.8661 B( 12-C , 16-C ) :   0.8841 B( 16-C , 17-C ) :   0.8667
B( 16-C , 20-O ) :   0.8672 B( 16-C , 21-H ) :   0.9095 B( 17-C , 18-C ) :   0.9259
B( 17-C , 22-H ) :   0.9326 B( 17-C , 23-O ) :   0.8969 B( 18-C , 19-C ) :   0.9385
B( 18-C , 24-H ) :   0.9412 B( 18-C , 25-H ) :   0.9397 B( 19-C , 20-O ) :   0.8497
B( 19-C , 26-H ) :   0.9301 B( 19-C , 27-H ) :   0.9365 B( 23-O , 28-H ) :   0.7973

FINAL SINGLE POINT ENERGY      -652.839948565495

DIPOLE MOMENT
-------------
                                X             Y             Z
Electronic contribution:     -1.04940      -3.12133      -0.06435
Nuclear contribution   :      0.69962       4.27510      -0.17713
                        -----------------------------------------
Total Dipole Moment    :     -0.34978       1.15377      -0.24148
                        -----------------------------------------
Magnitude (a.u.)       :      1.22958
Magnitude (Debye)      :      3.12533

Rotational constants in cm-1:     0.045692     0.016226     0.015041
Rotational constants in MHz :  1369.818088   486.436218   450.904259

                             ****ORCA TERMINATED NORMALLY****
TOTAL RUN TIME: 0 days 2 hours 10 minutes 34 seconds 555 msec
