                         Program Version 4.2.1 -  RELEASE  -
|  1> # Test redundant internal optimization
|  2> #
|  3> ! RKS B3LYP  Opt TightSCF SmallPrint
|  4>
|  5> %basis
|  6>         Basis "6-31G"
|  7> end
|  8>
|  9> %geom
| 10> Constraints
| 11> { D 4  0  19  14  45.0   C } # D for Dihedral angle
| 12> { D 0  19  14  12  135.0   C } # D for Dihedral angle
| 13> { D 0  4  3  2   C } # D for Dihedral angle
| 14> { D 4  3  2  1   C } # D for Dihedral angle
| 15> { D 3  2  1  0   C } # D for Dihedral angle
| 16> { D 2  1  0  4   C } # D for Dihedral angle
| 17> { D 1  0  4  3   C } # D for Dihedral angle
| 18> { D 14  15  16  17   C } # D for Dihedral angle
| 19> { D 15  16  17  12   C } # D for Dihedral angle
| 20> { D 16  17  12  14   C } # D for Dihedral angle
| 21> { D 17  12  14  15   C } # D for Dihedral angle
| 22> { D 12  14  15  16   C } # D for Dihedral angle
| 23> end
| 24> end
| 25>
| 26>
| 27> #%pal
| 28> #nprocs 8
| 29> #end
| 30>
| 31> * xyz 0 1
| 32> C  -21.048   26.222   46.251
| 33> C  -20.361   27.558   45.944
| 34> C  -20.329   28.222   47.341
| 35> C  -20.110   27.022   48.296
| 36> O  -20.473   25.807   47.535
| 37> H  -20.833   25.428   45.533
| 38> H  -19.344   27.382   45.576
| 39> H  -20.898   28.157   45.201
| 40> H  -19.543   28.978   47.434
| 41> H  -21.289   28.710   47.548
| 42> H  -20.733   27.082   49.195
| 43> H  -19.064   26.913   48.597
| 44> C  -23.965   28.127   47.170
| 45> H  -24.097   28.872   47.970
| 46> C  -22.896   27.093   47.540
| 47> C  -23.677   26.159   48.493
| 48> C  -25.104   26.154   47.889
| 49> O  -25.189   27.336   47.002
| 50> H  -23.788   28.644   46.226
| 51> O  -22.472   26.381   46.366
| 52> H  -22.013   27.538   48.011
| 53> H  -23.246   25.155   48.552
| 54> H  -23.689   26.578   49.507
| 55> H  -25.885   26.224   48.654
| 56> H  -25.293   25.272   47.270
| 57> *
| 58>
| 59>                          ****END OF INPUT****
 Total Charge           Charge          ....    0
 Multiplicity           Mult            ....    1
 Number of Electrons    NEL             ....   86
FINAL SINGLE POINT ENERGY      -538.398349397675
FINAL SINGLE POINT ENERGY      -538.424046345227
FINAL SINGLE POINT ENERGY      -538.426493700512
FINAL SINGLE POINT ENERGY      -538.426823972354
FINAL SINGLE POINT ENERGY      -538.426859843216
FINAL SINGLE POINT ENERGY      -538.426870466250
                    ***********************HURRAY********************

CARTESIAN COORDINATES (ANGSTROEM)
---------------------------------
  C    -21.083198   26.319676   46.400206
  C    -20.297769   27.551819   45.927665
  C    -19.971780   28.263576   47.271997
  C    -19.752734   27.073160   48.240280
  O    -20.375888   25.893189   47.590035
  H    -21.021318   25.488582   45.695386
  H    -19.379246   27.215586   45.434988
  H    -20.870274   28.169111   45.231362
  H    -19.081990   28.897309   47.202965
  H    -20.803228   28.900874   47.587416
  H    -20.209275   27.221064   49.224069
  H    -18.692746   26.838029   48.374328
  C    -24.187037   28.108560   47.217882
  H    -24.469836   28.817976   48.010884
  C    -23.095263   27.158576   47.710988
  C    -23.912407   26.140451   48.531956
  C    -25.238605   26.032960   47.744258
  O    -25.302881   27.229385   46.873631
  H    -23.907138   28.653992   46.314893
  O    -22.507370   26.477656   46.558948
  H    -22.339069   27.658925   48.318155
  H    -23.378795   25.191567   48.612637
  H    -24.083357   26.533932   49.541565
  H    -26.117767   26.017668   48.397869
  H    -25.260030   25.160375   47.086639

 Multiplicity           Mult            ....    1
 Number of Electrons    NEL             ....   86
 Basis Dimension        Dim             ....  127

ORBITAL ENERGIES
----------------

  NO   OCC          E(Eh)            E(eV)
   0   2.0000     -19.147613      -521.0330
   1   2.0000     -19.139374      -520.8088
   2   2.0000     -19.124552      -520.4055
   3   2.0000     -10.280015      -279.7334
   4   2.0000     -10.240395      -278.6553
   5   2.0000     -10.235006      -278.5087
   6   2.0000     -10.220745      -278.1206
   7   2.0000     -10.215551      -277.9793
   8   2.0000     -10.197058      -277.4760
   9   2.0000     -10.190488      -277.2973
  10   2.0000     -10.179795      -277.0063
  11   2.0000      -1.054367       -28.6908
  12   2.0000      -1.012851       -27.5611
  13   2.0000      -0.989964       -26.9383
  14   2.0000      -0.792631       -21.5686
  15   2.0000      -0.783342       -21.3158
  16   2.0000      -0.739967       -20.1355
  17   2.0000      -0.722833       -19.6693
  18   2.0000      -0.619204       -16.8494
  19   2.0000      -0.607090       -16.5198
  20   2.0000      -0.594916       -16.1885
  21   2.0000      -0.566588       -15.4176
  22   2.0000      -0.525882       -14.3100
  23   2.0000      -0.504008       -13.7147
  24   2.0000      -0.485095       -13.2001
  25   2.0000      -0.480844       -13.0844
  26   2.0000      -0.452634       -12.3168
  27   2.0000      -0.444518       -12.0959
  28   2.0000      -0.426483       -11.6052
  29   2.0000      -0.417988       -11.3740
  30   2.0000      -0.412402       -11.2220
  31   2.0000      -0.386456       -10.5160
  32   2.0000      -0.372559       -10.1378
  33   2.0000      -0.367743       -10.0068
  34   2.0000      -0.363662        -9.8957
  35   2.0000      -0.360036        -9.7971
  36   2.0000      -0.343685        -9.3522
  37   2.0000      -0.321870        -8.7585
  38   2.0000      -0.310464        -8.4482
  39   2.0000      -0.295928        -8.0526
  40   2.0000      -0.265586        -7.2270
  41   2.0000      -0.252573        -6.8729
  42   2.0000      -0.228761        -6.2249
  43   0.0000       0.065413         1.7800
  44   0.0000       0.092610         2.5200
  45   0.0000       0.094540         2.5726
  46   0.0000       0.107329         2.9206
  47   0.0000       0.116906         3.1812

MULLIKEN ATOMIC CHARGES
-----------------------
   0 C :    0.297114
   1 C :   -0.264667
   2 C :   -0.318590
   3 C :   -0.017569
   4 O :   -0.509031
   5 H :    0.165695
   6 H :    0.152012
   7 H :    0.154690
   8 H :    0.148576
   9 H :    0.149074
  10 H :    0.144485
  11 H :    0.151053
  12 C :    0.012033
  13 H :    0.119665
  14 C :    0.058212
  15 C :   -0.286387
  16 C :    0.003584
  17 O :   -0.519199
  18 H :    0.155783
  19 O :   -0.518787
  20 H :    0.129382
  21 H :    0.170876
  22 H :    0.135154
  23 H :    0.131748
  24 H :    0.155092
Sum of atomic charges:    0.0000000

LOEWDIN ATOMIC CHARGES
----------------------
   0 C :    0.177952
   1 C :   -0.227223
   2 C :   -0.225383
   3 C :   -0.036885
   4 O :   -0.323428
   5 H :    0.112850
   6 H :    0.119218
   7 H :    0.121845
   8 H :    0.117469
   9 H :    0.108407
  10 H :    0.100456
  11 H :    0.106862
  12 C :   -0.038292
  13 H :    0.088774
  14 C :    0.036966
  15 C :   -0.229618
  16 C :   -0.027155
  17 O :   -0.329512
  18 H :    0.116400
  19 O :   -0.317324
  20 H :    0.100769
  21 H :    0.131353
  22 H :    0.109115
  23 H :    0.096958
  24 H :    0.109429

  Mayer bond orders larger than 0.100000
B(  0-C ,  1-C ) :   0.9149 B(  0-C ,  4-O ) :   0.8959 B(  0-C ,  5-H ) :   0.9357
B(  0-C , 19-O ) :   0.8996 B(  1-C ,  2-C ) :   0.9541 B(  1-C ,  6-H ) :   0.9348
B(  1-C ,  7-H ) :   0.9370 B(  2-C ,  3-C ) :   0.9473 B(  2-C ,  8-H ) :   0.9443
B(  2-C ,  9-H ) :   0.9409 B(  3-C ,  4-O ) :   0.8433 B(  3-C , 10-H ) :   0.9308
B(  3-C , 11-H ) :   0.9380 B( 12-C , 13-H ) :   0.9133 B( 12-C , 14-C ) :   0.9309
B( 12-C , 17-O ) :   0.8774 B( 12-C , 18-H ) :   0.9324 B( 14-C , 15-C ) :   0.9432
B( 14-C , 19-O ) :   0.8148 B( 14-C , 20-H ) :   0.9107 B( 15-C , 16-C ) :   0.9476
B( 15-C , 21-H ) :   0.9372 B( 15-C , 22-H ) :   0.9382 B( 16-C , 17-O ) :   0.8531
B( 16-C , 23-H ) :   0.9340 B( 16-C , 24-H ) :   0.9364

FINAL SINGLE POINT ENERGY      -538.426870181891

DIPOLE MOMENT
-------------
                                X             Y             Z
Electronic contribution:     -1.99005      -2.77076      -2.22562
Nuclear contribution   :      3.04236       3.55764       2.93090
                        -----------------------------------------
Total Dipole Moment    :      1.05231       0.78688       0.70528
                        -----------------------------------------
Magnitude (a.u.)       :      1.49129
Magnitude (Debye)      :      3.79057

Rotational constants in cm-1:     0.079325     0.022019     0.020836
Rotational constants in MHz :  2378.117720   660.126775   624.634168

                             ****ORCA TERMINATED NORMALLY****
TOTAL RUN TIME: 0 days 0 hours 8 minutes 36 seconds 851 msec
