                         Program Version 4.2.1 -  RELEASE  -
|  1> # Test redundant internal optimization
|  2> #
|  3> ! RKS B3LYP  Opt TightSCF SmallPrint
|  4>
|  5> %basis
|  6>         Basis "6-31G"
|  7> end
|  8>
|  9> %geom
| 10> Constraints
| 11> { D 4  0  19  14  15.0   C } # D for Dihedral angle
| 12> { D 0  19  14  12  180.0   C } # D for Dihedral angle
| 13> { D 0  4  3  2   C } # D for Dihedral angle
| 14> { D 4  3  2  1   C } # D for Dihedral angle
| 15> { D 3  2  1  0   C } # D for Dihedral angle
| 16> { D 2  1  0  4   C } # D for Dihedral angle
| 17> { D 1  0  4  3   C } # D for Dihedral angle
| 18> { D 14  15  16  17   C } # D for Dihedral angle
| 19> { D 15  16  17  12   C } # D for Dihedral angle
| 20> { D 16  17  12  14   C } # D for Dihedral angle
| 21> { D 17  12  14  15   C } # D for Dihedral angle
| 22> { D 12  14  15  16   C } # D for Dihedral angle
| 23> end
| 24> end
| 25>
| 26>
| 27> #%pal
| 28> #nprocs 8
| 29> #end
| 30>
| 31> * xyz 0 1
| 32> C  -21.048   26.222   46.251
| 33> C  -20.361   27.558   45.944
| 34> C  -20.329   28.222   47.341
| 35> C  -20.110   27.022   48.296
| 36> O  -20.473   25.807   47.535
| 37> H  -20.833   25.428   45.533
| 38> H  -19.344   27.382   45.576
| 39> H  -20.898   28.157   45.201
| 40> H  -19.543   28.978   47.434
| 41> H  -21.289   28.710   47.548
| 42> H  -20.733   27.082   49.195
| 43> H  -19.064   26.913   48.597
| 44> C  -24.478   26.611   47.726
| 45> H  -24.838   26.948   48.710
| 46> C  -22.954   26.442   47.718
| 47> C  -22.786   25.074   48.420
| 48> C  -24.023   24.276   47.936
| 49> O  -24.991   25.270   47.424
| 50> H  -24.862   27.281   46.955
| 51> O  -22.472   26.381   46.366
| 52> H  -22.429   27.252   48.236
| 53> H  -21.844   24.579   48.166
| 54> H  -22.813   25.203   49.509
| 55> H  -24.492   23.699   48.740
| 56> H  -23.786   23.601   47.107
| 57> *
| 58>
| 59>                          ****END OF INPUT****
 Total Charge           Charge          ....    0
 Multiplicity           Mult            ....    1
 Number of Electrons    NEL             ....   86
FINAL SINGLE POINT ENERGY      -538.412594751763
FINAL SINGLE POINT ENERGY      -538.427138856227
FINAL SINGLE POINT ENERGY      -538.428743631127
FINAL SINGLE POINT ENERGY      -538.429045330012
FINAL SINGLE POINT ENERGY      -538.429072457029
FINAL SINGLE POINT ENERGY      -538.429081213021
                    ***********************HURRAY********************

CARTESIAN COORDINATES (ANGSTROEM)
---------------------------------
  C    -21.023089   26.281707   46.322254
  C    -20.403888   27.630122   45.942889
  C    -20.161373   28.272172   47.332878
  C    -19.787879   27.058081   48.215218
  O    -20.263470   25.856890   47.477113
  H    -20.896087   25.504814   45.566029
  H    -19.456143   27.459317   45.419106
  H    -21.066625   28.215882   45.302797
  H    -19.369320   29.027128   47.316566
  H    -21.076923   28.754212   47.691008
  H    -20.259339   27.075457   49.201915
  H    -18.707162   26.940903   48.337290
  C    -24.576487   26.526182   47.606647
  H    -25.083531   26.866829   48.522013
  C    -23.070778   26.403947   47.844937
  C    -22.980514   25.049352   48.575488
  C    -24.095228   24.210483   47.911589
  O    -24.997464   25.173663   47.239620
  H    -24.821120   27.186810   46.774042
  O    -22.461095   26.388349   46.518565
  H    -22.674377   27.232063   48.447121
  H    -21.988571   24.607024   48.485047
  H    -23.193231   25.209672   49.640604
  H    -24.670685   23.623966   48.636819
  H    -23.708621   23.542977   47.136448

 Multiplicity           Mult            ....    1
 Number of Electrons    NEL             ....   86
 Basis Dimension        Dim             ....  127

ORBITAL ENERGIES
----------------

  NO   OCC          E(Eh)            E(eV)
   0   2.0000     -19.153450      -521.1919
   1   2.0000     -19.136316      -520.7256
   2   2.0000     -19.121040      -520.3099
   3   2.0000     -10.280943      -279.7587
   4   2.0000     -10.239421      -278.6288
   5   2.0000     -10.236577      -278.5514
   6   2.0000     -10.217283      -278.0264
   7   2.0000     -10.213118      -277.9131
   8   2.0000     -10.195645      -277.4376
   9   2.0000     -10.188008      -277.2298
  10   2.0000     -10.174780      -276.8698
  11   2.0000      -1.055906       -28.7327
  12   2.0000      -1.010444       -27.4956
  13   2.0000      -0.986806       -26.8523
  14   2.0000      -0.794519       -21.6200
  15   2.0000      -0.778254       -21.1774
  16   2.0000      -0.740504       -20.1501
  17   2.0000      -0.720184       -19.5972
  18   2.0000      -0.616760       -16.7829
  19   2.0000      -0.606146       -16.4941
  20   2.0000      -0.592017       -16.1096
  21   2.0000      -0.562222       -15.2988
  22   2.0000      -0.525186       -14.2910
  23   2.0000      -0.500777       -13.6268
  24   2.0000      -0.486435       -13.2366
  25   2.0000      -0.480440       -13.0734
  26   2.0000      -0.451429       -12.2840
  27   2.0000      -0.446981       -12.1630
  28   2.0000      -0.422081       -11.4854
  29   2.0000      -0.410227       -11.1628
  30   2.0000      -0.408033       -11.1031
  31   2.0000      -0.385693       -10.4952
  32   2.0000      -0.373898       -10.1743
  33   2.0000      -0.363799        -9.8995
  34   2.0000      -0.362485        -9.8637
  35   2.0000      -0.360438        -9.8080
  36   2.0000      -0.344899        -9.3852
  37   2.0000      -0.327734        -8.9181
  38   2.0000      -0.309796        -8.4300
  39   2.0000      -0.291190        -7.9237
  40   2.0000      -0.264378        -7.1941
  41   2.0000      -0.250098        -6.8055
  42   2.0000      -0.226970        -6.1762
  43   0.0000       0.065782         1.7900
  44   0.0000       0.092616         2.5202
  45   0.0000       0.098757         2.6873
  46   0.0000       0.108613         2.9555
  47   0.0000       0.121508         3.3064

MULLIKEN ATOMIC CHARGES
-----------------------
   0 C :    0.303774
   1 C :   -0.257783
   2 C :   -0.313905
   3 C :   -0.017103
   4 O :   -0.514023
   5 H :    0.162884
   6 H :    0.146130
   7 H :    0.161128
   8 H :    0.149671
   9 H :    0.153209
  10 H :    0.144834
  11 H :    0.153209
  12 C :    0.006181
  13 H :    0.119945
  14 C :    0.078869
  15 C :   -0.312189
  16 C :    0.002810
  17 O :   -0.520396
  18 H :    0.165035
  19 O :   -0.534152
  20 H :    0.117766
  21 H :    0.189974
  22 H :    0.132635
  23 H :    0.131431
  24 H :    0.150067
Sum of atomic charges:   -0.0000000

LOEWDIN ATOMIC CHARGES
----------------------
   0 C :    0.182651
   1 C :   -0.222040
   2 C :   -0.221057
   3 C :   -0.033919
   4 O :   -0.319114
   5 H :    0.109507
   6 H :    0.114783
   7 H :    0.125719
   8 H :    0.118362
   9 H :    0.111818
  10 H :    0.101782
  11 H :    0.107956
  12 C :   -0.032883
  13 H :    0.088959
  14 C :    0.042526
  15 C :   -0.243890
  16 C :   -0.028304
  17 O :   -0.329960
  18 H :    0.121441
  19 O :   -0.332286
  20 H :    0.088967
  21 H :    0.137203
  22 H :    0.109107
  23 H :    0.096654
  24 H :    0.106019

  Mayer bond orders larger than 0.100000
B(  0-C ,  1-C ) :   0.9260 B(  0-C ,  4-O ) :   0.8963 B(  0-C ,  5-H ) :   0.9322
B(  0-C , 19-O ) :   0.8581 B(  1-C ,  2-C ) :   0.9528 B(  1-C ,  6-H ) :   0.9347
B(  1-C ,  7-H ) :   0.9364 B(  2-C ,  3-C ) :   0.9518 B(  2-C ,  8-H ) :   0.9441
B(  2-C ,  9-H ) :   0.9434 B(  3-C ,  4-O ) :   0.8308 B(  3-C , 10-H ) :   0.9322
B(  3-C , 11-H ) :   0.9393 B( 12-C , 13-H ) :   0.9157 B( 12-C , 14-C ) :   0.9369
B( 12-C , 17-O ) :   0.8759 B( 12-C , 18-H ) :   0.9303 B( 14-C , 15-C ) :   0.9341
B( 14-C , 19-O ) :   0.8246 B( 14-C , 20-H ) :   0.9149 B( 15-C , 16-C ) :   0.9435
B( 15-C , 21-H ) :   0.9194 B( 15-C , 22-H ) :   0.9366 B( 16-C , 17-O ) :   0.8560
B( 16-C , 23-H ) :   0.9337 B( 16-C , 24-H ) :   0.9374

FINAL SINGLE POINT ENERGY      -538.429081709442

DIPOLE MOMENT
-------------
                                X             Y             Z
Electronic contribution:     -2.15165      -2.56405      -2.45310
Nuclear contribution   :      3.24733       3.52228       3.17666
                        -----------------------------------------
Total Dipole Moment    :      1.09568       0.95822       0.72355
                        -----------------------------------------
Magnitude (a.u.)       :      1.62549
Magnitude (Debye)      :      4.13168

Rotational constants in cm-1:     0.080850     0.022743     0.021301
Rotational constants in MHz :  2423.828770   681.822131   638.594888

                             ****ORCA TERMINATED NORMALLY****
TOTAL RUN TIME: 0 days 0 hours 7 minutes 23 seconds 183 msec
