                         Program Version 4.2.0 -  RELEASE  -
|  1> # Test redundant internal optimization
|  2> #
|  3> ! RKS B3LYP  Opt TightSCF SmallPrint
|  4>
|  5> %basis
|  6>         Basis "6-31G"
|  7> end
|  8>
|  9> %geom
| 10> Constraints
| 11> { D 4  0  15  12  90.0   C } # D for Dihedral angle
| 12> { D 0  15  12  16  225.0   C } # D for Dihedral angle
| 13> { D 0  4  3  2   C } # D for Dihedral angle
| 14> { D 4  3  2  1   C } # D for Dihedral angle
| 15> { D 3  2  1  0   C } # D for Dihedral angle
| 16> { D 2  1  0  4   C } # D for Dihedral angle
| 17> { D 1  0  4  3   C } # D for Dihedral angle
| 18> { D 16  20  19  18   C } # D for Dihedral angle
| 19> { D 20  19  18  17   C } # D for Dihedral angle
| 20> { D 19  18  17  16   C } # D for Dihedral angle
| 21> { D 18  17  16  20   C } # D for Dihedral angle
| 22> { D 17  16  20  19   C } # D for Dihedral angle
| 23> { D 15  12  16  20   C } # D for Dihedral angle
| 24> end
| 25> end
| 26>
| 27>
| 28> #%pal
| 29> #nprocs 8
| 30> #end
| 31>
| 32> * xyz 0 1
| 33> C  -21.048   26.222   46.251
| 34> C  -20.361   27.558   45.944
| 35> C  -20.329   28.222   47.341
| 36> C  -20.110   27.022   48.296
| 37> O  -20.473   25.807   47.535
| 38> H  -20.833   25.428   45.533
| 39> H  -19.344   27.382   45.576
| 40> H  -20.898   28.157   45.201
| 41> H  -19.543   28.978   47.434
| 42> H  -21.289   28.710   47.548
| 43> H  -20.733   27.082   49.195
| 44> H  -19.064   26.913   48.597
| 45> C  -23.061   27.816   46.783
| 46> H  -22.205   28.387   47.164
| 47> H  -23.470   28.348   45.915
| 48> O  -22.586   26.394   46.375
| 49> C  -24.159   27.789   47.882
| 50> C  -25.354   26.929   47.455
| 51> C  -24.826   25.501   47.732
| 52> C  -23.951   25.688   48.996
| 53> O  -23.656   27.134   49.094
| 54> H  -24.415   28.814   48.156
| 55> H  -26.220   27.150   48.088
| 56> O  -25.762   27.143   45.972
| 57> H  -25.630   24.773   47.884
| 58> H  -24.217   25.155   46.888
| 59> H  -23.009   25.131   48.941
| 60> H  -24.476   25.404   49.913
| 61> H  -24.908   26.928   45.321
| 62> *
| 63>
| 64>                          ****END OF INPUT****
 Total Charge           Charge          ....    0
 Multiplicity           Mult            ....    1
 Number of Electrons    NEL             ....  102
FINAL SINGLE POINT ENERGY      -652.790043172979
FINAL SINGLE POINT ENERGY      -652.831969909826
FINAL SINGLE POINT ENERGY      -652.851455073110
FINAL SINGLE POINT ENERGY      -652.855704742155
FINAL SINGLE POINT ENERGY      -652.856419524578
FINAL SINGLE POINT ENERGY      -652.856569241603
FINAL SINGLE POINT ENERGY      -652.856598684031
FINAL SINGLE POINT ENERGY      -652.856603203931
FINAL SINGLE POINT ENERGY      -652.856588817634
                    ***********************HURRAY********************

CARTESIAN COORDINATES (ANGSTROEM)
---------------------------------
  C    -21.161012   26.426430   46.379778
  C    -20.225753   27.562967   45.939283
  C    -19.912649   28.272679   47.292540
  C    -19.878459   27.084522   48.288757
  O    -20.576666   25.962359   47.615931
  H    -21.131148   25.566040   45.708859
  H    -19.317417   27.120339   45.519492
  H    -20.671659   28.224037   45.190493
  H    -18.953247   28.799479   47.262458
  H    -20.676042   29.005936   47.558097
  H    -20.390835   27.300252   49.229659
  H    -18.859917   26.745157   48.496364
  C    -23.190028   27.950540   46.846647
  H    -22.468967   28.629551   47.302994
  H    -23.596243   28.425677   45.944634
  O    -22.577002   26.680077   46.474763
  C    -24.316720   27.722105   47.853123
  C    -25.461532   26.811984   47.375282
  C    -24.890530   25.391942   47.679797
  C    -24.084436   25.621117   48.976601
  O    -23.851015   27.088809   49.076584
  H    -24.696340   28.712004   48.135804
  H    -26.363452   27.012619   47.957367
  O    -25.847949   27.019917   45.993885
  H    -25.684867   24.649684   47.803463
  H    -24.231658   25.091964   46.862831
  H    -23.112519   25.123255   48.961992
  H    -24.639245   25.329710   49.873891
  H    -25.162694   26.633850   45.408633

 Multiplicity           Mult            ....    1
 Number of Electrons    NEL             ....  102
 Basis Dimension        Dim             ....  149

ORBITAL ENERGIES
----------------

  NO   OCC          E(Eh)            E(eV)
   0   2.0000     -19.148355      -521.0532
   1   2.0000     -19.142391      -520.8909
   2   2.0000     -19.135558      -520.7050
   3   2.0000     -19.128405      -520.5103
   4   2.0000     -10.284890      -279.8661
   5   2.0000     -10.232313      -278.4354
   6   2.0000     -10.231845      -278.4226
   7   2.0000     -10.228091      -278.3205
   8   2.0000     -10.226625      -278.2806
   9   2.0000     -10.212850      -277.9058
  10   2.0000     -10.197742      -277.4947
  11   2.0000     -10.196214      -277.4531
  12   2.0000     -10.172236      -276.8006
  13   2.0000      -1.054203       -28.6863
  14   2.0000      -1.022361       -27.8198
  15   2.0000      -1.005185       -27.3525
  16   2.0000      -0.995793       -27.0969
  17   2.0000      -0.791809       -21.5462
  18   2.0000      -0.774395       -21.0724
  19   2.0000      -0.761179       -20.7127
  20   2.0000      -0.732544       -19.9335
  21   2.0000      -0.679563       -18.4918
  22   2.0000      -0.608915       -16.5694
  23   2.0000      -0.600265       -16.3341
  24   2.0000      -0.595229       -16.1970
  25   2.0000      -0.560611       -15.2550
  26   2.0000      -0.527351       -14.3499
  27   2.0000      -0.508042       -13.8245
  28   2.0000      -0.498042       -13.5524
  29   2.0000      -0.488764       -13.2999
  30   2.0000      -0.466553       -12.6955
  31   2.0000      -0.458533       -12.4773
  32   2.0000      -0.442226       -12.0336
  33   2.0000      -0.426922       -11.6171
  34   2.0000      -0.421490       -11.4693
  35   2.0000      -0.415462       -11.3053
  36   2.0000      -0.402151       -10.9431
  37   2.0000      -0.394510       -10.7352
  38   2.0000      -0.388771       -10.5790
  39   2.0000      -0.366980        -9.9860
  40   2.0000      -0.362240        -9.8571
  41   2.0000      -0.353747        -9.6259
  42   2.0000      -0.345985        -9.4147
  43   2.0000      -0.321701        -8.7539
  44   2.0000      -0.313621        -8.5341
  45   2.0000      -0.304475        -8.2852
  46   2.0000      -0.296433        -8.0664
  47   2.0000      -0.275955        -7.5091
  48   2.0000      -0.257820        -7.0156
  49   2.0000      -0.255429        -6.9506
  50   2.0000      -0.232867        -6.3366
  51   0.0000       0.063930         1.7396
  52   0.0000       0.085876         2.3368
  53   0.0000       0.092087         2.5058
  54   0.0000       0.097300         2.6477
  55   0.0000       0.106068         2.8862

MULLIKEN ATOMIC CHARGES
-----------------------
   0 C :    0.315860
   1 C :   -0.290308
   2 C :   -0.317780
   3 C :   -0.009382
   4 O :   -0.500897
   5 H :    0.161508
   6 H :    0.159686
   7 H :    0.148558
   8 H :    0.146193
   9 H :    0.157580
  10 H :    0.164453
  11 H :    0.145405
  12 C :   -0.025561
  13 H :    0.142334
  14 H :    0.142042
  15 O :   -0.545998
  16 C :    0.102758
  17 C :    0.085694
  18 C :   -0.311575
  19 C :   -0.008323
  20 O :   -0.527288
  21 H :    0.142013
  22 H :    0.158303
  23 O :   -0.608500
  24 H :    0.141602
  25 H :    0.167953
  26 H :    0.166680
  27 H :    0.133743
  28 H :    0.363248
Sum of atomic charges:   -0.0000000

LOEWDIN ATOMIC CHARGES
----------------------
   0 C :    0.177870
   1 C :   -0.229394
   2 C :   -0.222951
   3 C :   -0.032004
   4 O :   -0.319774
   5 H :    0.109629
   6 H :    0.124756
   7 H :    0.117688
   8 H :    0.116132
   9 H :    0.110585
  10 H :    0.113596
  11 H :    0.104199
  12 C :   -0.048353
  13 H :    0.105036
  14 H :    0.103098
  15 O :   -0.332448
  16 C :    0.017398
  17 C :    0.037519
  18 C :   -0.242749
  19 C :   -0.026291
  20 O :   -0.327118
  21 H :    0.110802
  22 H :    0.114626
  23 O :   -0.413506
  24 H :    0.113268
  25 H :    0.123352
  26 H :    0.115304
  27 H :    0.097648
  28 H :    0.282082

  Mayer bond orders larger than 0.100000
B(  0-C ,  1-C ) :   0.9262 B(  0-C ,  4-O ) :   0.9093 B(  0-C ,  5-H ) :   0.9363
B(  0-C , 15-O ) :   0.8826 B(  1-C ,  2-C ) :   0.9545 B(  1-C ,  6-H ) :   0.9346
B(  1-C ,  7-H ) :   0.9359 B(  2-C ,  3-C ) :   0.9476 B(  2-C ,  8-H ) :   0.9443
B(  2-C ,  9-H ) :   0.9328 B(  3-C ,  4-O ) :   0.8402 B(  3-C , 10-H ) :   0.9305
B(  3-C , 11-H ) :   0.9389 B( 12-C , 13-H ) :   0.9068 B( 12-C , 14-H ) :   0.9143
B( 12-C , 15-O ) :   0.8275 B( 12-C , 16-C ) :   0.9017 B( 16-C , 17-C ) :   0.8899
B( 16-C , 20-O ) :   0.8833 B( 16-C , 21-H ) :   0.9268 B( 17-C , 18-C ) :   0.9339
B( 17-C , 22-H ) :   0.9366 B( 17-C , 23-O ) :   0.8985 B( 18-C , 19-C ) :   0.9487
B( 18-C , 24-H ) :   0.9410 B( 18-C , 25-H ) :   0.9253 B( 19-C , 20-O ) :   0.8273
B( 19-C , 26-H ) :   0.9250 B( 19-C , 27-H ) :   0.9386 B( 23-O , 28-H ) :   0.7936

FINAL SINGLE POINT ENERGY      -652.856584316579

DIPOLE MOMENT
-------------
                                X             Y             Z
Electronic contribution:     -3.21892      -1.58230       0.00823
Nuclear contribution   :      4.24671       2.04786      -0.48931
                        -----------------------------------------
Total Dipole Moment    :      1.02779       0.46556      -0.48108
                        -----------------------------------------
Magnitude (a.u.)       :      1.22660
Magnitude (Debye)      :      3.11776

Rotational constants in cm-1:     0.048971     0.017201     0.015611
Rotational constants in MHz :  1468.103631   515.668119   467.997033

                             ****ORCA TERMINATED NORMALLY****
TOTAL RUN TIME: 0 days 0 hours 39 minutes 44 seconds 842 msec
