                         Program Version 4.2.0 -  RELEASE  -
|  1> # Test redundant internal optimization
|  2> #
|  3> ! RKS B3LYP  Opt TightSCF SmallPrint
|  4>
|  5> %basis
|  6>         Basis "6-31G"
|  7> end
|  8>
|  9> %geom
| 10> Constraints
| 11> { D 4  0  15  12  210.0   C } # D for Dihedral angle
| 12> { D 0  15  12  16  285.0   C } # D for Dihedral angle
| 13> { D 0  4  3  2   C } # D for Dihedral angle
| 14> { D 4  3  2  1   C } # D for Dihedral angle
| 15> { D 3  2  1  0   C } # D for Dihedral angle
| 16> { D 2  1  0  4   C } # D for Dihedral angle
| 17> { D 1  0  4  3   C } # D for Dihedral angle
| 18> { D 16  20  19  18   C } # D for Dihedral angle
| 19> { D 20  19  18  17   C } # D for Dihedral angle
| 20> { D 19  18  17  16   C } # D for Dihedral angle
| 21> { D 18  17  16  20   C } # D for Dihedral angle
| 22> { D 17  16  20  19   C } # D for Dihedral angle
| 23> { D 15  12  16  20   C } # D for Dihedral angle
| 24> end
| 25> end
| 26>
| 27>
| 28> #%pal
| 29> #nprocs 8
| 30> #end
| 31>
| 32> * xyz 0 1
| 33> C  -21.048   26.222   46.251
| 34> C  -20.361   27.558   45.944
| 35> C  -20.329   28.222   47.341
| 36> C  -20.110   27.022   48.296
| 37> O  -20.473   25.807   47.535
| 38> H  -20.833   25.428   45.533
| 39> H  -19.344   27.382   45.576
| 40> H  -20.898   28.157   45.201
| 41> H  -19.543   28.978   47.434
| 42> H  -21.289   28.710   47.548
| 43> H  -20.733   27.082   49.195
| 44> H  -19.064   26.913   48.597
| 45> C  -23.389   26.110   45.076
| 46> H  -23.022   25.183   44.619
| 47> H  -24.455   25.981   45.304
| 48> O  -22.586   26.394   46.375
| 49> C  -23.264   27.254   44.031
| 50> C  -24.159   26.995   42.814
| 51> C  -25.546   27.425   43.347
| 52> C  -25.211   28.615   44.281
| 53> O  -23.768   28.514   44.588
| 54> H  -22.210   27.407   43.793
| 55> H  -23.852   27.633   41.978
| 56> O  -24.129   25.517   42.338
| 57> H  -26.240   27.705   42.548
| 58> H  -26.002   26.605   43.915
| 59> H  -25.779   28.586   45.217
| 60> H  -25.371   29.583   43.798
| 61> H  -24.434   24.858   43.158
| 62> *
| 63>
| 64>                          ****END OF INPUT****
 Total Charge           Charge          ....    0
 Multiplicity           Mult            ....    1
 Number of Electrons    NEL             ....  102
FINAL SINGLE POINT ENERGY      -652.825302794683
FINAL SINGLE POINT ENERGY      -652.848703569511
FINAL SINGLE POINT ENERGY      -652.853609455136
FINAL SINGLE POINT ENERGY      -652.854467391667
FINAL SINGLE POINT ENERGY      -652.854626202316
FINAL SINGLE POINT ENERGY      -652.854651077408
FINAL SINGLE POINT ENERGY      -652.854655388532
                    ***********************HURRAY********************

CARTESIAN COORDINATES (ANGSTROEM)
---------------------------------
  C    -21.023286   26.228275   46.183294
  C    -20.341103   27.572387   45.930499
  C    -20.390034   28.227756   47.334125
  C    -20.206269   27.021691   48.278855
  O    -20.520225   25.819747   47.464403
  H    -20.789742   25.434595   45.464008
  H    -19.304113   27.396666   45.617874
  H    -20.839844   28.180155   45.174944
  H    -19.616767   28.989518   47.469877
  H    -21.370041   28.690746   47.480897
  H    -20.878030   27.041416   49.140476
  H    -19.174683   26.904165   48.624389
  C    -23.274015   26.125285   45.127956
  H    -22.960009   25.178876   44.658194
  H    -24.286750   26.001746   45.523515
  O    -22.466939   26.375504   46.305460
  C    -23.243832   27.224130   44.060672
  C    -24.170160   26.929779   42.867169
  C    -25.553554   27.406375   43.408265
  C    -25.173875   28.622778   44.281290
  O    -23.720772   28.507194   44.566460
  H    -22.216371   27.389829   43.727473
  H    -23.865470   27.542420   42.015572
  O    -24.136327   25.571971   42.366655
  H    -26.246498   27.659392   42.601993
  H    -26.008858   26.606836   44.007780
  H    -25.719079   28.655876   45.228932
  H    -25.320743   29.570770   43.755428
  H    -24.624613   24.970121   42.964544

 Multiplicity           Mult            ....    1
 Number of Electrons    NEL             ....  102
 Basis Dimension        Dim             ....  149

ORBITAL ENERGIES
----------------

  NO   OCC          E(Eh)            E(eV)
   0   2.0000     -19.154356      -521.2165
   1   2.0000     -19.142500      -520.8939
   2   2.0000     -19.136038      -520.7181
   3   2.0000     -19.133718      -520.6549
   4   2.0000     -10.274550      -279.5847
   5   2.0000     -10.250195      -278.9220
   6   2.0000     -10.234907      -278.5060
   7   2.0000     -10.234798      -278.5030
   8   2.0000     -10.232266      -278.4341
   9   2.0000     -10.217911      -278.0435
  10   2.0000     -10.200168      -277.5607
  11   2.0000     -10.177893      -276.9546
  12   2.0000     -10.177398      -276.9411
  13   2.0000      -1.048577       -28.5332
  14   2.0000      -1.037890       -28.2424
  15   2.0000      -1.020415       -27.7669
  16   2.0000      -0.989139       -26.9159
  17   2.0000      -0.787371       -21.4255
  18   2.0000      -0.778149       -21.1745
  19   2.0000      -0.768558       -20.9135
  20   2.0000      -0.730510       -19.8782
  21   2.0000      -0.681352       -18.5405
  22   2.0000      -0.616445       -16.7743
  23   2.0000      -0.598764       -16.2932
  24   2.0000      -0.591897       -16.1063
  25   2.0000      -0.572602       -15.5813
  26   2.0000      -0.530045       -14.4233
  27   2.0000      -0.514529       -14.0010
  28   2.0000      -0.494116       -13.4456
  29   2.0000      -0.489690       -13.3251
  30   2.0000      -0.465903       -12.6779
  31   2.0000      -0.451718       -12.2919
  32   2.0000      -0.446883       -12.1603
  33   2.0000      -0.439344       -11.9551
  34   2.0000      -0.431735       -11.7481
  35   2.0000      -0.419165       -11.4061
  36   2.0000      -0.410709       -11.1760
  37   2.0000      -0.398957       -10.8562
  38   2.0000      -0.381486       -10.3807
  39   2.0000      -0.365029        -9.9329
  40   2.0000      -0.362056        -9.8520
  41   2.0000      -0.348461        -9.4821
  42   2.0000      -0.344679        -9.3792
  43   2.0000      -0.334137        -9.0923
  44   2.0000      -0.321072        -8.7368
  45   2.0000      -0.306821        -8.3490
  46   2.0000      -0.298805        -8.1309
  47   2.0000      -0.276390        -7.5210
  48   2.0000      -0.264527        -7.1982
  49   2.0000      -0.251273        -6.8375
  50   2.0000      -0.234827        -6.3900
  51   0.0000       0.048735         1.3262
  52   0.0000       0.075265         2.0481
  53   0.0000       0.082853         2.2546
  54   0.0000       0.091179         2.4811
  55   0.0000       0.103116         2.8059

MULLIKEN ATOMIC CHARGES
-----------------------
   0 C :    0.285719
   1 C :   -0.267060
   2 C :   -0.301213
   3 C :   -0.000490
   4 O :   -0.503909
   5 H :    0.135690
   6 H :    0.138504
   7 H :    0.164510
   8 H :    0.138454
   9 H :    0.171790
  10 H :    0.151973
  11 H :    0.138101
  12 C :   -0.015025
  13 H :    0.124088
  14 H :    0.143668
  15 O :   -0.499573
  16 C :    0.083700
  17 C :    0.082145
  18 C :   -0.328704
  19 C :   -0.005696
  20 O :   -0.513675
  21 H :    0.151407
  22 H :    0.168054
  23 O :   -0.597534
  24 H :    0.161975
  25 H :    0.135943
  26 H :    0.150777
  27 H :    0.148587
  28 H :    0.357795
Sum of atomic charges:    0.0000000

LOEWDIN ATOMIC CHARGES
----------------------
   0 C :    0.177931
   1 C :   -0.229122
   2 C :   -0.216259
   3 C :   -0.025633
   4 O :   -0.307444
   5 H :    0.094762
   6 H :    0.110669
   7 H :    0.122714
   8 H :    0.112970
   9 H :    0.124040
  10 H :    0.108106
  11 H :    0.100408
  12 C :   -0.048210
  13 H :    0.093874
  14 H :    0.108615
  15 O :   -0.320550
  16 C :    0.003904
  17 C :    0.035239
  18 C :   -0.242095
  19 C :   -0.027485
  20 O :   -0.320344
  21 H :    0.109976
  22 H :    0.119121
  23 O :   -0.406195
  24 H :    0.124465
  25 H :    0.105251
  26 H :    0.106301
  27 H :    0.106085
  28 H :    0.278905

  Mayer bond orders larger than 0.100000
B(  0-C ,  1-C ) :   0.9324 B(  0-C ,  4-O ) :   0.9355 B(  0-C ,  5-H ) :   0.9167
B(  0-C , 15-O ) :   0.8364 B(  1-C ,  2-C ) :   0.9536 B(  1-C ,  6-H ) :   0.9344
B(  1-C ,  7-H ) :   0.9258 B(  2-C ,  3-C ) :   0.9555 B(  2-C ,  8-H ) :   0.9452
B(  2-C ,  9-H ) :   0.9409 B(  3-C ,  4-O ) :   0.8347 B(  3-C , 10-H ) :   0.9351
B(  3-C , 11-H ) :   0.9399 B( 12-C , 13-H ) :   0.9020 B( 12-C , 14-H ) :   0.9403
B( 12-C , 15-O ) :   0.8796 B( 12-C , 16-C ) :   0.8784 B( 16-C , 17-C ) :   0.8679
B( 16-C , 20-O ) :   0.8638 B( 16-C , 21-H ) :   0.9271 B( 17-C , 18-C ) :   0.9248
B( 17-C , 22-H ) :   0.9328 B( 17-C , 23-O ) :   0.9024 B( 18-C , 19-C ) :   0.9387
B( 18-C , 24-H ) :   0.9409 B( 18-C , 25-H ) :   0.9403 B( 19-C , 20-O ) :   0.8447
B( 19-C , 26-H ) :   0.9309 B( 19-C , 27-H ) :   0.9382 B( 23-O , 28-H ) :   0.7968

FINAL SINGLE POINT ENERGY      -652.854656450117

DIPOLE MOMENT
-------------
                                X             Y             Z
Electronic contribution:      0.16695      -3.04704      -0.17529
Nuclear contribution   :     -0.85093       3.52949      -0.30408
                        -----------------------------------------
Total Dipole Moment    :     -0.68398       0.48245      -0.47938
                        -----------------------------------------
Magnitude (a.u.)       :      0.96456
Magnitude (Debye)      :      2.45173

Rotational constants in cm-1:     0.056940     0.013270     0.012049
Rotational constants in MHz :  1707.032905   397.836124   361.229568

                             ****ORCA TERMINATED NORMALLY****
TOTAL RUN TIME: 0 days 1 hours 47 minutes 25 seconds 908 msec
