                         Program Version 4.2.0 -  RELEASE  -
|  1> # Test redundant internal optimization
|  2> #
|  3> ! RKS B3LYP  Opt TightSCF SmallPrint
|  4>
|  5> %basis
|  6>         Basis "6-31G"
|  7> end
|  8>
|  9> %geom
| 10> Constraints
| 11> { D 4  0  15  12  315.0   C } # D for Dihedral angle
| 12> { D 0  15  12  16  240.0   C } # D for Dihedral angle
| 13> { D 0  4  3  2   C } # D for Dihedral angle
| 14> { D 4  3  2  1   C } # D for Dihedral angle
| 15> { D 3  2  1  0   C } # D for Dihedral angle
| 16> { D 2  1  0  4   C } # D for Dihedral angle
| 17> { D 1  0  4  3   C } # D for Dihedral angle
| 18> { D 16  20  19  18   C } # D for Dihedral angle
| 19> { D 20  19  18  17   C } # D for Dihedral angle
| 20> { D 19  18  17  16   C } # D for Dihedral angle
| 21> { D 18  17  16  20   C } # D for Dihedral angle
| 22> { D 17  16  20  19   C } # D for Dihedral angle
| 23> { D 15  12  16  20   C } # D for Dihedral angle
| 24> end
| 25> end
| 26>
| 27>
| 28> #%pal
| 29> #nprocs 8
| 30> #end
| 31>
| 32> * xyz 0 1
| 33> C  -21.048   26.222   46.251
| 34> C  -20.361   27.558   45.944
| 35> C  -20.329   28.222   47.341
| 36> C  -20.110   27.022   48.296
| 37> O  -20.473   25.807   47.535
| 38> H  -20.833   25.428   45.533
| 39> H  -19.344   27.382   45.576
| 40> H  -20.898   28.157   45.201
| 41> H  -19.543   28.978   47.434
| 42> H  -21.289   28.710   47.548
| 43> H  -20.733   27.082   49.195
| 44> H  -19.064   26.913   48.597
| 45> C  -23.319   25.255   47.135
| 46> H  -22.584   24.510   47.466
| 47> H  -23.829   25.651   48.022
| 48> O  -22.586   26.394   46.375
| 49> C  -24.382   24.536   46.259
| 50> C  -25.396   25.532   45.684
| 51> C  -24.604   26.135   44.499
| 52> C  -23.769   24.935   43.986
| 53> O  -23.753   23.937   45.078
| 54> H  -24.826   23.721   46.833
| 55> O  -26.654   24.778   45.174
| 56> H  -25.716   26.288   46.409
| 57> H  -25.253   26.554   43.723
| 58> H  -23.947   26.938   44.855
| 59> H  -22.739   25.214   43.740
| 60> H  -24.223   24.453   43.116
| 61> H  -26.357   24.015   44.446
| 62> *
| 63>
| 64>                          ****END OF INPUT****
 Total Charge           Charge          ....    0
 Multiplicity           Mult            ....    1
 Number of Electrons    NEL             ....  102
FINAL SINGLE POINT ENERGY      -652.840093819649
FINAL SINGLE POINT ENERGY      -652.863032823244
FINAL SINGLE POINT ENERGY      -652.867198004137
FINAL SINGLE POINT ENERGY      -652.868445439099
FINAL SINGLE POINT ENERGY      -652.868556858204
FINAL SINGLE POINT ENERGY      -652.868573187128
FINAL SINGLE POINT ENERGY      -652.868573543473
                    ***********************HURRAY********************

CARTESIAN COORDINATES (ANGSTROEM)
---------------------------------
  C    -21.052448   26.168455   46.291262
  C    -20.415227   27.524774   45.993264
  C    -20.382839   28.171945   47.395049
  C    -20.112353   26.975299   48.332674
  O    -20.455794   25.759278   47.542726
  H    -20.841393   25.362435   45.583316
  H    -19.403178   27.367781   45.603649
  H    -20.990834   28.102103   45.266390
  H    -19.615980   28.947786   47.482601
  H    -21.356051   28.621312   47.613170
  H    -20.721631   26.990277   49.239892
  H    -19.058348   26.877091   48.607297
  C    -23.231030   25.331716   47.107775
  H    -22.534616   24.576454   47.480917
  H    -23.717776   25.804958   47.969955
  O    -22.488411   26.367782   46.389319
  C    -24.280472   24.665475   46.221653
  C    -25.377572   25.563488   45.629329
  C    -24.671700   26.133238   44.370076
  C    -23.789443   24.951782   43.898604
  O    -23.667371   24.027857   45.052749
  H    -24.743153   23.862642   46.809688
  O    -26.557615   24.778778   45.295371
  H    -25.730126   26.335849   46.313428
  H    -25.405916   26.442478   43.621226
  H    -24.052035   26.984594   44.657001
  H    -22.789347   25.272939   43.594958
  H    -24.241942   24.383331   43.079004
  H    -26.277398   23.975103   44.808656

 Multiplicity           Mult            ....    1
 Number of Electrons    NEL             ....  102
 Basis Dimension        Dim             ....  149

ORBITAL ENERGIES
----------------

  NO   OCC          E(Eh)            E(eV)
   0   2.0000     -19.147704      -521.0355
   1   2.0000     -19.145665      -520.9800
   2   2.0000     -19.137976      -520.7708
   3   2.0000     -19.132470      -520.6210
   4   2.0000     -10.280392      -279.7437
   5   2.0000     -10.234303      -278.4895
   6   2.0000     -10.230442      -278.3845
   7   2.0000     -10.229950      -278.3711
   8   2.0000     -10.225910      -278.2611
   9   2.0000     -10.223548      -278.1969
  10   2.0000     -10.189472      -277.2696
  11   2.0000     -10.189005      -277.2569
  12   2.0000     -10.175163      -276.8803
  13   2.0000      -1.057334       -28.7715
  14   2.0000      -1.030665       -28.0458
  15   2.0000      -1.001874       -27.2624
  16   2.0000      -0.992124       -26.9971
  17   2.0000      -0.793379       -21.5889
  18   2.0000      -0.773713       -21.0538
  19   2.0000      -0.762873       -20.7588
  20   2.0000      -0.732889       -19.9429
  21   2.0000      -0.671378       -18.2691
  22   2.0000      -0.604215       -16.4415
  23   2.0000      -0.597398       -16.2560
  24   2.0000      -0.595354       -16.2004
  25   2.0000      -0.570801       -15.5323
  26   2.0000      -0.524655       -14.2766
  27   2.0000      -0.507307       -13.8045
  28   2.0000      -0.493039       -13.4163
  29   2.0000      -0.491106       -13.3637
  30   2.0000      -0.466910       -12.7053
  31   2.0000      -0.461942       -12.5701
  32   2.0000      -0.446459       -12.1488
  33   2.0000      -0.439511       -11.9597
  34   2.0000      -0.416497       -11.3335
  35   2.0000      -0.410250       -11.1635
  36   2.0000      -0.399836       -10.8801
  37   2.0000      -0.386871       -10.5273
  38   2.0000      -0.375720       -10.2239
  39   2.0000      -0.364349        -9.9144
  40   2.0000      -0.361374        -9.8335
  41   2.0000      -0.358114        -9.7448
  42   2.0000      -0.348155        -9.4738
  43   2.0000      -0.337559        -9.1854
  44   2.0000      -0.323609        -8.8058
  45   2.0000      -0.304953        -8.2982
  46   2.0000      -0.295548        -8.0423
  47   2.0000      -0.273680        -7.4472
  48   2.0000      -0.264664        -7.2019
  49   2.0000      -0.258967        -7.0469
  50   2.0000      -0.238599        -6.4926
  51   0.0000       0.067406         1.8342
  52   0.0000       0.084185         2.2908
  53   0.0000       0.102815         2.7977
  54   0.0000       0.105203         2.8627
  55   0.0000       0.107661         2.9296

MULLIKEN ATOMIC CHARGES
-----------------------
   0 C :    0.290277
   1 C :   -0.263097
   2 C :   -0.299971
   3 C :   -0.008702
   4 O :   -0.512759
   5 H :    0.161908
   6 H :    0.147208
   7 H :    0.155903
   8 H :    0.144074
   9 H :    0.160578
  10 H :    0.147027
  11 H :    0.147467
  12 C :   -0.012053
  13 H :    0.176751
  14 H :    0.132936
  15 O :   -0.536132
  16 C :    0.067914
  17 C :    0.077669
  18 C :   -0.284919
  19 C :   -0.023168
  20 O :   -0.529839
  21 H :    0.153421
  22 O :   -0.604459
  23 H :    0.151522
  24 H :    0.147929
  25 H :    0.171436
  26 H :    0.141446
  27 H :    0.137372
  28 H :    0.362261
Sum of atomic charges:    0.0000000

LOEWDIN ATOMIC CHARGES
----------------------
   0 C :    0.175348
   1 C :   -0.215067
   2 C :   -0.216501
   3 C :   -0.028952
   4 O :   -0.324449
   5 H :    0.104206
   6 H :    0.115349
   7 H :    0.123237
   8 H :    0.115101
   9 H :    0.118331
  10 H :    0.105192
  11 H :    0.105434
  12 C :   -0.041366
  13 H :    0.123477
  14 H :    0.102781
  15 O :   -0.338591
  16 C :    0.009257
  17 C :    0.038425
  18 C :   -0.241978
  19 C :   -0.034175
  20 O :   -0.334224
  21 H :    0.114606
  22 O :   -0.418036
  23 H :    0.115935
  24 H :    0.118313
  25 H :    0.128503
  26 H :    0.101756
  27 H :    0.096645
  28 H :    0.281443

  Mayer bond orders larger than 0.100000
B(  0-C ,  1-C ) :   0.9481 B(  0-C ,  4-O ) :   0.9004 B(  0-C ,  5-H ) :   0.9180
B(  0-C , 15-O ) :   0.8427 B(  1-C ,  2-C ) :   0.9535 B(  1-C ,  6-H ) :   0.9386
B(  1-C ,  7-H ) :   0.9363 B(  2-C ,  3-C ) :   0.9565 B(  2-C ,  8-H ) :   0.9448
B(  2-C ,  9-H ) :   0.9445 B(  3-C ,  4-O ) :   0.8319 B(  3-C , 10-H ) :   0.9357
B(  3-C , 11-H ) :   0.9405 B( 12-C , 13-H ) :   0.9115 B( 12-C , 14-H ) :   0.9252
B( 12-C , 15-O ) :   0.8396 B( 12-C , 16-C ) :   0.8969 B( 16-C , 17-C ) :   0.9095
B( 16-C , 20-O ) :   0.8640 B( 16-C , 21-H ) :   0.9203 B( 17-C , 18-C ) :   0.9247
B( 17-C , 22-O ) :   0.8895 B( 17-C , 23-H ) :   0.9355 B( 18-C , 19-C ) :   0.9447
B( 18-C , 24-H ) :   0.9370 B( 18-C , 25-H ) :   0.9193 B( 19-C , 20-O ) :   0.8428
B( 19-C , 26-H ) :   0.9344 B( 19-C , 27-H ) :   0.9377 B( 22-O , 28-H ) :   0.7962

FINAL SINGLE POINT ENERGY      -652.868571803969

DIPOLE MOMENT
-------------
                                X             Y             Z
Electronic contribution:     -2.73520      -4.88318       0.07567
Nuclear contribution   :      3.52580       5.80351      -0.06247
                        -----------------------------------------
Total Dipole Moment    :      0.79060       0.92033       0.01319
                        -----------------------------------------
Magnitude (a.u.)       :      1.21336
Magnitude (Debye)      :      3.08411

Rotational constants in cm-1:     0.062502     0.013460     0.013068
Rotational constants in MHz :  1873.770490   403.523525   391.761402

                             ****ORCA TERMINATED NORMALLY****
TOTAL RUN TIME: 0 days 1 hours 19 minutes 18 seconds 37 msec
