                         Program Version 4.2.0 -  RELEASE  -
|  1> # Test redundant internal optimization
|  2> #
|  3> ! RKS B3LYP  Opt TightSCF SmallPrint
|  4>
|  5> %basis
|  6>         Basis "6-31G"
|  7> end
|  8>
|  9> %geom
| 10> Constraints
| 11> { D 4  0  15  12  270.0   C } # D for Dihedral angle
| 12> { D 0  15  12  16  45.0   C } # D for Dihedral angle
| 13> { D 0  4  3  2   C } # D for Dihedral angle
| 14> { D 4  3  2  1   C } # D for Dihedral angle
| 15> { D 3  2  1  0   C } # D for Dihedral angle
| 16> { D 2  1  0  4   C } # D for Dihedral angle
| 17> { D 1  0  4  3   C } # D for Dihedral angle
| 18> { D 16  20  19  18   C } # D for Dihedral angle
| 19> { D 20  19  18  17   C } # D for Dihedral angle
| 20> { D 19  18  17  16   C } # D for Dihedral angle
| 21> { D 18  17  16  20   C } # D for Dihedral angle
| 22> { D 17  16  20  19   C } # D for Dihedral angle
| 23> { D 15  12  16  20   C } # D for Dihedral angle
| 24> end
| 25> end
| 26>
| 27>
| 28> #%pal
| 29> #nprocs 8
| 30> #end
| 31>
| 32> * xyz 0 1
| 33> C  -21.048   26.222   46.251
| 34> C  -20.361   27.558   45.944
| 35> C  -20.329   28.222   47.341
| 36> C  -20.110   27.022   48.296
| 37> O  -20.473   25.807   47.535
| 38> H  -20.833   25.428   45.533
| 39> H  -19.344   27.382   45.576
| 40> H  -20.898   28.157   45.201
| 41> H  -19.543   28.978   47.434
| 42> H  -21.289   28.710   47.548
| 43> H  -20.733   27.082   49.195
| 44> H  -19.064   26.913   48.597
| 45> C  -23.420   25.119   46.072
| 46> H  -24.446   25.264   46.432
| 47> H  -23.458   24.933   44.991
| 48> O  -22.586   26.394   46.375
| 49> C  -22.839   23.847   46.750
| 50> C  -22.905   23.951   48.278
| 51> C  -24.389   23.608   48.552
| 52> C  -24.710   22.549   47.468
| 53> O  -23.663   22.676   46.432
| 54> H  -21.841   23.653   46.353
| 55> O  -21.969   22.894   48.925
| 56> H  -22.621   24.939   48.655
| 57> H  -24.557   23.231   49.566
| 58> H  -25.012   24.500   48.418
| 59> H  -25.691   22.705   47.007
| 60> H  -24.660   21.527   47.854
| 61> H  -22.235   21.894   48.562
| 62> *
| 63>
| 64>                          ****END OF INPUT****
 Total Charge           Charge          ....    0
 Multiplicity           Mult            ....    1
 Number of Electrons    NEL             ....  102
FINAL SINGLE POINT ENERGY      -652.836824294734
FINAL SINGLE POINT ENERGY      -652.859606144973
FINAL SINGLE POINT ENERGY      -652.863700520312
FINAL SINGLE POINT ENERGY      -652.864379339881
FINAL SINGLE POINT ENERGY      -652.864510283951
FINAL SINGLE POINT ENERGY      -652.864525141759
FINAL SINGLE POINT ENERGY      -652.864527895229
                    ***********************HURRAY********************

CARTESIAN COORDINATES (ANGSTROEM)
---------------------------------
  C    -20.993577   26.162425   46.254464
  C    -20.428967   27.547381   45.932683
  C    -20.475133   28.238507   47.316767
  C    -20.160443   27.083258   48.293492
  O    -20.407446   25.829588   47.534970
  H    -20.703874   25.368551   45.559949
  H    -19.396375   27.444349   45.580164
  H    -21.017724   28.062646   45.171498
  H    -19.758678   29.061089   47.401906
  H    -21.479713   28.632381   47.495881
  H    -20.795041   27.087592   49.183067
  H    -19.110820   27.058346   48.600220
  C    -23.243086   25.096844   46.096637
  H    -24.243052   25.383324   46.429730
  H    -23.290810   24.891640   45.018229
  O    -22.428690   26.288365   46.329349
  C    -22.795151   23.800755   46.792088
  C    -22.836473   23.816061   48.327691
  C    -24.352108   23.633533   48.601905
  C    -24.806457   22.689838   47.460547
  O    -23.756199   22.755599   46.413086
  H    -21.814126   23.476464   46.437149
  O    -22.069260   22.705055   48.871328
  H    -22.403846   24.715187   48.757348
  H    -24.514220   23.207105   49.594723
  H    -24.869473   24.598008   48.553985
  H    -25.764604   22.981736   47.020002
  H    -24.873531   21.645541   47.780600
  H    -22.238123   21.903833   48.331544

 Multiplicity           Mult            ....    1
 Number of Electrons    NEL             ....  102
 Basis Dimension        Dim             ....  149

ORBITAL ENERGIES
----------------

  NO   OCC          E(Eh)            E(eV)
   0   2.0000     -19.145847      -520.9850
   1   2.0000     -19.144431      -520.9465
   2   2.0000     -19.141184      -520.8581
   3   2.0000     -19.128978      -520.5259
   4   2.0000     -10.280262      -279.7401
   5   2.0000     -10.231649      -278.4173
   6   2.0000     -10.230310      -278.3809
   7   2.0000     -10.229970      -278.3716
   8   2.0000     -10.229740      -278.3654
   9   2.0000     -10.225212      -278.2422
  10   2.0000     -10.185155      -277.1521
  11   2.0000     -10.185035      -277.1489
  12   2.0000     -10.183913      -277.1184
  13   2.0000      -1.054116       -28.6840
  14   2.0000      -1.033402       -28.1203
  15   2.0000      -0.999705       -27.2033
  16   2.0000      -0.994869       -27.0718
  17   2.0000      -0.788860       -21.4660
  18   2.0000      -0.773821       -21.0567
  19   2.0000      -0.763235       -20.7687
  20   2.0000      -0.733112       -19.9490
  21   2.0000      -0.673030       -18.3141
  22   2.0000      -0.603922       -16.4336
  23   2.0000      -0.600091       -16.3293
  24   2.0000      -0.596776       -16.2391
  25   2.0000      -0.570231       -15.5168
  26   2.0000      -0.521842       -14.2000
  27   2.0000      -0.517908       -14.0930
  28   2.0000      -0.492207       -13.3936
  29   2.0000      -0.484092       -13.1728
  30   2.0000      -0.466638       -12.6979
  31   2.0000      -0.458910       -12.4876
  32   2.0000      -0.448967       -12.2170
  33   2.0000      -0.433995       -11.8096
  34   2.0000      -0.420104       -11.4316
  35   2.0000      -0.412714       -11.2305
  36   2.0000      -0.399756       -10.8779
  37   2.0000      -0.387944       -10.5565
  38   2.0000      -0.374665       -10.1952
  39   2.0000      -0.365390        -9.9428
  40   2.0000      -0.357681        -9.7330
  41   2.0000      -0.355699        -9.6791
  42   2.0000      -0.348588        -9.4855
  43   2.0000      -0.335137        -9.1196
  44   2.0000      -0.321036        -8.7358
  45   2.0000      -0.305899        -8.3239
  46   2.0000      -0.301447        -8.2028
  47   2.0000      -0.269563        -7.3352
  48   2.0000      -0.263229        -7.1628
  49   2.0000      -0.257386        -7.0038
  50   2.0000      -0.238535        -6.4909
  51   0.0000       0.067457         1.8356
  52   0.0000       0.076742         2.0883
  53   0.0000       0.095780         2.6063
  54   0.0000       0.096915         2.6372
  55   0.0000       0.103437         2.8147

MULLIKEN ATOMIC CHARGES
-----------------------
   0 C :    0.279536
   1 C :   -0.255701
   2 C :   -0.299143
   3 C :   -0.003189
   4 O :   -0.507400
   5 H :    0.145584
   6 H :    0.145379
   7 H :    0.155172
   8 H :    0.141408
   9 H :    0.162872
  10 H :    0.147417
  11 H :    0.145654
  12 C :   -0.008833
  13 H :    0.147871
  14 H :    0.148769
  15 O :   -0.522451
  16 C :    0.038973
  17 C :    0.104830
  18 C :   -0.299486
  19 C :   -0.029191
  20 O :   -0.531150
  21 H :    0.164441
  22 O :   -0.604465
  23 H :    0.176359
  24 H :    0.159774
  25 H :    0.144646
  26 H :    0.144033
  27 H :    0.147666
  28 H :    0.360626
Sum of atomic charges:    0.0000000

LOEWDIN ATOMIC CHARGES
----------------------
   0 C :    0.169262
   1 C :   -0.214295
   2 C :   -0.215891
   3 C :   -0.027251
   4 O :   -0.324426
   5 H :    0.097963
   6 H :    0.113865
   7 H :    0.123205
   8 H :    0.113820
   9 H :    0.119431
  10 H :    0.104995
  11 H :    0.104397
  12 C :   -0.041787
  13 H :    0.112029
  14 H :    0.103694
  15 O :   -0.328481
  16 C :    0.004588
  17 C :    0.040951
  18 C :   -0.242323
  19 C :   -0.037517
  20 O :   -0.331220
  21 H :    0.115482
  22 O :   -0.413599
  23 H :    0.128528
  24 H :    0.126005
  25 H :    0.112800
  26 H :    0.102874
  27 H :    0.103163
  28 H :    0.279737

  Mayer bond orders larger than 0.100000
B(  0-C ,  1-C ) :   0.9477 B(  0-C ,  4-O ) :   0.9013 B(  0-C ,  5-H ) :   0.9185
B(  0-C , 15-O ) :   0.8573 B(  1-C ,  2-C ) :   0.9578 B(  1-C ,  6-H ) :   0.9398
B(  1-C ,  7-H ) :   0.9372 B(  2-C ,  3-C ) :   0.9541 B(  2-C ,  8-H ) :   0.9452
B(  2-C ,  9-H ) :   0.9441 B(  3-C ,  4-O ) :   0.8347 B(  3-C , 10-H ) :   0.9347
B(  3-C , 11-H ) :   0.9402 B( 12-C , 13-H ) :   0.9398 B( 12-C , 14-H ) :   0.9198
B( 12-C , 15-O ) :   0.8422 B( 12-C , 16-C ) :   0.8832 B( 16-C , 17-C ) :   0.9111
B( 16-C , 20-O ) :   0.8262 B( 16-C , 21-H ) :   0.9236 B( 17-C , 18-C ) :   0.9069
B( 17-C , 22-O ) :   0.8862 B( 17-C , 23-H ) :   0.9192 B( 18-C , 19-C ) :   0.9397
B( 18-C , 24-H ) :   0.9388 B( 18-C , 25-H ) :   0.9346 B( 19-C , 20-O ) :   0.8399
B( 19-C , 26-H ) :   0.9365 B( 19-C , 27-H ) :   0.9383 B( 22-O , 28-H ) :   0.7960

FINAL SINGLE POINT ENERGY      -652.864528674672

DIPOLE MOMENT
-------------
                                X             Y             Z
Electronic contribution:      0.49334      -4.11826      -0.97149
Nuclear contribution   :     -0.81595       4.84629       0.76418
                        -----------------------------------------
Total Dipole Moment    :     -0.32262       0.72803      -0.20731
                        -----------------------------------------
Magnitude (a.u.)       :      0.82285
Magnitude (Debye)      :      2.09152

Rotational constants in cm-1:     0.054810     0.015031     0.013430
Rotational constants in MHz :  1643.155978   450.614150   402.610311

                             ****ORCA TERMINATED NORMALLY****
TOTAL RUN TIME: 0 days 1 hours 28 minutes 56 seconds 29 msec
