                         Program Version 4.2.0 -  RELEASE  -
|  1> # Test redundant internal optimization
|  2> #
|  3> ! RKS B3LYP  Opt TightSCF SmallPrint
|  4>
|  5> %basis
|  6>         Basis "6-31G"
|  7> end
|  8>
|  9> %geom
| 10> Constraints
| 11> { D 4  0  15  12  180.0   C } # D for Dihedral angle
| 12> { D 0  15  12  16  210.0   C } # D for Dihedral angle
| 13> { D 0  4  3  2   C } # D for Dihedral angle
| 14> { D 4  3  2  1   C } # D for Dihedral angle
| 15> { D 3  2  1  0   C } # D for Dihedral angle
| 16> { D 2  1  0  4   C } # D for Dihedral angle
| 17> { D 1  0  4  3   C } # D for Dihedral angle
| 18> { D 16  20  19  18   C } # D for Dihedral angle
| 19> { D 20  19  18  17   C } # D for Dihedral angle
| 20> { D 19  18  17  16   C } # D for Dihedral angle
| 21> { D 18  17  16  20   C } # D for Dihedral angle
| 22> { D 17  16  20  19   C } # D for Dihedral angle
| 23> { D 15  12  16  20   C } # D for Dihedral angle
| 24> end
| 25> end
| 26>
| 27>
| 28> #%pal
| 29> #nprocs 8
| 30> #end
| 31>
| 32> * xyz 0 1
| 33> C  -21.048   26.222   46.251
| 34> C  -20.361   27.558   45.944
| 35> C  -20.329   28.222   47.341
| 36> C  -20.110   27.022   48.296
| 37> O  -20.473   25.807   47.535
| 38> H  -20.833   25.428   45.533
| 39> H  -19.344   27.382   45.576
| 40> H  -20.898   28.157   45.201
| 41> H  -19.543   28.978   47.434
| 42> H  -21.289   28.710   47.548
| 43> H  -20.733   27.082   49.195
| 44> H  -19.064   26.913   48.597
| 45> C  -23.309   26.834   45.072
| 46> H  -22.622   27.435   44.463
| 47> H  -23.610   25.956   44.485
| 48> O  -22.586   26.394   46.375
| 49> C  -24.584   27.678   45.348
| 50> C  -24.234   29.011   46.019
| 51> C  -23.751   29.852   44.813
| 52> C  -24.659   29.362   43.657
| 53> O  -25.224   28.065   44.087
| 54> H  -25.303   27.069   45.899
| 55> H  -25.132   29.454   46.464
| 56> O  -23.155   28.872   47.128
| 57> H  -23.839   30.929   44.985
| 58> H  -22.699   29.631   44.598
| 59> H  -24.108   29.220   42.722
| 60> H  -25.500   30.035   43.473
| 61> H  -22.247   28.430   46.703
| 62> *
| 63>
| 64>                          ****END OF INPUT****
 Total Charge           Charge          ....    0
 Multiplicity           Mult            ....    1
 Number of Electrons    NEL             ....  102
FINAL SINGLE POINT ENERGY      -652.804196771650
FINAL SINGLE POINT ENERGY      -652.834556748978
FINAL SINGLE POINT ENERGY      -652.846842929355
FINAL SINGLE POINT ENERGY      -652.851868999908
FINAL SINGLE POINT ENERGY      -652.855127550861
FINAL SINGLE POINT ENERGY      -652.857596709681
FINAL SINGLE POINT ENERGY      -652.859402558167
FINAL SINGLE POINT ENERGY      -652.860510123258
FINAL SINGLE POINT ENERGY      -652.860967291520
FINAL SINGLE POINT ENERGY      -652.861027927748
FINAL SINGLE POINT ENERGY      -652.861041219454
                    ***********************HURRAY********************

CARTESIAN COORDINATES (ANGSTROEM)
---------------------------------
  C    -21.098016   26.256110   46.238614
  C    -20.258690   27.482300   45.875588
  C    -20.207520   28.253631   47.224082
  C    -20.160894   27.113252   48.262049
  O    -20.634476   25.897028   47.538661
  H    -20.926447   25.394292   45.585075
  H    -19.264120   27.131735   45.580161
  H    -20.661989   28.087080   45.058897
  H    -19.324323   28.897003   47.289314
  H    -21.094236   28.878833   47.337541
  H    -20.812614   27.278667   49.123614
  H    -19.149330   26.887752   48.609295
  C    -23.228197   26.825398   45.052372
  H    -22.538866   27.382982   44.407672
  H    -23.539137   25.920777   44.518414
  O    -22.562083   26.447253   46.309853
  C    -24.468435   27.679988   45.349040
  C    -24.238512   29.027985   46.046623
  C    -23.783453   29.920498   44.861512
  C    -24.613312   29.384346   43.675733
  O    -25.096262   28.031841   44.077586
  H    -25.193323   27.069492   45.896705
  H    -25.203115   29.390363   46.422657
  O    -23.310324   28.979616   47.150918
  H    -23.959945   30.982630   45.054117
  H    -22.707586   29.783178   44.705868
  H    -24.034790   29.293052   42.751171
  H    -25.503725   29.987206   43.476914
  H    -23.013278   28.043713   47.261954

 Multiplicity           Mult            ....    1
 Number of Electrons    NEL             ....  102
 Basis Dimension        Dim             ....  149

ORBITAL ENERGIES
----------------

  NO   OCC          E(Eh)            E(eV)
   0   2.0000     -19.161808      -521.4193
   1   2.0000     -19.149751      -521.0912
   2   2.0000     -19.146451      -521.0014
   3   2.0000     -19.129669      -520.5448
   4   2.0000     -10.290083      -280.0074
   5   2.0000     -10.240099      -278.6473
   6   2.0000     -10.239801      -278.6391
   7   2.0000     -10.239451      -278.6296
   8   2.0000     -10.233645      -278.4716
   9   2.0000     -10.229599      -278.3616
  10   2.0000     -10.196280      -277.4549
  11   2.0000     -10.188816      -277.2518
  12   2.0000     -10.184681      -277.1393
  13   2.0000      -1.062230       -28.9047
  14   2.0000      -1.033171       -28.1140
  15   2.0000      -1.010718       -27.5030
  16   2.0000      -1.001553       -27.2537
  17   2.0000      -0.791116       -21.5274
  18   2.0000      -0.779802       -21.2195
  19   2.0000      -0.772653       -21.0250
  20   2.0000      -0.738229       -20.0882
  21   2.0000      -0.684240       -18.6191
  22   2.0000      -0.607582       -16.5331
  23   2.0000      -0.604193       -16.4409
  24   2.0000      -0.593758       -16.1570
  25   2.0000      -0.584825       -15.9139
  26   2.0000      -0.532542       -14.4912
  27   2.0000      -0.513923       -13.9846
  28   2.0000      -0.503620       -13.7042
  29   2.0000      -0.499605       -13.5949
  30   2.0000      -0.471940       -12.8421
  31   2.0000      -0.459105       -12.4929
  32   2.0000      -0.451688       -12.2911
  33   2.0000      -0.439682       -11.9643
  34   2.0000      -0.433152       -11.7867
  35   2.0000      -0.418611       -11.3910
  36   2.0000      -0.413694       -11.2572
  37   2.0000      -0.395433       -10.7603
  38   2.0000      -0.382963       -10.4210
  39   2.0000      -0.375611       -10.2209
  40   2.0000      -0.361383        -9.8337
  41   2.0000      -0.360706        -9.8153
  42   2.0000      -0.353019        -9.6061
  43   2.0000      -0.343672        -9.3518
  44   2.0000      -0.325528        -8.8581
  45   2.0000      -0.315469        -8.5844
  46   2.0000      -0.297348        -8.0913
  47   2.0000      -0.275309        -7.4915
  48   2.0000      -0.268274        -7.3001
  49   2.0000      -0.257494        -7.0068
  50   2.0000      -0.248874        -6.7722
  51   0.0000       0.052991         1.4419
  52   0.0000       0.061911         1.6847
  53   0.0000       0.090052         2.4504
  54   0.0000       0.094284         2.5656
  55   0.0000       0.107853         2.9348

MULLIKEN ATOMIC CHARGES
-----------------------
   0 C :    0.317103
   1 C :   -0.291969
   2 C :   -0.332205
   3 C :   -0.016071
   4 O :   -0.502047
   5 H :    0.150808
   6 H :    0.155723
   7 H :    0.144976
   8 H :    0.141471
   9 H :    0.196951
  10 H :    0.158574
  11 H :    0.147842
  12 C :   -0.011490
  13 H :    0.130869
  14 H :    0.163281
  15 O :   -0.541587
  16 C :    0.036298
  17 C :    0.124156
  18 C :   -0.311267
  19 C :   -0.019467
  20 O :   -0.518110
  21 H :    0.168631
  22 H :    0.147255
  23 O :   -0.637256
  24 H :    0.155976
  25 H :    0.148336
  26 H :    0.143062
  27 H :    0.153454
  28 H :    0.396699
Sum of atomic charges:    0.0000000

LOEWDIN ATOMIC CHARGES
----------------------
   0 C :    0.181619
   1 C :   -0.231357
   2 C :   -0.232990
   3 C :   -0.027865
   4 O :   -0.299190
   5 H :    0.100258
   6 H :    0.121092
   7 H :    0.113011
   8 H :    0.115452
   9 H :    0.133200
  10 H :    0.110617
  11 H :    0.105748
  12 C :   -0.046976
  13 H :    0.095795
  14 H :    0.113682
  15 O :   -0.343267
  16 C :    0.016510
  17 C :    0.041821
  18 C :   -0.235328
  19 C :   -0.031296
  20 O :   -0.320499
  21 H :    0.117820
  22 H :    0.104168
  23 O :   -0.431160
  24 H :    0.122678
  25 H :    0.110704
  26 H :    0.102402
  27 H :    0.108005
  28 H :    0.285344

  Mayer bond orders larger than 0.100000
B(  0-C ,  1-C ) :   0.9260 B(  0-C ,  4-O ) :   0.9501 B(  0-C ,  5-H ) :   0.9239
B(  0-C , 15-O ) :   0.7944 B(  1-C ,  2-C ) :   0.9484 B(  1-C ,  6-H ) :   0.9321
B(  1-C ,  7-H ) :   0.9269 B(  2-C ,  3-C ) :   0.9519 B(  2-C ,  8-H ) :   0.9453
B(  2-C ,  9-H ) :   0.9025 B(  3-C ,  4-O ) :   0.8250 B(  3-C , 10-H ) :   0.9341
B(  3-C , 11-H ) :   0.9400 B( 12-C , 13-H ) :   0.9147 B( 12-C , 14-H ) :   0.9230
B( 12-C , 15-O ) :   0.8004 B( 12-C , 16-C ) :   0.9093 B( 15-O , 28-H ) :   0.1020
B( 16-C , 17-C ) :   0.9171 B( 16-C , 20-O ) :   0.8556 B( 16-C , 21-H ) :   0.9271
B( 17-C , 18-C ) :   0.9102 B( 17-C , 22-H ) :   0.9252 B( 17-C , 23-O ) :   0.9104
B( 18-C , 19-C ) :   0.9395 B( 18-C , 24-H ) :   0.9436 B( 18-C , 25-H ) :   0.9408
B( 19-C , 20-O ) :   0.8351 B( 19-C , 26-H ) :   0.9339 B( 19-C , 27-H ) :   0.9375
B( 23-O , 28-H ) :   0.7104

FINAL SINGLE POINT ENERGY      -652.861042969892

DIPOLE MOMENT
-------------
                                X             Y             Z
Electronic contribution:     -3.44538      -4.72722       1.70579
Nuclear contribution   :      4.23902       5.46783      -2.50789
                        -----------------------------------------
Total Dipole Moment    :      0.79364       0.74061      -0.80210
                        -----------------------------------------
Magnitude (a.u.)       :      1.34971
Magnitude (Debye)      :      3.43070

Rotational constants in cm-1:     0.053878     0.015850     0.014625
Rotational constants in MHz :  1615.228353   475.164369   438.459631

                             ****ORCA TERMINATED NORMALLY****
TOTAL RUN TIME: 0 days 0 hours 35 minutes 28 seconds 974 msec
