                         Program Version 4.2.0 -  RELEASE  -
|  1> # Test redundant internal optimization
|  2> #
|  3> ! RKS B3LYP  Opt TightSCF SmallPrint
|  4>
|  5> %basis
|  6>         Basis "6-31G"
|  7> end
|  8>
|  9> %geom
| 10> Constraints
| 11> { D 4  0  15  12  270.0   C } # D for Dihedral angle
| 12> { D 0  15  12  16  135.0   C } # D for Dihedral angle
| 13> { D 0  4  3  2   C } # D for Dihedral angle
| 14> { D 4  3  2  1   C } # D for Dihedral angle
| 15> { D 3  2  1  0   C } # D for Dihedral angle
| 16> { D 2  1  0  4   C } # D for Dihedral angle
| 17> { D 1  0  4  3   C } # D for Dihedral angle
| 18> { D 16  20  19  18   C } # D for Dihedral angle
| 19> { D 20  19  18  17   C } # D for Dihedral angle
| 20> { D 19  18  17  16   C } # D for Dihedral angle
| 21> { D 18  17  16  20   C } # D for Dihedral angle
| 22> { D 17  16  20  19   C } # D for Dihedral angle
| 23> { D 15  12  16  20   C } # D for Dihedral angle
| 24> end
| 25> end
| 26>
| 27>
| 28> #%pal
| 29> #nprocs 8
| 30> #end
| 31>
| 32> * xyz 0 1
| 33> C  -21.048   26.222   46.251
| 34> C  -20.361   27.558   45.944
| 35> C  -20.329   28.222   47.341
| 36> C  -20.110   27.022   48.296
| 37> O  -20.473   25.807   47.535
| 38> H  -20.833   25.428   45.533
| 39> H  -19.344   27.382   45.576
| 40> H  -20.898   28.157   45.201
| 41> H  -19.543   28.978   47.434
| 42> H  -21.289   28.710   47.548
| 43> H  -20.733   27.082   49.195
| 44> H  -19.064   26.913   48.597
| 45> C  -23.420   25.119   46.072
| 46> H  -23.881   25.215   45.082
| 47> H  -22.774   24.231   46.066
| 48> O  -22.586   26.394   46.375
| 49> C  -24.546   24.876   47.115
| 50> C  -25.594   25.995   47.072
| 51> C  -26.435   25.590   45.839
| 52> C  -26.424   24.042   45.899
| 53> O  -25.300   23.663   46.781
| 54> H  -24.097   24.714   48.096
| 55> O  -26.459   25.963   48.362
| 56> H  -25.154   26.994   46.977
| 57> H  -27.449   26.001   45.863
| 58> H  -25.952   25.945   44.921
| 59> H  -26.277   23.585   44.915
| 60> H  -27.336   23.635   46.345
| 61> H  -26.911   24.971   48.478
| 62> *
| 63>
| 64>                          ****END OF INPUT****
 Total Charge           Charge          ....    0
 Multiplicity           Mult            ....    1
 Number of Electrons    NEL             ....  102
FINAL SINGLE POINT ENERGY      -652.839662802435
FINAL SINGLE POINT ENERGY      -652.862973368636
FINAL SINGLE POINT ENERGY      -652.866705160290
FINAL SINGLE POINT ENERGY      -652.867344080074
FINAL SINGLE POINT ENERGY      -652.867424074081
FINAL SINGLE POINT ENERGY      -652.867433592035
FINAL SINGLE POINT ENERGY      -652.867435547507
                    ***********************HURRAY********************

CARTESIAN COORDINATES (ANGSTROEM)
---------------------------------
  C    -21.092787   26.120823   46.225403
  C    -20.526968   27.518179   45.970906
  C    -20.610193   28.155832   47.377847
  C    -20.314525   26.965321   48.317211
  O    -20.537555   25.742124   47.504863
  H    -20.795737   25.345741   45.513363
  H    -19.485372   27.431748   45.640851
  H    -21.096958   28.061498   45.214750
  H    -19.899906   28.977287   47.510826
  H    -21.620362   28.539368   47.548135
  H    -20.972310   26.933620   49.189325
  H    -19.272461   26.933590   48.649040
  C    -23.308638   25.036652   45.983260
  H    -23.726198   25.123057   44.971869
  H    -22.680303   24.139890   46.027624
  O    -22.531845   26.235279   46.279976
  C    -24.412533   24.916013   47.031925
  C    -25.429397   26.067309   47.035253
  C    -26.360114   25.666370   45.863922
  C    -26.392194   24.120152   45.949272
  O    -25.220212   23.719512   46.768862
  H    -23.955956   24.791711   48.017596
  O    -26.148234   26.117656   48.299736
  H    -24.965464   27.044919   46.916229
  H    -27.346843   26.120278   45.981406
  H    -25.937762   26.003587   44.911085
  H    -26.323013   23.636484   44.970203
  H    -27.284591   23.745808   46.460317
  H    -26.371573   25.204192   48.577945

 Multiplicity           Mult            ....    1
 Number of Electrons    NEL             ....  102
 Basis Dimension        Dim             ....  149

ORBITAL ENERGIES
----------------

  NO   OCC          E(Eh)            E(eV)
   0   2.0000     -19.146696      -521.0081
   1   2.0000     -19.143402      -520.9184
   2   2.0000     -19.138274      -520.7789
   3   2.0000     -19.133714      -520.6548
   4   2.0000     -10.280734      -279.7530
   5   2.0000     -10.233941      -278.4797
   6   2.0000     -10.231335      -278.4088
   7   2.0000     -10.230415      -278.3837
   8   2.0000     -10.230265      -278.3797
   9   2.0000     -10.223670      -278.2002
  10   2.0000     -10.185790      -277.1694
  11   2.0000     -10.185393      -277.1586
  12   2.0000     -10.184428      -277.1324
  13   2.0000      -1.054201       -28.6863
  14   2.0000      -1.034038       -28.1376
  15   2.0000      -1.002424       -27.2773
  16   2.0000      -0.995408       -27.0864
  17   2.0000      -0.789586       -21.4857
  18   2.0000      -0.777138       -21.1470
  19   2.0000      -0.765937       -20.8422
  20   2.0000      -0.728704       -19.8290
  21   2.0000      -0.673549       -18.3282
  22   2.0000      -0.602446       -16.3934
  23   2.0000      -0.597685       -16.2638
  24   2.0000      -0.591248       -16.0887
  25   2.0000      -0.582779       -15.8582
  26   2.0000      -0.520973       -14.1764
  27   2.0000      -0.518182       -14.1005
  28   2.0000      -0.495986       -13.4965
  29   2.0000      -0.486259       -13.2318
  30   2.0000      -0.468245       -12.7416
  31   2.0000      -0.456372       -12.4185
  32   2.0000      -0.450398       -12.2560
  33   2.0000      -0.438116       -11.9217
  34   2.0000      -0.425235       -11.5712
  35   2.0000      -0.412270       -11.2184
  36   2.0000      -0.399888       -10.8815
  37   2.0000      -0.390843       -10.6354
  38   2.0000      -0.373288       -10.1577
  39   2.0000      -0.365028        -9.9329
  40   2.0000      -0.358132        -9.7453
  41   2.0000      -0.354765        -9.6536
  42   2.0000      -0.347916        -9.4673
  43   2.0000      -0.329806        -8.9745
  44   2.0000      -0.323966        -8.8156
  45   2.0000      -0.307098        -8.3566
  46   2.0000      -0.300340        -8.1727
  47   2.0000      -0.279265        -7.5992
  48   2.0000      -0.263975        -7.1831
  49   2.0000      -0.250904        -6.8274
  50   2.0000      -0.243258        -6.6194
  51   0.0000       0.064860         1.7649
  52   0.0000       0.079161         2.1541
  53   0.0000       0.096075         2.6143
  54   0.0000       0.101888         2.7725
  55   0.0000       0.106338         2.8936

MULLIKEN ATOMIC CHARGES
-----------------------
   0 C :    0.283157
   1 C :   -0.256819
   2 C :   -0.299096
   3 C :   -0.003208
   4 O :   -0.508261
   5 H :    0.143270
   6 H :    0.144969
   7 H :    0.151610
   8 H :    0.140984
   9 H :    0.163972
  10 H :    0.151671
  11 H :    0.141992
  12 C :   -0.008371
  13 H :    0.131484
  14 H :    0.157936
  15 O :   -0.527739
  16 C :    0.056551
  17 C :    0.094338
  18 C :   -0.293954
  19 C :   -0.029846
  20 O :   -0.527713
  21 H :    0.170006
  22 O :   -0.606165
  23 H :    0.172606
  24 H :    0.161035
  25 H :    0.141898
  26 H :    0.145287
  27 H :    0.145338
  28 H :    0.363067
Sum of atomic charges:   -0.0000000

LOEWDIN ATOMIC CHARGES
----------------------
   0 C :    0.173812
   1 C :   -0.216476
   2 C :   -0.215741
   3 C :   -0.027412
   4 O :   -0.327101
   5 H :    0.098669
   6 H :    0.113809
   7 H :    0.121454
   8 H :    0.113579
   9 H :    0.119743
  10 H :    0.107650
  11 H :    0.102515
  12 C :   -0.037603
  13 H :    0.095522
  14 H :    0.112961
  15 O :   -0.334612
  16 C :    0.014404
  17 C :    0.038436
  18 C :   -0.239970
  19 C :   -0.038143
  20 O :   -0.331939
  21 H :    0.121019
  22 O :   -0.416637
  23 H :    0.125846
  24 H :    0.126336
  25 H :    0.112484
  26 H :    0.103346
  27 H :    0.102320
  28 H :    0.281729

  Mayer bond orders larger than 0.100000
B(  0-C ,  1-C ) :   0.9487 B(  0-C ,  4-O ) :   0.9174 B(  0-C ,  5-H ) :   0.9209
B(  0-C , 15-O ) :   0.8536 B(  1-C ,  2-C ) :   0.9576 B(  1-C ,  6-H ) :   0.9395
B(  1-C ,  7-H ) :   0.9373 B(  2-C ,  3-C ) :   0.9545 B(  2-C ,  8-H ) :   0.9454
B(  2-C ,  9-H ) :   0.9438 B(  3-C ,  4-O ) :   0.8363 B(  3-C , 10-H ) :   0.9350
B(  3-C , 11-H ) :   0.9402 B( 12-C , 13-H ) :   0.9287 B( 12-C , 14-H ) :   0.9184
B( 12-C , 15-O ) :   0.8210 B( 12-C , 16-C ) :   0.9007 B( 16-C , 17-C ) :   0.9150
B( 16-C , 20-O ) :   0.8401 B( 16-C , 21-H ) :   0.9241 B( 17-C , 18-C ) :   0.9110
B( 17-C , 22-O ) :   0.8893 B( 17-C , 23-H ) :   0.9251 B( 18-C , 19-C ) :   0.9402
B( 18-C , 24-H ) :   0.9383 B( 18-C , 25-H ) :   0.9357 B( 19-C , 20-O ) :   0.8447
B( 19-C , 26-H ) :   0.9358 B( 19-C , 27-H ) :   0.9385 B( 22-O , 28-H ) :   0.7956

FINAL SINGLE POINT ENERGY      -652.867435766247

DIPOLE MOMENT
-------------
                                X             Y             Z
Electronic contribution:     -1.08619      -3.54370       2.08497
Nuclear contribution   :      1.27607       3.96524      -3.01862
                        -----------------------------------------
Total Dipole Moment    :      0.18987       0.42154      -0.93365
                        -----------------------------------------
Magnitude (a.u.)       :      1.04185
Magnitude (Debye)      :      2.64816

Rotational constants in cm-1:     0.056011     0.012530     0.011982
Rotational constants in MHz :  1679.159648   375.639262   359.210517

                             ****ORCA TERMINATED NORMALLY****
TOTAL RUN TIME: 0 days 0 hours 23 minutes 40 seconds 613 msec
