                         Program Version 4.2.0 -  RELEASE  -
|  1> # Test redundant internal optimization
|  2> #
|  3> ! RKS B3LYP  Opt TightSCF SmallPrint
|  4>
|  5> %basis
|  6>         Basis "6-31G"
|  7> end
|  8>
|  9> %geom
| 10> Constraints
| 11> { D 4  0  15  12  105.0   C } # D for Dihedral angle
| 12> { D 0  15  12  16  195.0   C } # D for Dihedral angle
| 13> { D 0  4  3  2   C } # D for Dihedral angle
| 14> { D 4  3  2  1   C } # D for Dihedral angle
| 15> { D 3  2  1  0   C } # D for Dihedral angle
| 16> { D 2  1  0  4   C } # D for Dihedral angle
| 17> { D 1  0  4  3   C } # D for Dihedral angle
| 18> { D 16  20  19  18   C } # D for Dihedral angle
| 19> { D 20  19  18  17   C } # D for Dihedral angle
| 20> { D 19  18  17  16   C } # D for Dihedral angle
| 21> { D 18  17  16  20   C } # D for Dihedral angle
| 22> { D 17  16  20  19   C } # D for Dihedral angle
| 23> { D 15  12  16  20   C } # D for Dihedral angle
| 24> end
| 25> end
| 26>
| 27>
| 28> #%pal
| 29> #nprocs 8
| 30> #end
| 31>
| 32> * xyz 0 1
| 33> C  -21.048   26.222   46.251
| 34> C  -20.361   27.558   45.944
| 35> C  -20.329   28.222   47.341
| 36> C  -20.110   27.022   48.296
| 37> O  -20.473   25.807   47.535
| 38> H  -20.833   25.428   45.533
| 39> H  -19.344   27.382   45.576
| 40> H  -20.898   28.157   45.201
| 41> H  -19.543   28.978   47.434
| 42> H  -21.289   28.710   47.548
| 43> H  -20.733   27.082   49.195
| 44> H  -19.064   26.913   48.597
| 45> C  -23.085   27.864   46.420
| 46> H  -22.446   28.443   47.099
| 47> H  -23.027   28.320   45.423
| 48> O  -22.586   26.394   46.375
| 49> C  -24.554   27.986   46.911
| 50> C  -25.049   29.434   46.833
| 51> C  -25.378   29.572   45.327
| 52> C  -25.909   28.166   44.952
| 53> O  -25.455   27.248   46.018
| 54> H  -24.640   27.531   47.900
| 55> O  -26.332   29.606   47.692
| 56> H  -24.305   30.162   47.174
| 57> H  -26.108   30.362   45.123
| 58> H  -24.467   29.804   44.763
| 59> H  -25.523   27.815   43.989
| 60> H  -27.002   28.124   44.934
| 61> H  -27.091   28.886   47.367
| 62> *
| 63>
| 64>                          ****END OF INPUT****
 Total Charge           Charge          ....    0
 Multiplicity           Mult            ....    1
 Number of Electrons    NEL             ....  102
FINAL SINGLE POINT ENERGY      -652.803638648638
FINAL SINGLE POINT ENERGY      -652.832509805913
FINAL SINGLE POINT ENERGY      -652.847485592236
FINAL SINGLE POINT ENERGY      -652.850066980412
FINAL SINGLE POINT ENERGY      -652.850507779072
FINAL SINGLE POINT ENERGY      -652.850558198636
FINAL SINGLE POINT ENERGY      -652.850563933019
                    ***********************HURRAY********************

CARTESIAN COORDINATES (ANGSTROEM)
---------------------------------
  C    -21.213381   26.375565   46.373368
  C    -20.189746   27.450622   45.981483
  C    -19.925873   28.162084   47.341386
  C    -20.022765   26.991243   48.352483
  O    -20.736894   25.899211   47.651786
  H    -21.189394   25.498216   45.724890
  H    -19.282400   26.950351   45.628930
  H    -20.538132   28.126284   45.194971
  H    -18.943423   28.644010   47.369618
  H    -20.674014   28.932723   47.543105
  H    -20.571455   27.253573   49.261904
  H    -19.039644   26.600531   48.630131
  C    -23.102596   28.088507   46.396663
  H    -22.585313   28.710595   47.138351
  H    -22.970368   28.547898   45.406691
  O    -22.615708   26.724620   46.386553
  C    -24.578974   28.031437   46.787027
  C    -25.269577   29.402112   46.807335
  C    -25.633741   29.595715   45.310596
  C    -25.971442   28.157418   44.845940
  O    -25.380634   27.242111   45.850496
  H    -24.654756   27.527287   47.754626
  O    -26.453513   29.372147   47.649866
  H    -24.651995   30.207686   47.208485
  H    -26.471786   30.289256   45.204866
  H    -24.777225   30.002511   44.761328
  H    -25.557440   27.921355   43.861109
  H    -27.048760   27.964463   44.826467
  H    -26.931050   28.528469   47.500549

 Multiplicity           Mult            ....    1
 Number of Electrons    NEL             ....  102
 Basis Dimension        Dim             ....  149

ORBITAL ENERGIES
----------------

  NO   OCC          E(Eh)            E(eV)
   0   2.0000     -19.140232      -520.8322
   1   2.0000     -19.139733      -520.8186
   2   2.0000     -19.139489      -520.8120
   3   2.0000     -19.137936      -520.7697
   4   2.0000     -10.278077      -279.6807
   5   2.0000     -10.244872      -278.7771
   6   2.0000     -10.237337      -278.5721
   7   2.0000     -10.234728      -278.5011
   8   2.0000     -10.229967      -278.3716
   9   2.0000     -10.228168      -278.3226
  10   2.0000     -10.196322      -277.4560
  11   2.0000     -10.196179      -277.4521
  12   2.0000     -10.191196      -277.3165
  13   2.0000      -1.050054       -28.5734
  14   2.0000      -1.036276       -28.1985
  15   2.0000      -1.006952       -27.4006
  16   2.0000      -0.994178       -27.0530
  17   2.0000      -0.791232       -21.5305
  18   2.0000      -0.787401       -21.4263
  19   2.0000      -0.771719       -20.9995
  20   2.0000      -0.733657       -19.9638
  21   2.0000      -0.680910       -18.5285
  22   2.0000      -0.608280       -16.5521
  23   2.0000      -0.604931       -16.4610
  24   2.0000      -0.598107       -16.2753
  25   2.0000      -0.577534       -15.7155
  26   2.0000      -0.525343       -14.2953
  27   2.0000      -0.513484       -13.9726
  28   2.0000      -0.501582       -13.6487
  29   2.0000      -0.491728       -13.3806
  30   2.0000      -0.478703       -13.0262
  31   2.0000      -0.462645       -12.5892
  32   2.0000      -0.449044       -12.2191
  33   2.0000      -0.441727       -12.0200
  34   2.0000      -0.429861       -11.6971
  35   2.0000      -0.417275       -11.3546
  36   2.0000      -0.405368       -11.0306
  37   2.0000      -0.394224       -10.7274
  38   2.0000      -0.384957       -10.4752
  39   2.0000      -0.373787       -10.1712
  40   2.0000      -0.366049        -9.9607
  41   2.0000      -0.360602        -9.8125
  42   2.0000      -0.351264        -9.5584
  43   2.0000      -0.332310        -9.0426
  44   2.0000      -0.313903        -8.5417
  45   2.0000      -0.307457        -8.3663
  46   2.0000      -0.291391        -7.9291
  47   2.0000      -0.272776        -7.4226
  48   2.0000      -0.267347        -7.2749
  49   2.0000      -0.251159        -6.8344
  50   2.0000      -0.243628        -6.6294
  51   0.0000       0.060495         1.6462
  52   0.0000       0.073961         2.0126
  53   0.0000       0.079754         2.1702
  54   0.0000       0.095185         2.5901
  55   0.0000       0.101817         2.7706

MULLIKEN ATOMIC CHARGES
-----------------------
   0 C :    0.309090
   1 C :   -0.295070
   2 C :   -0.312109
   3 C :   -0.006140
   4 O :   -0.495112
   5 H :    0.166209
   6 H :    0.159434
   7 H :    0.144653
   8 H :    0.145973
   9 H :    0.147197
  10 H :    0.146238
  11 H :    0.146746
  12 C :    0.003543
  13 H :    0.125771
  14 H :    0.123391
  15 O :   -0.512508
  16 C :    0.072353
  17 C :    0.075486
  18 C :   -0.297166
  19 C :   -0.027236
  20 O :   -0.506378
  21 H :    0.174025
  22 O :   -0.602200
  23 H :    0.146961
  24 H :    0.165288
  25 H :    0.140185
  26 H :    0.147011
  27 H :    0.146816
  28 H :    0.367550
Sum of atomic charges:    0.0000000

LOEWDIN ATOMIC CHARGES
----------------------
   0 C :    0.177542
   1 C :   -0.230864
   2 C :   -0.222653
   3 C :   -0.032274
   4 O :   -0.316239
   5 H :    0.111378
   6 H :    0.124683
   7 H :    0.114983
   8 H :    0.116104
   9 H :    0.106476
  10 H :    0.104153
  11 H :    0.104562
  12 C :   -0.040061
  13 H :    0.093451
  14 H :    0.090672
  15 O :   -0.312407
  16 C :    0.019663
  17 C :    0.034580
  18 C :   -0.242542
  19 C :   -0.037758
  20 O :   -0.316679
  21 H :    0.123874
  22 O :   -0.414152
  23 H :    0.112605
  24 H :    0.127433
  25 H :    0.110685
  26 H :    0.104869
  27 H :    0.102906
  28 H :    0.285008

  Mayer bond orders larger than 0.100000
B(  0-C ,  1-C ) :   0.9257 B(  0-C ,  4-O ) :   0.9061 B(  0-C ,  5-H ) :   0.9336
B(  0-C , 15-O ) :   0.8946 B(  1-C ,  2-C ) :   0.9515 B(  1-C ,  6-H ) :   0.9350
B(  1-C ,  7-H ) :   0.9339 B(  2-C ,  3-C ) :   0.9475 B(  2-C ,  8-H ) :   0.9452
B(  2-C ,  9-H ) :   0.9383 B(  3-C ,  4-O ) :   0.8506 B(  3-C , 10-H ) :   0.9342
B(  3-C , 11-H ) :   0.9388 B( 12-C , 13-H ) :   0.8955 B( 12-C , 14-H ) :   0.9178
B( 12-C , 15-O ) :   0.8455 B( 12-C , 16-C ) :   0.8969 B( 16-C , 17-C ) :   0.9000
B( 16-C , 20-O ) :   0.8695 B( 16-C , 21-H ) :   0.9223 B( 17-C , 18-C ) :   0.9108
B( 17-C , 22-O ) :   0.8946 B( 17-C , 23-H ) :   0.9334 B( 18-C , 19-C ) :   0.9402
B( 18-C , 24-H ) :   0.9366 B( 18-C , 25-H ) :   0.9341 B( 19-C , 20-O ) :   0.8522
B( 19-C , 26-H ) :   0.9342 B( 19-C , 27-H ) :   0.9378 B( 22-O , 28-H ) :   0.7923

FINAL SINGLE POINT ENERGY      -652.850563374629

DIPOLE MOMENT
-------------
                                X             Y             Z
Electronic contribution:     -3.89848      -5.04712       1.72717
Nuclear contribution   :      4.79661       6.42920      -2.49991
                        -----------------------------------------
Total Dipole Moment    :      0.89813       1.38208      -0.77274
                        -----------------------------------------
Magnitude (a.u.)       :      1.82042
Magnitude (Debye)      :      4.62713

Rotational constants in cm-1:     0.057844     0.012083     0.011645
Rotational constants in MHz :  1734.114306   362.246604   349.103133

                             ****ORCA TERMINATED NORMALLY****
TOTAL RUN TIME: 0 days 0 hours 19 minutes 0 seconds 583 msec
