                         Program Version 4.2.0 -  RELEASE  -
|  1> # Test redundant internal optimization
|  2> #
|  3> ! RKS B3LYP  Opt TightSCF SmallPrint
|  4>
|  5> %basis
|  6>         Basis "6-31G"
|  7> end
|  8>
|  9> %geom
| 10> Constraints
| 11> { D 4  0  15  12  270.0   C } # D for Dihedral angle
| 12> { D 0  15  12  16  15.0   C } # D for Dihedral angle
| 13> { D 0  4  3  2   C } # D for Dihedral angle
| 14> { D 4  3  2  1   C } # D for Dihedral angle
| 15> { D 3  2  1  0   C } # D for Dihedral angle
| 16> { D 2  1  0  4   C } # D for Dihedral angle
| 17> { D 1  0  4  3   C } # D for Dihedral angle
| 18> { D 16  20  19  18   C } # D for Dihedral angle
| 19> { D 20  19  18  17   C } # D for Dihedral angle
| 20> { D 19  18  17  16   C } # D for Dihedral angle
| 21> { D 18  17  16  20   C } # D for Dihedral angle
| 22> { D 17  16  20  19   C } # D for Dihedral angle
| 23> { D 15  12  16  20   C } # D for Dihedral angle
| 24> end
| 25> end
| 26>
| 27>
| 28> #%pal
| 29> #nprocs 8
| 30> #end
| 31>
| 32> * xyz 0 1
| 33> C  -21.048   26.222   46.251
| 34> C  -20.361   27.558   45.944
| 35> C  -20.329   28.222   47.341
| 36> C  -20.110   27.022   48.296
| 37> O  -20.473   25.807   47.535
| 38> H  -20.833   25.428   45.533
| 39> H  -19.344   27.382   45.576
| 40> H  -20.898   28.157   45.201
| 41> H  -19.543   28.978   47.434
| 42> H  -21.289   28.710   47.548
| 43> H  -20.733   27.082   49.195
| 44> H  -19.064   26.913   48.597
| 45> C  -23.420   25.119   46.072
| 46> H  -24.201   25.008   46.835
| 47> H  -23.906   25.202   45.092
| 48> O  -22.586   26.394   46.375
| 49> C  -22.558   23.826   46.064
| 50> C  -23.388   22.606   45.649
| 51> C  -23.437   22.768   44.111
| 52> C  -22.048   23.367   43.777
| 53> O  -21.511   23.914   45.041
| 54> H  -22.056   23.724   47.028
| 55> H  -22.866   21.683   45.924
| 56> O  -24.800   22.581   46.297
| 57> H  -23.621   21.823   43.590
| 58> H  -24.235   23.466   43.831
| 59> H  -22.105   24.170   43.034
| 60> H  -21.340   22.610   43.427
| 61> H  -25.343   23.495   46.034
| 62> *
| 63>
| 64>                          ****END OF INPUT****
 Total Charge           Charge          ....    0
 Multiplicity           Mult            ....    1
 Number of Electrons    NEL             ....  102
FINAL SINGLE POINT ENERGY      -652.822692362866
FINAL SINGLE POINT ENERGY      -652.845046753708
FINAL SINGLE POINT ENERGY      -652.855131855921
FINAL SINGLE POINT ENERGY      -652.856935820675
FINAL SINGLE POINT ENERGY      -652.857282952348
FINAL SINGLE POINT ENERGY      -652.857349256813
FINAL SINGLE POINT ENERGY      -652.857358457260
FINAL SINGLE POINT ENERGY      -652.857360270130
                    ***********************HURRAY********************

CARTESIAN COORDINATES (ANGSTROEM)
---------------------------------
  C    -20.871822   26.249169   46.216943
  C    -20.382649   27.683773   46.007518
  C    -20.479439   28.265266   47.438873
  C    -20.108601   27.055965   48.328365
  O    -20.277516   25.854404   47.478529
  H    -20.565661   25.509515   45.481711
  H    -19.342379   27.661855   45.662341
  H    -20.990150   28.224042   45.278815
  H    -19.810719   29.117155   47.595627
  H    -21.506313   28.586968   47.634121
  H    -20.750565   26.962744   49.208773
  H    -19.061787   27.071678   48.648016
  C    -23.172229   25.175817   46.051166
  H    -23.914949   25.154824   46.857246
  H    -23.697299   25.387966   45.106928
  O    -22.316455   26.322342   46.324709
  C    -22.517750   23.792865   45.984337
  C    -23.507848   22.660275   45.651929
  C    -23.569807   22.737281   44.095066
  C    -22.125174   23.134222   43.714653
  O    -21.493136   23.684738   44.943604
  H    -21.989492   23.613271   46.925137
  H    -23.080302   21.707366   45.969899
  O    -24.788405   22.727263   46.319797
  H    -23.881422   21.790278   43.647223
  H    -24.290424   23.509470   43.795694
  H    -22.084515   23.890430   42.924131
  H    -21.525112   22.272280   43.409280
  H    -25.344077   23.433780   45.931568

 Multiplicity           Mult            ....    1
 Number of Electrons    NEL             ....  102
 Basis Dimension        Dim             ....  149

ORBITAL ENERGIES
----------------

  NO   OCC          E(Eh)            E(eV)
   0   2.0000     -19.153630      -521.1968
   1   2.0000     -19.147779      -521.0376
   2   2.0000     -19.131436      -520.5928
   3   2.0000     -19.124424      -520.4020
   4   2.0000     -10.258792      -279.1559
   5   2.0000     -10.250068      -278.9185
   6   2.0000     -10.237465      -278.5756
   7   2.0000     -10.234073      -278.4833
   8   2.0000     -10.230159      -278.3768
   9   2.0000     -10.212840      -277.9055
  10   2.0000     -10.200390      -277.5667
  11   2.0000     -10.173703      -276.8405
  12   2.0000     -10.172737      -276.8142
  13   2.0000      -1.042747       -28.3746
  14   2.0000      -1.034451       -28.1488
  15   2.0000      -1.021357       -27.7925
  16   2.0000      -0.979672       -26.6582
  17   2.0000      -0.788442       -21.4546
  18   2.0000      -0.777544       -21.1580
  19   2.0000      -0.763331       -20.7713
  20   2.0000      -0.725316       -19.7369
  21   2.0000      -0.677818       -18.4444
  22   2.0000      -0.617612       -16.8061
  23   2.0000      -0.597949       -16.2710
  24   2.0000      -0.585739       -15.9388
  25   2.0000      -0.560776       -15.2595
  26   2.0000      -0.533432       -14.5154
  27   2.0000      -0.509566       -13.8660
  28   2.0000      -0.494917       -13.4674
  29   2.0000      -0.474073       -12.9002
  30   2.0000      -0.468186       -12.7400
  31   2.0000      -0.452730       -12.3194
  32   2.0000      -0.438869       -11.9422
  33   2.0000      -0.433662       -11.8006
  34   2.0000      -0.429824       -11.6961
  35   2.0000      -0.415857       -11.3160
  36   2.0000      -0.405855       -11.0439
  37   2.0000      -0.390733       -10.6324
  38   2.0000      -0.385427       -10.4880
  39   2.0000      -0.366476        -9.9723
  40   2.0000      -0.357206        -9.7201
  41   2.0000      -0.344578        -9.3765
  42   2.0000      -0.336750        -9.1634
  43   2.0000      -0.329848        -8.9756
  44   2.0000      -0.324804        -8.8384
  45   2.0000      -0.311487        -8.4760
  46   2.0000      -0.292090        -7.9482
  47   2.0000      -0.276332        -7.5194
  48   2.0000      -0.258646        -7.0381
  49   2.0000      -0.246860        -6.7174
  50   2.0000      -0.231795        -6.3075
  51   0.0000       0.047453         1.2913
  52   0.0000       0.073478         1.9994
  53   0.0000       0.088811         2.4167
  54   0.0000       0.097378         2.6498
  55   0.0000       0.107100         2.9143

MULLIKEN ATOMIC CHARGES
-----------------------
   0 C :    0.262909
   1 C :   -0.252986
   2 C :   -0.295514
   3 C :    0.000035
   4 O :   -0.514236
   5 H :    0.198317
   6 H :    0.140639
   7 H :    0.146081
   8 H :    0.133445
   9 H :    0.159170
  10 H :    0.141943
  11 H :    0.136792
  12 C :    0.011826
  13 H :    0.150846
  14 H :    0.116715
  15 O :   -0.545261
  16 C :    0.059126
  17 C :    0.089513
  18 C :   -0.319399
  19 C :   -0.018937
  20 O :   -0.518503
  21 H :    0.186950
  22 H :    0.169615
  23 O :   -0.597299
  24 H :    0.158263
  25 H :    0.136652
  26 H :    0.147796
  27 H :    0.157179
  28 H :    0.358320
Sum of atomic charges:    0.0000000

LOEWDIN ATOMIC CHARGES
----------------------
   0 C :    0.162593
   1 C :   -0.214782
   2 C :   -0.216323
   3 C :   -0.029067
   4 O :   -0.329730
   5 H :    0.123618
   6 H :    0.111203
   7 H :    0.118729
   8 H :    0.109509
   9 H :    0.117602
  10 H :    0.102432
  11 H :    0.099433
  12 C :   -0.044188
  13 H :    0.112978
  14 H :    0.087519
  15 O :   -0.332628
  16 C :    0.004610
  17 C :    0.040679
  18 C :   -0.239937
  19 C :   -0.032478
  20 O :   -0.320711
  21 H :    0.129060
  22 H :    0.120916
  23 O :   -0.403413
  24 H :    0.123450
  25 H :    0.105374
  26 H :    0.104409
  27 H :    0.109458
  28 H :    0.279685

  Mayer bond orders larger than 0.100000
B(  0-C ,  1-C ) :   0.9440 B(  0-C ,  4-O ) :   0.8975 B(  0-C ,  5-H ) :   0.8882
B(  0-C , 15-O ) :   0.8325 B(  1-C ,  2-C ) :   0.9563 B(  1-C ,  6-H ) :   0.9418
B(  1-C ,  7-H ) :   0.9389 B(  2-C ,  3-C ) :   0.9554 B(  2-C ,  8-H ) :   0.9465
B(  2-C ,  9-H ) :   0.9444 B(  3-C ,  4-O ) :   0.8447 B(  3-C , 10-H ) :   0.9360
B(  3-C , 11-H ) :   0.9406 B( 12-C , 13-H ) :   0.9135 B( 12-C , 14-H ) :   0.9261
B( 12-C , 15-O ) :   0.8564 B( 12-C , 16-C ) :   0.9082 B( 16-C , 17-C ) :   0.8666
B( 16-C , 20-O ) :   0.8330 B( 16-C , 21-H ) :   0.9185 B( 17-C , 18-C ) :   0.9212
B( 17-C , 22-H ) :   0.9337 B( 17-C , 23-O ) :   0.9031 B( 18-C , 19-C ) :   0.9409
B( 18-C , 24-H ) :   0.9418 B( 18-C , 25-H ) :   0.9398 B( 19-C , 20-O ) :   0.8381
B( 19-C , 26-H ) :   0.9319 B( 19-C , 27-H ) :   0.9371 B( 23-O , 28-H ) :   0.7972

FINAL SINGLE POINT ENERGY      -652.857360416877

DIPOLE MOMENT
-------------
                                X             Y             Z
Electronic contribution:     -0.53471      -3.20293       1.44302
Nuclear contribution   :      0.03370       3.43819      -2.50833
                        -----------------------------------------
Total Dipole Moment    :     -0.50101       0.23527      -1.06531
                        -----------------------------------------
Magnitude (a.u.)       :      1.20052
Magnitude (Debye)      :      3.05147

Rotational constants in cm-1:     0.058628     0.013420     0.012495
Rotational constants in MHz :  1757.636799   402.311836   374.603478

                             ****ORCA TERMINATED NORMALLY****
TOTAL RUN TIME: 0 days 0 hours 28 minutes 53 seconds 273 msec
