                         Program Version 4.2.0 -  RELEASE  -
|  1> # Test redundant internal optimization
|  2> #
|  3> ! RKS B3LYP  Opt TightSCF SmallPrint
|  4>
|  5> %basis
|  6>         Basis "6-31G"
|  7> end
|  8>
|  9> %geom
| 10> Constraints
| 11> { D 4  0  15  12  285.0   C } # D for Dihedral angle
| 12> { D 0  15  12  16  210.0   C } # D for Dihedral angle
| 13> { D 0  4  3  2   C } # D for Dihedral angle
| 14> { D 4  3  2  1   C } # D for Dihedral angle
| 15> { D 3  2  1  0   C } # D for Dihedral angle
| 16> { D 2  1  0  4   C } # D for Dihedral angle
| 17> { D 1  0  4  3   C } # D for Dihedral angle
| 18> { D 16  20  19  18   C } # D for Dihedral angle
| 19> { D 20  19  18  17   C } # D for Dihedral angle
| 20> { D 19  18  17  16   C } # D for Dihedral angle
| 21> { D 18  17  16  20   C } # D for Dihedral angle
| 22> { D 17  16  20  19   C } # D for Dihedral angle
| 23> { D 15  12  16  20   C } # D for Dihedral angle
| 24> end
| 25> end
| 26>
| 27>
| 28> #%pal
| 29> #nprocs 8
| 30> #end
| 31>
| 32> * xyz 0 1
| 33> C  -21.048   26.222   46.251
| 34> C  -20.361   27.558   45.944
| 35> C  -20.329   28.222   47.341
| 36> C  -20.110   27.022   48.296
| 37> O  -20.473   25.807   47.535
| 38> H  -20.833   25.428   45.533
| 39> H  -19.344   27.382   45.576
| 40> H  -20.898   28.157   45.201
| 41> H  -19.543   28.978   47.434
| 42> H  -21.289   28.710   47.548
| 43> H  -20.733   27.082   49.195
| 44> H  -19.064   26.913   48.597
| 45> C  -23.396   25.070   46.435
| 46> H  -22.860   24.292   45.878
| 47> H  -23.505   24.734   47.474
| 48> O  -22.586   26.394   46.375
| 49> C  -24.821   25.209   45.831
| 50> C  -25.602   26.345   46.504
| 51> C  -25.014   27.590   45.798
| 52> C  -24.750   27.087   44.357
| 53> O  -24.743   25.609   44.422
| 54> H  -25.319   24.239   45.862
| 55> O  -27.117   26.204   46.194
| 56> H  -25.472   26.372   47.591
| 57> H  -25.690   28.451   45.822
| 58> H  -24.075   27.888   46.281
| 59> H  -23.790   27.433   43.960
| 60> H  -25.544   27.374   43.662
| 61> H  -27.271   26.175   45.110
| 62> *
| 63>
| 64>                          ****END OF INPUT****
 Total Charge           Charge          ....    0
 Multiplicity           Mult            ....    1
 Number of Electrons    NEL             ....  102
FINAL SINGLE POINT ENERGY      -652.840456243683
FINAL SINGLE POINT ENERGY      -652.864015800217
FINAL SINGLE POINT ENERGY      -652.868341291232
FINAL SINGLE POINT ENERGY      -652.869406172836
FINAL SINGLE POINT ENERGY      -652.869518389838
FINAL SINGLE POINT ENERGY      -652.869531451153
                    ***********************HURRAY********************

CARTESIAN COORDINATES (ANGSTROEM)
---------------------------------
  C    -21.085648   26.141564   46.258378
  C    -20.448585   27.495179   45.942464
  C    -20.415352   28.163228   47.336872
  C    -20.143602   26.974566   48.286641
  O    -20.485760   25.752199   47.516221
  H    -20.873261   25.332993   45.551671
  H    -19.434732   27.332837   45.559910
  H    -21.020449   28.059531   45.203107
  H    -19.647495   28.939217   47.414142
  H    -21.387128   28.616936   47.553064
  H    -20.752175   27.002457   49.194057
  H    -19.088884   26.884693   48.562931
  C    -23.305211   25.120368   46.461014
  H    -22.800962   24.319125   45.904164
  H    -23.391534   24.807854   47.509675
  O    -22.509056   26.338622   46.369258
  C    -24.690357   25.323699   45.854148
  C    -25.571628   26.414359   46.482233
  C    -25.068121   27.687226   45.752288
  C    -24.738352   27.167136   44.331613
  O    -24.617580   25.693953   44.439994
  H    -25.208258   24.357677   45.901101
  O    -26.979620   26.148522   46.223578
  H    -25.487250   26.475794   47.567683
  H    -25.836327   28.465831   45.755277
  H    -24.166740   28.055073   46.245206
  H    -23.796569   27.569492   43.949540
  H    -25.534110   27.371770   43.607089
  H    -27.095254   25.935100   45.273682

 Multiplicity           Mult            ....    1
 Number of Electrons    NEL             ....  102
 Basis Dimension        Dim             ....  149

ORBITAL ENERGIES
----------------

  NO   OCC          E(Eh)            E(eV)
   0   2.0000     -19.150817      -521.1202
   1   2.0000     -19.142076      -520.8824
   2   2.0000     -19.138138      -520.7752
   3   2.0000     -19.134049      -520.6639
   4   2.0000     -10.282216      -279.7933
   5   2.0000     -10.235953      -278.5344
   6   2.0000     -10.233683      -278.4727
   7   2.0000     -10.231890      -278.4239
   8   2.0000     -10.227774      -278.3119
   9   2.0000     -10.223631      -278.1992
  10   2.0000     -10.189014      -277.2572
  11   2.0000     -10.188826      -277.2520
  12   2.0000     -10.176411      -276.9142
  13   2.0000      -1.058889       -28.8138
  14   2.0000      -1.031886       -28.0790
  15   2.0000      -1.003506       -27.3068
  16   2.0000      -0.995488       -27.0886
  17   2.0000      -0.792537       -21.5660
  18   2.0000      -0.775696       -21.1078
  19   2.0000      -0.764169       -20.7941
  20   2.0000      -0.732279       -19.9263
  21   2.0000      -0.673482       -18.3264
  22   2.0000      -0.602508       -16.3951
  23   2.0000      -0.597056       -16.2467
  24   2.0000      -0.596564       -16.2333
  25   2.0000      -0.578616       -15.7449
  26   2.0000      -0.526462       -14.3258
  27   2.0000      -0.507173       -13.8009
  28   2.0000      -0.496400       -13.5077
  29   2.0000      -0.488251       -13.2860
  30   2.0000      -0.470728       -12.8092
  31   2.0000      -0.463326       -12.6078
  32   2.0000      -0.448163       -12.1951
  33   2.0000      -0.430986       -11.7277
  34   2.0000      -0.427867       -11.6429
  35   2.0000      -0.409262       -11.1366
  36   2.0000      -0.401119       -10.9150
  37   2.0000      -0.387226       -10.5370
  38   2.0000      -0.380155       -10.3446
  39   2.0000      -0.364311        -9.9134
  40   2.0000      -0.360297        -9.8042
  41   2.0000      -0.356363        -9.6971
  42   2.0000      -0.348627        -9.4866
  43   2.0000      -0.335896        -9.1402
  44   2.0000      -0.321527        -8.7492
  45   2.0000      -0.306570        -8.3422
  46   2.0000      -0.299390        -8.1468
  47   2.0000      -0.276111        -7.5133
  48   2.0000      -0.264573        -7.1994
  49   2.0000      -0.255972        -6.9653
  50   2.0000      -0.242092        -6.5876
  51   0.0000       0.064880         1.7655
  52   0.0000       0.084255         2.2927
  53   0.0000       0.089047         2.4231
  54   0.0000       0.105051         2.8586
  55   0.0000       0.109697         2.9850

MULLIKEN ATOMIC CHARGES
-----------------------
   0 C :    0.291291
   1 C :   -0.263963
   2 C :   -0.301647
   3 C :   -0.002595
   4 O :   -0.512020
   5 H :    0.149838
   6 H :    0.148637
   7 H :    0.153714
   8 H :    0.143209
   9 H :    0.159668
  10 H :    0.147220
  11 H :    0.144131
  12 C :    0.011109
  13 H :    0.143149
  14 H :    0.144339
  15 O :   -0.528599
  16 C :    0.061853
  17 C :    0.076566
  18 C :   -0.293658
  19 C :   -0.017738
  20 O :   -0.528285
  21 H :    0.156260
  22 O :   -0.603444
  23 H :    0.154136
  24 H :    0.149628
  25 H :    0.173608
  26 H :    0.144189
  27 H :    0.136800
  28 H :    0.362605
Sum of atomic charges:    0.0000000

LOEWDIN ATOMIC CHARGES
----------------------
   0 C :    0.173521
   1 C :   -0.214949
   2 C :   -0.216665
   3 C :   -0.027580
   4 O :   -0.329396
   5 H :    0.099875
   6 H :    0.116193
   7 H :    0.121554
   8 H :    0.114303
   9 H :    0.116639
  10 H :    0.105496
  11 H :    0.103471
  12 C :   -0.034589
  13 H :    0.106156
  14 H :    0.105152
  15 O :   -0.327476
  16 C :    0.012411
  17 C :    0.038855
  18 C :   -0.243609
  19 C :   -0.032720
  20 O :   -0.331902
  21 H :    0.116424
  22 O :   -0.417599
  23 H :    0.117058
  24 H :    0.118852
  25 H :    0.128613
  26 H :    0.103865
  27 H :    0.096245
  28 H :    0.281803

  Mayer bond orders larger than 0.100000
B(  0-C ,  1-C ) :   0.9505 B(  0-C ,  4-O ) :   0.9065 B(  0-C ,  5-H ) :   0.9163
B(  0-C , 15-O ) :   0.8549 B(  1-C ,  2-C ) :   0.9561 B(  1-C ,  6-H ) :   0.9396
B(  1-C ,  7-H ) :   0.9362 B(  2-C ,  3-C ) :   0.9546 B(  2-C ,  8-H ) :   0.9451
B(  2-C ,  9-H ) :   0.9445 B(  3-C ,  4-O ) :   0.8383 B(  3-C , 10-H ) :   0.9357
B(  3-C , 11-H ) :   0.9402 B( 12-C , 13-H ) :   0.9166 B( 12-C , 14-H ) :   0.9137
B( 12-C , 15-O ) :   0.8336 B( 12-C , 16-C ) :   0.9062 B( 16-C , 17-C ) :   0.9098
B( 16-C , 20-O ) :   0.8691 B( 16-C , 21-H ) :   0.9214 B( 17-C , 18-C ) :   0.9247
B( 17-C , 22-O ) :   0.8922 B( 17-C , 23-H ) :   0.9344 B( 18-C , 19-C ) :   0.9460
B( 18-C , 24-H ) :   0.9372 B( 18-C , 25-H ) :   0.9186 B( 19-C , 20-O ) :   0.8408
B( 19-C , 26-H ) :   0.9345 B( 19-C , 27-H ) :   0.9366 B( 22-O , 28-H ) :   0.7960

FINAL SINGLE POINT ENERGY      -652.869531352984

DIPOLE MOMENT
-------------
                                X             Y             Z
Electronic contribution:     -3.14392      -4.67736      -0.85829
Nuclear contribution   :      3.93312       5.44438       0.77787
                        -----------------------------------------
Total Dipole Moment    :      0.78920       0.76701      -0.08042
                        -----------------------------------------
Magnitude (a.u.)       :      1.10346
Magnitude (Debye)      :      2.80476

Rotational constants in cm-1:     0.056167     0.013657     0.013301
Rotational constants in MHz :  1683.836806   409.416687   398.759386

                             ****ORCA TERMINATED NORMALLY****
TOTAL RUN TIME: 0 days 0 hours 31 minutes 53 seconds 713 msec
