                         Program Version 4.2.0 -  RELEASE  -
|  1> # Test redundant internal optimization
|  2> #
|  3> ! RKS B3LYP  Opt TightSCF SmallPrint
|  4>
|  5> %basis
|  6>         Basis "6-31G"
|  7> end
|  8>
|  9> %geom
| 10> Constraints
| 11> { D 4  0  15  12  240.0   C } # D for Dihedral angle
| 12> { D 0  15  12  16  285.0   C } # D for Dihedral angle
| 13> { D 0  4  3  2   C } # D for Dihedral angle
| 14> { D 4  3  2  1   C } # D for Dihedral angle
| 15> { D 3  2  1  0   C } # D for Dihedral angle
| 16> { D 2  1  0  4   C } # D for Dihedral angle
| 17> { D 1  0  4  3   C } # D for Dihedral angle
| 18> { D 16  20  19  18   C } # D for Dihedral angle
| 19> { D 20  19  18  17   C } # D for Dihedral angle
| 20> { D 19  18  17  16   C } # D for Dihedral angle
| 21> { D 18  17  16  20   C } # D for Dihedral angle
| 22> { D 17  16  20  19   C } # D for Dihedral angle
| 23> { D 15  12  16  20   C } # D for Dihedral angle
| 24> end
| 25> end
| 26>
| 27>
| 28> #%pal
| 29> #nprocs 8
| 30> #end
| 31>
| 32> * xyz 0 1
| 33> C  -21.048   26.222   46.251
| 34> C  -20.361   27.558   45.944
| 35> C  -20.329   28.222   47.341
| 36> C  -20.110   27.022   48.296
| 37> O  -20.473   25.807   47.535
| 38> H  -20.833   25.428   45.533
| 39> H  -19.344   27.382   45.576
| 40> H  -20.898   28.157   45.201
| 41> H  -19.543   28.978   47.434
| 42> H  -21.289   28.710   47.548
| 43> H  -20.733   27.082   49.195
| 44> H  -19.064   26.913   48.597
| 45> C  -23.430   25.483   45.442
| 46> H  -23.033   24.460   45.479
| 47> H  -24.476   25.457   45.774
| 48> O  -22.586   26.394   46.375
| 49> C  -23.415   25.959   43.963
| 50> C  -24.347   25.108   43.095
| 51> C  -25.731   25.711   43.436
| 52> C  -25.419   27.215   43.636
| 53> O  -23.961   27.316   43.856
| 54> H  -22.382   26.001   43.611
| 55> H  -24.113   25.254   42.034
| 56> O  -24.258   23.589   43.410
| 57> H  -26.474   25.539   42.651
| 58> H  -26.115   25.269   44.363
| 59> H  -25.943   27.641   44.499
| 60> H  -25.654   27.811   42.749
| 61> H  -24.490   23.418   44.467
| 62> *
| 63>
| 64>                          ****END OF INPUT****
 Total Charge           Charge          ....    0
 Multiplicity           Mult            ....    1
 Number of Electrons    NEL             ....  102
FINAL SINGLE POINT ENERGY      -652.827518469387
FINAL SINGLE POINT ENERGY      -652.851150593135
FINAL SINGLE POINT ENERGY      -652.855765349234
FINAL SINGLE POINT ENERGY      -652.856656473571
FINAL SINGLE POINT ENERGY      -652.856814032693
FINAL SINGLE POINT ENERGY      -652.856834138317
FINAL SINGLE POINT ENERGY      -652.856838388407
                    ***********************HURRAY********************

CARTESIAN COORDINATES (ANGSTROEM)
---------------------------------
  C    -21.054993   26.187672   46.203265
  C    -20.433742   27.551787   45.906245
  C    -20.428657   28.209945   47.305321
  C    -20.152699   27.019192   48.249352
  O    -20.467835   25.798498   47.463146
  H    -20.822670   25.392145   45.488474
  H    -19.410689   27.415983   45.534859
  H    -21.014069   28.111544   45.169675
  H    -19.676593   28.999419   47.397606
  H    -21.413273   28.641470   47.508304
  H    -20.776841   27.028448   49.146323
  H    -19.100629   26.940975   48.540190
  C    -23.333973   25.500643   45.522821
  H    -22.990535   24.455965   45.569665
  H    -24.323184   25.566995   45.986566
  O    -22.490127   26.344583   46.345831
  C    -23.379917   25.945563   44.057187
  C    -24.312878   25.092499   43.181759
  C    -25.703343   25.734781   43.474906
  C    -25.356741   27.230295   43.647563
  O    -23.895608   27.302765   43.903700
  H    -22.362235   25.966375   43.653866
  H    -24.047098   25.228424   42.131078
  O    -24.236500   23.662778   43.393334
  H    -26.419723   25.552785   42.669480
  H    -26.116989   25.308042   44.398300
  H    -25.887843   27.698399   44.482069
  H    -25.549803   27.807804   42.738427
  H    -24.692813   23.410226   44.221689

 Multiplicity           Mult            ....    1
 Number of Electrons    NEL             ....  102
 Basis Dimension        Dim             ....  149

ORBITAL ENERGIES
----------------

  NO   OCC          E(Eh)            E(eV)
   0   2.0000     -19.153658      -521.1975
   1   2.0000     -19.141316      -520.8617
   2   2.0000     -19.136328      -520.7259
   3   2.0000     -19.131738      -520.6011
   4   2.0000     -10.273065      -279.5443
   5   2.0000     -10.249202      -278.8950
   6   2.0000     -10.234279      -278.4889
   7   2.0000     -10.234148      -278.4853
   8   2.0000     -10.231939      -278.4252
   9   2.0000     -10.217589      -278.0347
  10   2.0000     -10.199572      -277.5445
  11   2.0000     -10.177341      -276.9395
  12   2.0000     -10.175857      -276.8991
  13   2.0000      -1.047267       -28.4976
  14   2.0000      -1.036664       -28.2091
  15   2.0000      -1.019206       -27.7340
  16   2.0000      -0.988772       -26.9059
  17   2.0000      -0.786703       -21.4073
  18   2.0000      -0.778974       -21.1970
  19   2.0000      -0.766312       -20.8524
  20   2.0000      -0.729087       -19.8395
  21   2.0000      -0.680065       -18.5055
  22   2.0000      -0.615585       -16.7509
  23   2.0000      -0.599941       -16.3252
  24   2.0000      -0.590187       -16.0598
  25   2.0000      -0.569395       -15.4940
  26   2.0000      -0.532425       -14.4880
  27   2.0000      -0.513620       -13.9763
  28   2.0000      -0.494570       -13.4579
  29   2.0000      -0.487304       -13.2602
  30   2.0000      -0.465724       -12.6730
  31   2.0000      -0.450682       -12.2637
  32   2.0000      -0.444765       -12.1027
  33   2.0000      -0.436983       -11.8909
  34   2.0000      -0.430805       -11.7228
  35   2.0000      -0.420180       -11.4337
  36   2.0000      -0.409722       -11.1491
  37   2.0000      -0.394399       -10.7321
  38   2.0000      -0.381711       -10.3869
  39   2.0000      -0.364299        -9.9131
  40   2.0000      -0.357543        -9.7292
  41   2.0000      -0.348743        -9.4898
  42   2.0000      -0.343819        -9.3558
  43   2.0000      -0.333696        -9.0803
  44   2.0000      -0.320280        -8.7153
  45   2.0000      -0.309536        -8.4229
  46   2.0000      -0.300374        -8.1736
  47   2.0000      -0.275570        -7.4987
  48   2.0000      -0.265900        -7.2355
  49   2.0000      -0.248473        -6.7613
  50   2.0000      -0.233873        -6.3640
  51   0.0000       0.048889         1.3303
  52   0.0000       0.075657         2.0587
  53   0.0000       0.084900         2.3103
  54   0.0000       0.092052         2.5049
  55   0.0000       0.099838         2.7167

MULLIKEN ATOMIC CHARGES
-----------------------
   0 C :    0.275966
   1 C :   -0.256527
   2 C :   -0.301448
   3 C :   -0.000512
   4 O :   -0.506784
   5 H :    0.139306
   6 H :    0.137567
   7 H :    0.168381
   8 H :    0.138502
   9 H :    0.165790
  10 H :    0.148410
  11 H :    0.138264
  12 C :   -0.027382
  13 H :    0.136533
  14 H :    0.145588
  15 O :   -0.500802
  16 C :    0.084064
  17 C :    0.087809
  18 C :   -0.327412
  19 C :   -0.010283
  20 O :   -0.509696
  21 H :    0.153082
  22 H :    0.167153
  23 O :   -0.600197
  24 H :    0.161802
  25 H :    0.133726
  26 H :    0.149581
  27 H :    0.151086
  28 H :    0.358436
Sum of atomic charges:    0.0000000

LOEWDIN ATOMIC CHARGES
----------------------
   0 C :    0.173088
   1 C :   -0.221808
   2 C :   -0.216443
   3 C :   -0.026621
   4 O :   -0.318813
   5 H :    0.097091
   6 H :    0.109975
   7 H :    0.127857
   8 H :    0.112542
   9 H :    0.121000
  10 H :    0.106210
  11 H :    0.100469
  12 C :   -0.049486
  13 H :    0.099543
  14 H :    0.109199
  15 O :   -0.318549
  16 C :    0.005610
  17 C :    0.035266
  18 C :   -0.241402
  19 C :   -0.029250
  20 O :   -0.318587
  21 H :    0.110815
  22 H :    0.119190
  23 O :   -0.407196
  24 H :    0.124206
  25 H :    0.104430
  26 H :    0.105552
  27 H :    0.106796
  28 H :    0.279314

  Mayer bond orders larger than 0.100000
B(  0-C ,  1-C ) :   0.9407 B(  0-C ,  4-O ) :   0.9255 B(  0-C ,  5-H ) :   0.9175
B(  0-C , 15-O ) :   0.8422 B(  1-C ,  2-C ) :   0.9569 B(  1-C ,  6-H ) :   0.9376
B(  1-C ,  7-H ) :   0.9320 B(  2-C ,  3-C ) :   0.9547 B(  2-C ,  8-H ) :   0.9455
B(  2-C ,  9-H ) :   0.9432 B(  3-C ,  4-O ) :   0.8392 B(  3-C , 10-H ) :   0.9354
B(  3-C , 11-H ) :   0.9400 B( 12-C , 13-H ) :   0.9035 B( 12-C , 14-H ) :   0.9395
B( 12-C , 15-O ) :   0.8739 B( 12-C , 16-C ) :   0.8812 B( 16-C , 17-C ) :   0.8710
B( 16-C , 20-O ) :   0.8653 B( 16-C , 21-H ) :   0.9300 B( 17-C , 18-C ) :   0.9223
B( 17-C , 22-H ) :   0.9326 B( 17-C , 23-O ) :   0.9003 B( 18-C , 19-C ) :   0.9390
B( 18-C , 24-H ) :   0.9411 B( 18-C , 25-H ) :   0.9413 B( 19-C , 20-O ) :   0.8464
B( 19-C , 26-H ) :   0.9309 B( 19-C , 27-H ) :   0.9373 B( 23-O , 28-H ) :   0.7968

FINAL SINGLE POINT ENERGY      -652.856838868785

DIPOLE MOMENT
-------------
                                X             Y             Z
Electronic contribution:      0.22462      -2.97626      -0.39347
Nuclear contribution   :     -0.97503       3.28022       0.12464
                        -----------------------------------------
Total Dipole Moment    :     -0.75042       0.30396      -0.26883
                        -----------------------------------------
Magnitude (a.u.)       :      0.85310
Magnitude (Debye)      :      2.16842

Rotational constants in cm-1:     0.058862     0.012680     0.011416
Rotational constants in MHz :  1764.642237   380.135575   342.233187

                             ****ORCA TERMINATED NORMALLY****
TOTAL RUN TIME: 0 days 1 hours 1 minutes 17 seconds 367 msec
