                         Program Version 4.2.0 -  RELEASE  -
|  1> # Test redundant internal optimization
|  2> #
|  3> ! RKS B3LYP  Opt TightSCF SmallPrint
|  4>
|  5> %basis
|  6>         Basis "6-31G"
|  7> end
|  8>
|  9> %geom
| 10> Constraints
| 11> { D 4  0  15  12  300.0   C } # D for Dihedral angle
| 12> { D 0  15  12  16  270.0   C } # D for Dihedral angle
| 13> { D 0  4  3  2   C } # D for Dihedral angle
| 14> { D 4  3  2  1   C } # D for Dihedral angle
| 15> { D 3  2  1  0   C } # D for Dihedral angle
| 16> { D 2  1  0  4   C } # D for Dihedral angle
| 17> { D 1  0  4  3   C } # D for Dihedral angle
| 18> { D 16  20  19  18   C } # D for Dihedral angle
| 19> { D 20  19  18  17   C } # D for Dihedral angle
| 20> { D 19  18  17  16   C } # D for Dihedral angle
| 21> { D 18  17  16  20   C } # D for Dihedral angle
| 22> { D 17  16  20  19   C } # D for Dihedral angle
| 23> { D 15  12  16  20   C } # D for Dihedral angle
| 24> end
| 25> end
| 26>
| 27>
| 28> #%pal
| 29> #nprocs 8
| 30> #end
| 31>
| 32> * xyz 0 1
| 33> C  -21.048   26.222   46.251
| 34> C  -20.361   27.558   45.944
| 35> C  -20.329   28.222   47.341
| 36> C  -20.110   27.022   48.296
| 37> O  -20.473   25.807   47.535
| 38> H  -20.833   25.428   45.533
| 39> H  -19.344   27.382   45.576
| 40> H  -20.898   28.157   45.201
| 41> H  -19.543   28.978   47.434
| 42> H  -21.289   28.710   47.548
| 43> H  -20.733   27.082   49.195
| 44> H  -19.064   26.913   48.597
| 45> C  -23.362   25.116   46.798
| 46> H  -22.719   24.498   47.437
| 47> H  -24.259   25.384   47.370
| 48> O  -22.586   26.394   46.375
| 49> C  -23.813   24.258   45.583
| 50> C  -24.644   25.086   44.596
| 51> C  -23.544   25.862   43.834
| 52> C  -22.377   24.846   43.768
| 53> O  -22.651   23.824   44.802
| 54> H  -24.309   23.357   45.947
| 55> O  -25.417   24.145   43.632
| 56> H  -25.367   25.746   45.088
| 57> H  -23.866   26.192   42.841
| 58> H  -23.249   26.753   44.403
| 59> H  -21.405   25.309   43.970
| 60> H  -22.329   24.326   42.807
| 61> H  -24.713   23.474   43.127
| 62> *
| 63>
| 64>                          ****END OF INPUT****
 Total Charge           Charge          ....    0
 Multiplicity           Mult            ....    1
 Number of Electrons    NEL             ....  102
FINAL SINGLE POINT ENERGY      -652.833692172785
FINAL SINGLE POINT ENERGY      -652.858830350116
FINAL SINGLE POINT ENERGY      -652.864730762970
FINAL SINGLE POINT ENERGY      -652.868131602732
FINAL SINGLE POINT ENERGY      -652.868570800705
FINAL SINGLE POINT ENERGY      -652.868620378585
FINAL SINGLE POINT ENERGY      -652.868625027646
FINAL SINGLE POINT ENERGY      -652.868624099488
                    ***********************HURRAY********************

CARTESIAN COORDINATES (ANGSTROEM)
---------------------------------
  C    -20.991679   26.237652   46.292474
  C    -20.348993   27.607490   46.077544
  C    -20.371258   28.193897   47.506654
  C    -20.130982   26.956924   48.399504
  O    -20.439189   25.776767   47.547747
  H    -20.763418   25.457537   45.566793
  H    -19.322070   27.471199   45.720148
  H    -20.899633   28.215200   45.356122
  H    -19.610931   28.966541   47.656484
  H    -21.353997   28.629848   47.707634
  H    -20.773351   26.932981   49.283460
  H    -19.087240   26.851174   48.709298
  C    -23.203571   25.261301   46.736271
  H    -22.602422   24.640691   47.409264
  H    -24.076656   25.628566   47.285930
  O    -22.429176   26.450077   46.382467
  C    -23.678821   24.417605   45.551662
  C    -24.632039   25.087355   44.548830
  C    -23.635694   25.769228   43.575246
  C    -22.450835   24.774143   43.528762
  O    -22.586908   23.897740   44.720027
  H    -24.175155   23.537933   45.981906
  O    -25.465561   24.096709   43.884651
  H    -25.329931   25.786665   45.009950
  H    -24.093248   25.934194   42.596525
  H    -23.321006   26.726259   43.998057
  H    -21.478694   25.274536   43.557511
  H    -22.478347   24.121092   42.650504
  H    -24.904195   23.349695   43.587574

 Multiplicity           Mult            ....    1
 Number of Electrons    NEL             ....  102
 Basis Dimension        Dim             ....  149

ORBITAL ENERGIES
----------------

  NO   OCC          E(Eh)            E(eV)
   0   2.0000     -19.146579      -521.0049
   1   2.0000     -19.145425      -520.9735
   2   2.0000     -19.142188      -520.8854
   3   2.0000     -19.135851      -520.7130
   4   2.0000     -10.275898      -279.6214
   5   2.0000     -10.237898      -278.5874
   6   2.0000     -10.233096      -278.4567
   7   2.0000     -10.230103      -278.3753
   8   2.0000     -10.226737      -278.2837
   9   2.0000     -10.226193      -278.2688
  10   2.0000     -10.186913      -277.2000
  11   2.0000     -10.186143      -277.1791
  12   2.0000     -10.181255      -277.0460
  13   2.0000      -1.054743       -28.7010
  14   2.0000      -1.034689       -28.1553
  15   2.0000      -1.005048       -27.3487
  16   2.0000      -0.991756       -26.9871
  17   2.0000      -0.790925       -21.5222
  18   2.0000      -0.776549       -21.1310
  19   2.0000      -0.766534       -20.8585
  20   2.0000      -0.731468       -19.9042
  21   2.0000      -0.673818       -18.3355
  22   2.0000      -0.602971       -16.4077
  23   2.0000      -0.600758       -16.3475
  24   2.0000      -0.597708       -16.2645
  25   2.0000      -0.571644       -15.5552
  26   2.0000      -0.524935       -14.2842
  27   2.0000      -0.507297       -13.8043
  28   2.0000      -0.496920       -13.5219
  29   2.0000      -0.488285       -13.2869
  30   2.0000      -0.468151       -12.7390
  31   2.0000      -0.460370       -12.5273
  32   2.0000      -0.446115       -12.1394
  33   2.0000      -0.443554       -12.0697
  34   2.0000      -0.416263       -11.3271
  35   2.0000      -0.412856       -11.2344
  36   2.0000      -0.398379       -10.8404
  37   2.0000      -0.391941       -10.6653
  38   2.0000      -0.376764       -10.2523
  39   2.0000      -0.364699        -9.9240
  40   2.0000      -0.362661        -9.8685
  41   2.0000      -0.357196        -9.7198
  42   2.0000      -0.345885        -9.4120
  43   2.0000      -0.334081        -9.0908
  44   2.0000      -0.328764        -8.9461
  45   2.0000      -0.307094        -8.3565
  46   2.0000      -0.298200        -8.1144
  47   2.0000      -0.278706        -7.5840
  48   2.0000      -0.265763        -7.2318
  49   2.0000      -0.257636        -7.0106
  50   2.0000      -0.240647        -6.5484
  51   0.0000       0.063998         1.7415
  52   0.0000       0.085598         2.3292
  53   0.0000       0.096573         2.6279
  54   0.0000       0.103695         2.8217
  55   0.0000       0.109637         2.9834

MULLIKEN ATOMIC CHARGES
-----------------------
   0 C :    0.277642
   1 C :   -0.265703
   2 C :   -0.298566
   3 C :   -0.005653
   4 O :   -0.513565
   5 H :    0.173329
   6 H :    0.146088
   7 H :    0.154304
   8 H :    0.141596
   9 H :    0.162695
  10 H :    0.147035
  11 H :    0.144127
  12 C :   -0.032445
  13 H :    0.174397
  14 H :    0.143888
  15 O :   -0.525542
  16 C :    0.072282
  17 C :    0.084196
  18 C :   -0.291830
  19 C :   -0.027042
  20 O :   -0.527574
  21 H :    0.154011
  22 O :   -0.605478
  23 H :    0.154998
  24 H :    0.152152
  25 H :    0.168583
  26 H :    0.136081
  27 H :    0.143203
  28 H :    0.362791
Sum of atomic charges:   -0.0000000

LOEWDIN ATOMIC CHARGES
----------------------
   0 C :    0.168369
   1 C :   -0.215982
   2 C :   -0.215899
   3 C :   -0.028370
   4 O :   -0.324067
   5 H :    0.109816
   6 H :    0.114768
   7 H :    0.121846
   8 H :    0.113620
   9 H :    0.119323
  10 H :    0.105253
  11 H :    0.103679
  12 C :   -0.047501
  13 H :    0.120113
  14 H :    0.112513
  15 O :   -0.334058
  16 C :    0.006260
  17 C :    0.038975
  18 C :   -0.241842
  19 C :   -0.036664
  20 O :   -0.333281
  21 H :    0.115533
  22 O :   -0.417229
  23 H :    0.117448
  24 H :    0.121026
  25 H :    0.126560
  26 H :    0.097589
  27 H :    0.100261
  28 H :    0.281942

  Mayer bond orders larger than 0.100000
B(  0-C ,  1-C ) :   0.9472 B(  0-C ,  4-O ) :   0.8952 B(  0-C ,  5-H ) :   0.9032
B(  0-C , 15-O ) :   0.8424 B(  1-C ,  2-C ) :   0.9542 B(  1-C ,  6-H ) :   0.9402
B(  1-C ,  7-H ) :   0.9361 B(  2-C ,  3-C ) :   0.9563 B(  2-C ,  8-H ) :   0.9452
B(  2-C ,  9-H ) :   0.9440 B(  3-C ,  4-O ) :   0.8354 B(  3-C , 10-H ) :   0.9359
B(  3-C , 11-H ) :   0.9405 B( 12-C , 13-H ) :   0.9103 B( 12-C , 14-H ) :   0.9303
B( 12-C , 15-O ) :   0.8618 B( 12-C , 16-C ) :   0.8905 B( 16-C , 17-C ) :   0.9064
B( 16-C , 20-O ) :   0.8612 B( 16-C , 21-H ) :   0.9176 B( 17-C , 18-C ) :   0.9230
B( 17-C , 22-O ) :   0.8892 B( 17-C , 23-H ) :   0.9357 B( 18-C , 19-C ) :   0.9426
B( 18-C , 24-H ) :   0.9369 B( 18-C , 25-H ) :   0.9216 B( 19-C , 20-O ) :   0.8418
B( 19-C , 26-H ) :   0.9285 B( 19-C , 27-H ) :   0.9395 B( 22-O , 28-H ) :   0.7963

FINAL SINGLE POINT ENERGY      -652.868622397292

DIPOLE MOMENT
-------------
                                X             Y             Z
Electronic contribution:     -2.57102      -4.91799      -0.21654
Nuclear contribution   :      3.14005       5.79746       0.20602
                        -----------------------------------------
Total Dipole Moment    :      0.56903       0.87948      -0.01052
                        -----------------------------------------
Magnitude (a.u.)       :      1.04756
Magnitude (Debye)      :      2.66269

Rotational constants in cm-1:     0.063865     0.013938     0.013461
Rotational constants in MHz :  1914.629218   417.840815   403.562723

                             ****ORCA TERMINATED NORMALLY****
TOTAL RUN TIME: 0 days 0 hours 22 minutes 32 seconds 817 msec
