                         Program Version 4.2.0 -  RELEASE  -
|  1> # Test redundant internal optimization
|  2> #
|  3> ! RKS B3LYP  Opt TightSCF SmallPrint
|  4>
|  5> %basis
|  6>         Basis "6-31G"
|  7> end
|  8>
|  9> %geom
| 10> Constraints
| 11> { D 4  0  15  12  30.0   C } # D for Dihedral angle
| 12> { D 0  15  12  16  90.0   C } # D for Dihedral angle
| 13> { D 0  4  3  2   C } # D for Dihedral angle
| 14> { D 4  3  2  1   C } # D for Dihedral angle
| 15> { D 3  2  1  0   C } # D for Dihedral angle
| 16> { D 2  1  0  4   C } # D for Dihedral angle
| 17> { D 1  0  4  3   C } # D for Dihedral angle
| 18> { D 16  20  19  18   C } # D for Dihedral angle
| 19> { D 20  19  18  17   C } # D for Dihedral angle
| 20> { D 19  18  17  16   C } # D for Dihedral angle
| 21> { D 18  17  16  20   C } # D for Dihedral angle
| 22> { D 17  16  20  19   C } # D for Dihedral angle
| 23> { D 15  12  16  20   C } # D for Dihedral angle
| 24> end
| 25> end
| 26>
| 27>
| 28> #%pal
| 29> #nprocs 8
| 30> #end
| 31>
| 32> * xyz 0 1
| 33> C  -21.048   26.222   46.251
| 34> C  -20.361   27.558   45.944
| 35> C  -20.329   28.222   47.341
| 36> C  -20.110   27.022   48.296
| 37> O  -20.473   25.807   47.535
| 38> H  -20.833   25.428   45.533
| 39> H  -19.344   27.382   45.576
| 40> H  -20.898   28.157   45.201
| 41> H  -19.543   28.978   47.434
| 42> H  -21.289   28.710   47.548
| 43> H  -20.733   27.082   49.195
| 44> H  -19.064   26.913   48.597
| 45> C  -23.091   26.824   47.779
| 46> H  -24.095   26.412   47.945
| 47> H  -22.428   26.435   48.562
| 48> O  -22.586   26.394   46.375
| 49> C  -23.163   28.367   47.945
| 50> C  -24.201   28.981   46.999
| 51> C  -25.522   28.684   47.748
| 52> C  -25.119   28.819   49.238
| 53> O  -23.645   28.717   49.286
| 54> H  -22.159   28.785   47.848
| 55> H  -24.039   30.062   46.914
| 56> O  -24.166   28.367   45.573
| 57> H  -26.330   29.369   47.471
| 58> H  -25.858   27.664   47.528
| 59> H  -25.554   28.031   49.862
| 60> H  -25.389   29.791   49.657
| 61> H  -24.326   27.285   45.634
| 62> *
| 63>
| 64>                          ****END OF INPUT****
 Total Charge           Charge          ....    0
 Multiplicity           Mult            ....    1
 Number of Electrons    NEL             ....  102
FINAL SINGLE POINT ENERGY      -652.770944276305
FINAL SINGLE POINT ENERGY      -652.825506995543
FINAL SINGLE POINT ENERGY      -652.848987379770
FINAL SINGLE POINT ENERGY      -652.855667988820
FINAL SINGLE POINT ENERGY      -652.857281371400
FINAL SINGLE POINT ENERGY      -652.858141324150
FINAL SINGLE POINT ENERGY      -652.858414525729
FINAL SINGLE POINT ENERGY      -652.858490380600
FINAL SINGLE POINT ENERGY      -652.858498430431
                    ***********************HURRAY********************

CARTESIAN COORDINATES (ANGSTROEM)
---------------------------------
  C    -21.153284   26.276321   46.439633
  C    -20.359313   27.463565   45.882215
  C    -19.937914   28.208753   47.179414
  C    -19.701364   27.051013   48.177362
  O    -20.401799   25.868267   47.595816
  H    -21.140302   25.423659   45.756631
  H    -19.486111   27.070506   45.352305
  H    -20.948379   28.083532   45.201247
  H    -19.030186   28.803502   47.034413
  H    -20.718450   28.891743   47.513106
  H    -20.105194   27.243270   49.175332
  H    -18.647168   26.774214   48.260587
  C    -23.206293   26.846864   47.926605
  H    -24.179381   26.349979   47.921441
  H    -22.622645   26.446902   48.762228
  O    -22.588730   26.443936   46.656669
  C    -23.369798   28.361666   48.090277
  C    -24.316097   29.011397   47.067202
  C    -25.708734   28.658392   47.660798
  C    -25.472690   28.722092   49.183521
  O    -23.992352   28.635749   49.386339
  H    -22.400745   28.855805   48.120393
  H    -24.176766   30.097082   47.081963
  O    -24.114374   28.593965   45.700274
  H    -26.481454   29.354085   47.323245
  H    -25.996824   27.654605   47.330315
  H    -25.949425   27.904435   49.732490
  H    -25.789973   29.673489   49.620114
  H    -23.700255   27.699214   45.683065

 Multiplicity           Mult            ....    1
 Number of Electrons    NEL             ....  102
 Basis Dimension        Dim             ....  149

ORBITAL ENERGIES
----------------

  NO   OCC          E(Eh)            E(eV)
   0   2.0000     -19.158663      -521.3337
   1   2.0000     -19.157348      -521.2979
   2   2.0000     -19.143373      -520.9177
   3   2.0000     -19.122063      -520.3378
   4   2.0000     -10.289679      -279.9964
   5   2.0000     -10.238242      -278.5967
   6   2.0000     -10.236513      -278.5497
   7   2.0000     -10.234830      -278.5039
   8   2.0000     -10.234425      -278.4929
   9   2.0000     -10.229370      -278.3553
  10   2.0000     -10.197869      -277.4981
  11   2.0000     -10.195309      -277.4285
  12   2.0000     -10.182756      -277.0869
  13   2.0000      -1.061932       -28.8966
  14   2.0000      -1.027692       -27.9649
  15   2.0000      -1.006904       -27.3993
  16   2.0000      -0.996958       -27.1286
  17   2.0000      -0.796564       -21.6756
  18   2.0000      -0.778529       -21.1848
  19   2.0000      -0.771708       -20.9993
  20   2.0000      -0.739394       -20.1199
  21   2.0000      -0.683556       -18.6005
  22   2.0000      -0.612443       -16.6654
  23   2.0000      -0.604376       -16.4459
  24   2.0000      -0.599517       -16.3137
  25   2.0000      -0.576805       -15.6957
  26   2.0000      -0.533478       -14.5167
  27   2.0000      -0.511003       -13.9051
  28   2.0000      -0.507158       -13.8005
  29   2.0000      -0.489618       -13.3232
  30   2.0000      -0.475939       -12.9510
  31   2.0000      -0.460538       -12.5319
  32   2.0000      -0.452523       -12.3138
  33   2.0000      -0.430857       -11.7242
  34   2.0000      -0.424914       -11.5625
  35   2.0000      -0.419173       -11.4063
  36   2.0000      -0.415956       -11.3187
  37   2.0000      -0.393616       -10.7108
  38   2.0000      -0.385525       -10.4907
  39   2.0000      -0.371030       -10.0962
  40   2.0000      -0.366910        -9.9841
  41   2.0000      -0.356065        -9.6890
  42   2.0000      -0.350324        -9.5328
  43   2.0000      -0.345330        -9.3969
  44   2.0000      -0.328220        -8.9313
  45   2.0000      -0.321171        -8.7395
  46   2.0000      -0.292580        -7.9615
  47   2.0000      -0.279196        -7.5973
  48   2.0000      -0.270329        -7.3560
  49   2.0000      -0.253462        -6.8970
  50   2.0000      -0.239953        -6.5294
  51   0.0000       0.057591         1.5671
  52   0.0000       0.068423         1.8619
  53   0.0000       0.082558         2.2465
  54   0.0000       0.091446         2.4884
  55   0.0000       0.102066         2.7774

MULLIKEN ATOMIC CHARGES
-----------------------
   0 C :    0.317120
   1 C :   -0.276647
   2 C :   -0.323150
   3 C :   -0.021144
   4 O :   -0.508244
   5 H :    0.169510
   6 H :    0.157165
   7 H :    0.165797
   8 H :    0.151371
   9 H :    0.161979
  10 H :    0.154549
  11 H :    0.156328
  12 C :   -0.042063
  13 H :    0.162164
  14 H :    0.175135
  15 O :   -0.562405
  16 C :    0.045354
  17 C :    0.110679
  18 C :   -0.301950
  19 C :   -0.020404
  20 O :   -0.522345
  21 H :    0.154571
  22 H :    0.150595
  23 O :   -0.637314
  24 H :    0.153965
  25 H :    0.144719
  26 H :    0.146220
  27 H :    0.148720
  28 H :    0.389724
Sum of atomic charges:    0.0000000

LOEWDIN ATOMIC CHARGES
----------------------
   0 C :    0.182844
   1 C :   -0.226967
   2 C :   -0.224414
   3 C :   -0.033010
   4 O :   -0.313315
   5 H :    0.112045
   6 H :    0.122671
   7 H :    0.127751
   8 H :    0.119631
   9 H :    0.112335
  10 H :    0.107791
  11 H :    0.109718
  12 C :   -0.048404
  13 H :    0.115614
  14 H :    0.120872
  15 O :   -0.343155
  16 C :    0.001790
  17 C :    0.039572
  18 C :   -0.237867
  19 C :   -0.031706
  20 O :   -0.325207
  21 H :    0.107114
  22 H :    0.107820
  23 O :   -0.432314
  24 H :    0.122289
  25 H :    0.111454
  26 H :    0.103854
  27 H :    0.106074
  28 H :    0.285119

  Mayer bond orders larger than 0.100000
B(  0-C ,  1-C ) :   0.9193 B(  0-C ,  4-O ) :   0.9228 B(  0-C ,  5-H ) :   0.9346
B(  0-C , 15-O ) :   0.8263 B(  1-C ,  2-C ) :   0.9547 B(  1-C ,  6-H ) :   0.9327
B(  1-C ,  7-H ) :   0.9309 B(  2-C ,  3-C ) :   0.9513 B(  2-C ,  8-H ) :   0.9430
B(  2-C ,  9-H ) :   0.9217 B(  3-C ,  4-O ) :   0.8277 B(  3-C , 10-H ) :   0.9324
B(  3-C , 11-H ) :   0.9390 B( 12-C , 13-H ) :   0.9364 B( 12-C , 14-H ) :   0.9209
B( 12-C , 15-O ) :   0.7984 B( 12-C , 16-C ) :   0.8810 B( 16-C , 17-C ) :   0.9113
B( 16-C , 20-O ) :   0.8461 B( 16-C , 21-H ) :   0.9086 B( 17-C , 18-C ) :   0.9025
B( 17-C , 22-H ) :   0.9332 B( 17-C , 23-O ) :   0.9311 B( 18-C , 19-C ) :   0.9377
B( 18-C , 24-H ) :   0.9437 B( 18-C , 25-H ) :   0.9433 B( 19-C , 20-O ) :   0.8307
B( 19-C , 26-H ) :   0.9338 B( 19-C , 27-H ) :   0.9387 B( 23-O , 28-H ) :   0.7268

FINAL SINGLE POINT ENERGY      -652.858498500277

DIPOLE MOMENT
-------------
                                X             Y             Z
Electronic contribution:     -0.46590      -2.72752      -0.42386
Nuclear contribution   :      0.90944       3.02320       0.62145
                        -----------------------------------------
Total Dipole Moment    :      0.44355       0.29569       0.19759
                        -----------------------------------------
Magnitude (a.u.)       :      0.56851
Magnitude (Debye)      :      1.44504

Rotational constants in cm-1:     0.049574     0.016243     0.014856
Rotational constants in MHz :  1486.188941   486.967513   445.370619

                             ****ORCA TERMINATED NORMALLY****
TOTAL RUN TIME: 0 days 0 hours 38 minutes 7 seconds 71 msec
