                         Program Version 4.2.0 -  RELEASE  -
|  1> # Test redundant internal optimization
|  2> #
|  3> ! RKS B3LYP  Opt TightSCF SmallPrint
|  4>
|  5> %basis
|  6>         Basis "6-31G"
|  7> end
|  8>
|  9> %geom
| 10> Constraints
| 11> { D 4  0  15  12  225.0   C } # D for Dihedral angle
| 12> { D 0  15  12  16  150.0   C } # D for Dihedral angle
| 13> { D 0  4  3  2   C } # D for Dihedral angle
| 14> { D 4  3  2  1   C } # D for Dihedral angle
| 15> { D 3  2  1  0   C } # D for Dihedral angle
| 16> { D 2  1  0  4   C } # D for Dihedral angle
| 17> { D 1  0  4  3   C } # D for Dihedral angle
| 18> { D 16  20  19  18   C } # D for Dihedral angle
| 19> { D 20  19  18  17   C } # D for Dihedral angle
| 20> { D 19  18  17  16   C } # D for Dihedral angle
| 21> { D 18  17  16  20   C } # D for Dihedral angle
| 22> { D 17  16  20  19   C } # D for Dihedral angle
| 23> { D 15  12  16  20   C } # D for Dihedral angle
| 24> end
| 25> end
| 26>
| 27>
| 28> #%pal
| 29> #nprocs 8
| 30> #end
| 31>
| 32> * xyz 0 1
| 33> C  -21.048   26.222   46.251
| 34> C  -20.361   27.558   45.944
| 35> C  -20.329   28.222   47.341
| 36> C  -20.110   27.022   48.296
| 37> O  -20.473   25.807   47.535
| 38> H  -20.833   25.428   45.533
| 39> H  -19.344   27.382   45.576
| 40> H  -20.898   28.157   45.201
| 41> H  -19.543   28.978   47.434
| 42> H  -21.289   28.710   47.548
| 43> H  -20.733   27.082   49.195
| 44> H  -19.064   26.913   48.597
| 45> C  -23.415   25.773   45.218
| 46> H  -23.543   26.519   44.423
| 47> H  -22.893   24.906   44.794
| 48> O  -22.586   26.394   46.375
| 49> C  -24.823   25.300   45.675
| 50> C  -25.567   24.589   44.539
| 51> C  -24.917   23.186   44.567
| 52> C  -24.652   22.952   46.075
| 53> O  -24.706   24.280   46.723
| 54> H  -25.361   26.145   46.109
| 55> O  -27.082   24.498   44.869
| 56> H  -25.454   25.090   43.571
| 57> H  -25.557   22.412   44.131
| 58> H  -23.975   23.196   44.006
| 59> H  -23.670   22.501   46.264
| 60> H  -25.422   22.333   46.544
| 61> H  -27.220   23.999   45.834
| 62> *
| 63>
| 64>                          ****END OF INPUT****
 Total Charge           Charge          ....    0
 Multiplicity           Mult            ....    1
 Number of Electrons    NEL             ....  102
FINAL SINGLE POINT ENERGY      -652.830537759609
FINAL SINGLE POINT ENERGY      -652.853518228498
FINAL SINGLE POINT ENERGY      -652.857287356292
FINAL SINGLE POINT ENERGY      -652.858001045873
FINAL SINGLE POINT ENERGY      -652.858096305312
FINAL SINGLE POINT ENERGY      -652.858107221857
                    ***********************HURRAY********************

CARTESIAN COORDINATES (ANGSTROEM)
---------------------------------
  C    -21.053478   26.191472   46.160800
  C    -20.429274   27.568166   45.940341
  C    -20.515132   28.189304   47.355241
  C    -20.284749   26.973677   48.279090
  O    -20.541094   25.775928   47.437828
  H    -20.773292   25.422514   45.433010
  H    -19.384145   27.451836   45.628583
  H    -20.958621   28.150841   45.181912
  H    -19.778050   28.981945   47.513636
  H    -21.514548   28.606042   47.511957
  H    -20.962721   26.948533   49.135386
  H    -19.251271   26.894796   48.629796
  C    -23.263523   25.740980   45.135665
  H    -23.422979   26.492498   44.346754
  H    -22.716464   24.893546   44.694641
  O    -22.499093   26.304359   46.227297
  C    -24.617340   25.282292   45.675223
  C    -25.515492   24.620248   44.620510
  C    -24.975499   23.166136   44.611156
  C    -24.594198   22.927347   46.093644
  O    -24.486349   24.267072   46.720784
  H    -25.114933   26.138086   46.140941
  O    -26.911686   24.672018   45.022410
  H    -25.481718   25.100591   43.641362
  H    -25.739780   22.474432   44.248131
  H    -24.101466   23.087213   43.955046
  H    -23.640390   22.403277   46.207864
  H    -25.363397   22.374821   46.642447
  H    -26.977319   24.454029   45.976548

 Multiplicity           Mult            ....    1
 Number of Electrons    NEL             ....  102
 Basis Dimension        Dim             ....  149

ORBITAL ENERGIES
----------------

  NO   OCC          E(Eh)            E(eV)
   0   2.0000     -19.139008      -520.7989
   1   2.0000     -19.138744      -520.7917
   2   2.0000     -19.138689      -520.7902
   3   2.0000     -19.135104      -520.6927
   4   2.0000     -10.277958      -279.6774
   5   2.0000     -10.243563      -278.7415
   6   2.0000     -10.236120      -278.5390
   7   2.0000     -10.233374      -278.4643
   8   2.0000     -10.228637      -278.3354
   9   2.0000     -10.220450      -278.1126
  10   2.0000     -10.190029      -277.2848
  11   2.0000     -10.183467      -277.1062
  12   2.0000     -10.182640      -277.0837
  13   2.0000      -1.050683       -28.5905
  14   2.0000      -1.035162       -28.1682
  15   2.0000      -1.005769       -27.3684
  16   2.0000      -0.991986       -26.9933
  17   2.0000      -0.787751       -21.4358
  18   2.0000      -0.780921       -21.2499
  19   2.0000      -0.767029       -20.8719
  20   2.0000      -0.728688       -19.8286
  21   2.0000      -0.674269       -18.3478
  22   2.0000      -0.604052       -16.4371
  23   2.0000      -0.596323       -16.2268
  24   2.0000      -0.589671       -16.0458
  25   2.0000      -0.586572       -15.9614
  26   2.0000      -0.525956       -14.3120
  27   2.0000      -0.510848       -13.9009
  28   2.0000      -0.492989       -13.4149
  29   2.0000      -0.486674       -13.2431
  30   2.0000      -0.475467       -12.9381
  31   2.0000      -0.458967       -12.4891
  32   2.0000      -0.452631       -12.3167
  33   2.0000      -0.439961       -11.9719
  34   2.0000      -0.425967       -11.5911
  35   2.0000      -0.407660       -11.0930
  36   2.0000      -0.398324       -10.8389
  37   2.0000      -0.393364       -10.7040
  38   2.0000      -0.373522       -10.1641
  39   2.0000      -0.371155       -10.0996
  40   2.0000      -0.355601        -9.6764
  41   2.0000      -0.354798        -9.6545
  42   2.0000      -0.349198        -9.5022
  43   2.0000      -0.332236        -9.0406
  44   2.0000      -0.309726        -8.4281
  45   2.0000      -0.308110        -8.3841
  46   2.0000      -0.303795        -8.2667
  47   2.0000      -0.271312        -7.3828
  48   2.0000      -0.261907        -7.1268
  49   2.0000      -0.246269        -6.7013
  50   2.0000      -0.241313        -6.5665
  51   0.0000       0.064839         1.7643
  52   0.0000       0.082313         2.2399
  53   0.0000       0.087126         2.3708
  54   0.0000       0.098539         2.6814
  55   0.0000       0.107752         2.9321

MULLIKEN ATOMIC CHARGES
-----------------------
   0 C :    0.292854
   1 C :   -0.257073
   2 C :   -0.300286
   3 C :   -0.000786
   4 O :   -0.498455
   5 H :    0.134688
   6 H :    0.141080
   7 H :    0.142271
   8 H :    0.139981
   9 H :    0.163286
  10 H :    0.156561
  11 H :    0.138891
  12 C :    0.002274
  13 H :    0.128035
  14 H :    0.121003
  15 O :   -0.506803
  16 C :    0.074028
  17 C :    0.073243
  18 C :   -0.294522
  19 C :   -0.032753
  20 O :   -0.504217
  21 H :    0.170238
  22 O :   -0.601834
  23 H :    0.148641
  24 H :    0.162675
  25 H :    0.141790
  26 H :    0.151784
  27 H :    0.147051
  28 H :    0.366355
Sum of atomic charges:   -0.0000000

LOEWDIN ATOMIC CHARGES
----------------------
   0 C :    0.179133
   1 C :   -0.225028
   2 C :   -0.216758
   3 C :   -0.025681
   4 O :   -0.308239
   5 H :    0.095096
   6 H :    0.111575
   7 H :    0.115379
   8 H :    0.113316
   9 H :    0.119773
  10 H :    0.110463
  11 H :    0.100906
  12 C :   -0.038657
  13 H :    0.093309
  14 H :    0.091216
  15 O :   -0.323303
  16 C :    0.017021
  17 C :    0.034598
  18 C :   -0.241907
  19 C :   -0.039144
  20 O :   -0.316346
  21 H :    0.121294
  22 O :   -0.414029
  23 H :    0.113816
  24 H :    0.126706
  25 H :    0.111358
  26 H :    0.106922
  27 H :    0.102890
  28 H :    0.284320

  Mayer bond orders larger than 0.100000
B(  0-C ,  1-C ) :   0.9369 B(  0-C ,  4-O ) :   0.9372 B(  0-C ,  5-H ) :   0.9182
B(  0-C , 15-O ) :   0.8384 B(  1-C ,  2-C ) :   0.9571 B(  1-C ,  6-H ) :   0.9356
B(  1-C ,  7-H ) :   0.9392 B(  2-C ,  3-C ) :   0.9545 B(  2-C ,  8-H ) :   0.9453
B(  2-C ,  9-H ) :   0.9434 B(  3-C ,  4-O ) :   0.8377 B(  3-C , 10-H ) :   0.9339
B(  3-C , 11-H ) :   0.9398 B( 12-C , 13-H ) :   0.9118 B( 12-C , 14-H ) :   0.9133
B( 12-C , 15-O ) :   0.8524 B( 12-C , 16-C ) :   0.8978 B( 16-C , 17-C ) :   0.8989
B( 16-C , 20-O ) :   0.8721 B( 16-C , 21-H ) :   0.9235 B( 17-C , 18-C ) :   0.9118
B( 17-C , 22-O ) :   0.8956 B( 17-C , 23-H ) :   0.9329 B( 18-C , 19-C ) :   0.9386
B( 18-C , 24-H ) :   0.9375 B( 18-C , 25-H ) :   0.9343 B( 19-C , 20-O ) :   0.8518
B( 19-C , 26-H ) :   0.9336 B( 19-C , 27-H ) :   0.9375 B( 22-O , 28-H ) :   0.7930

FINAL SINGLE POINT ENERGY      -652.858109115804

DIPOLE MOMENT
-------------
                                X             Y             Z
Electronic contribution:     -3.16411      -1.54085       1.79914
Nuclear contribution   :      3.82016       1.73423      -2.61325
                        -----------------------------------------
Total Dipole Moment    :      0.65605       0.19338      -0.81411
                        -----------------------------------------
Magnitude (a.u.)       :      1.06328
Magnitude (Debye)      :      2.70264

Rotational constants in cm-1:     0.066422     0.011468     0.010943
Rotational constants in MHz :  1991.290160   343.787299   328.050530

                             ****ORCA TERMINATED NORMALLY****
TOTAL RUN TIME: 0 days 0 hours 19 minutes 30 seconds 716 msec
