                         Program Version 4.2.0 -  RELEASE  -
|  1> # Test redundant internal optimization
|  2> #
|  3> ! RKS B3LYP  Opt TightSCF SmallPrint
|  4>
|  5> %basis
|  6>         Basis "6-31G"
|  7> end
|  8>
|  9> %geom
| 10> Constraints
| 11> { D 4  0  15  12  225.0   C } # D for Dihedral angle
| 12> { D 0  15  12  16  150.0   C } # D for Dihedral angle
| 13> { D 0  4  3  2   C } # D for Dihedral angle
| 14> { D 4  3  2  1   C } # D for Dihedral angle
| 15> { D 3  2  1  0   C } # D for Dihedral angle
| 16> { D 2  1  0  4   C } # D for Dihedral angle
| 17> { D 1  0  4  3   C } # D for Dihedral angle
| 18> { D 16  20  19  18   C } # D for Dihedral angle
| 19> { D 20  19  18  17   C } # D for Dihedral angle
| 20> { D 19  18  17  16   C } # D for Dihedral angle
| 21> { D 18  17  16  20   C } # D for Dihedral angle
| 22> { D 17  16  20  19   C } # D for Dihedral angle
| 23> { D 15  12  16  20   C } # D for Dihedral angle
| 24> end
| 25> end
| 26>
| 27>
| 28> #%pal
| 29> #nprocs 8
| 30> #end
| 31>
| 32> * xyz 0 1
| 33> C  -21.048   26.222   46.251
| 34> C  -20.361   27.558   45.944
| 35> C  -20.329   28.222   47.341
| 36> C  -20.110   27.022   48.296
| 37> O  -20.473   25.807   47.535
| 38> H  -20.833   25.428   45.533
| 39> H  -19.344   27.382   45.576
| 40> H  -20.898   28.157   45.201
| 41> H  -19.543   28.978   47.434
| 42> H  -21.289   28.710   47.548
| 43> H  -20.733   27.082   49.195
| 44> H  -19.064   26.913   48.597
| 45> C  -23.415   25.773   45.218
| 46> H  -23.543   26.519   44.423
| 47> H  -22.893   24.906   44.794
| 48> O  -22.586   26.394   46.375
| 49> C  -24.823   25.300   45.675
| 50> C  -24.727   24.319   46.849
| 51> C  -24.494   25.279   48.041
| 52> C  -25.336   26.522   47.661
| 53> O  -25.595   26.427   46.207
| 54> H  -25.370   24.917   44.811
| 55> H  -25.673   23.780   46.967
| 56> O  -23.587   23.278   46.684
| 57> H  -24.797   24.847   49.000
| 58> H  -23.431   25.540   48.111
| 59> H  -24.816   27.463   47.872
| 60> H  -26.310   26.536   48.160
| 61> H  -22.629   23.796   46.564
| 62> *
| 63>
| 64>                          ****END OF INPUT****
 Total Charge           Charge          ....    0
 Multiplicity           Mult            ....    1
 Number of Electrons    NEL             ....  102
FINAL SINGLE POINT ENERGY      -652.833071740252
FINAL SINGLE POINT ENERGY      -652.856524354537
FINAL SINGLE POINT ENERGY      -652.861502059503
FINAL SINGLE POINT ENERGY      -652.863722813774
FINAL SINGLE POINT ENERGY      -652.864015262285
FINAL SINGLE POINT ENERGY      -652.864074186034
FINAL SINGLE POINT ENERGY      -652.864076309767
                    ***********************HURRAY********************

CARTESIAN COORDINATES (ANGSTROEM)
---------------------------------
  C    -21.062916   26.216118   46.165143
  C    -20.368777   27.551089   45.896490
  C    -20.410160   28.217402   47.291901
  C    -20.236147   27.022455   48.254615
  O    -20.561788   25.810170   47.454696
  H    -20.827946   25.414539   45.456973
  H    -19.335527   27.368074   45.578708
  H    -20.876580   28.136180   45.125781
  H    -19.629804   28.972950   47.421877
  H    -21.383479   28.694306   47.440962
  H    -20.905824   27.061562   49.117055
  H    -19.205732   26.899535   48.600174
  C    -23.309216   25.823724   45.188468
  H    -23.434856   26.568693   44.392453
  H    -22.818125   24.933530   44.769449
  O    -22.498654   26.388774   46.260840
  C    -24.681455   25.412093   45.708821
  C    -24.664409   24.353062   46.825092
  C    -24.477623   25.233153   48.101253
  C    -25.278109   26.506035   47.750525
  O    -25.457600   26.505735   46.275791
  H    -25.249499   25.056886   44.839706
  H    -25.618612   23.821944   46.844311
  O    -23.654003   23.327447   46.655498
  H    -24.854872   24.735411   48.999704
  H    -23.416669   25.458517   48.225359
  H    -24.756518   27.423303   48.037807
  H    -26.280255   26.507394   48.189963
  H    -22.794847   23.656914   46.993585

 Multiplicity           Mult            ....    1
 Number of Electrons    NEL             ....  102
 Basis Dimension        Dim             ....  149

ORBITAL ENERGIES
----------------

  NO   OCC          E(Eh)            E(eV)
   0   2.0000     -19.150215      -521.1039
   1   2.0000     -19.149578      -521.0865
   2   2.0000     -19.134613      -520.6793
   3   2.0000     -19.130071      -520.5557
   4   2.0000     -10.288113      -279.9538
   5   2.0000     -10.232444      -278.4390
   6   2.0000     -10.232349      -278.4364
   7   2.0000     -10.231809      -278.4217
   8   2.0000     -10.227100      -278.2935
   9   2.0000     -10.218068      -278.0478
  10   2.0000     -10.191492      -277.3246
  11   2.0000     -10.191375      -277.3214
  12   2.0000     -10.174727      -276.8684
  13   2.0000      -1.061579       -28.8870
  14   2.0000      -1.023252       -27.8441
  15   2.0000      -1.005500       -27.3611
  16   2.0000      -0.999144       -27.1881
  17   2.0000      -0.792888       -21.5756
  18   2.0000      -0.771115       -20.9831
  19   2.0000      -0.762361       -20.7449
  20   2.0000      -0.734629       -19.9903
  21   2.0000      -0.676255       -18.4018
  22   2.0000      -0.605736       -16.4829
  23   2.0000      -0.600684       -16.3454
  24   2.0000      -0.596435       -16.2298
  25   2.0000      -0.570704       -15.5296
  26   2.0000      -0.527878       -14.3643
  27   2.0000      -0.504210       -13.7202
  28   2.0000      -0.500429       -13.6174
  29   2.0000      -0.489462       -13.3189
  30   2.0000      -0.473590       -12.8870
  31   2.0000      -0.453327       -12.3356
  32   2.0000      -0.449451       -12.2302
  33   2.0000      -0.429592       -11.6898
  34   2.0000      -0.422277       -11.4907
  35   2.0000      -0.409584       -11.1453
  36   2.0000      -0.406268       -11.0551
  37   2.0000      -0.398413       -10.8414
  38   2.0000      -0.374696       -10.1960
  39   2.0000      -0.367587       -10.0026
  40   2.0000      -0.362143        -9.8544
  41   2.0000      -0.355536        -9.6746
  42   2.0000      -0.349723        -9.5164
  43   2.0000      -0.323304        -8.7975
  44   2.0000      -0.320772        -8.7287
  45   2.0000      -0.310848        -8.4586
  46   2.0000      -0.305759        -8.3201
  47   2.0000      -0.273559        -7.4439
  48   2.0000      -0.258920        -7.0456
  49   2.0000      -0.256758        -6.9867
  50   2.0000      -0.234713        -6.3869
  51   0.0000       0.065130         1.7723
  52   0.0000       0.081358         2.2139
  53   0.0000       0.087707         2.3866
  54   0.0000       0.098576         2.6824
  55   0.0000       0.107587         2.9276

MULLIKEN ATOMIC CHARGES
-----------------------
   0 C :    0.282549
   1 C :   -0.253735
   2 C :   -0.301674
   3 C :   -0.004791
   4 O :   -0.513923
   5 H :    0.144630
   6 H :    0.145142
   7 H :    0.152132
   8 H :    0.145110
   9 H :    0.165833
  10 H :    0.151336
  11 H :    0.145722
  12 C :   -0.015273
  13 H :    0.147713
  14 H :    0.137253
  15 O :   -0.525836
  16 C :    0.090930
  17 C :    0.093232
  18 C :   -0.322928
  19 C :    0.001812
  20 O :   -0.522115
  21 H :    0.146927
  22 H :    0.157654
  23 O :   -0.616574
  24 H :    0.137997
  25 H :    0.179079
  26 H :    0.141763
  27 H :    0.139225
  28 H :    0.370808
Sum of atomic charges:   -0.0000000

LOEWDIN ATOMIC CHARGES
----------------------
   0 C :    0.172664
   1 C :   -0.222236
   2 C :   -0.216342
   3 C :   -0.026559
   4 O :   -0.321127
   5 H :    0.098801
   6 H :    0.114115
   7 H :    0.120883
   8 H :    0.116070
   9 H :    0.120845
  10 H :    0.107223
  11 H :    0.104341
  12 C :   -0.044569
  13 H :    0.103955
  14 H :    0.102395
  15 O :   -0.334338
  16 C :    0.017912
  17 C :    0.039487
  18 C :   -0.245052
  19 C :   -0.023011
  20 O :   -0.323667
  21 H :    0.113181
  22 H :    0.113576
  23 O :   -0.416668
  24 H :    0.112166
  25 H :    0.127201
  26 H :    0.103126
  27 H :    0.099820
  28 H :    0.285807

  Mayer bond orders larger than 0.100000
B(  0-C ,  1-C ) :   0.9395 B(  0-C ,  4-O ) :   0.9166 B(  0-C ,  5-H ) :   0.9162
B(  0-C , 15-O ) :   0.8398 B(  1-C ,  2-C ) :   0.9547 B(  1-C ,  6-H ) :   0.9347
B(  1-C ,  7-H ) :   0.9378 B(  2-C ,  3-C ) :   0.9554 B(  2-C ,  8-H ) :   0.9446
B(  2-C ,  9-H ) :   0.9427 B(  3-C ,  4-O ) :   0.8311 B(  3-C , 10-H ) :   0.9347
B(  3-C , 11-H ) :   0.9397 B( 12-C , 13-H ) :   0.9231 B( 12-C , 14-H ) :   0.9000
B( 12-C , 15-O ) :   0.8305 B( 12-C , 16-C ) :   0.9164 B( 16-C , 17-C ) :   0.8849
B( 16-C , 20-O ) :   0.8828 B( 16-C , 21-H ) :   0.9271 B( 17-C , 18-C ) :   0.9380
B( 17-C , 22-H ) :   0.9366 B( 17-C , 23-O ) :   0.8983 B( 18-C , 19-C ) :   0.9456
B( 18-C , 24-H ) :   0.9420 B( 18-C , 25-H ) :   0.9192 B( 19-C , 20-O ) :   0.8368
B( 19-C , 26-H ) :   0.9339 B( 19-C , 27-H ) :   0.9385 B( 23-O , 28-H ) :   0.7881

FINAL SINGLE POINT ENERGY      -652.864062744893

DIPOLE MOMENT
-------------
                                X             Y             Z
Electronic contribution:     -2.54359      -3.46028      -1.67135
Nuclear contribution   :      3.47156       4.28452       1.77543
                        -----------------------------------------
Total Dipole Moment    :      0.92797       0.82424       0.10407
                        -----------------------------------------
Magnitude (a.u.)       :      1.24552
Magnitude (Debye)      :      3.16587

Rotational constants in cm-1:     0.044726     0.016488     0.015991
Rotational constants in MHz :  1340.862138   494.300749   479.410656

                             ****ORCA TERMINATED NORMALLY****
TOTAL RUN TIME: 0 days 0 hours 32 minutes 43 seconds 673 msec
