                         Program Version 4.2.0 -  RELEASE  -
|  1> # Test redundant internal optimization
|  2> #
|  3> ! RKS B3LYP  Opt TightSCF SmallPrint
|  4>
|  5> %basis
|  6>         Basis "6-31G"
|  7> end
|  8>
|  9> %geom
| 10> Constraints
| 11> { D 4  0  15  12  135.0   C } # D for Dihedral angle
| 12> { D 0  15  12  16  105.0   C } # D for Dihedral angle
| 13> { D 0  4  3  2   C } # D for Dihedral angle
| 14> { D 4  3  2  1   C } # D for Dihedral angle
| 15> { D 3  2  1  0   C } # D for Dihedral angle
| 16> { D 2  1  0  4   C } # D for Dihedral angle
| 17> { D 1  0  4  3   C } # D for Dihedral angle
| 18> { D 16  20  19  18   C } # D for Dihedral angle
| 19> { D 20  19  18  17   C } # D for Dihedral angle
| 20> { D 19  18  17  16   C } # D for Dihedral angle
| 21> { D 18  17  16  20   C } # D for Dihedral angle
| 22> { D 17  16  20  19   C } # D for Dihedral angle
| 23> { D 15  12  16  20   C } # D for Dihedral angle
| 24> end
| 25> end
| 26>
| 27>
| 28> #%pal
| 29> #nprocs 8
| 30> #end
| 31>
| 32> * xyz 0 1
| 33> C  -21.048   26.222   46.251
| 34> C  -20.361   27.558   45.944
| 35> C  -20.329   28.222   47.341
| 36> C  -20.110   27.022   48.296
| 37> O  -20.473   25.807   47.535
| 38> H  -20.833   25.428   45.533
| 39> H  -19.344   27.382   45.576
| 40> H  -20.898   28.157   45.201
| 41> H  -19.543   28.978   47.434
| 42> H  -21.289   28.710   47.548
| 43> H  -20.733   27.082   49.195
| 44> H  -19.064   26.913   48.597
| 45> C  -23.162   27.680   45.721
| 46> H  -23.872   28.151   46.411
| 47> H  -22.358   28.398   45.513
| 48> O  -22.586   26.394   46.375
| 49> C  -23.898   27.394   44.382
| 50> C  -24.351   28.694   43.708
| 51> C  -23.036   29.185   43.058
| 52> C  -22.339   27.867   42.637
| 53> O  -22.982   26.785   43.413
| 54> H  -24.700   26.675   44.561
| 55> H  -25.104   28.479   42.942
| 56> O  -24.949   29.723   44.707
| 57> H  -23.206   29.856   42.210
| 58> H  -22.429   29.724   43.796
| 59> H  -21.264   27.874   42.853
| 60> H  -22.486   27.637   41.578
| 61> H  -24.213   29.955   45.483
| 62> *
| 63>
| 64>                          ****END OF INPUT****
 Total Charge           Charge          ....    0
 Multiplicity           Mult            ....    1
 Number of Electrons    NEL             ....  102
FINAL SINGLE POINT ENERGY      -652.812902354466
FINAL SINGLE POINT ENERGY      -652.837627042475
FINAL SINGLE POINT ENERGY      -652.846999586062
FINAL SINGLE POINT ENERGY      -652.848663578672
FINAL SINGLE POINT ENERGY      -652.848966683958
FINAL SINGLE POINT ENERGY      -652.849051830624
FINAL SINGLE POINT ENERGY      -652.849064069153
FINAL SINGLE POINT ENERGY      -652.849068199544
                    ***********************HURRAY********************

CARTESIAN COORDINATES (ANGSTROEM)
---------------------------------
  C    -21.068371   26.292906   46.266039
  C    -20.133801   27.480533   46.025942
  C    -20.098274   28.153502   47.424266
  C    -20.176894   26.941396   48.380584
  O    -20.688053   25.814236   47.568787
  H    -20.930946   25.459824   45.575998
  H    -19.146270   27.080158   45.771369
  H    -20.433886   28.149807   45.216987
  H    -19.193327   28.749055   47.578414
  H    -20.963821   28.812690   47.556149
  H    -20.851682   27.105435   49.225074
  H    -19.194955   26.640644   48.757760
  C    -23.094764   27.776474   45.745509
  H    -23.841144   28.115388   46.473452
  H    -22.360118   28.578724   45.606947
  O    -22.497242   26.579546   46.296354
  C    -23.796108   27.431791   44.430616
  C    -24.447879   28.621477   43.704230
  C    -23.233245   29.236715   42.948640
  C    -22.398218   27.992938   42.571677
  O    -22.858656   26.885433   43.448647
  H    -24.509321   26.629324   44.635425
  H    -25.192690   28.252852   42.995891
  O    -25.176714   29.544336   44.549486
  H    -23.539379   29.824433   42.079470
  H    -22.680946   29.901102   43.627712
  H    -21.322212   28.141177   42.714632
  H    -22.572483   27.675914   41.538925
  H    -24.558604   30.084192   45.084017

 Multiplicity           Mult            ....    1
 Number of Electrons    NEL             ....  102
 Basis Dimension        Dim             ....  149

ORBITAL ENERGIES
----------------

  NO   OCC          E(Eh)            E(eV)
   0   2.0000     -19.153466      -521.1923
   1   2.0000     -19.143318      -520.9162
   2   2.0000     -19.134834      -520.6853
   3   2.0000     -19.133396      -520.6462
   4   2.0000     -10.275352      -279.6065
   5   2.0000     -10.248561      -278.8775
   6   2.0000     -10.236827      -278.5582
   7   2.0000     -10.233646      -278.4717
   8   2.0000     -10.230131      -278.3760
   9   2.0000     -10.224927      -278.2344
  10   2.0000     -10.200840      -277.5790
  11   2.0000     -10.193415      -277.3769
  12   2.0000     -10.192911      -277.3632
  13   2.0000      -1.047905       -28.5149
  14   2.0000      -1.036657       -28.2089
  15   2.0000      -1.019742       -27.7486
  16   2.0000      -0.987946       -26.8834
  17   2.0000      -0.789490       -21.4831
  18   2.0000      -0.787255       -21.4223
  19   2.0000      -0.771191       -20.9852
  20   2.0000      -0.732948       -19.9445
  21   2.0000      -0.686893       -18.6913
  22   2.0000      -0.616139       -16.7660
  23   2.0000      -0.604384       -16.4461
  24   2.0000      -0.596833       -16.2406
  25   2.0000      -0.570059       -15.5121
  26   2.0000      -0.532283       -14.4841
  27   2.0000      -0.511367       -13.9150
  28   2.0000      -0.505796       -13.7634
  29   2.0000      -0.493588       -13.4312
  30   2.0000      -0.471315       -12.8251
  31   2.0000      -0.461411       -12.5556
  32   2.0000      -0.448478       -12.2037
  33   2.0000      -0.439155       -11.9500
  34   2.0000      -0.429536       -11.6883
  35   2.0000      -0.421627       -11.4731
  36   2.0000      -0.407911       -11.0998
  37   2.0000      -0.401378       -10.9221
  38   2.0000      -0.383434       -10.4338
  39   2.0000      -0.380754       -10.3608
  40   2.0000      -0.362958        -9.8766
  41   2.0000      -0.356564        -9.7026
  42   2.0000      -0.353665        -9.6237
  43   2.0000      -0.335494        -9.1292
  44   2.0000      -0.319428        -8.6921
  45   2.0000      -0.310992        -8.4625
  46   2.0000      -0.289412        -7.8753
  47   2.0000      -0.273960        -7.4548
  48   2.0000      -0.267259        -7.2725
  49   2.0000      -0.254006        -6.9119
  50   2.0000      -0.235111        -6.3977
  51   0.0000       0.042376         1.1531
  52   0.0000       0.057359         1.5608
  53   0.0000       0.084388         2.2963
  54   0.0000       0.092227         2.5096
  55   0.0000       0.101097         2.7510

MULLIKEN ATOMIC CHARGES
-----------------------
   0 C :    0.325109
   1 C :   -0.303957
   2 C :   -0.305982
   3 C :    0.001387
   4 O :   -0.494411
   5 H :    0.166813
   6 H :    0.156353
   7 H :    0.142199
   8 H :    0.143804
   9 H :    0.146394
  10 H :    0.149884
  11 H :    0.142685
  12 C :   -0.022907
  13 H :    0.152888
  14 H :    0.108015
  15 O :   -0.517874
  16 C :    0.093959
  17 C :    0.084521
  18 C :   -0.325440
  19 C :   -0.017099
  20 O :   -0.511872
  21 H :    0.171412
  22 H :    0.170717
  23 O :   -0.597029
  24 H :    0.161600
  25 H :    0.129142
  26 H :    0.141910
  27 H :    0.153658
  28 H :    0.354122
Sum of atomic charges:    0.0000000

LOEWDIN ATOMIC CHARGES
----------------------
   0 C :    0.188484
   1 C :   -0.232695
   2 C :   -0.220763
   3 C :   -0.027818
   4 O :   -0.308516
   5 H :    0.111202
   6 H :    0.122885
   7 H :    0.110949
   8 H :    0.114946
   9 H :    0.107854
  10 H :    0.106635
  11 H :    0.102875
  12 C :   -0.049404
  13 H :    0.111642
  14 H :    0.084596
  15 O :   -0.322701
  16 C :    0.011758
  17 C :    0.034744
  18 C :   -0.242275
  19 C :   -0.032920
  20 O :   -0.319679
  21 H :    0.123248
  22 H :    0.121075
  23 O :   -0.405846
  24 H :    0.124388
  25 H :    0.101442
  26 H :    0.099196
  27 H :    0.107828
  28 H :    0.276873

  Mayer bond orders larger than 0.100000
B(  0-C ,  1-C ) :   0.9326 B(  0-C ,  4-O ) :   0.9172 B(  0-C ,  5-H ) :   0.9258
B(  0-C , 15-O ) :   0.8503 B(  1-C ,  2-C ) :   0.9477 B(  1-C ,  6-H ) :   0.9341
B(  1-C ,  7-H ) :   0.9257 B(  2-C ,  3-C ) :   0.9513 B(  2-C ,  8-H ) :   0.9457
B(  2-C ,  9-H ) :   0.9445 B(  3-C ,  4-O ) :   0.8463 B(  3-C , 10-H ) :   0.9341
B(  3-C , 11-H ) :   0.9395 B( 12-C , 13-H ) :   0.9183 B( 12-C , 14-H ) :   0.9089
B( 12-C , 15-O ) :   0.8704 B( 12-C , 16-C ) :   0.8913 B( 16-C , 17-C ) :   0.8679
B( 16-C , 20-O ) :   0.8634 B( 16-C , 21-H ) :   0.9285 B( 17-C , 18-C ) :   0.9199
B( 17-C , 22-H ) :   0.9316 B( 17-C , 23-O ) :   0.9000 B( 18-C , 19-C ) :   0.9387
B( 18-C , 24-H ) :   0.9412 B( 18-C , 25-H ) :   0.9415 B( 19-C , 20-O ) :   0.8494
B( 19-C , 26-H ) :   0.9285 B( 19-C , 27-H ) :   0.9374 B( 23-O , 28-H ) :   0.7990

FINAL SINGLE POINT ENERGY      -652.849069021700

DIPOLE MOMENT
-------------
                                X             Y             Z
Electronic contribution:     -4.09244      -5.20259       0.45409
Nuclear contribution   :      5.11555       7.04429      -0.95529
                        -----------------------------------------
Total Dipole Moment    :      1.02312       1.84170      -0.50121
                        -----------------------------------------
Magnitude (a.u.)       :      2.16560
Magnitude (Debye)      :      5.50453

Rotational constants in cm-1:     0.052212     0.013957     0.013356
Rotational constants in MHz :  1565.276968   418.426629   400.402979

                             ****ORCA TERMINATED NORMALLY****
TOTAL RUN TIME: 0 days 0 hours 41 minutes 20 seconds 40 msec
