                         Program Version 4.2.0 -  RELEASE  -
|  1> # Test redundant internal optimization
|  2> #
|  3> ! RKS B3LYP  Opt TightSCF SmallPrint
|  4>
|  5> %basis
|  6>         Basis "6-31G"
|  7> end
|  8>
|  9> %geom
| 10> Constraints
| 11> { D 4  0  15  12  90.0   C } # D for Dihedral angle
| 12> { D 0  15  12  16  210.0   C } # D for Dihedral angle
| 13> { D 0  4  3  2   C } # D for Dihedral angle
| 14> { D 4  3  2  1   C } # D for Dihedral angle
| 15> { D 3  2  1  0   C } # D for Dihedral angle
| 16> { D 2  1  0  4   C } # D for Dihedral angle
| 17> { D 1  0  4  3   C } # D for Dihedral angle
| 18> { D 16  20  19  18   C } # D for Dihedral angle
| 19> { D 20  19  18  17   C } # D for Dihedral angle
| 20> { D 19  18  17  16   C } # D for Dihedral angle
| 21> { D 18  17  16  20   C } # D for Dihedral angle
| 22> { D 17  16  20  19   C } # D for Dihedral angle
| 23> { D 15  12  16  20   C } # D for Dihedral angle
| 24> end
| 25> end
| 26>
| 27>
| 28> #%pal
| 29> #nprocs 8
| 30> #end
| 31>
| 32> * xyz 0 1
| 33> C  -21.048   26.222   46.251
| 34> C  -20.361   27.558   45.944
| 35> C  -20.329   28.222   47.341
| 36> C  -20.110   27.022   48.296
| 37> O  -20.473   25.807   47.535
| 38> H  -20.833   25.428   45.533
| 39> H  -19.344   27.382   45.576
| 40> H  -20.898   28.157   45.201
| 41> H  -19.543   28.978   47.434
| 42> H  -21.289   28.710   47.548
| 43> H  -20.733   27.082   49.195
| 44> H  -19.064   26.913   48.597
| 45> C  -23.061   27.816   46.783
| 46> H  -22.289   28.291   47.402
| 47> H  -23.218   28.438   45.893
| 48> O  -22.586   26.394   46.375
| 49> C  -24.390   27.797   47.588
| 50> C  -24.888   29.218   47.873
| 51> C  -25.533   29.601   46.521
| 52> C  -26.135   28.262   46.026
| 53> O  -25.463   27.191   46.792
| 54> H  -24.261   27.176   48.477
| 55> O  -25.954   29.193   49.002
| 56> H  -24.086   29.903   48.171
| 57> H  -26.289   30.388   46.618
| 58> H  -24.765   29.960   45.825
| 59> H  -25.966   28.097   44.956
| 60> H  -27.206   28.184   46.233
| 61> H  -26.768   28.513   48.725
| 62> *
| 63>
| 64>                          ****END OF INPUT****
 Total Charge           Charge          ....    0
 Multiplicity           Mult            ....    1
 Number of Electrons    NEL             ....  102
FINAL SINGLE POINT ENERGY      -652.787251204526
FINAL SINGLE POINT ENERGY      -652.826471625668
FINAL SINGLE POINT ENERGY      -652.846054322882
FINAL SINGLE POINT ENERGY      -652.849858173549
FINAL SINGLE POINT ENERGY      -652.850466598387
FINAL SINGLE POINT ENERGY      -652.850583945567
FINAL SINGLE POINT ENERGY      -652.850602213203
FINAL SINGLE POINT ENERGY      -652.850605458349
FINAL SINGLE POINT ENERGY      -652.850604098471
                    ***********************HURRAY********************

CARTESIAN COORDINATES (ANGSTROEM)
---------------------------------
  C    -21.219985   26.385262   46.420222
  C    -20.199995   27.437276   45.956896
  C    -19.837837   28.152782   47.293469
  C    -19.895877   26.989842   48.318065
  O    -20.673919   25.907237   47.672356
  H    -21.241566   25.506047   45.774290
  H    -19.326736   26.916517   45.552146
  H    -20.590442   28.112156   45.189671
  H    -18.843818   28.610229   47.258491
  H    -20.550964   28.945347   47.531279
  H    -20.380062   27.268789   49.258991
  H    -18.904440   26.582816   48.536662
  C    -23.110791   28.053624   46.811798
  H    -22.456295   28.574581   47.520210
  H    -23.189536   28.659085   45.898474
  O    -22.616780   26.730495   46.476287
  C    -24.471837   27.876056   47.485978
  C    -25.154063   29.197797   47.869108
  C    -25.826161   29.607278   46.531219
  C    -26.242654   28.245449   45.921295
  O    -25.446261   27.209356   46.620746
  H    -24.337029   27.225113   48.354714
  O    -26.133397   28.987961   48.922209
  H    -24.471822   29.955637   48.258238
  H    -26.674317   30.271641   46.715511
  H    -25.109351   30.131645   45.889539
  H    -26.043222   28.182526   44.846877
  H    -27.298379   28.013352   46.094290
  H    -26.635466   28.167106   48.731966

 Multiplicity           Mult            ....    1
 Number of Electrons    NEL             ....  102
 Basis Dimension        Dim             ....  149

ORBITAL ENERGIES
----------------

  NO   OCC          E(Eh)            E(eV)
   0   2.0000     -19.141283      -520.8608
   1   2.0000     -19.139605      -520.8151
   2   2.0000     -19.139539      -520.8133
   3   2.0000     -19.138623      -520.7884
   4   2.0000     -10.277582      -279.6672
   5   2.0000     -10.244582      -278.7693
   6   2.0000     -10.236853      -278.5589
   7   2.0000     -10.234165      -278.4858
   8   2.0000     -10.230113      -278.3755
   9   2.0000     -10.228992      -278.3450
  10   2.0000     -10.196333      -277.4563
  11   2.0000     -10.195046      -277.4213
  12   2.0000     -10.191162      -277.3156
  13   2.0000      -1.050195       -28.5773
  14   2.0000      -1.036039       -28.1921
  15   2.0000      -1.006817       -27.3969
  16   2.0000      -0.994549       -27.0631
  17   2.0000      -0.790686       -21.5157
  18   2.0000      -0.787118       -21.4186
  19   2.0000      -0.771717       -20.9995
  20   2.0000      -0.733535       -19.9605
  21   2.0000      -0.680779       -18.5249
  22   2.0000      -0.608065       -16.5463
  23   2.0000      -0.604937       -16.4612
  24   2.0000      -0.599005       -16.2998
  25   2.0000      -0.576818       -15.6960
  26   2.0000      -0.524095       -14.2614
  27   2.0000      -0.514401       -13.9976
  28   2.0000      -0.502098       -13.6628
  29   2.0000      -0.490826       -13.3561
  30   2.0000      -0.477555       -12.9949
  31   2.0000      -0.462373       -12.5818
  32   2.0000      -0.449025       -12.2186
  33   2.0000      -0.439963       -11.9720
  34   2.0000      -0.429869       -11.6973
  35   2.0000      -0.418537       -11.3890
  36   2.0000      -0.405124       -11.0240
  37   2.0000      -0.394203       -10.7268
  38   2.0000      -0.384701       -10.4682
  39   2.0000      -0.373330       -10.1588
  40   2.0000      -0.365015        -9.9326
  41   2.0000      -0.360734        -9.8161
  42   2.0000      -0.349996        -9.5239
  43   2.0000      -0.331859        -9.0304
  44   2.0000      -0.313954        -8.5431
  45   2.0000      -0.308396        -8.3919
  46   2.0000      -0.292715        -7.9652
  47   2.0000      -0.272603        -7.4179
  48   2.0000      -0.268899        -7.3171
  49   2.0000      -0.252607        -6.8738
  50   2.0000      -0.241941        -6.5836
  51   0.0000       0.060658         1.6506
  52   0.0000       0.073531         2.0009
  53   0.0000       0.081190         2.2093
  54   0.0000       0.095765         2.6059
  55   0.0000       0.101504         2.7621

MULLIKEN ATOMIC CHARGES
-----------------------
   0 C :    0.302568
   1 C :   -0.289291
   2 C :   -0.313278
   3 C :   -0.007716
   4 O :   -0.498526
   5 H :    0.168684
   6 H :    0.159871
   7 H :    0.146572
   8 H :    0.145660
   9 H :    0.144859
  10 H :    0.144219
  11 H :    0.147739
  12 C :   -0.006925
  13 H :    0.127568
  14 H :    0.129736
  15 O :   -0.506627
  16 C :    0.073155
  17 C :    0.075560
  18 C :   -0.302158
  19 C :   -0.030470
  20 O :   -0.505251
  21 H :    0.175515
  22 O :   -0.601510
  23 H :    0.147196
  24 H :    0.165315
  25 H :    0.142514
  26 H :    0.151012
  27 H :    0.146577
  28 H :    0.367431
Sum of atomic charges:   -0.0000000

LOEWDIN ATOMIC CHARGES
----------------------
   0 C :    0.174690
   1 C :   -0.230426
   2 C :   -0.223700
   3 C :   -0.033529
   4 O :   -0.319695
   5 H :    0.113533
   6 H :    0.124603
   7 H :    0.116559
   8 H :    0.115806
   9 H :    0.105526
  10 H :    0.102760
  11 H :    0.104956
  12 C :   -0.043345
  13 H :    0.096107
  14 H :    0.095019
  15 O :   -0.307699
  16 C :    0.017722
  17 C :    0.034276
  18 C :   -0.243721
  19 C :   -0.038833
  20 O :   -0.316665
  21 H :    0.124509
  22 O :   -0.413825
  23 H :    0.112579
  24 H :    0.127322
  25 H :    0.111633
  26 H :    0.106063
  27 H :    0.102775
  28 H :    0.285001

  Mayer bond orders larger than 0.100000
B(  0-C ,  1-C ) :   0.9198 B(  0-C ,  4-O ) :   0.8984 B(  0-C ,  5-H ) :   0.9351
B(  0-C , 15-O ) :   0.9110 B(  1-C ,  2-C ) :   0.9535 B(  1-C ,  6-H ) :   0.9353
B(  1-C ,  7-H ) :   0.9363 B(  2-C ,  3-C ) :   0.9459 B(  2-C ,  8-H ) :   0.9449
B(  2-C ,  9-H ) :   0.9384 B(  3-C ,  4-O ) :   0.8516 B(  3-C , 10-H ) :   0.9342
B(  3-C , 11-H ) :   0.9386 B( 12-C , 13-H ) :   0.8973 B( 12-C , 14-H ) :   0.9224
B( 12-C , 15-O ) :   0.8411 B( 12-C , 16-C ) :   0.8971 B( 16-C , 17-C ) :   0.8976
B( 16-C , 20-O ) :   0.8704 B( 16-C , 21-H ) :   0.9215 B( 17-C , 18-C ) :   0.9109
B( 17-C , 22-O ) :   0.8958 B( 17-C , 23-H ) :   0.9335 B( 18-C , 19-C ) :   0.9407
B( 18-C , 24-H ) :   0.9363 B( 18-C , 25-H ) :   0.9343 B( 19-C , 20-O ) :   0.8518
B( 19-C , 26-H ) :   0.9334 B( 19-C , 27-H ) :   0.9376 B( 22-O , 28-H ) :   0.7926

FINAL SINGLE POINT ENERGY      -652.850602355041

DIPOLE MOMENT
-------------
                                X             Y             Z
Electronic contribution:     -3.53980      -5.28019       1.57462
Nuclear contribution   :      4.30257       6.73741      -2.26967
                        -----------------------------------------
Total Dipole Moment    :      0.76277       1.45722      -0.69505
                        -----------------------------------------
Magnitude (a.u.)       :      1.78561
Magnitude (Debye)      :      4.53866

Rotational constants in cm-1:     0.056127     0.012386     0.011838
Rotational constants in MHz :  1682.650826   371.334661   354.891978

                             ****ORCA TERMINATED NORMALLY****
TOTAL RUN TIME: 0 days 1 hours 58 minutes 34 seconds 782 msec
