                         Program Version 4.2.0 -  RELEASE  -
|  1> # Test redundant internal optimization
|  2> #
|  3> ! RKS B3LYP  Opt TightSCF SmallPrint
|  4>
|  5> %basis
|  6>         Basis "6-31G"
|  7> end
|  8>
|  9> %geom
| 10> Constraints
| 11> { D 4  0  15  12  180.0   C } # D for Dihedral angle
| 12> { D 0  15  12  16  285.0   C } # D for Dihedral angle
| 13> { D 0  4  3  2   C } # D for Dihedral angle
| 14> { D 4  3  2  1   C } # D for Dihedral angle
| 15> { D 3  2  1  0   C } # D for Dihedral angle
| 16> { D 2  1  0  4   C } # D for Dihedral angle
| 17> { D 1  0  4  3   C } # D for Dihedral angle
| 18> { D 16  20  19  18   C } # D for Dihedral angle
| 19> { D 20  19  18  17   C } # D for Dihedral angle
| 20> { D 19  18  17  16   C } # D for Dihedral angle
| 21> { D 18  17  16  20   C } # D for Dihedral angle
| 22> { D 17  16  20  19   C } # D for Dihedral angle
| 23> { D 15  12  16  20   C } # D for Dihedral angle
| 24> end
| 25> end
| 26>
| 27>
| 28> #%pal
| 29> #nprocs 8
| 30> #end
| 31>
| 32> * xyz 0 1
| 33> C  -21.048   26.222   46.251
| 34> C  -20.361   27.558   45.944
| 35> C  -20.329   28.222   47.341
| 36> C  -20.110   27.022   48.296
| 37> O  -20.473   25.807   47.535
| 38> H  -20.833   25.428   45.533
| 39> H  -19.344   27.382   45.576
| 40> H  -20.898   28.157   45.201
| 41> H  -19.543   28.978   47.434
| 42> H  -21.289   28.710   47.548
| 43> H  -20.733   27.082   49.195
| 44> H  -19.064   26.913   48.597
| 45> C  -23.309   26.834   45.072
| 46> H  -22.935   26.235   44.232
| 47> H  -24.390   26.667   45.158
| 48> O  -22.586   26.394   46.375
| 49> C  -23.086   28.335   44.739
| 50> C  -23.905   28.761   43.516
| 51> C  -25.313   28.946   44.129
| 52> C  -25.010   29.499   45.545
| 53> O  -23.593   29.181   45.825
| 54> H  -22.015   28.528   44.656
| 55> O  -23.368   30.108   42.958
| 56> H  -23.888   28.021   42.708
| 57> H  -25.946   29.622   43.544
| 58> H  -25.826   27.979   44.194
| 59> H  -25.639   29.042   46.317
| 60> H  -25.114   30.586   45.600
| 61> H  -23.377   30.864   43.750
| 62> *
| 63>
| 64>                          ****END OF INPUT****
 Total Charge           Charge          ....    0
 Multiplicity           Mult            ....    1
 Number of Electrons    NEL             ....  102
FINAL SINGLE POINT ENERGY      -652.813725658961
FINAL SINGLE POINT ENERGY      -652.837224357384
FINAL SINGLE POINT ENERGY      -652.850185397084
FINAL SINGLE POINT ENERGY      -652.852302785166
FINAL SINGLE POINT ENERGY      -652.852732982962
FINAL SINGLE POINT ENERGY      -652.852784509110
FINAL SINGLE POINT ENERGY      -652.852794118852
                    ***********************HURRAY********************

CARTESIAN COORDINATES (ANGSTROEM)
---------------------------------
  C    -20.971781   26.269884   46.153507
  C    -20.151070   27.547759   45.981688
  C    -20.277459   28.206027   47.381408
  C    -20.294646   26.985719   48.323522
  O    -20.633575   25.820666   47.470433
  H    -20.730184   25.467739   45.447089
  H    -19.111076   27.253102   45.790346
  H    -20.464013   28.197771   45.167124
  H    -19.451946   28.890764   47.596722
  H    -21.220259   28.758208   47.439991
  H    -21.043754   27.064160   49.115350
  H    -19.316451   26.774585   48.766351
  C    -23.193261   26.913900   45.055307
  H    -22.931637   26.321390   44.160136
  H    -24.220663   26.662976   45.332670
  O    -22.421976   26.458973   46.193961
  C    -23.107341   28.399246   44.681327
  C    -24.033635   28.757948   43.508728
  C    -25.403056   28.925017   44.223972
  C    -25.005852   29.537642   45.591954
  O    -23.558620   29.269347   45.770960
  H    -22.086899   28.697312   44.444757
  O    -23.602849   29.989292   42.866996
  H    -24.050320   28.012809   42.711995
  H    -26.064111   29.572625   43.642405
  H    -25.892634   27.952924   44.345256
  H    -25.554238   29.096563   46.429062
  H    -25.138375   30.623702   45.619904
  H    -23.393319   30.654950   43.556080

 Multiplicity           Mult            ....    1
 Number of Electrons    NEL             ....  102
 Basis Dimension        Dim             ....  149

ORBITAL ENERGIES
----------------

  NO   OCC          E(Eh)            E(eV)
   0   2.0000     -19.148361      -521.0534
   1   2.0000     -19.145540      -520.9766
   2   2.0000     -19.135236      -520.6962
   3   2.0000     -19.135053      -520.6913
   4   2.0000     -10.278120      -279.6819
   5   2.0000     -10.249127      -278.8929
   6   2.0000     -10.238965      -278.6164
   7   2.0000     -10.236311      -278.5442
   8   2.0000     -10.235732      -278.5284
   9   2.0000     -10.219111      -278.0761
  10   2.0000     -10.195779      -277.4412
  11   2.0000     -10.184627      -277.1378
  12   2.0000     -10.179274      -276.9921
  13   2.0000      -1.049807       -28.5667
  14   2.0000      -1.041775       -28.3481
  15   2.0000      -1.012338       -27.5471
  16   2.0000      -0.987201       -26.8631
  17   2.0000      -0.790397       -21.5078
  18   2.0000      -0.781124       -21.2555
  19   2.0000      -0.771124       -20.9834
  20   2.0000      -0.733715       -19.9654
  21   2.0000      -0.677340       -18.4314
  22   2.0000      -0.610991       -16.6259
  23   2.0000      -0.603920       -16.4335
  24   2.0000      -0.594934       -16.1890
  25   2.0000      -0.577621       -15.7179
  26   2.0000      -0.526377       -14.3234
  27   2.0000      -0.512866       -13.9558
  28   2.0000      -0.496579       -13.5126
  29   2.0000      -0.492019       -13.3885
  30   2.0000      -0.473294       -12.8790
  31   2.0000      -0.456513       -12.4224
  32   2.0000      -0.452608       -12.3161
  33   2.0000      -0.448475       -12.2036
  34   2.0000      -0.427190       -11.6244
  35   2.0000      -0.413106       -11.2412
  36   2.0000      -0.403540       -10.9809
  37   2.0000      -0.398753       -10.8506
  38   2.0000      -0.377294       -10.2667
  39   2.0000      -0.375634       -10.2215
  40   2.0000      -0.364219        -9.9109
  41   2.0000      -0.351612        -9.5679
  42   2.0000      -0.347055        -9.4438
  43   2.0000      -0.337930        -9.1956
  44   2.0000      -0.314108        -8.5473
  45   2.0000      -0.306325        -8.3355
  46   2.0000      -0.292580        -7.9615
  47   2.0000      -0.277292        -7.5455
  48   2.0000      -0.266112        -7.2413
  49   2.0000      -0.253305        -6.8928
  50   2.0000      -0.239488        -6.5168
  51   0.0000       0.060483         1.6458
  52   0.0000       0.082622         2.2483
  53   0.0000       0.085125         2.3164
  54   0.0000       0.087202         2.3729
  55   0.0000       0.100586         2.7371

MULLIKEN ATOMIC CHARGES
-----------------------
   0 C :    0.304056
   1 C :   -0.281116
   2 C :   -0.309842
   3 C :    0.001017
   4 O :   -0.498286
   5 H :    0.137731
   6 H :    0.145358
   7 H :    0.139996
   8 H :    0.137841
   9 H :    0.186369
  10 H :    0.155165
  11 H :    0.138902
  12 C :   -0.001195
  13 H :    0.115146
  14 H :    0.156466
  15 O :   -0.506168
  16 C :    0.049996
  17 C :    0.076338
  18 C :   -0.307351
  19 C :   -0.026988
  20 O :   -0.517029
  21 H :    0.164609
  22 O :   -0.600750
  23 H :    0.155558
  24 H :    0.166726
  25 H :    0.150385
  26 H :    0.154434
  27 H :    0.147893
  28 H :    0.364740
Sum of atomic charges:   -0.0000000

LOEWDIN ATOMIC CHARGES
----------------------
   0 C :    0.185757
   1 C :   -0.232586
   2 C :   -0.220419
   3 C :   -0.024576
   4 O :   -0.301156
   5 H :    0.095337
   6 H :    0.115089
   7 H :    0.111185
   8 H :    0.112709
   9 H :    0.129409
  10 H :    0.109930
  11 H :    0.100572
  12 C :   -0.040389
  13 H :    0.089783
  14 H :    0.116086
  15 O :   -0.328082
  16 C :    0.000244
  17 C :    0.035239
  18 C :   -0.242950
  19 C :   -0.036925
  20 O :   -0.328403
  21 H :    0.111689
  22 O :   -0.413439
  23 H :    0.116822
  24 H :    0.128141
  25 H :    0.115584
  26 H :    0.108726
  27 H :    0.103262
  28 H :    0.283362

  Mayer bond orders larger than 0.100000
B(  0-C ,  1-C ) :   0.9280 B(  0-C ,  4-O ) :   0.9415 B(  0-C ,  5-H ) :   0.9205
B(  0-C , 15-O ) :   0.8366 B(  1-C ,  2-C ) :   0.9517 B(  1-C ,  6-H ) :   0.9321
B(  1-C ,  7-H ) :   0.9214 B(  2-C ,  3-C ) :   0.9548 B(  2-C ,  8-H ) :   0.9449
B(  2-C ,  9-H ) :   0.9316 B(  3-C ,  4-O ) :   0.8313 B(  3-C , 10-H ) :   0.9349
B(  3-C , 11-H ) :   0.9400 B( 12-C , 13-H ) :   0.9105 B( 12-C , 14-H ) :   0.9371
B( 12-C , 15-O ) :   0.8782 B( 12-C , 16-C ) :   0.8716 B( 16-C , 17-C ) :   0.8920
B( 16-C , 20-O ) :   0.8587 B( 16-C , 21-H ) :   0.9077 B( 17-C , 18-C ) :   0.9121
B( 17-C , 22-O ) :   0.8930 B( 17-C , 23-H ) :   0.9318 B( 18-C , 19-C ) :   0.9408
B( 18-C , 24-H ) :   0.9368 B( 18-C , 25-H ) :   0.9324 B( 19-C , 20-O ) :   0.8444
B( 19-C , 26-H ) :   0.9337 B( 19-C , 27-H ) :   0.9374 B( 22-O , 28-H ) :   0.7941

FINAL SINGLE POINT ENERGY      -652.852795518677

DIPOLE MOMENT
-------------
                                X             Y             Z
Electronic contribution:      0.08547      -2.07050      -0.01608
Nuclear contribution   :     -0.35914       2.74025      -0.38835
                        -----------------------------------------
Total Dipole Moment    :     -0.27368       0.66976      -0.40443
                        -----------------------------------------
Magnitude (a.u.)       :      0.82888
Magnitude (Debye)      :      2.10683

Rotational constants in cm-1:     0.056476     0.013365     0.013278
Rotational constants in MHz :  1693.119368   400.664348   398.067053

                             ****ORCA TERMINATED NORMALLY****
TOTAL RUN TIME: 0 days 0 hours 27 minutes 46 seconds 552 msec
