                         Program Version 4.2.0 -  RELEASE  -
|  1> # Test redundant internal optimization
|  2> #
|  3> ! RKS B3LYP  Opt TightSCF SmallPrint
|  4>
|  5> %basis
|  6>         Basis "6-31G"
|  7> end
|  8>
|  9> %geom
| 10> Constraints
| 11> { D 4  0  15  12  45.0   C } # D for Dihedral angle
| 12> { D 0  15  12  16  150.0   C } # D for Dihedral angle
| 13> { D 0  4  3  2   C } # D for Dihedral angle
| 14> { D 4  3  2  1   C } # D for Dihedral angle
| 15> { D 3  2  1  0   C } # D for Dihedral angle
| 16> { D 2  1  0  4   C } # D for Dihedral angle
| 17> { D 1  0  4  3   C } # D for Dihedral angle
| 18> { D 16  20  19  18   C } # D for Dihedral angle
| 19> { D 20  19  18  17   C } # D for Dihedral angle
| 20> { D 19  18  17  16   C } # D for Dihedral angle
| 21> { D 18  17  16  20   C } # D for Dihedral angle
| 22> { D 17  16  20  19   C } # D for Dihedral angle
| 23> { D 15  12  16  20   C } # D for Dihedral angle
| 24> end
| 25> end
| 26>
| 27>
| 28> #%pal
| 29> #nprocs 8
| 30> #end
| 31>
| 32> * xyz 0 1
| 33> C  -21.048   26.222   46.251
| 34> C  -20.361   27.558   45.944
| 35> C  -20.329   28.222   47.341
| 36> C  -20.110   27.022   48.296
| 37> O  -20.473   25.807   47.535
| 38> H  -20.833   25.428   45.533
| 39> H  -19.344   27.382   45.576
| 40> H  -20.898   28.157   45.201
| 41> H  -19.543   28.978   47.434
| 42> H  -21.289   28.710   47.548
| 43> H  -20.733   27.082   49.195
| 44> H  -19.064   26.913   48.597
| 45> C  -23.065   27.161   47.638
| 46> H  -23.226   26.448   48.455
| 47> H  -22.305   27.885   47.959
| 48> O  -22.586   26.394   46.375
| 49> C  -24.389   27.940   47.401
| 50> C  -24.267   28.896   46.209
| 51> C  -24.442   27.930   45.013
| 52> C  -25.465   26.895   45.543
| 53> O  -25.464   27.019   47.017
| 54> H  -24.694   28.418   48.334
| 55> O  -25.417   29.939   46.243
| 56> H  -23.313   29.434   46.184
| 57> H  -24.790   28.435   44.106
| 58> H  -23.487   27.443   44.779
| 59> H  -25.205   25.868   45.269
| 60> H  -26.484   27.104   45.204
| 61> H  -26.383   29.422   46.268
| 62> *
| 63>
| 64>                          ****END OF INPUT****
 Total Charge           Charge          ....    0
 Multiplicity           Mult            ....    1
 Number of Electrons    NEL             ....  102
FINAL SINGLE POINT ENERGY      -652.812233310015
FINAL SINGLE POINT ENERGY      -652.839802938127
FINAL SINGLE POINT ENERGY      -652.853656278234
FINAL SINGLE POINT ENERGY      -652.856097764661
FINAL SINGLE POINT ENERGY      -652.856456955708
FINAL SINGLE POINT ENERGY      -652.856510818791
FINAL SINGLE POINT ENERGY      -652.856516029565
                    ***********************HURRAY********************

CARTESIAN COORDINATES (ANGSTROEM)
---------------------------------
  C    -21.168848   26.289384   46.459489
  C    -20.355176   27.499433   45.977709
  C    -20.046698   28.237121   47.314017
  C    -19.866614   27.064675   48.310536
  O    -20.494539   25.880561   47.670347
  H    -21.103660   25.442271   45.774159
  H    -19.431814   27.136015   45.514805
  H    -20.895905   28.114168   45.253771
  H    -19.143237   28.851764   47.248220
  H    -20.869644   28.898514   47.598200
  H    -20.344203   27.239023   49.279286
  H    -18.814233   26.814900   48.471924
  C    -23.189866   27.166392   47.720155
  H    -23.403137   26.433731   48.505763
  H    -22.520097   27.928375   48.131908
  O    -22.599037   26.460033   46.588384
  C    -24.498078   27.844649   47.315815
  C    -24.425701   28.899833   46.202230
  C    -24.508415   28.021032   44.924724
  C    -25.462801   26.878463   45.352961
  O    -25.493120   26.887851   46.834006
  H    -24.914902   28.295208   48.225717
  O    -25.540851   29.828921   46.306156
  H    -23.531413   29.523303   46.241994
  H    -24.890674   28.602314   44.080996
  H    -23.521493   27.624738   44.684412
  H    -25.112713   25.899120   45.018057
  H    -26.491371   27.031068   45.008966
  H    -26.368759   29.319138   46.433292

 Multiplicity           Mult            ....    1
 Number of Electrons    NEL             ....  102
 Basis Dimension        Dim             ....  149

ORBITAL ENERGIES
----------------

  NO   OCC          E(Eh)            E(eV)
   0   2.0000     -19.149997      -521.0979
   1   2.0000     -19.147392      -521.0270
   2   2.0000     -19.136298      -520.7252
   3   2.0000     -19.136202      -520.7225
   4   2.0000     -10.284678      -279.8603
   5   2.0000     -10.238475      -278.6031
   6   2.0000     -10.236412      -278.5469
   7   2.0000     -10.234266      -278.4885
   8   2.0000     -10.233556      -278.4692
   9   2.0000     -10.221250      -278.1343
  10   2.0000     -10.199921      -277.5540
  11   2.0000     -10.195811      -277.4421
  12   2.0000     -10.177234      -276.9366
  13   2.0000      -1.057970       -28.7888
  14   2.0000      -1.032943       -28.1078
  15   2.0000      -1.005040       -27.3485
  16   2.0000      -0.996354       -27.1122
  17   2.0000      -0.795090       -21.6355
  18   2.0000      -0.781537       -21.2667
  19   2.0000      -0.766304       -20.8522
  20   2.0000      -0.737603       -20.0712
  21   2.0000      -0.677942       -18.4477
  22   2.0000      -0.610954       -16.6249
  23   2.0000      -0.605915       -16.4878
  24   2.0000      -0.597574       -16.2608
  25   2.0000      -0.570542       -15.5252
  26   2.0000      -0.523510       -14.2454
  27   2.0000      -0.517057       -14.0698
  28   2.0000      -0.502203       -13.6656
  29   2.0000      -0.492677       -13.4064
  30   2.0000      -0.472871       -12.8675
  31   2.0000      -0.455483       -12.3943
  32   2.0000      -0.449769       -12.2388
  33   2.0000      -0.438795       -11.9402
  34   2.0000      -0.425964       -11.5911
  35   2.0000      -0.419539       -11.4162
  36   2.0000      -0.407577       -11.0907
  37   2.0000      -0.387307       -10.5392
  38   2.0000      -0.383908       -10.4467
  39   2.0000      -0.369698       -10.0600
  40   2.0000      -0.368192       -10.0190
  41   2.0000      -0.361629        -9.8404
  42   2.0000      -0.349751        -9.5172
  43   2.0000      -0.332671        -9.0524
  44   2.0000      -0.322278        -8.7696
  45   2.0000      -0.313533        -8.5317
  46   2.0000      -0.302115        -8.2210
  47   2.0000      -0.270025        -7.3477
  48   2.0000      -0.264951        -7.2097
  49   2.0000      -0.257358        -7.0031
  50   2.0000      -0.239367        -6.5135
  51   0.0000       0.055991         1.5236
  52   0.0000       0.074186         2.0187
  53   0.0000       0.085990         2.3399
  54   0.0000       0.096758         2.6329
  55   0.0000       0.104787         2.8514

MULLIKEN ATOMIC CHARGES
-----------------------
   0 C :    0.302987
   1 C :   -0.271242
   2 C :   -0.321945
   3 C :   -0.014217
   4 O :   -0.505924
   5 H :    0.166304
   6 H :    0.155162
   7 H :    0.151868
   8 H :    0.149878
   9 H :    0.154114
  10 H :    0.147385
  11 H :    0.152457
  12 C :    0.008363
  13 H :    0.165189
  14 H :    0.118943
  15 O :   -0.531584
  16 C :    0.064520
  17 C :    0.080379
  18 C :   -0.283805
  19 C :   -0.013608
  20 O :   -0.524060
  21 H :    0.151871
  22 O :   -0.605930
  23 H :    0.139444
  24 H :    0.146273
  25 H :    0.163300
  26 H :    0.154384
  27 H :    0.134796
  28 H :    0.364697
Sum of atomic charges:   -0.0000000

LOEWDIN ATOMIC CHARGES
----------------------
   0 C :    0.177933
   1 C :   -0.228269
   2 C :   -0.225062
   3 C :   -0.034603
   4 O :   -0.318380
   5 H :    0.112720
   6 H :    0.121139
   7 H :    0.118661
   8 H :    0.117990
   9 H :    0.108825
  10 H :    0.103502
  11 H :    0.107813
  12 C :   -0.035795
  13 H :    0.115794
  14 H :    0.094920
  15 O :   -0.325653
  16 C :    0.013002
  17 C :    0.038920
  18 C :   -0.240348
  19 C :   -0.030951
  20 O :   -0.328088
  21 H :    0.114164
  22 O :   -0.418044
  23 H :    0.109552
  24 H :    0.117454
  25 H :    0.123465
  26 H :    0.110346
  27 H :    0.095846
  28 H :    0.283148

  Mayer bond orders larger than 0.100000
B(  0-C ,  1-C ) :   0.9141 B(  0-C ,  4-O ) :   0.9063 B(  0-C ,  5-H ) :   0.9359
B(  0-C , 15-O ) :   0.8781 B(  1-C ,  2-C ) :   0.9539 B(  1-C ,  6-H ) :   0.9340
B(  1-C ,  7-H ) :   0.9353 B(  2-C ,  3-C ) :   0.9467 B(  2-C ,  8-H ) :   0.9440
B(  2-C ,  9-H ) :   0.9377 B(  3-C ,  4-O ) :   0.8410 B(  3-C , 10-H ) :   0.9326
B(  3-C , 11-H ) :   0.9384 B( 12-C , 13-H ) :   0.9212 B( 12-C , 14-H ) :   0.8985
B( 12-C , 15-O ) :   0.8317 B( 12-C , 16-C ) :   0.9082 B( 16-C , 17-C ) :   0.9067
B( 16-C , 20-O ) :   0.8755 B( 16-C , 21-H ) :   0.9216 B( 17-C , 18-C ) :   0.9235
B( 17-C , 22-O ) :   0.8904 B( 17-C , 23-H ) :   0.9364 B( 18-C , 19-C ) :   0.9452
B( 18-C , 24-H ) :   0.9379 B( 18-C , 25-H ) :   0.9198 B( 19-C , 20-O ) :   0.8381
B( 19-C , 26-H ) :   0.9341 B( 19-C , 27-H ) :   0.9375 B( 22-O , 28-H ) :   0.7946

FINAL SINGLE POINT ENERGY      -652.856515142622

DIPOLE MOMENT
-------------
                                X             Y             Z
Electronic contribution:     -4.05036      -2.91975       1.30257
Nuclear contribution   :      5.04534       3.51209      -1.54580
                        -----------------------------------------
Total Dipole Moment    :      0.99498       0.59234      -0.24323
                        -----------------------------------------
Magnitude (a.u.)       :      1.18322
Magnitude (Debye)      :      3.00750

Rotational constants in cm-1:     0.052659     0.014884     0.014180
Rotational constants in MHz :  1578.665800   446.222573   425.105067

                             ****ORCA TERMINATED NORMALLY****
TOTAL RUN TIME: 0 days 1 hours 12 minutes 27 seconds 292 msec
