                         Program Version 4.2.0 -  RELEASE  -
|  1> # Test redundant internal optimization
|  2> #
|  3> ! RKS B3LYP  Opt TightSCF SmallPrint
|  4>
|  5> %basis
|  6>         Basis "6-31G"
|  7> end
|  8>
|  9> %geom
| 10> Constraints
| 11> { D 4  0  15  12  345.0   C } # D for Dihedral angle
| 12> { D 0  15  12  16  135.0   C } # D for Dihedral angle
| 13> { D 0  4  3  2   C } # D for Dihedral angle
| 14> { D 4  3  2  1   C } # D for Dihedral angle
| 15> { D 3  2  1  0   C } # D for Dihedral angle
| 16> { D 2  1  0  4   C } # D for Dihedral angle
| 17> { D 1  0  4  3   C } # D for Dihedral angle
| 18> { D 16  20  19  18   C } # D for Dihedral angle
| 19> { D 20  19  18  17   C } # D for Dihedral angle
| 20> { D 19  18  17  16   C } # D for Dihedral angle
| 21> { D 18  17  16  20   C } # D for Dihedral angle
| 22> { D 17  16  20  19   C } # D for Dihedral angle
| 23> { D 15  12  16  20   C } # D for Dihedral angle
| 24> end
| 25> end
| 26>
| 27>
| 28> #%pal
| 29> #nprocs 8
| 30> #end
| 31>
| 32> * xyz 0 1
| 33> C  -21.048   26.222   46.251
| 34> C  -20.361   27.558   45.944
| 35> C  -20.329   28.222   47.341
| 36> C  -20.110   27.022   48.296
| 37> O  -20.473   25.807   47.535
| 38> H  -20.833   25.428   45.533
| 39> H  -19.344   27.382   45.576
| 40> H  -20.898   28.157   45.201
| 41> H  -19.543   28.978   47.434
| 42> H  -21.289   28.710   47.548
| 43> H  -20.733   27.082   49.195
| 44> H  -19.064   26.913   48.597
| 45> C  -23.221   25.764   47.645
| 46> H  -23.739   24.837   47.369
| 47> H  -22.444   25.517   48.380
| 48> O  -22.586   26.394   46.375
| 49> C  -24.243   26.708   48.337
| 50> C  -25.455   26.971   47.436
| 51> C  -26.281   25.678   47.636
| 52> C  -26.022   25.321   49.121
| 53> O  -24.810   26.065   49.527
| 54> H  -23.727   27.608   48.675
| 55> H  -26.010   27.844   47.799
| 56> O  -25.070   27.218   45.952
| 57> H  -27.345   25.816   47.419
| 58> H  -25.905   24.887   46.976
| 59> H  -25.852   24.250   49.271
| 60> H  -26.834   25.646   49.776
| 61> H  -24.513   26.356   45.568
| 62> *
| 63>
| 64>                          ****END OF INPUT****
 Total Charge           Charge          ....    0
 Multiplicity           Mult            ....    1
 Number of Electrons    NEL             ....  102
FINAL SINGLE POINT ENERGY      -652.832882021047
FINAL SINGLE POINT ENERGY      -652.856546741169
FINAL SINGLE POINT ENERGY      -652.862784967849
FINAL SINGLE POINT ENERGY      -652.864959653763
FINAL SINGLE POINT ENERGY      -652.866195748044
FINAL SINGLE POINT ENERGY      -652.866850397069
FINAL SINGLE POINT ENERGY      -652.867057318981
FINAL SINGLE POINT ENERGY      -652.867102967192
FINAL SINGLE POINT ENERGY      -652.867106505032
                    ***********************HURRAY********************

CARTESIAN COORDINATES (ANGSTROEM)
---------------------------------
  C    -21.093525   26.162181   46.333623
  C    -20.575813   27.552018   45.968388
  C    -20.457705   28.220039   47.357027
  C    -20.026086   27.058529   48.275280
  O    -20.364487   25.810354   47.521466
  H    -20.891905   25.375729   45.602740
  H    -19.595202   27.453041   45.489221
  H    -21.249681   28.082802   45.292060
  H    -19.736250   29.042577   47.365300
  H    -21.430118   28.619092   47.660502
  H    -20.550270   27.039165   49.233878
  H    -18.947674   27.024421   48.449959
  C    -23.157238   25.629920   47.728542
  H    -23.635555   24.685099   47.443707
  H    -22.391588   25.416683   48.476025
  O    -22.546093   26.222460   46.530790
  C    -24.180382   26.628697   48.279505
  C    -25.360850   26.934633   47.341757
  C    -26.273986   25.694826   47.569280
  C    -26.066466   25.375851   49.064184
  O    -24.805804   26.065358   49.474226
  H    -23.662438   27.540046   48.594322
  H    -25.873212   27.832611   47.705674
  O    -25.026737   27.165501   45.960008
  H    -27.317065   25.908569   47.321437
  H    -25.934788   24.880228   46.920570
  H    -25.962315   24.306035   49.269937
  H    -26.861420   25.781304   49.696706
  H    -24.107346   26.853230   45.786885

 Multiplicity           Mult            ....    1
 Number of Electrons    NEL             ....  102
 Basis Dimension        Dim             ....  149

ORBITAL ENERGIES
----------------

  NO   OCC          E(Eh)            E(eV)
   0   2.0000     -19.162264      -521.4317
   1   2.0000     -19.158619      -521.3325
   2   2.0000     -19.138368      -520.7815
   3   2.0000     -19.111538      -520.0514
   4   2.0000     -10.293115      -280.0899
   5   2.0000     -10.240370      -278.6546
   6   2.0000     -10.231818      -278.4219
   7   2.0000     -10.231339      -278.4089
   8   2.0000     -10.228193      -278.3233
   9   2.0000     -10.224680      -278.2277
  10   2.0000     -10.197877      -277.4983
  11   2.0000     -10.195997      -277.4472
  12   2.0000     -10.176915      -276.9279
  13   2.0000      -1.067595       -29.0507
  14   2.0000      -1.023891       -27.8615
  15   2.0000      -1.005517       -27.3615
  16   2.0000      -0.989898       -26.9365
  17   2.0000      -0.800661       -21.7871
  18   2.0000      -0.773766       -21.0552
  19   2.0000      -0.766391       -20.8546
  20   2.0000      -0.737438       -20.0667
  21   2.0000      -0.676751       -18.4153
  22   2.0000      -0.612415       -16.6647
  23   2.0000      -0.598088       -16.2748
  24   2.0000      -0.593560       -16.1516
  25   2.0000      -0.576902       -15.6983
  26   2.0000      -0.533864       -14.5272
  27   2.0000      -0.513319       -13.9681
  28   2.0000      -0.507608       -13.8127
  29   2.0000      -0.486182       -13.2297
  30   2.0000      -0.477257       -12.9868
  31   2.0000      -0.459698       -12.5090
  32   2.0000      -0.443513       -12.0686
  33   2.0000      -0.426052       -11.5935
  34   2.0000      -0.423579       -11.5262
  35   2.0000      -0.421062       -11.4577
  36   2.0000      -0.410452       -11.1690
  37   2.0000      -0.384963       -10.4754
  38   2.0000      -0.383372       -10.4321
  39   2.0000      -0.370412       -10.0794
  40   2.0000      -0.366145        -9.9633
  41   2.0000      -0.360812        -9.8182
  42   2.0000      -0.355670        -9.6783
  43   2.0000      -0.343111        -9.3365
  44   2.0000      -0.328521        -8.9395
  45   2.0000      -0.315709        -8.5909
  46   2.0000      -0.283924        -7.7260
  47   2.0000      -0.276864        -7.5339
  48   2.0000      -0.273067        -7.4305
  49   2.0000      -0.247013        -6.7216
  50   2.0000      -0.238803        -6.4982
  51   0.0000       0.059583         1.6213
  52   0.0000       0.071172         1.9367
  53   0.0000       0.090319         2.4577
  54   0.0000       0.094559         2.5731
  55   0.0000       0.099624         2.7109

MULLIKEN ATOMIC CHARGES
-----------------------
   0 C :    0.315371
   1 C :   -0.264230
   2 C :   -0.308043
   3 C :   -0.023266
   4 O :   -0.509036
   5 H :    0.161261
   6 H :    0.151367
   7 H :    0.165181
   8 H :    0.152003
   9 H :    0.162334
  10 H :    0.155985
  11 H :    0.157484
  12 C :   -0.028407
  13 H :    0.144356
  14 H :    0.185459
  15 O :   -0.580505
  16 C :    0.056508
  17 C :    0.124267
  18 C :   -0.305143
  19 C :   -0.021544
  20 O :   -0.522943
  21 H :    0.147087
  22 H :    0.143286
  23 O :   -0.644273
  24 H :    0.150518
  25 H :    0.148595
  26 H :    0.142914
  27 H :    0.148944
  28 H :    0.394470
Sum of atomic charges:    0.0000000

LOEWDIN ATOMIC CHARGES
----------------------
   0 C :    0.186777
   1 C :   -0.218056
   2 C :   -0.218273
   3 C :   -0.031231
   4 O :   -0.313128
   5 H :    0.106240
   6 H :    0.117509
   7 H :    0.127566
   8 H :    0.119968
   9 H :    0.116732
  10 H :    0.108733
  11 H :    0.110790
  12 C :   -0.047231
  13 H :    0.101862
  14 H :    0.125795
  15 O :   -0.355681
  16 C :    0.014084
  17 C :    0.042182
  18 C :   -0.237832
  19 C :   -0.032756
  20 O :   -0.325826
  21 H :    0.107157
  22 H :    0.103356
  23 O :   -0.436727
  24 H :    0.120862
  25 H :    0.112456
  26 H :    0.102221
  27 H :    0.105654
  28 H :    0.286799

  Mayer bond orders larger than 0.100000
B(  0-C ,  1-C ) :   0.9402 B(  0-C ,  4-O ) :   0.9277 B(  0-C ,  5-H ) :   0.9271
B(  0-C , 15-O ) :   0.7940 B(  1-C ,  2-C ) :   0.9515 B(  1-C ,  6-H ) :   0.9351
B(  1-C ,  7-H ) :   0.9346 B(  2-C ,  3-C ) :   0.9543 B(  2-C ,  8-H ) :   0.9435
B(  2-C ,  9-H ) :   0.9410 B(  3-C ,  4-O ) :   0.8196 B(  3-C , 10-H ) :   0.9327
B(  3-C , 11-H ) :   0.9399 B( 12-C , 13-H ) :   0.9293 B( 12-C , 14-H ) :   0.9095
B( 12-C , 15-O ) :   0.7781 B( 12-C , 16-C ) :   0.8990 B( 16-C , 17-C ) :   0.9118
B( 16-C , 20-O ) :   0.8532 B( 16-C , 21-H ) :   0.9294 B( 17-C , 18-C ) :   0.9017
B( 17-C , 22-H ) :   0.9319 B( 17-C , 23-O ) :   0.9334 B( 18-C , 19-C ) :   0.9393
B( 18-C , 24-H ) :   0.9446 B( 18-C , 25-H ) :   0.9429 B( 19-C , 20-O ) :   0.8331
B( 19-C , 26-H ) :   0.9341 B( 19-C , 27-H ) :   0.9381 B( 23-O , 28-H ) :   0.7222

FINAL SINGLE POINT ENERGY      -652.867107884854

DIPOLE MOMENT
-------------
                                X             Y             Z
Electronic contribution:     -0.16342      -1.61502      -0.42525
Nuclear contribution   :      0.99970       1.78292       0.51350
                        -----------------------------------------
Total Dipole Moment    :      0.83628       0.16790       0.08825
                        -----------------------------------------
Magnitude (a.u.)       :      0.85752
Magnitude (Debye)      :      2.17964

Rotational constants in cm-1:     0.052829     0.014978     0.013494
Rotational constants in MHz :  1583.767805   449.032121   404.545878

                             ****ORCA TERMINATED NORMALLY****
TOTAL RUN TIME: 0 days 1 hours 4 minutes 10 seconds 618 msec
