                         Program Version 4.2.0 -  RELEASE  -
|  1> # Test redundant internal optimization
|  2> #
|  3> ! RKS B3LYP  Opt TightSCF SmallPrint
|  4>
|  5> %basis
|  6>         Basis "6-31G"
|  7> end
|  8>
|  9> %geom
| 10> Constraints
| 11> { D 4  0  15  12  195.0   C } # D for Dihedral angle
| 12> { D 0  15  12  16  180.0   C } # D for Dihedral angle
| 13> { D 0  4  3  2   C } # D for Dihedral angle
| 14> { D 4  3  2  1   C } # D for Dihedral angle
| 15> { D 3  2  1  0   C } # D for Dihedral angle
| 16> { D 2  1  0  4   C } # D for Dihedral angle
| 17> { D 1  0  4  3   C } # D for Dihedral angle
| 18> { D 16  20  19  18   C } # D for Dihedral angle
| 19> { D 20  19  18  17   C } # D for Dihedral angle
| 20> { D 19  18  17  16   C } # D for Dihedral angle
| 21> { D 18  17  16  20   C } # D for Dihedral angle
| 22> { D 17  16  20  19   C } # D for Dihedral angle
| 23> { D 15  12  16  20   C } # D for Dihedral angle
| 24> end
| 25> end
| 26>
| 27>
| 28> #%pal
| 29> #nprocs 8
| 30> #end
| 31>
| 32> * xyz 0 1
| 33> C  -21.048   26.222   46.251
| 34> C  -20.361   27.558   45.944
| 35> C  -20.329   28.222   47.341
| 36> C  -20.110   27.022   48.296
| 37> O  -20.473   25.807   47.535
| 38> H  -20.833   25.428   45.533
| 39> H  -19.344   27.382   45.576
| 40> H  -20.898   28.157   45.201
| 41> H  -19.543   28.978   47.434
| 42> H  -21.289   28.710   47.548
| 43> H  -20.733   27.082   49.195
| 44> H  -19.064   26.913   48.597
| 45> C  -23.353   26.472   45.026
| 46> H  -22.979   27.325   44.447
| 47> H  -23.189   25.560   44.438
| 48> O  -22.586   26.394   46.375
| 49> C  -24.885   26.644   45.216
| 50> C  -25.466   25.531   46.097
| 51> C  -25.080   26.020   47.513
| 52> C  -25.199   27.560   47.398
| 53> O  -25.176   27.877   45.954
| 54> H  -25.358   26.738   44.237
| 55> O  -27.009   25.476   45.937
| 56> H  -25.059   24.541   45.864
| 57> H  -25.727   25.609   48.295
| 58> H  -24.049   25.728   47.745
| 59> H  -24.374   28.083   47.894
| 60> H  -26.146   27.937   47.795
| 61> H  -27.439   26.458   46.166
| 62> *
| 63>
| 64>                          ****END OF INPUT****
 Total Charge           Charge          ....    0
 Multiplicity           Mult            ....    1
 Number of Electrons    NEL             ....  102
FINAL SINGLE POINT ENERGY      -652.836002007949
FINAL SINGLE POINT ENERGY      -652.858938127964
FINAL SINGLE POINT ENERGY      -652.862912289251
FINAL SINGLE POINT ENERGY      -652.863846605861
FINAL SINGLE POINT ENERGY      -652.863967256212
FINAL SINGLE POINT ENERGY      -652.863980214554
                    ***********************HURRAY********************

CARTESIAN COORDINATES (ANGSTROEM)
---------------------------------
  C    -21.093208   26.230974   46.178358
  C    -20.384571   27.552860   45.891860
  C    -20.405134   28.235122   47.280718
  C    -20.238950   27.047563   48.250824
  O    -20.588704   25.834943   47.460801
  H    -20.882218   25.419788   45.472490
  H    -19.357305   27.347939   45.568387
  H    -20.875087   28.150624   45.118860
  H    -19.612327   28.980595   47.393419
  H    -21.369308   28.729209   47.432515
  H    -20.900967   27.099794   49.118402
  H    -19.207372   26.911922   48.587853
  C    -23.265767   26.471570   45.051106
  H    -22.920812   27.326799   44.452881
  H    -23.104873   25.552659   44.463736
  O    -22.534001   26.404157   46.303677
  C    -24.756566   26.653004   45.324012
  C    -25.447143   25.554291   46.147176
  C    -25.119800   25.994756   47.598645
  C    -25.151665   27.539832   47.509665
  O    -25.026131   27.881437   46.071416
  H    -25.255569   26.758879   44.353364
  O    -26.877688   25.540827   45.876065
  H    -25.101876   24.546869   45.913370
  H    -25.856398   25.592564   48.299844
  H    -24.121926   25.645983   47.867062
  H    -24.323888   28.003586   48.052521
  H    -26.096192   27.970186   47.858982
  H    -27.223556   26.455267   45.949992

 Multiplicity           Mult            ....    1
 Number of Electrons    NEL             ....  102
 Basis Dimension        Dim             ....  149

ORBITAL ENERGIES
----------------

  NO   OCC          E(Eh)            E(eV)
   0   2.0000     -19.148532      -521.0580
   1   2.0000     -19.145542      -520.9767
   2   2.0000     -19.136910      -520.7418
   3   2.0000     -19.132671      -520.6264
   4   2.0000     -10.285027      -279.8698
   5   2.0000     -10.236936      -278.5612
   6   2.0000     -10.234310      -278.4897
   7   2.0000     -10.234037      -278.4823
   8   2.0000     -10.228994      -278.3451
   9   2.0000     -10.220827      -278.1228
  10   2.0000     -10.190593      -277.3001
  11   2.0000     -10.189422      -277.2683
  12   2.0000     -10.171491      -276.7803
  13   2.0000      -1.060028       -28.8448
  14   2.0000      -1.031124       -28.0583
  15   2.0000      -1.004182       -27.3252
  16   2.0000      -0.995932       -27.1007
  17   2.0000      -0.790669       -21.5152
  18   2.0000      -0.776706       -21.1352
  19   2.0000      -0.762174       -20.7398
  20   2.0000      -0.734196       -19.9785
  21   2.0000      -0.675363       -18.3776
  22   2.0000      -0.604608       -16.4522
  23   2.0000      -0.597897       -16.2696
  24   2.0000      -0.593678       -16.1548
  25   2.0000      -0.576914       -15.6986
  26   2.0000      -0.528648       -14.3852
  27   2.0000      -0.503590       -13.7034
  28   2.0000      -0.500767       -13.6266
  29   2.0000      -0.486425       -13.2363
  30   2.0000      -0.476941       -12.9782
  31   2.0000      -0.456440       -12.4204
  32   2.0000      -0.450325       -12.2540
  33   2.0000      -0.442174       -12.0322
  34   2.0000      -0.419583       -11.4174
  35   2.0000      -0.412128       -11.2146
  36   2.0000      -0.404792       -11.0150
  37   2.0000      -0.385253       -10.4833
  38   2.0000      -0.376478       -10.2445
  39   2.0000      -0.368124       -10.0172
  40   2.0000      -0.359701        -9.7880
  41   2.0000      -0.356585        -9.7032
  42   2.0000      -0.354276        -9.6404
  43   2.0000      -0.328280        -8.9330
  44   2.0000      -0.316056        -8.6003
  45   2.0000      -0.310938        -8.4611
  46   2.0000      -0.300314        -8.1719
  47   2.0000      -0.265768        -7.2319
  48   2.0000      -0.265329        -7.2200
  49   2.0000      -0.257347        -7.0028
  50   2.0000      -0.242005        -6.5853
  51   0.0000       0.064753         1.7620
  52   0.0000       0.080535         2.1915
  53   0.0000       0.093204         2.5362
  54   0.0000       0.101846         2.7714
  55   0.0000       0.105684         2.8758

MULLIKEN ATOMIC CHARGES
-----------------------
   0 C :    0.306391
   1 C :   -0.272349
   2 C :   -0.301498
   3 C :   -0.003185
   4 O :   -0.505679
   5 H :    0.140034
   6 H :    0.147056
   7 H :    0.149848
   8 H :    0.144256
   9 H :    0.166553
  10 H :    0.151693
  11 H :    0.144231
  12 C :   -0.000219
  13 H :    0.140634
  14 H :    0.125638
  15 O :   -0.517569
  16 C :    0.062618
  17 C :    0.079986
  18 C :   -0.288951
  19 C :   -0.018397
  20 O :   -0.528636
  21 H :    0.155701
  22 O :   -0.604378
  23 H :    0.151092
  24 H :    0.146371
  25 H :    0.186199
  26 H :    0.148058
  27 H :    0.132706
  28 H :    0.361798
Sum of atomic charges:   -0.0000000

LOEWDIN ATOMIC CHARGES
----------------------
   0 C :    0.180104
   1 C :   -0.228929
   2 C :   -0.216790
   3 C :   -0.025287
   4 O :   -0.305438
   5 H :    0.096588
   6 H :    0.115338
   7 H :    0.117255
   8 H :    0.115670
   9 H :    0.120294
  10 H :    0.108027
  11 H :    0.103776
  12 C :   -0.040380
  13 H :    0.098468
  14 H :    0.093723
  15 O :   -0.331480
  16 C :    0.015469
  17 C :    0.040768
  18 C :   -0.242614
  19 C :   -0.032603
  20 O :   -0.331828
  21 H :    0.115892
  22 O :   -0.417812
  23 H :    0.116013
  24 H :    0.117579
  25 H :    0.136463
  26 H :    0.105542
  27 H :    0.094877
  28 H :    0.281315

  Mayer bond orders larger than 0.100000
B(  0-C ,  1-C ) :   0.9306 B(  0-C ,  4-O ) :   0.9384 B(  0-C ,  5-H ) :   0.9198
B(  0-C , 15-O ) :   0.8237 B(  1-C ,  2-C ) :   0.9521 B(  1-C ,  6-H ) :   0.9339
B(  1-C ,  7-H ) :   0.9328 B(  2-C ,  3-C ) :   0.9559 B(  2-C ,  8-H ) :   0.9448
B(  2-C ,  9-H ) :   0.9422 B(  3-C ,  4-O ) :   0.8336 B(  3-C , 10-H ) :   0.9349
B(  3-C , 11-H ) :   0.9396 B( 12-C , 13-H ) :   0.9102 B( 12-C , 14-H ) :   0.9072
B( 12-C , 15-O ) :   0.8435 B( 12-C , 16-C ) :   0.9083 B( 16-C , 17-C ) :   0.9088
B( 16-C , 20-O ) :   0.8751 B( 16-C , 21-H ) :   0.9222 B( 17-C , 18-C ) :   0.9257
B( 17-C , 22-O ) :   0.8891 B( 17-C , 23-H ) :   0.9363 B( 18-C , 19-C ) :   0.9455
B( 18-C , 24-H ) :   0.9376 B( 18-C , 25-H ) :   0.9144 B( 19-C , 20-O ) :   0.8363
B( 19-C , 26-H ) :   0.9340 B( 19-C , 27-H ) :   0.9378 B( 22-O , 28-H ) :   0.7967

FINAL SINGLE POINT ENERGY      -652.863980227861

DIPOLE MOMENT
-------------
                                X             Y             Z
Electronic contribution:     -3.33864      -2.59985      -1.43691
Nuclear contribution   :      4.27363       3.32267       1.29277
                        -----------------------------------------
Total Dipole Moment    :      0.93500       0.72282      -0.14414
                        -----------------------------------------
Magnitude (a.u.)       :      1.19057
Magnitude (Debye)      :      3.02620

Rotational constants in cm-1:     0.056209     0.014116     0.013794
Rotational constants in MHz :  1685.092172   423.186255   413.525968

                             ****ORCA TERMINATED NORMALLY****
TOTAL RUN TIME: 0 days 0 hours 40 minutes 23 seconds 665 msec
