                         Program Version 4.2.1 -  RELEASE  -
|  1> # Test redundant internal optimization
|  2> #
|  3> ! RKS B3LYP  Opt TightSCF SmallPrint
|  4>
|  5> %basis
|  6>         Basis "6-31G"
|  7> end
|  8>
|  9> %geom
| 10> Constraints
| 11> { D 4  0  19  14  30.0   C } # D for Dihedral angle
| 12> { D 0  19  14  12  180.0   C } # D for Dihedral angle
| 13> { D 0  4  3  2   C } # D for Dihedral angle
| 14> { D 4  3  2  1   C } # D for Dihedral angle
| 15> { D 3  2  1  0   C } # D for Dihedral angle
| 16> { D 2  1  0  4   C } # D for Dihedral angle
| 17> { D 1  0  4  3   C } # D for Dihedral angle
| 18> { D 14  15  16  17   C } # D for Dihedral angle
| 19> { D 15  16  17  12   C } # D for Dihedral angle
| 20> { D 16  17  12  14   C } # D for Dihedral angle
| 21> { D 17  12  14  15   C } # D for Dihedral angle
| 22> { D 12  14  15  16   C } # D for Dihedral angle
| 23> end
| 24> end
| 25>
| 26>
| 27> #%pal
| 28> #nprocs 8
| 29> #end
| 30>
| 31> * xyz 0 1
| 32> C  -21.048   26.222   46.251
| 33> C  -20.361   27.558   45.944
| 34> C  -20.329   28.222   47.341
| 35> C  -20.110   27.022   48.296
| 36> O  -20.473   25.807   47.535
| 37> H  -20.833   25.428   45.533
| 38> H  -19.344   27.382   45.576
| 39> H  -20.898   28.157   45.201
| 40> H  -19.543   28.978   47.434
| 41> H  -21.289   28.710   47.548
| 42> H  -20.733   27.082   49.195
| 43> H  -19.064   26.913   48.597
| 44> C  -24.447   26.919   47.684
| 45> H  -24.790   27.491   48.560
| 46> C  -22.920   26.779   47.672
| 47> C  -22.701   25.640   48.695
| 48> C  -23.930   24.723   48.470
| 49> O  -24.935   25.537   47.752
| 50> H  -24.868   27.362   46.780
| 51> O  -22.472   26.381   46.366
| 52> H  -22.402   27.703   47.948
| 53> H  -21.754   25.112   48.547
| 54> H  -22.702   26.044   49.715
| 55> H  -24.364   24.364   49.410
| 56> H  -23.698   23.863   47.835
| 57> *
| 58>
| 59>                          ****END OF INPUT****
 Total Charge           Charge          ....    0
 Multiplicity           Mult            ....    1
 Number of Electrons    NEL             ....   86
FINAL SINGLE POINT ENERGY      -538.399167361655
FINAL SINGLE POINT ENERGY      -538.425157592613
FINAL SINGLE POINT ENERGY      -538.427611301083
FINAL SINGLE POINT ENERGY      -538.427920361204
FINAL SINGLE POINT ENERGY      -538.427946355792
FINAL SINGLE POINT ENERGY      -538.427948254268
                    ***********************HURRAY********************

CARTESIAN COORDINATES (ANGSTROEM)
---------------------------------
  C    -21.041857   26.315280   46.349799
  C    -20.366052   27.624973   45.925556
  C    -20.050007   28.282471   47.297197
  C    -19.712744   27.064415   48.190461
  O    -20.268963   25.876452   47.491634
  H    -20.960697   25.523779   45.602743
  H    -19.442579   27.393159   45.382734
  H    -21.013145   28.231299   45.288355
  H    -19.216046   28.989122   47.241072
  H    -20.921415   28.827312   47.673217
  H    -20.153011   27.124609   49.190236
  H    -18.635983   26.896205   48.283580
  C    -24.593895   26.789631   47.577702
  H    -25.113997   27.334243   48.380240
  C    -23.086276   26.771576   47.835052
  C    -22.962153   25.643990   48.879356
  C    -24.050273   24.635891   48.447155
  O    -24.975792   25.377556   47.560257
  H    -24.852099   27.215147   46.607205
  O    -22.473639   26.437534   46.551863
  H    -22.718078   27.734074   48.210776
  H    -21.962386   25.211889   48.890238
  H    -23.184318   26.057171   49.871586
  H    -24.611629   24.231744   49.296766
  H    -23.640961   23.809478   47.860220

 Multiplicity           Mult            ....    1
 Number of Electrons    NEL             ....   86
 Basis Dimension        Dim             ....  127

ORBITAL ENERGIES
----------------

  NO   OCC          E(Eh)            E(eV)
   0   2.0000     -19.152710      -521.1717
   1   2.0000     -19.138341      -520.7807
   2   2.0000     -19.120852      -520.3048
   3   2.0000     -10.281350      -279.7698
   4   2.0000     -10.239831      -278.6400
   5   2.0000     -10.236688      -278.5544
   6   2.0000     -10.217434      -278.0305
   7   2.0000     -10.212748      -277.9030
   8   2.0000     -10.196931      -277.4726
   9   2.0000     -10.189435      -277.2686
  10   2.0000     -10.175087      -276.8782
  11   2.0000      -1.055441       -28.7200
  12   2.0000      -1.010973       -27.5100
  13   2.0000      -0.987992       -26.8846
  14   2.0000      -0.794176       -21.6106
  15   2.0000      -0.780162       -21.2293
  16   2.0000      -0.740381       -20.1468
  17   2.0000      -0.720820       -19.6145
  18   2.0000      -0.618777       -16.8378
  19   2.0000      -0.607374       -16.5275
  20   2.0000      -0.592590       -16.1252
  21   2.0000      -0.562148       -15.2968
  22   2.0000      -0.524171       -14.2634
  23   2.0000      -0.502498       -13.6737
  24   2.0000      -0.486297       -13.2328
  25   2.0000      -0.480515       -13.0755
  26   2.0000      -0.451497       -12.2859
  27   2.0000      -0.448961       -12.2169
  28   2.0000      -0.423773       -11.5314
  29   2.0000      -0.410072       -11.1586
  30   2.0000      -0.407961       -11.1012
  31   2.0000      -0.385710       -10.4957
  32   2.0000      -0.376194       -10.2368
  33   2.0000      -0.364564        -9.9203
  34   2.0000      -0.364228        -9.9111
  35   2.0000      -0.361792        -9.8449
  36   2.0000      -0.343016        -9.3339
  37   2.0000      -0.325936        -8.8692
  38   2.0000      -0.309308        -8.4167
  39   2.0000      -0.291562        -7.9338
  40   2.0000      -0.264694        -7.2027
  41   2.0000      -0.251741        -6.8502
  42   2.0000      -0.227170        -6.1816
  43   0.0000       0.065541         1.7835
  44   0.0000       0.090954         2.4750
  45   0.0000       0.096716         2.6318
  46   0.0000       0.109890         2.9902
  47   0.0000       0.121988         3.3195

MULLIKEN ATOMIC CHARGES
-----------------------
   0 C :    0.303922
   1 C :   -0.262505
   2 C :   -0.318439
   3 C :   -0.015830
   4 O :   -0.511718
   5 H :    0.167117
   6 H :    0.149175
   7 H :    0.158487
   8 H :    0.149652
   9 H :    0.153085
  10 H :    0.143166
  11 H :    0.153917
  12 C :    0.010112
  13 H :    0.120560
  14 C :    0.077232
  15 C :   -0.306096
  16 C :    0.001648
  17 O :   -0.520686
  18 H :    0.163114
  19 O :   -0.532072
  20 H :    0.115173
  21 H :    0.190997
  22 H :    0.126637
  23 H :    0.131506
  24 H :    0.151844
Sum of atomic charges:   -0.0000000

LOEWDIN ATOMIC CHARGES
----------------------
   0 C :    0.181395
   1 C :   -0.224805
   2 C :   -0.222515
   3 C :   -0.034515
   4 O :   -0.319095
   5 H :    0.112582
   6 H :    0.116824
   7 H :    0.124148
   8 H :    0.118034
   9 H :    0.110257
  10 H :    0.101543
  11 H :    0.108137
  12 C :   -0.032127
  13 H :    0.089080
  14 C :    0.041755
  15 C :   -0.243246
  16 C :   -0.027455
  17 O :   -0.329905
  18 H :    0.121058
  19 O :   -0.327628
  20 H :    0.088048
  21 H :    0.137962
  22 H :    0.106535
  23 H :    0.096720
  24 H :    0.107213

  Mayer bond orders larger than 0.100000
B(  0-C ,  1-C ) :   0.9196 B(  0-C ,  4-O ) :   0.8931 B(  0-C ,  5-H ) :   0.9341
B(  0-C , 19-O ) :   0.8754 B(  1-C ,  2-C ) :   0.9542 B(  1-C ,  6-H ) :   0.9347
B(  1-C ,  7-H ) :   0.9371 B(  2-C ,  3-C ) :   0.9507 B(  2-C ,  8-H ) :   0.9441
B(  2-C ,  9-H ) :   0.9412 B(  3-C ,  4-O ) :   0.8339 B(  3-C , 10-H ) :   0.9319
B(  3-C , 11-H ) :   0.9393 B( 12-C , 13-H ) :   0.9158 B( 12-C , 14-C ) :   0.9378
B( 12-C , 17-O ) :   0.8750 B( 12-C , 18-H ) :   0.9310 B( 14-C , 15-C ) :   0.9330
B( 14-C , 19-O ) :   0.8250 B( 14-C , 20-H ) :   0.9126 B( 15-C , 16-C ) :   0.9465
B( 15-C , 21-H ) :   0.9156 B( 15-C , 22-H ) :   0.9371 B( 16-C , 17-O ) :   0.8556
B( 16-C , 23-H ) :   0.9337 B( 16-C , 24-H ) :   0.9365

FINAL SINGLE POINT ENERGY      -538.427947723849

DIPOLE MOMENT
-------------
                                X             Y             Z
Electronic contribution:     -2.35256      -3.13771      -2.44080
Nuclear contribution   :      3.47230       4.31210       3.05251
                        -----------------------------------------
Total Dipole Moment    :      1.11974       1.17439       0.61171
                        -----------------------------------------
Magnitude (a.u.)       :      1.73413
Magnitude (Debye)      :      4.40781

Rotational constants in cm-1:     0.079220     0.023202     0.021574
Rotational constants in MHz :  2374.946768   695.590742   646.768091

                             ****ORCA TERMINATED NORMALLY****
TOTAL RUN TIME: 0 days 0 hours 7 minutes 34 seconds 17 msec
