                         Program Version 4.2.0 -  RELEASE  -
|  1> # Test redundant internal optimization
|  2> #
|  3> ! RKS B3LYP  Opt TightSCF SmallPrint
|  4>
|  5> %basis
|  6>         Basis "6-31G"
|  7> end
|  8>
|  9> %geom
| 10> Constraints
| 11> { D 4  0  15  12  225.0   C } # D for Dihedral angle
| 12> { D 0  15  12  16  165.0   C } # D for Dihedral angle
| 13> { D 0  4  3  2   C } # D for Dihedral angle
| 14> { D 4  3  2  1   C } # D for Dihedral angle
| 15> { D 3  2  1  0   C } # D for Dihedral angle
| 16> { D 2  1  0  4   C } # D for Dihedral angle
| 17> { D 1  0  4  3   C } # D for Dihedral angle
| 18> { D 16  20  19  18   C } # D for Dihedral angle
| 19> { D 20  19  18  17   C } # D for Dihedral angle
| 20> { D 19  18  17  16   C } # D for Dihedral angle
| 21> { D 18  17  16  20   C } # D for Dihedral angle
| 22> { D 17  16  20  19   C } # D for Dihedral angle
| 23> { D 15  12  16  20   C } # D for Dihedral angle
| 24> end
| 25> end
| 26>
| 27>
| 28> #%pal
| 29> #nprocs 8
| 30> #end
| 31>
| 32> * xyz 0 1
| 33> C  -21.048   26.222   46.251
| 34> C  -20.361   27.558   45.944
| 35> C  -20.329   28.222   47.341
| 36> C  -20.110   27.022   48.296
| 37> O  -20.473   25.807   47.535
| 38> H  -20.833   25.428   45.533
| 39> H  -19.344   27.382   45.576
| 40> H  -20.898   28.157   45.201
| 41> H  -19.543   28.978   47.434
| 42> H  -21.289   28.710   47.548
| 43> H  -20.733   27.082   49.195
| 44> H  -19.064   26.913   48.597
| 45> C  -23.415   25.773   45.218
| 46> H  -23.319   26.403   44.325
| 47> H  -23.041   24.771   44.972
| 48> O  -22.586   26.394   46.375
| 49> C  -24.925   25.642   45.564
| 50> C  -25.691   24.922   44.449
| 51> C  -25.340   23.442   44.732
| 52> C  -25.263   23.389   46.279
| 53> O  -25.109   24.786   46.740
| 54> H  -25.320   26.627   45.820
| 55> H  -26.768   25.092   44.560
| 56> O  -25.269   25.378   43.025
| 57> H  -26.080   22.744   44.327
| 58> H  -24.368   23.194   44.289
| 59> H  -24.413   22.797   46.637
| 60> H  -26.181   23.000   46.729
| 61> H  -24.194   25.217   42.889
| 62> *
| 63>
| 64>                          ****END OF INPUT****
 Total Charge           Charge          ....    0
 Multiplicity           Mult            ....    1
 Number of Electrons    NEL             ....  102
FINAL SINGLE POINT ENERGY      -652.825204700672
FINAL SINGLE POINT ENERGY      -652.849065949347
FINAL SINGLE POINT ENERGY      -652.853487576899
FINAL SINGLE POINT ENERGY      -652.854294219627
FINAL SINGLE POINT ENERGY      -652.854437619554
FINAL SINGLE POINT ENERGY      -652.854463131300
FINAL SINGLE POINT ENERGY      -652.854466428976
FINAL SINGLE POINT ENERGY      -652.854466101297
                    ***********************HURRAY********************

CARTESIAN COORDINATES (ANGSTROEM)
---------------------------------
  C    -21.028934   26.197498   46.181544
  C    -20.399018   27.569867   45.950446
  C    -20.485515   28.202931   47.359638
  C    -20.261761   26.994945   48.294908
  O    -20.520719   25.790197   47.463890
  H    -20.749575   25.420605   45.461980
  H    -19.353876   27.447948   45.640846
  H    -20.926217   28.147837   45.186836
  H    -19.746054   28.994465   47.512675
  H    -21.483926   28.624107   47.510394
  H    -20.941922   26.980339   49.149688
  H    -19.229313   26.915133   48.648587
  C    -23.219862   25.743955   45.147015
  H    -23.155785   26.378749   44.250358
  H    -22.808040   24.751627   44.902228
  O    -22.474043   26.320416   46.245861
  C    -24.683174   25.638977   45.570767
  C    -25.591424   25.001187   44.506843
  C    -25.375298   23.480437   44.769888
  C    -25.206036   23.423409   46.304370
  O    -24.879650   24.802934   46.748126
  H    -25.022466   26.638474   45.856806
  H    -26.628876   25.278047   44.705855
  O    -25.353550   25.429021   43.142686
  H    -26.211150   22.875087   44.409010
  H    -24.466341   23.143612   44.253427
  H    -24.405049   22.748274   46.621259
  H    -26.131170   23.135251   46.812229
  H    -24.568257   24.976673   42.772839

 Multiplicity           Mult            ....    1
 Number of Electrons    NEL             ....  102
 Basis Dimension        Dim             ....  149

ORBITAL ENERGIES
----------------

  NO   OCC          E(Eh)            E(eV)
   0   2.0000     -19.151437      -521.1371
   1   2.0000     -19.136786      -520.7384
   2   2.0000     -19.134446      -520.6747
   3   2.0000     -19.133976      -520.6620
   4   2.0000     -10.276097      -279.6268
   5   2.0000     -10.245672      -278.7989
   6   2.0000     -10.232070      -278.4288
   7   2.0000     -10.229632      -278.3624
   8   2.0000     -10.228514      -278.3320
   9   2.0000     -10.219272      -278.0805
  10   2.0000     -10.196354      -277.4569
  11   2.0000     -10.182197      -277.0717
  12   2.0000     -10.181185      -277.0441
  13   2.0000      -1.048977       -28.5441
  14   2.0000      -1.033698       -28.1283
  15   2.0000      -1.014769       -27.6133
  16   2.0000      -0.990711       -26.9586
  17   2.0000      -0.784674       -21.3521
  18   2.0000      -0.781083       -21.2543
  19   2.0000      -0.766391       -20.8546
  20   2.0000      -0.727215       -19.7885
  21   2.0000      -0.679218       -18.4824
  22   2.0000      -0.611739       -16.6463
  23   2.0000      -0.594525       -16.1778
  24   2.0000      -0.586965       -15.9721
  25   2.0000      -0.579619       -15.7722
  26   2.0000      -0.528646       -14.3852
  27   2.0000      -0.510301       -13.8860
  28   2.0000      -0.498094       -13.5538
  29   2.0000      -0.485331       -13.2065
  30   2.0000      -0.465917       -12.6783
  31   2.0000      -0.458054       -12.4643
  32   2.0000      -0.448316       -12.1993
  33   2.0000      -0.431464       -11.7407
  34   2.0000      -0.427395       -11.6300
  35   2.0000      -0.418897       -11.3988
  36   2.0000      -0.402708       -10.9582
  37   2.0000      -0.396671       -10.7940
  38   2.0000      -0.378291       -10.2938
  39   2.0000      -0.369834       -10.0637
  40   2.0000      -0.353398        -9.6164
  41   2.0000      -0.350003        -9.5241
  42   2.0000      -0.348102        -9.4723
  43   2.0000      -0.329948        -8.9783
  44   2.0000      -0.315369        -8.5816
  45   2.0000      -0.308825        -8.4035
  46   2.0000      -0.304301        -8.2805
  47   2.0000      -0.271838        -7.3971
  48   2.0000      -0.258953        -7.0465
  49   2.0000      -0.243380        -6.6227
  50   2.0000      -0.239616        -6.5203
  51   0.0000       0.049163         1.3378
  52   0.0000       0.075821         2.0632
  53   0.0000       0.087190         2.3725
  54   0.0000       0.094581         2.5737
  55   0.0000       0.107677         2.9300

MULLIKEN ATOMIC CHARGES
-----------------------
   0 C :    0.291480
   1 C :   -0.256590
   2 C :   -0.300334
   3 C :   -0.000721
   4 O :   -0.500594
   5 H :    0.132906
   6 H :    0.140068
   7 H :    0.143598
   8 H :    0.139504
   9 H :    0.164876
  10 H :    0.156958
  11 H :    0.138180
  12 C :   -0.007247
  13 H :    0.130071
  14 H :    0.114903
  15 O :   -0.505442
  16 C :    0.098351
  17 C :    0.082847
  18 C :   -0.325639
  19 C :   -0.011981
  20 O :   -0.499165
  21 H :    0.163805
  22 H :    0.167658
  23 O :   -0.601435
  24 H :    0.158459
  25 H :    0.130666
  26 H :    0.150067
  27 H :    0.149457
  28 H :    0.355291
Sum of atomic charges:   -0.0000000

LOEWDIN ATOMIC CHARGES
----------------------
   0 C :    0.177464
   1 C :   -0.224616
   2 C :   -0.216686
   3 C :   -0.025680
   4 O :   -0.310041
   5 H :    0.094769
   6 H :    0.110954
   7 H :    0.116075
   8 H :    0.113121
   9 H :    0.120589
  10 H :    0.110680
  11 H :    0.100541
  12 C :   -0.048592
  13 H :    0.093732
  14 H :    0.085835
  15 O :   -0.321291
  16 C :    0.023467
  17 C :    0.034977
  18 C :   -0.242041
  19 C :   -0.030256
  20 O :   -0.308396
  21 H :    0.120185
  22 H :    0.119571
  23 O :   -0.408899
  24 H :    0.122736
  25 H :    0.102452
  26 H :    0.105777
  27 H :    0.106164
  28 H :    0.277409

  Mayer bond orders larger than 0.100000
B(  0-C ,  1-C ) :   0.9378 B(  0-C ,  4-O ) :   0.9345 B(  0-C ,  5-H ) :   0.9189
B(  0-C , 15-O ) :   0.8401 B(  1-C ,  2-C ) :   0.9569 B(  1-C ,  6-H ) :   0.9358
B(  1-C ,  7-H ) :   0.9387 B(  2-C ,  3-C ) :   0.9549 B(  2-C ,  8-H ) :   0.9453
B(  2-C ,  9-H ) :   0.9430 B(  3-C ,  4-O ) :   0.8375 B(  3-C , 10-H ) :   0.9339
B(  3-C , 11-H ) :   0.9399 B( 12-C , 13-H ) :   0.9021 B( 12-C , 14-H ) :   0.9127
B( 12-C , 15-O ) :   0.8523 B( 12-C , 16-C ) :   0.9065 B( 16-C , 17-C ) :   0.8738
B( 16-C , 20-O ) :   0.8770 B( 16-C , 21-H ) :   0.9296 B( 17-C , 18-C ) :   0.9253
B( 17-C , 22-H ) :   0.9336 B( 17-C , 23-O ) :   0.8938 B( 18-C , 19-C ) :   0.9386
B( 18-C , 24-H ) :   0.9414 B( 18-C , 25-H ) :   0.9404 B( 19-C , 20-O ) :   0.8517
B( 19-C , 26-H ) :   0.9304 B( 19-C , 27-H ) :   0.9374 B( 23-O , 28-H ) :   0.7992

FINAL SINGLE POINT ENERGY      -652.854465752984

DIPOLE MOMENT
-------------
                                X             Y             Z
Electronic contribution:     -2.25043      -0.95952       0.65917
Nuclear contribution   :      2.69696       0.73971      -1.55285
                        -----------------------------------------
Total Dipole Moment    :      0.44653      -0.21981      -0.89368
                        -----------------------------------------
Magnitude (a.u.)       :      1.02292
Magnitude (Debye)      :      2.60006

Rotational constants in cm-1:     0.057373     0.012243     0.011054
Rotational constants in MHz :  1719.994840   367.033081   331.379378

                             ****ORCA TERMINATED NORMALLY****
TOTAL RUN TIME: 0 days 0 hours 25 minutes 18 seconds 99 msec
