                         Program Version 4.2.1 -  RELEASE  -
|  1> # Test redundant internal optimization
|  2> #
|  3> ! RKS B3LYP  Opt TightSCF SmallPrint
|  4>
|  5> %basis
|  6>         Basis "6-31G"
|  7> end
|  8>
|  9> %geom
| 10> Constraints
| 11> { D 4  0  19  14  30.0   C } # D for Dihedral angle
| 12> { D 0  19  14  12  105.0   C } # D for Dihedral angle
| 13> { D 0  4  3  2   C } # D for Dihedral angle
| 14> { D 4  3  2  1   C } # D for Dihedral angle
| 15> { D 3  2  1  0   C } # D for Dihedral angle
| 16> { D 2  1  0  4   C } # D for Dihedral angle
| 17> { D 1  0  4  3   C } # D for Dihedral angle
| 18> { D 14  15  16  17   C } # D for Dihedral angle
| 19> { D 15  16  17  12   C } # D for Dihedral angle
| 20> { D 16  17  12  14   C } # D for Dihedral angle
| 21> { D 17  12  14  15   C } # D for Dihedral angle
| 22> { D 12  14  15  16   C } # D for Dihedral angle
| 23> end
| 24> end
| 25>
| 26>
| 27> #%pal
| 28> #nprocs 8
| 29> #end
| 30>
| 31> * xyz 0 1
| 32> C  -21.048   26.222   46.251
| 33> C  -20.361   27.558   45.944
| 34> C  -20.329   28.222   47.341
| 35> C  -20.110   27.022   48.296
| 36> O  -20.473   25.807   47.535
| 37> H  -20.833   25.428   45.533
| 38> H  -19.344   27.382   45.576
| 39> H  -20.898   28.157   45.201
| 40> H  -19.543   28.978   47.434
| 41> H  -21.289   28.710   47.548
| 42> H  -20.733   27.082   49.195
| 43> H  -19.064   26.913   48.597
| 44> C  -23.317   28.259   47.663
| 45> H  -23.383   28.663   48.686
| 46> C  -22.920   26.779   47.672
| 47> C  -24.263   26.096   48.020
| 48> C  -25.308   26.989   47.307
| 49> O  -24.636   28.276   47.020
| 50> H  -22.664   28.899   47.068
| 51> O  -22.472   26.381   46.366
| 52> H  -22.128   26.551   48.393
| 53> H  -24.309   25.054   47.688
| 54> H  -24.422   26.107   49.106
| 55> H  -26.193   27.177   47.925
| 56> H  -25.629   26.573   46.347
| 57> *
| 58>
| 59>                          ****END OF INPUT****
 Total Charge           Charge          ....    0
 Multiplicity           Mult            ....    1
 Number of Electrons    NEL             ....   86
FINAL SINGLE POINT ENERGY      -538.401548064939
FINAL SINGLE POINT ENERGY      -538.425118060985
FINAL SINGLE POINT ENERGY      -538.427611994355
FINAL SINGLE POINT ENERGY      -538.427918353271
FINAL SINGLE POINT ENERGY      -538.427951163791
FINAL SINGLE POINT ENERGY      -538.427961766887
                    ***********************HURRAY********************

CARTESIAN COORDINATES (ANGSTROEM)
---------------------------------
  C    -21.069576   26.283424   46.396988
  C    -20.315752   27.532057   45.921939
  C    -20.007175   28.252913   47.263433
  C    -19.758499   27.073020   48.234376
  O    -20.353890   25.876135   47.585039
  H    -20.990863   25.452130   45.693492
  H    -19.389886   27.217315   45.428339
  H    -20.906272   28.133579   45.227423
  H    -19.137710   28.913825   47.193875
  H    -20.858582   28.858819   47.583018
  H    -20.219898   27.213956   49.216537
  H    -18.694559   26.857828   48.369348
  C    -23.576099   28.277995   47.827873
  H    -23.788587   28.615110   48.854305
  C    -23.101600   26.824809   47.831319
  C    -24.434543   26.062336   47.964046
  C    -25.426160   26.929786   47.153577
  O    -24.793116   28.262585   47.014115
  H    -22.888835   28.977064   47.350498
  O    -22.503763   26.433190   46.559346
  H    -22.414019   26.589314   48.648608
  H    -24.336204   25.046281   47.577676
  H    -24.724933   26.011764   49.019989
  H    -26.394017   27.044835   47.653762
  H    -25.584462   26.544932   46.143080

 Multiplicity           Mult            ....    1
 Number of Electrons    NEL             ....   86
 Basis Dimension        Dim             ....  127

ORBITAL ENERGIES
----------------

  NO   OCC          E(Eh)            E(eV)
   0   2.0000     -19.150897      -521.1224
   1   2.0000     -19.137915      -520.7691
   2   2.0000     -19.125748      -520.4380
   3   2.0000     -10.279790      -279.7273
   4   2.0000     -10.238294      -278.5981
   5   2.0000     -10.235194      -278.5138
   6   2.0000     -10.221468      -278.1403
   7   2.0000     -10.216277      -277.9990
   8   2.0000     -10.194884      -277.4169
   9   2.0000     -10.188036      -277.2306
  10   2.0000     -10.180991      -277.0389
  11   2.0000      -1.054934       -28.7062
  12   2.0000      -1.012933       -27.5633
  13   2.0000      -0.989371       -26.9222
  14   2.0000      -0.792610       -21.5680
  15   2.0000      -0.782050       -21.2807
  16   2.0000      -0.739824       -20.1316
  17   2.0000      -0.723520       -19.6880
  18   2.0000      -0.618621       -16.8335
  19   2.0000      -0.606504       -16.5038
  20   2.0000      -0.595486       -16.2040
  21   2.0000      -0.564744       -15.3675
  22   2.0000      -0.520356       -14.1596
  23   2.0000      -0.504171       -13.7192
  24   2.0000      -0.490619       -13.3504
  25   2.0000      -0.483556       -13.1582
  26   2.0000      -0.452734       -12.3195
  27   2.0000      -0.437960       -11.9175
  28   2.0000      -0.434863       -11.8332
  29   2.0000      -0.417927       -11.3724
  30   2.0000      -0.410575       -11.1723
  31   2.0000      -0.384498       -10.4627
  32   2.0000      -0.371955       -10.1214
  33   2.0000      -0.362982        -9.8772
  34   2.0000      -0.361013        -9.8237
  35   2.0000      -0.360101        -9.7989
  36   2.0000      -0.345322        -9.3967
  37   2.0000      -0.325672        -8.8620
  38   2.0000      -0.307239        -8.3604
  39   2.0000      -0.300526        -8.1777
  40   2.0000      -0.266701        -7.2573
  41   2.0000      -0.252197        -6.8626
  42   2.0000      -0.229648        -6.2490
  43   0.0000       0.069140         1.8814
  44   0.0000       0.089639         2.4392
  45   0.0000       0.094589         2.5739
  46   0.0000       0.102551         2.7906
  47   0.0000       0.112431         3.0594

MULLIKEN ATOMIC CHARGES
-----------------------
   0 C :    0.303762
   1 C :   -0.263137
   2 C :   -0.316185
   3 C :   -0.020006
   4 O :   -0.510879
   5 H :    0.162422
   6 H :    0.148911
   7 H :    0.161664
   8 H :    0.149449
   9 H :    0.148491
  10 H :    0.141424
  11 H :    0.152715
  12 C :    0.003214
  13 H :    0.120503
  14 C :    0.055274
  15 C :   -0.284194
  16 C :    0.001062
  17 O :   -0.523166
  18 H :    0.154727
  19 O :   -0.525717
  20 H :    0.149399
  21 H :    0.164733
  22 H :    0.138315
  23 H :    0.132729
  24 H :    0.154490
Sum of atomic charges:   -0.0000000

LOEWDIN ATOMIC CHARGES
----------------------
   0 C :    0.181778
   1 C :   -0.226119
   2 C :   -0.223847
   3 C :   -0.034941
   4 O :   -0.319650
   5 H :    0.110141
   6 H :    0.117614
   7 H :    0.125705
   8 H :    0.118339
   9 H :    0.109671
  10 H :    0.099443
  11 H :    0.107158
  12 C :   -0.048062
  13 H :    0.090072
  14 C :    0.035703
  15 C :   -0.223583
  16 C :   -0.028177
  17 O :   -0.331387
  18 H :    0.111513
  19 O :   -0.325863
  20 H :    0.108257
  21 H :    0.129578
  22 H :    0.110690
  23 H :    0.096981
  24 H :    0.108983

  Mayer bond orders larger than 0.100000
B(  0-C ,  1-C ) :   0.9158 B(  0-C ,  4-O ) :   0.9015 B(  0-C ,  5-H ) :   0.9351
B(  0-C , 19-O ) :   0.8815 B(  1-C ,  2-C ) :   0.9559 B(  1-C ,  6-H ) :   0.9341
B(  1-C ,  7-H ) :   0.9352 B(  2-C ,  3-C ) :   0.9491 B(  2-C ,  8-H ) :   0.9444
B(  2-C ,  9-H ) :   0.9330 B(  3-C ,  4-O ) :   0.8361 B(  3-C , 10-H ) :   0.9319
B(  3-C , 11-H ) :   0.9399 B( 12-C , 13-H ) :   0.9103 B( 12-C , 14-C ) :   0.9154
B( 12-C , 17-O ) :   0.8686 B( 12-C , 18-H ) :   0.9237 B( 14-C , 15-C ) :   0.9519
B( 14-C , 19-O ) :   0.8281 B( 14-C , 20-H ) :   0.9104 B( 15-C , 16-C ) :   0.9484
B( 15-C , 21-H ) :   0.9373 B( 15-C , 22-H ) :   0.9419 B( 16-C , 17-O ) :   0.8525
B( 16-C , 23-H ) :   0.9338 B( 16-C , 24-H ) :   0.9363

FINAL SINGLE POINT ENERGY      -538.427961740497

DIPOLE MOMENT
-------------
                                X             Y             Z
Electronic contribution:     -1.13930      -2.09156      -1.67767
Nuclear contribution   :      1.87688       2.29701       2.28701
                        -----------------------------------------
Total Dipole Moment    :      0.73758       0.20545       0.60934
                        -----------------------------------------
Magnitude (a.u.)       :      0.97853
Magnitude (Debye)      :      2.48723

Rotational constants in cm-1:     0.076588     0.022795     0.021542
Rotational constants in MHz :  2296.054143   683.364570   645.803259

                             ****ORCA TERMINATED NORMALLY****
TOTAL RUN TIME: 0 days 0 hours 7 minutes 33 seconds 855 msec
