                         Program Version 4.2.0 -  RELEASE  -
|  1> # Test redundant internal optimization
|  2> #
|  3> ! RKS B3LYP  Opt TightSCF SmallPrint
|  4>
|  5> %basis
|  6>         Basis "6-31G"
|  7> end
|  8>
|  9> %geom
| 10> Constraints
| 11> { D 4  0  15  12  345.0   C } # D for Dihedral angle
| 12> { D 0  15  12  16  165.0   C } # D for Dihedral angle
| 13> { D 0  4  3  2   C } # D for Dihedral angle
| 14> { D 4  3  2  1   C } # D for Dihedral angle
| 15> { D 3  2  1  0   C } # D for Dihedral angle
| 16> { D 2  1  0  4   C } # D for Dihedral angle
| 17> { D 1  0  4  3   C } # D for Dihedral angle
| 18> { D 16  20  19  18   C } # D for Dihedral angle
| 19> { D 20  19  18  17   C } # D for Dihedral angle
| 20> { D 19  18  17  16   C } # D for Dihedral angle
| 21> { D 18  17  16  20   C } # D for Dihedral angle
| 22> { D 17  16  20  19   C } # D for Dihedral angle
| 23> { D 15  12  16  20   C } # D for Dihedral angle
| 24> end
| 25> end
| 26>
| 27>
| 28> #%pal
| 29> #nprocs 8
| 30> #end
| 31>
| 32> * xyz 0 1
| 33> C  -21.048   26.222   46.251
| 34> C  -20.361   27.558   45.944
| 35> C  -20.329   28.222   47.341
| 36> C  -20.110   27.022   48.296
| 37> O  -20.473   25.807   47.535
| 38> H  -20.833   25.428   45.533
| 39> H  -19.344   27.382   45.576
| 40> H  -20.898   28.157   45.201
| 41> H  -19.543   28.978   47.434
| 42> H  -21.289   28.710   47.548
| 43> H  -20.733   27.082   49.195
| 44> H  -19.064   26.913   48.597
| 45> C  -23.221   25.764   47.645
| 46> H  -23.254   24.674   47.530
| 47> H  -22.617   25.997   48.532
| 48> O  -22.586   26.394   46.375
| 49> C  -24.665   26.272   47.910
| 50> C  -25.621   25.840   46.792
| 51> C  -25.904   24.367   47.174
| 52> C  -25.903   24.399   48.723
| 53> O  -25.215   25.647   49.117
| 54> H  -24.638   27.348   48.091
| 55> H  -26.541   26.433   46.834
| 56> O  -25.007   25.987   45.373
| 57> H  -26.849   23.997   46.765
| 58> H  -25.100   23.721   46.800
| 59> H  -25.375   23.545   49.160
| 60> H  -26.913   24.442   49.140
| 61> H  -24.084   25.401   45.309
| 62> *
| 63>
| 64>                          ****END OF INPUT****
 Total Charge           Charge          ....    0
 Multiplicity           Mult            ....    1
 Number of Electrons    NEL             ....  102
FINAL SINGLE POINT ENERGY      -652.831834614491
FINAL SINGLE POINT ENERGY      -652.855707669426
FINAL SINGLE POINT ENERGY      -652.862269769208
FINAL SINGLE POINT ENERGY      -652.864697725532
FINAL SINGLE POINT ENERGY      -652.866085884026
FINAL SINGLE POINT ENERGY      -652.866868828809
FINAL SINGLE POINT ENERGY      -652.867122132420
FINAL SINGLE POINT ENERGY      -652.867175573557
FINAL SINGLE POINT ENERGY      -652.867181181737
                    ***********************HURRAY********************

CARTESIAN COORDINATES (ANGSTROEM)
---------------------------------
  C    -21.084842   26.145877   46.346341
  C    -20.550206   27.523101   45.959248
  C    -20.434918   28.215170   47.335684
  C    -20.021768   27.066174   48.278471
  O    -20.367341   25.808436   47.546485
  H    -20.887498   25.343009   45.631912
  H    -19.567508   27.405692   45.488525
  H    -21.214611   28.047687   45.268992
  H    -19.706391   29.031458   47.334626
  H    -21.406577   28.626875   47.625364
  H    -20.552206   27.071105   49.233964
  H    -18.944929   27.025546   48.462243
  C    -23.132944   25.655142   47.751248
  H    -23.133470   24.559385   47.689093
  H    -22.562372   25.941920   48.636663
  O    -22.536685   26.225932   46.535978
  C    -24.556708   26.211564   47.851019
  C    -25.503290   25.806351   46.707446
  C    -25.901810   24.359817   47.126038
  C    -25.953028   24.442843   48.664904
  O    -25.188251   25.666828   49.050618
  H    -24.510417   27.296852   47.978924
  H    -26.389590   26.449976   46.745676
  O    -24.964610   25.896087   45.375190
  H    -26.855376   24.059020   46.684347
  H    -25.133449   23.663274   46.773064
  H    -25.502536   23.578583   49.162423
  H    -26.969000   24.579603   49.046185
  H    -23.985667   26.005695   45.430330

 Multiplicity           Mult            ....    1
 Number of Electrons    NEL             ....  102
 Basis Dimension        Dim             ....  149

ORBITAL ENERGIES
----------------

  NO   OCC          E(Eh)            E(eV)
   0   2.0000     -19.161382      -521.4077
   1   2.0000     -19.161101      -521.4001
   2   2.0000     -19.138118      -520.7747
   3   2.0000     -19.109856      -520.0056
   4   2.0000     -10.293146      -280.0907
   5   2.0000     -10.240381      -278.6549
   6   2.0000     -10.234365      -278.4912
   7   2.0000     -10.231893      -278.4240
   8   2.0000     -10.227402      -278.3018
   9   2.0000     -10.223926      -278.2072
  10   2.0000     -10.198037      -277.5027
  11   2.0000     -10.196144      -277.4512
  12   2.0000     -10.176335      -276.9122
  13   2.0000      -1.068335       -29.0709
  14   2.0000      -1.023952       -27.8631
  15   2.0000      -1.006443       -27.3867
  16   2.0000      -0.989249       -26.9188
  17   2.0000      -0.800858       -21.7925
  18   2.0000      -0.774209       -21.0673
  19   2.0000      -0.765858       -20.8401
  20   2.0000      -0.737264       -20.0620
  21   2.0000      -0.676417       -18.4062
  22   2.0000      -0.612541       -16.6681
  23   2.0000      -0.598824       -16.2948
  24   2.0000      -0.592409       -16.1203
  25   2.0000      -0.576138       -15.6775
  26   2.0000      -0.534678       -14.5493
  27   2.0000      -0.513686       -13.9781
  28   2.0000      -0.507756       -13.8167
  29   2.0000      -0.486182       -13.2297
  30   2.0000      -0.477336       -12.9890
  31   2.0000      -0.457683       -12.4542
  32   2.0000      -0.441322       -12.0090
  33   2.0000      -0.428376       -11.6567
  34   2.0000      -0.425226       -11.5710
  35   2.0000      -0.421975       -11.4825
  36   2.0000      -0.408643       -11.1197
  37   2.0000      -0.385737       -10.4964
  38   2.0000      -0.382827       -10.4172
  39   2.0000      -0.370527       -10.0826
  40   2.0000      -0.364168        -9.9095
  41   2.0000      -0.363158        -9.8820
  42   2.0000      -0.356765        -9.7081
  43   2.0000      -0.340906        -9.2765
  44   2.0000      -0.329651        -8.9703
  45   2.0000      -0.316652        -8.6165
  46   2.0000      -0.287486        -7.8229
  47   2.0000      -0.275905        -7.5078
  48   2.0000      -0.266863        -7.2617
  49   2.0000      -0.248280        -6.7560
  50   2.0000      -0.239123        -6.5069
  51   0.0000       0.059782         1.6267
  52   0.0000       0.073028         1.9872
  53   0.0000       0.092668         2.5216
  54   0.0000       0.097186         2.6446
  55   0.0000       0.101043         2.7495

MULLIKEN ATOMIC CHARGES
-----------------------
   0 C :    0.311376
   1 C :   -0.261128
   2 C :   -0.304331
   3 C :   -0.022519
   4 O :   -0.508580
   5 H :    0.160637
   6 H :    0.150934
   7 H :    0.164608
   8 H :    0.151453
   9 H :    0.160060
  10 H :    0.153658
  11 H :    0.156369
  12 C :   -0.008701
  13 H :    0.146064
  14 H :    0.165874
  15 O :   -0.579850
  16 C :    0.050587
  17 C :    0.116528
  18 C :   -0.300944
  19 C :   -0.017792
  20 O :   -0.522744
  21 H :    0.156058
  22 H :    0.146546
  23 O :   -0.639462
  24 H :    0.149088
  25 H :    0.146218
  26 H :    0.141554
  27 H :    0.147480
  28 H :    0.390961
Sum of atomic charges:   -0.0000000

LOEWDIN ATOMIC CHARGES
----------------------
   0 C :    0.184462
   1 C :   -0.217333
   2 C :   -0.217633
   3 C :   -0.031443
   4 O :   -0.314002
   5 H :    0.106215
   6 H :    0.117239
   7 H :    0.127493
   8 H :    0.119690
   9 H :    0.117476
  10 H :    0.106757
  11 H :    0.110072
  12 C :   -0.040511
  13 H :    0.101224
  14 H :    0.114764
  15 O :   -0.353517
  16 C :    0.016809
  17 C :    0.040654
  18 C :   -0.236996
  19 C :   -0.031686
  20 O :   -0.325064
  21 H :    0.112787
  22 H :    0.104610
  23 O :   -0.436249
  24 H :    0.120563
  25 H :    0.111399
  26 H :    0.101823
  27 H :    0.105209
  28 H :    0.285187

  Mayer bond orders larger than 0.100000
B(  0-C ,  1-C ) :   0.9418 B(  0-C ,  4-O ) :   0.9274 B(  0-C ,  5-H ) :   0.9267
B(  0-C , 15-O ) :   0.7888 B(  1-C ,  2-C ) :   0.9519 B(  1-C ,  6-H ) :   0.9351
B(  1-C ,  7-H ) :   0.9350 B(  2-C ,  3-C ) :   0.9536 B(  2-C ,  8-H ) :   0.9438
B(  2-C ,  9-H ) :   0.9445 B(  3-C ,  4-O ) :   0.8225 B(  3-C , 10-H ) :   0.9309
B(  3-C , 11-H ) :   0.9397 B( 12-C , 13-H ) :   0.9247 B( 12-C , 14-H ) :   0.9184
B( 12-C , 15-O ) :   0.7743 B( 12-C , 16-C ) :   0.9014 B( 16-C , 17-C ) :   0.9130
B( 16-C , 20-O ) :   0.8566 B( 16-C , 21-H ) :   0.9287 B( 17-C , 18-C ) :   0.9025
B( 17-C , 22-H ) :   0.9292 B( 17-C , 23-O ) :   0.9363 B( 18-C , 19-C ) :   0.9382
B( 18-C , 24-H ) :   0.9451 B( 18-C , 25-H ) :   0.9431 B( 19-C , 20-O ) :   0.8325
B( 19-C , 26-H ) :   0.9344 B( 19-C , 27-H ) :   0.9389 B( 23-O , 28-H ) :   0.7233

FINAL SINGLE POINT ENERGY      -652.867183072453

DIPOLE MOMENT
-------------
                                X             Y             Z
Electronic contribution:     -1.04741      -1.07090      -0.64401
Nuclear contribution   :      2.05407       1.44144       0.90414
                        -----------------------------------------
Total Dipole Moment    :      1.00666       0.37054       0.26013
                        -----------------------------------------
Magnitude (a.u.)       :      1.10378
Magnitude (Debye)      :      2.80559

Rotational constants in cm-1:     0.054610     0.014143     0.012711
Rotational constants in MHz :  1637.165221   423.996589   381.076884

                             ****ORCA TERMINATED NORMALLY****
TOTAL RUN TIME: 0 days 0 hours 37 minutes 10 seconds 710 msec
