                         Program Version 4.2.0 -  RELEASE  -
|  1> # Test redundant internal optimization
|  2> #
|  3> ! RKS B3LYP  Opt TightSCF SmallPrint
|  4>
|  5> %basis
|  6>         Basis "6-31G"
|  7> end
|  8>
|  9> %geom
| 10> Constraints
| 11> { D 4  0  15  12  120.0   C } # D for Dihedral angle
| 12> { D 0  15  12  16  270.0   C } # D for Dihedral angle
| 13> { D 0  4  3  2   C } # D for Dihedral angle
| 14> { D 4  3  2  1   C } # D for Dihedral angle
| 15> { D 3  2  1  0   C } # D for Dihedral angle
| 16> { D 2  1  0  4   C } # D for Dihedral angle
| 17> { D 1  0  4  3   C } # D for Dihedral angle
| 18> { D 16  20  19  18   C } # D for Dihedral angle
| 19> { D 20  19  18  17   C } # D for Dihedral angle
| 20> { D 19  18  17  16   C } # D for Dihedral angle
| 21> { D 18  17  16  20   C } # D for Dihedral angle
| 22> { D 17  16  20  19   C } # D for Dihedral angle
| 23> { D 15  12  16  20   C } # D for Dihedral angle
| 24> end
| 25> end
| 26>
| 27>
| 28> #%pal
| 29> #nprocs 8
| 30> #end
| 31>
| 32> * xyz 0 1
| 33> C  -21.048   26.222   46.251
| 34> C  -20.361   27.558   45.944
| 35> C  -20.329   28.222   47.341
| 36> C  -20.110   27.022   48.296
| 37> O  -20.473   25.807   47.535
| 38> H  -20.833   25.428   45.533
| 39> H  -19.344   27.382   45.576
| 40> H  -20.898   28.157   45.201
| 41> H  -19.543   28.978   47.434
| 42> H  -21.289   28.710   47.548
| 43> H  -20.733   27.082   49.195
| 44> H  -19.064   26.913   48.597
| 45> C  -23.119   27.818   46.058
| 46> H  -22.466   28.292   45.314
| 47> H  -24.132   27.765   45.640
| 48> O  -22.586   26.394   46.375
| 49> C  -23.173   28.732   47.313
| 50> C  -23.810   30.088   46.987
| 51> C  -25.317   29.735   46.989
| 52> C  -25.426   28.664   48.104
| 53> O  -24.057   28.154   48.331
| 54> H  -22.176   28.796   47.753
| 55> O  -23.486   31.113   48.108
| 56> H  -23.473   30.503   46.031
| 57> H  -25.956   30.603   47.180
| 58> H  -25.606   29.313   46.019
| 59> H  -26.077   27.830   47.821
| 60> H  -25.776   29.082   49.052
| 61> H  -23.816   30.717   49.075
| 62> *
| 63>
| 64>                          ****END OF INPUT****
 Total Charge           Charge          ....    0
 Multiplicity           Mult            ....    1
 Number of Electrons    NEL             ....  102
FINAL SINGLE POINT ENERGY      -652.757612808636
FINAL SINGLE POINT ENERGY      -652.817978357080
FINAL SINGLE POINT ENERGY      -652.839833675411
FINAL SINGLE POINT ENERGY      -652.844750776135
FINAL SINGLE POINT ENERGY      -652.845516657391
FINAL SINGLE POINT ENERGY      -652.845672433682
FINAL SINGLE POINT ENERGY      -652.845696709178
FINAL SINGLE POINT ENERGY      -652.845708609934
FINAL SINGLE POINT ENERGY      -652.845710778368
                    ***********************HURRAY********************

CARTESIAN COORDINATES (ANGSTROEM)
---------------------------------
  C    -21.121530   26.364547   46.306191
  C    -20.101357   27.448181   45.936168
  C    -19.839589   28.132784   47.308464
  C    -19.933616   26.944436   48.296933
  O    -20.646674   25.865253   47.570940
  H    -21.070043   25.500936   45.638351
  H    -19.197053   26.945458   45.579653
  H    -20.433744   28.142124   45.158782
  H    -18.856387   28.613267   47.343463
  H    -20.582627   28.903438   47.517165
  H    -20.488777   27.185824   49.207782
  H    -18.950917   26.548629   48.567901
  C    -23.158210   27.949682   46.085360
  H    -22.596843   28.519477   45.328182
  H    -24.133212   27.696789   45.657821
  O    -22.543306   26.662196   46.330944
  C    -23.350567   28.831435   47.325050
  C    -24.065261   30.155280   47.013678
  C    -25.554764   29.715997   47.004014
  C    -25.603219   28.626234   48.104612
  O    -24.203667   28.192658   48.329803
  H    -22.397632   29.017129   47.820301
  O    -23.798273   31.140823   48.049429
  H    -23.747138   30.625880   46.082187
  H    -26.207847   30.566988   47.212821
  H    -25.823607   29.307388   46.023987
  H    -26.202076   27.757528   47.815877
  H    -25.980531   29.008358   49.058383
  H    -23.888531   30.711282   48.926759

 Multiplicity           Mult            ....    1
 Number of Electrons    NEL             ....  102
 Basis Dimension        Dim             ....  149

ORBITAL ENERGIES
----------------

  NO   OCC          E(Eh)            E(eV)
   0   2.0000     -19.144108      -520.9377
   1   2.0000     -19.141685      -520.8717
   2   2.0000     -19.137296      -520.7523
   3   2.0000     -19.135523      -520.7041
   4   2.0000     -10.277575      -279.6670
   5   2.0000     -10.247571      -278.8506
   6   2.0000     -10.237845      -278.5859
   7   2.0000     -10.235946      -278.5342
   8   2.0000     -10.231642      -278.4171
   9   2.0000     -10.224583      -278.2250
  10   2.0000     -10.195366      -277.4300
  11   2.0000     -10.193206      -277.3712
  12   2.0000     -10.193096      -277.3683
  13   2.0000      -1.046396       -28.4739
  14   2.0000      -1.038421       -28.2569
  15   2.0000      -1.009330       -27.4653
  16   2.0000      -0.991512       -26.9804
  17   2.0000      -0.789485       -21.4830
  18   2.0000      -0.788824       -21.4650
  19   2.0000      -0.771320       -20.9887
  20   2.0000      -0.734684       -19.9918
  21   2.0000      -0.681625       -18.5480
  22   2.0000      -0.611283       -16.6339
  23   2.0000      -0.607616       -16.5341
  24   2.0000      -0.599165       -16.3041
  25   2.0000      -0.573018       -15.5926
  26   2.0000      -0.525215       -14.2918
  27   2.0000      -0.512169       -13.9368
  28   2.0000      -0.501667       -13.6511
  29   2.0000      -0.496244       -13.5035
  30   2.0000      -0.473222       -12.8770
  31   2.0000      -0.460591       -12.5333
  32   2.0000      -0.455224       -12.3873
  33   2.0000      -0.438685       -11.9372
  34   2.0000      -0.432291       -11.7632
  35   2.0000      -0.416028       -11.3207
  36   2.0000      -0.406093       -11.0503
  37   2.0000      -0.396949       -10.8015
  38   2.0000      -0.381545       -10.3824
  39   2.0000      -0.376180       -10.2364
  40   2.0000      -0.364402        -9.9159
  41   2.0000      -0.357737        -9.7345
  42   2.0000      -0.351049        -9.5525
  43   2.0000      -0.336717        -9.1625
  44   2.0000      -0.313066        -8.5190
  45   2.0000      -0.308420        -8.3925
  46   2.0000      -0.288771        -7.8579
  47   2.0000      -0.273770        -7.4497
  48   2.0000      -0.270908        -7.3718
  49   2.0000      -0.253650        -6.9022
  50   2.0000      -0.236398        -6.4327
  51   0.0000       0.061056         1.6614
  52   0.0000       0.073719         2.0060
  53   0.0000       0.083185         2.2636
  54   0.0000       0.086167         2.3447
  55   0.0000       0.094450         2.5701

MULLIKEN ATOMIC CHARGES
-----------------------
   0 C :    0.317446
   1 C :   -0.303147
   2 C :   -0.314600
   3 C :   -0.005766
   4 O :   -0.491807
   5 H :    0.159313
   6 H :    0.161168
   7 H :    0.143755
   8 H :    0.145925
   9 H :    0.151077
  10 H :    0.154461
  11 H :    0.145005
  12 C :    0.003012
  13 H :    0.116576
  14 H :    0.154796
  15 O :   -0.518129
  16 C :    0.054876
  17 C :    0.073576
  18 C :   -0.293514
  19 C :   -0.030649
  20 O :   -0.508475
  21 H :    0.165580
  22 O :   -0.602868
  23 H :    0.149045
  24 H :    0.164573
  25 H :    0.142400
  26 H :    0.156028
  27 H :    0.144461
  28 H :    0.365883
Sum of atomic charges:    0.0000000

LOEWDIN ATOMIC CHARGES
----------------------
   0 C :    0.180594
   1 C :   -0.231815
   2 C :   -0.222726
   3 C :   -0.030978
   4 O :   -0.310382
   5 H :    0.105723
   6 H :    0.125423
   7 H :    0.113651
   8 H :    0.116298
   9 H :    0.108266
  10 H :    0.108694
  11 H :    0.104212
  12 C :   -0.036373
  13 H :    0.090536
  14 H :    0.114136
  15 O :   -0.318474
  16 C :    0.003044
  17 C :    0.034296
  18 C :   -0.240522
  19 C :   -0.038330
  20 O :   -0.319834
  21 H :    0.111325
  22 O :   -0.415093
  23 H :    0.113447
  24 H :    0.127413
  25 H :    0.112520
  26 H :    0.108821
  27 H :    0.102132
  28 H :    0.283995

  Mayer bond orders larger than 0.100000
B(  0-C ,  1-C ) :   0.9255 B(  0-C ,  4-O ) :   0.9167 B(  0-C ,  5-H ) :   0.9343
B(  0-C , 15-O ) :   0.8802 B(  1-C ,  2-C ) :   0.9539 B(  1-C ,  6-H ) :   0.9333
B(  1-C ,  7-H ) :   0.9303 B(  2-C ,  3-C ) :   0.9501 B(  2-C ,  8-H ) :   0.9449
B(  2-C ,  9-H ) :   0.9274 B(  3-C ,  4-O ) :   0.8467 B(  3-C , 10-H ) :   0.9320
B(  3-C , 11-H ) :   0.9387 B( 12-C , 13-H ) :   0.9075 B( 12-C , 14-H ) :   0.9350
B( 12-C , 15-O ) :   0.8668 B( 12-C , 16-C ) :   0.8750 B( 16-C , 17-C ) :   0.8921
B( 16-C , 20-O ) :   0.8623 B( 16-C , 21-H ) :   0.9056 B( 17-C , 18-C ) :   0.9133
B( 17-C , 22-O ) :   0.8910 B( 17-C , 23-H ) :   0.9335 B( 18-C , 19-C ) :   0.9378
B( 18-C , 24-H ) :   0.9370 B( 18-C , 25-H ) :   0.9341 B( 19-C , 20-O ) :   0.8490
B( 19-C , 26-H ) :   0.9330 B( 19-C , 27-H ) :   0.9376 B( 22-O , 28-H ) :   0.7937

FINAL SINGLE POINT ENERGY      -652.845710453852

DIPOLE MOMENT
-------------
                                X             Y             Z
Electronic contribution:     -1.14697      -3.17633       1.72680
Nuclear contribution   :      1.25095       4.13626      -2.44862
                        -----------------------------------------
Total Dipole Moment    :      0.10397       0.95993      -0.72183
                        -----------------------------------------
Magnitude (a.u.)       :      1.20553
Magnitude (Debye)      :      3.06422

Rotational constants in cm-1:     0.049816     0.014708     0.013802
Rotational constants in MHz :  1493.448925   440.935710   413.770320

                             ****ORCA TERMINATED NORMALLY****
TOTAL RUN TIME: 0 days 0 hours 54 minutes 24 seconds 773 msec
