                         Program Version 4.2.0 -  RELEASE  -
|  1> # Test redundant internal optimization
|  2> #
|  3> ! RKS B3LYP  Opt TightSCF SmallPrint
|  4>
|  5> %basis
|  6>         Basis "6-31G"
|  7> end
|  8>
|  9> %geom
| 10> Constraints
| 11> { D 4  0  15  12  165.0   C } # D for Dihedral angle
| 12> { D 0  15  12  16  135.0   C } # D for Dihedral angle
| 13> { D 0  4  3  2   C } # D for Dihedral angle
| 14> { D 4  3  2  1   C } # D for Dihedral angle
| 15> { D 3  2  1  0   C } # D for Dihedral angle
| 16> { D 2  1  0  4   C } # D for Dihedral angle
| 17> { D 1  0  4  3   C } # D for Dihedral angle
| 18> { D 16  20  19  18   C } # D for Dihedral angle
| 19> { D 20  19  18  17   C } # D for Dihedral angle
| 20> { D 19  18  17  16   C } # D for Dihedral angle
| 21> { D 18  17  16  20   C } # D for Dihedral angle
| 22> { D 17  16  20  19   C } # D for Dihedral angle
| 23> { D 15  12  16  20   C } # D for Dihedral angle
| 24> end
| 25> end
| 26>
| 27>
| 28> #%pal
| 29> #nprocs 8
| 30> #end
| 31>
| 32> * xyz 0 1
| 33> C  -21.048   26.222   46.251
| 34> C  -20.361   27.558   45.944
| 35> C  -20.329   28.222   47.341
| 36> C  -20.110   27.022   48.296
| 37> O  -20.473   25.807   47.535
| 38> H  -20.833   25.428   45.533
| 39> H  -19.344   27.382   45.576
| 40> H  -20.898   28.157   45.201
| 41> H  -19.543   28.978   47.434
| 42> H  -21.289   28.710   47.548
| 43> H  -20.733   27.082   49.195
| 44> H  -19.064   26.913   48.597
| 45> C  -23.260   27.170   45.210
| 46> H  -23.512   28.183   45.548
| 47> H  -22.574   27.254   44.357
| 48> O  -22.586   26.394   46.375
| 49> C  -24.561   26.486   44.706
| 50> C  -25.643   26.479   45.792
| 51> C  -26.185   27.926   45.703
| 52> C  -26.092   28.243   44.189
| 53> O  -25.154   27.259   43.610
| 54> H  -24.315   25.501   44.306
| 55> O  -26.752   25.454   45.431
| 56> H  -25.255   26.231   46.785
| 57> H  -27.206   28.020   46.087
| 58> H  -25.545   28.603   46.280
| 59> H  -25.718   29.253   43.995
| 60> H  -27.050   28.117   43.676
| 61> H  -27.157   25.683   44.438
| 62> *
| 63>
| 64>                          ****END OF INPUT****
 Total Charge           Charge          ....    0
 Multiplicity           Mult            ....    1
 Number of Electrons    NEL             ....  102
FINAL SINGLE POINT ENERGY      -652.832429261706
FINAL SINGLE POINT ENERGY      -652.854948557270
FINAL SINGLE POINT ENERGY      -652.858580562416
FINAL SINGLE POINT ENERGY      -652.859174058383
FINAL SINGLE POINT ENERGY      -652.859263607751
FINAL SINGLE POINT ENERGY      -652.859276098597
                    ***********************HURRAY********************

CARTESIAN COORDINATES (ANGSTROEM)
---------------------------------
  C    -21.143597   26.256093   46.160165
  C    -20.304982   27.509815   45.916605
  C    -20.348524   28.202891   47.302837
  C    -20.346116   27.007702   48.277951
  O    -20.752343   25.829188   47.469910
  H    -20.956628   25.425297   45.473770
  H    -19.282304   27.203478   45.667819
  H    -20.670257   28.147750   45.108041
  H    -19.498879   28.873695   47.460851
  H    -21.270248   28.784487   47.403334
  H    -21.051357   27.122636   49.104615
  H    -19.352066   26.784624   48.675985
  C    -23.193964   27.283228   45.131546
  H    -23.386110   28.311800   45.463175
  H    -22.551660   27.327057   44.243438
  O    -22.581029   26.525318   46.213762
  C    -24.488795   26.570657   44.740286
  C    -25.552939   26.499709   45.844520
  C    -26.184771   27.911887   45.759332
  C    -26.136250   28.232403   44.244378
  O    -25.143700   27.302403   43.649053
  H    -24.251149   25.571200   44.365648
  O    -26.526740   25.457879   45.557039
  H    -25.135454   26.257103   46.820193
  H    -27.200941   27.905707   46.160652
  H    -25.592323   28.628788   46.338004
  H    -25.828164   29.261863   44.035528
  H    -27.091703   28.047433   43.743501
  H    -26.767009   25.494906   44.607063

 Multiplicity           Mult            ....    1
 Number of Electrons    NEL             ....  102
 Basis Dimension        Dim             ....  149

ORBITAL ENERGIES
----------------

  NO   OCC          E(Eh)            E(eV)
   0   2.0000     -19.144637      -520.9521
   1   2.0000     -19.143123      -520.9109
   2   2.0000     -19.142858      -520.9036
   3   2.0000     -19.132515      -520.6222
   4   2.0000     -10.283596      -279.8309
   5   2.0000     -10.234223      -278.4874
   6   2.0000     -10.233224      -278.4602
   7   2.0000     -10.231979      -278.4263
   8   2.0000     -10.231732      -278.4196
   9   2.0000     -10.228271      -278.3254
  10   2.0000     -10.193001      -277.3656
  11   2.0000     -10.192483      -277.3516
  12   2.0000     -10.186432      -277.1869
  13   2.0000      -1.055642       -28.7255
  14   2.0000      -1.035077       -28.1659
  15   2.0000      -1.002551       -27.2808
  16   2.0000      -0.995845       -27.0983
  17   2.0000      -0.791448       -21.5364
  18   2.0000      -0.779355       -21.2073
  19   2.0000      -0.768445       -20.9104
  20   2.0000      -0.733525       -19.9602
  21   2.0000      -0.678290       -18.4572
  22   2.0000      -0.605912       -16.4877
  23   2.0000      -0.602695       -16.4002
  24   2.0000      -0.596129       -16.2215
  25   2.0000      -0.576087       -15.6761
  26   2.0000      -0.521234       -14.1835
  27   2.0000      -0.518687       -14.1142
  28   2.0000      -0.500678       -13.6241
  29   2.0000      -0.492959       -13.4141
  30   2.0000      -0.472846       -12.8668
  31   2.0000      -0.457417       -12.4469
  32   2.0000      -0.454600       -12.3703
  33   2.0000      -0.441340       -12.0095
  34   2.0000      -0.426837       -11.6148
  35   2.0000      -0.411907       -11.2086
  36   2.0000      -0.406347       -11.0573
  37   2.0000      -0.391016       -10.6401
  38   2.0000      -0.381174       -10.3723
  39   2.0000      -0.367582       -10.0024
  40   2.0000      -0.361542        -9.8381
  41   2.0000      -0.359777        -9.7900
  42   2.0000      -0.355749        -9.6804
  43   2.0000      -0.331765        -9.0278
  44   2.0000      -0.316552        -8.6138
  45   2.0000      -0.307767        -8.3748
  46   2.0000      -0.298736        -8.1290
  47   2.0000      -0.272986        -7.4283
  48   2.0000      -0.263264        -7.1638
  49   2.0000      -0.258188        -7.0257
  50   2.0000      -0.242221        -6.5912
  51   0.0000       0.065198         1.7741
  52   0.0000       0.069542         1.8923
  53   0.0000       0.095292         2.5930
  54   0.0000       0.100696         2.7401
  55   0.0000       0.102841         2.7984

MULLIKEN ATOMIC CHARGES
-----------------------
   0 C :    0.309453
   1 C :   -0.286634
   2 C :   -0.299465
   3 C :   -0.000508
   4 O :   -0.497961
   5 H :    0.148765
   6 H :    0.151379
   7 H :    0.146533
   8 H :    0.144942
   9 H :    0.154530
  10 H :    0.154793
  11 H :    0.144285
  12 C :   -0.024737
  13 H :    0.131871
  14 H :    0.147117
  15 O :   -0.519982
  16 C :    0.062544
  17 C :    0.094122
  18 C :   -0.299345
  19 C :   -0.029230
  20 O :   -0.529674
  21 H :    0.161722
  22 O :   -0.602615
  23 H :    0.181083
  24 H :    0.160751
  25 H :    0.145806
  26 H :    0.142662
  27 H :    0.146579
  28 H :    0.361214
Sum of atomic charges:    0.0000000

LOEWDIN ATOMIC CHARGES
----------------------
   0 C :    0.184542
   1 C :   -0.233951
   2 C :   -0.216599
   3 C :   -0.025263
   4 O :   -0.300889
   5 H :    0.101037
   6 H :    0.118519
   7 H :    0.115308
   8 H :    0.115758
   9 H :    0.114154
  10 H :    0.109768
  11 H :    0.103944
  12 C :   -0.044992
  13 H :    0.095025
  14 H :    0.104844
  15 O :   -0.341585
  16 C :    0.015306
  17 C :    0.039618
  18 C :   -0.241882
  19 C :   -0.038228
  20 O :   -0.333767
  21 H :    0.117243
  22 O :   -0.414024
  23 H :    0.130709
  24 H :    0.126461
  25 H :    0.113634
  26 H :    0.102095
  27 H :    0.102600
  28 H :    0.280614

  Mayer bond orders larger than 0.100000
B(  0-C ,  1-C ) :   0.9300 B(  0-C ,  4-O ) :   0.9420 B(  0-C ,  5-H ) :   0.9225
B(  0-C , 15-O ) :   0.8286 B(  1-C ,  2-C ) :   0.9493 B(  1-C ,  6-H ) :   0.9337
B(  1-C ,  7-H ) :   0.9293 B(  2-C ,  3-C ) :   0.9553 B(  2-C ,  8-H ) :   0.9450
B(  2-C ,  9-H ) :   0.9461 B(  3-C ,  4-O ) :   0.8347 B(  3-C , 10-H ) :   0.9345
B(  3-C , 11-H ) :   0.9396 B( 12-C , 13-H ) :   0.9247 B( 12-C , 14-H ) :   0.9160
B( 12-C , 15-O ) :   0.8328 B( 12-C , 16-C ) :   0.8912 B( 16-C , 17-C ) :   0.9160
B( 16-C , 20-O ) :   0.8407 B( 16-C , 21-H ) :   0.9264 B( 17-C , 18-C ) :   0.9117
B( 17-C , 22-O ) :   0.8896 B( 17-C , 23-H ) :   0.9232 B( 18-C , 19-C ) :   0.9399
B( 18-C , 24-H ) :   0.9384 B( 18-C , 25-H ) :   0.9347 B( 19-C , 20-O ) :   0.8421
B( 19-C , 26-H ) :   0.9364 B( 19-C , 27-H ) :   0.9382 B( 22-O , 28-H ) :   0.7965

FINAL SINGLE POINT ENERGY      -652.859278656634

DIPOLE MOMENT
-------------
                                X             Y             Z
Electronic contribution:     -2.22472      -5.79727      -1.14954
Nuclear contribution   :      2.85901       7.40270       0.86520
                        -----------------------------------------
Total Dipole Moment    :      0.63428       1.60543      -0.28434
                        -----------------------------------------
Magnitude (a.u.)       :      1.74945
Magnitude (Debye)      :      4.44674

Rotational constants in cm-1:     0.057510     0.012131     0.011514
Rotational constants in MHz :  1724.091739   363.692762   345.166893

                             ****ORCA TERMINATED NORMALLY****
TOTAL RUN TIME: 0 days 0 hours 44 minutes 23 seconds 386 msec
