                         Program Version 4.2.0 -  RELEASE  -
|  1> # Test redundant internal optimization
|  2> #
|  3> ! RKS B3LYP  Opt TightSCF SmallPrint
|  4>
|  5> %basis
|  6>         Basis "6-31G"
|  7> end
|  8>
|  9> %geom
| 10> Constraints
| 11> { D 4  0  15  12  285.0   C } # D for Dihedral angle
| 12> { D 0  15  12  16  135.0   C } # D for Dihedral angle
| 13> { D 0  4  3  2   C } # D for Dihedral angle
| 14> { D 4  3  2  1   C } # D for Dihedral angle
| 15> { D 3  2  1  0   C } # D for Dihedral angle
| 16> { D 2  1  0  4   C } # D for Dihedral angle
| 17> { D 1  0  4  3   C } # D for Dihedral angle
| 18> { D 16  20  19  18   C } # D for Dihedral angle
| 19> { D 20  19  18  17   C } # D for Dihedral angle
| 20> { D 19  18  17  16   C } # D for Dihedral angle
| 21> { D 18  17  16  20   C } # D for Dihedral angle
| 22> { D 17  16  20  19   C } # D for Dihedral angle
| 23> { D 15  12  16  20   C } # D for Dihedral angle
| 24> end
| 25> end
| 26>
| 27>
| 28> #%pal
| 29> #nprocs 8
| 30> #end
| 31>
| 32> * xyz 0 1
| 33> C  -21.048   26.222   46.251
| 34> C  -20.361   27.558   45.944
| 35> C  -20.329   28.222   47.341
| 36> C  -20.110   27.022   48.296
| 37> O  -20.473   25.807   47.535
| 38> H  -20.833   25.428   45.533
| 39> H  -19.344   27.382   45.576
| 40> H  -20.898   28.157   45.201
| 41> H  -19.543   28.978   47.434
| 42> H  -21.289   28.710   47.548
| 43> H  -20.733   27.082   49.195
| 44> H  -19.064   26.913   48.597
| 45> C  -23.396   25.070   46.435
| 46> H  -23.885   24.901   45.468
| 47> H  -22.730   24.221   46.636
| 48> O  -22.586   26.394   46.375
| 49> C  -24.489   25.084   47.540
| 50> C  -23.888   25.406   48.913
| 51> C  -23.731   26.944   48.833
| 52> C  -24.959   27.380   47.996
| 53> O  -25.446   26.169   47.300
| 54> H  -25.050   24.149   47.500
| 55> O  -24.888   25.016   50.036
| 56> H  -22.940   24.892   49.100
| 57> H  -23.707   27.420   49.819
| 58> H  -22.799   27.200   48.315
| 59> H  -24.711   28.146   47.254
| 60> H  -25.781   27.745   48.620
| 61> H  -25.846   25.520   49.869
| 62> *
| 63>
| 64>                          ****END OF INPUT****
 Total Charge           Charge          ....    0
 Multiplicity           Mult            ....    1
 Number of Electrons    NEL             ....  102
FINAL SINGLE POINT ENERGY      -652.837664749244
FINAL SINGLE POINT ENERGY      -652.860891064526
FINAL SINGLE POINT ENERGY      -652.864385776381
FINAL SINGLE POINT ENERGY      -652.866590452544
FINAL SINGLE POINT ENERGY      -652.866770291416
FINAL SINGLE POINT ENERGY      -652.866797135928
FINAL SINGLE POINT ENERGY      -652.866798382094
                    ***********************HURRAY********************

CARTESIAN COORDINATES (ANGSTROEM)
---------------------------------
  C    -21.072982   26.158006   46.260809
  C    -20.399135   27.480962   45.892417
  C    -20.337069   28.196272   47.262166
  C    -20.092900   27.035558   48.254058
  O    -20.475663   25.794715   47.529771
  H    -20.858092   25.325140   45.583761
  H    -19.393704   27.275369   45.509715
  H    -20.963738   28.034368   45.139547
  H    -19.543943   28.949266   47.307812
  H    -21.290162   28.694452   47.464900
  H    -20.688395   27.114002   49.167384
  H    -19.038618   26.924657   48.523505
  C    -23.285245   25.132202   46.451478
  H    -23.759596   24.962928   45.477597
  H    -22.626725   24.285842   46.682802
  O    -22.498043   26.365089   46.343494
  C    -24.380098   25.201987   47.512329
  C    -23.935265   25.447341   48.960685
  C    -23.830288   26.994337   49.001482
  C    -24.983690   27.446296   48.070568
  O    -25.346727   26.268704   47.248986
  H    -24.935736   24.257789   47.451693
  O    -24.927916   24.937707   49.895203
  H    -23.002349   24.946930   49.221170
  H    -23.934530   27.365132   50.024634
  H    -22.870449   27.302297   48.590128
  H    -24.686142   28.259161   47.402955
  H    -25.882633   27.745540   48.620227
  H    -25.817168   25.235950   49.608725

 Multiplicity           Mult            ....    1
 Number of Electrons    NEL             ....  102
 Basis Dimension        Dim             ....  149

ORBITAL ENERGIES
----------------

  NO   OCC          E(Eh)            E(eV)
   0   2.0000     -19.150912      -521.1228
   1   2.0000     -19.147474      -521.0293
   2   2.0000     -19.136100      -520.7197
   3   2.0000     -19.132491      -520.6216
   4   2.0000     -10.283814      -279.8368
   5   2.0000     -10.232969      -278.4532
   6   2.0000     -10.231800      -278.4214
   7   2.0000     -10.231680      -278.4182
   8   2.0000     -10.231495      -278.4131
   9   2.0000     -10.221882      -278.1516
  10   2.0000     -10.191841      -277.3341
  11   2.0000     -10.190446      -277.2961
  12   2.0000     -10.176348      -276.9125
  13   2.0000      -1.059207       -28.8225
  14   2.0000      -1.030651       -28.0454
  15   2.0000      -1.002868       -27.2894
  16   2.0000      -0.996069       -27.1044
  17   2.0000      -0.794131       -21.6094
  18   2.0000      -0.775324       -21.0976
  19   2.0000      -0.763629       -20.7794
  20   2.0000      -0.734629       -19.9903
  21   2.0000      -0.673907       -18.3379
  22   2.0000      -0.604900       -16.4602
  23   2.0000      -0.598033       -16.2733
  24   2.0000      -0.595110       -16.1938
  25   2.0000      -0.579093       -15.7579
  26   2.0000      -0.524699       -14.2778
  27   2.0000      -0.506540       -13.7836
  28   2.0000      -0.500178       -13.6105
  29   2.0000      -0.489204       -13.3119
  30   2.0000      -0.471768       -12.8375
  31   2.0000      -0.459300       -12.4982
  32   2.0000      -0.446168       -12.1409
  33   2.0000      -0.438183       -11.9236
  34   2.0000      -0.422334       -11.4923
  35   2.0000      -0.413222       -11.2444
  36   2.0000      -0.407333       -11.0841
  37   2.0000      -0.385828       -10.4989
  38   2.0000      -0.373227       -10.1560
  39   2.0000      -0.365903        -9.9567
  40   2.0000      -0.362378        -9.8608
  41   2.0000      -0.357304        -9.7227
  42   2.0000      -0.349663        -9.5148
  43   2.0000      -0.335811        -9.1379
  44   2.0000      -0.324176        -8.8213
  45   2.0000      -0.306227        -8.3329
  46   2.0000      -0.300952        -8.1893
  47   2.0000      -0.276861        -7.5338
  48   2.0000      -0.264219        -7.1898
  49   2.0000      -0.258183        -7.0255
  50   2.0000      -0.238893        -6.5006
  51   0.0000       0.065174         1.7735
  52   0.0000       0.082234         2.2377
  53   0.0000       0.089992         2.4488
  54   0.0000       0.102104         2.7784
  55   0.0000       0.107955         2.9376

MULLIKEN ATOMIC CHARGES
-----------------------
   0 C :    0.277721
   1 C :   -0.260231
   2 C :   -0.307678
   3 C :   -0.005609
   4 O :   -0.514438
   5 H :    0.147503
   6 H :    0.148730
   7 H :    0.160287
   8 H :    0.145807
   9 H :    0.161562
  10 H :    0.144716
  11 H :    0.146753
  12 C :    0.000292
  13 H :    0.151228
  14 H :    0.144576
  15 O :   -0.518947
  16 C :    0.068474
  17 C :    0.076429
  18 C :   -0.295742
  19 C :   -0.018397
  20 O :   -0.527248
  21 H :    0.152910
  22 O :   -0.605908
  23 H :    0.162843
  24 H :    0.145823
  25 H :    0.170550
  26 H :    0.151392
  27 H :    0.134415
  28 H :    0.362187
Sum of atomic charges:   -0.0000000

LOEWDIN ATOMIC CHARGES
----------------------
   0 C :    0.169599
   1 C :   -0.213426
   2 C :   -0.217470
   3 C :   -0.030610
   4 O :   -0.332514
   5 H :    0.097230
   6 H :    0.116445
   7 H :    0.126090
   8 H :    0.115721
   9 H :    0.115800
  10 H :    0.102300
  11 H :    0.105425
  12 C :   -0.037842
  13 H :    0.109992
  14 H :    0.109029
  15 O :   -0.327802
  16 C :    0.012620
  17 C :    0.039034
  18 C :   -0.240822
  19 C :   -0.032868
  20 O :   -0.330949
  21 H :    0.115424
  22 O :   -0.417835
  23 H :    0.121037
  24 H :    0.117891
  25 H :    0.123568
  26 H :    0.107662
  27 H :    0.095920
  28 H :    0.281352

  Mayer bond orders larger than 0.100000
B(  0-C ,  1-C ) :   0.9467 B(  0-C ,  4-O ) :   0.8970 B(  0-C ,  5-H ) :   0.9199
B(  0-C , 15-O ) :   0.8722 B(  1-C ,  2-C ) :   0.9555 B(  1-C ,  6-H ) :   0.9397
B(  1-C ,  7-H ) :   0.9359 B(  2-C ,  3-C ) :   0.9539 B(  2-C ,  8-H ) :   0.9449
B(  2-C ,  9-H ) :   0.9413 B(  3-C ,  4-O ) :   0.8360 B(  3-C , 10-H ) :   0.9296
B(  3-C , 11-H ) :   0.9397 B( 12-C , 13-H ) :   0.9253 B( 12-C , 14-H ) :   0.9092
B( 12-C , 15-O ) :   0.8357 B( 12-C , 16-C ) :   0.9115 B( 16-C , 17-C ) :   0.9086
B( 16-C , 20-O ) :   0.8696 B( 16-C , 21-H ) :   0.9196 B( 17-C , 18-C ) :   0.9229
B( 17-C , 22-O ) :   0.8848 B( 17-C , 23-H ) :   0.9307 B( 18-C , 19-C ) :   0.9444
B( 18-C , 24-H ) :   0.9387 B( 18-C , 25-H ) :   0.9099 B( 19-C , 20-O ) :   0.8412
B( 19-C , 26-H ) :   0.9340 B( 19-C , 27-H ) :   0.9375 B( 22-O , 28-H ) :   0.7964

FINAL SINGLE POINT ENERGY      -652.866796815502

DIPOLE MOMENT
-------------
                                X             Y             Z
Electronic contribution:     -3.74098      -4.30381      -0.47999
Nuclear contribution   :      4.54375       5.06159       0.07546
                        -----------------------------------------
Total Dipole Moment    :      0.80277       0.75778      -0.40454
                        -----------------------------------------
Magnitude (a.u.)       :      1.17572
Magnitude (Debye)      :      2.98845

Rotational constants in cm-1:     0.046825     0.016813     0.016040
Rotational constants in MHz :  1403.766845   504.031758   480.863393

                             ****ORCA TERMINATED NORMALLY****
TOTAL RUN TIME: 0 days 0 hours 39 minutes 51 seconds 23 msec
