                         Program Version 4.2.1 -  RELEASE  -
|  1> # Test redundant internal optimization
|  2> #
|  3> ! RKS B3LYP  Opt TightSCF SmallPrint
|  4>
|  5> %basis
|  6>         Basis "6-31G"
|  7> end
|  8>
|  9> %geom
| 10> Constraints
| 11> { D 4  0  19  14  0.0   C } # D for Dihedral angle
| 12> { D 0  19  14  12  135.0   C } # D for Dihedral angle
| 13> { D 0  4  3  2   C } # D for Dihedral angle
| 14> { D 4  3  2  1   C } # D for Dihedral angle
| 15> { D 3  2  1  0   C } # D for Dihedral angle
| 16> { D 2  1  0  4   C } # D for Dihedral angle
| 17> { D 1  0  4  3   C } # D for Dihedral angle
| 18> { D 14  15  16  17   C } # D for Dihedral angle
| 19> { D 15  16  17  12   C } # D for Dihedral angle
| 20> { D 16  17  12  14   C } # D for Dihedral angle
| 21> { D 17  12  14  15   C } # D for Dihedral angle
| 22> { D 12  14  15  16   C } # D for Dihedral angle
| 23> end
| 24> end
| 25>
| 26>
| 27> #%pal
| 28> #nprocs 8
| 29> #end
| 30>
| 31> * xyz 0 1
| 32> C  -21.048   26.222   46.251
| 33> C  -20.361   27.558   45.944
| 34> C  -20.329   28.222   47.341
| 35> C  -20.110   27.022   48.296
| 36> O  -20.473   25.807   47.535
| 37> H  -20.833   25.428   45.533
| 38> H  -19.344   27.382   45.576
| 39> H  -20.898   28.157   45.201
| 40> H  -19.543   28.978   47.434
| 41> H  -21.289   28.710   47.548
| 42> H  -20.733   27.082   49.195
| 43> H  -19.064   26.913   48.597
| 44> C  -23.996   27.193   48.081
| 45> H  -24.189   27.175   49.165
| 46> C  -22.995   26.105   47.675
| 47> C  -23.892   24.846   47.651
| 48> C  -25.250   25.390   47.142
| 49> O  -25.216   26.856   47.339
| 50> H  -23.711   28.204   47.785
| 51> O  -22.472   26.381   46.366
| 52> H  -22.154   26.014   48.371
| 53> H  -23.494   24.052   47.012
| 54> H  -23.996   24.437   48.665
| 55> H  -26.102   24.975   47.690
| 56> H  -25.396   25.213   46.072
| 57> *
| 58>
| 59>                          ****END OF INPUT****
 Total Charge           Charge          ....    0
 Multiplicity           Mult            ....    1
 Number of Electrons    NEL             ....   86
FINAL SINGLE POINT ENERGY      -538.421171828820
FINAL SINGLE POINT ENERGY      -538.428315978254
FINAL SINGLE POINT ENERGY      -538.429858124017
FINAL SINGLE POINT ENERGY      -538.430254468716
FINAL SINGLE POINT ENERGY      -538.430280709832
FINAL SINGLE POINT ENERGY      -538.430290587702
                    ***********************HURRAY********************

CARTESIAN COORDINATES (ANGSTROEM)
---------------------------------
  C    -21.018487   26.229282   46.335366
  C    -20.410563   27.580361   45.953709
  C    -20.233982   28.250340   47.337598
  C    -19.872744   27.064507   48.259352
  O    -20.298382   25.838058   47.525424
  H    -20.848454   25.435317   45.604176
  H    -19.441383   27.416146   45.468798
  H    -21.059620   28.143372   45.280124
  H    -19.458389   29.022376   47.336007
  H    -21.173547   28.717828   47.649835
  H    -20.383860   27.093265   49.225875
  H    -18.796403   26.966036   48.425691
  C    -24.112336   27.170597   48.084773
  H    -24.401081   27.158480   49.147110
  C    -23.089308   26.072540   47.791021
  C    -23.990741   24.827206   47.682601
  C    -25.282851   25.376836   47.034652
  O    -25.251328   26.844432   47.226662
  H    -23.766368   28.166923   47.805299
  O    -22.462716   26.343354   46.500453
  H    -22.325342   25.960030   48.562967
  H    -23.514302   24.043551   47.089048
  H    -24.189500   24.429087   48.684875
  H    -26.190865   24.974537   47.496776
  H    -25.315448   25.197540   45.956809

 Multiplicity           Mult            ....    1
 Number of Electrons    NEL             ....   86
 Basis Dimension        Dim             ....  127

ORBITAL ENERGIES
----------------

  NO   OCC          E(Eh)            E(eV)
   0   2.0000     -19.153883      -521.2037
   1   2.0000     -19.134686      -520.6813
   2   2.0000     -19.122669      -520.3543
   3   2.0000     -10.280576      -279.7487
   4   2.0000     -10.235807      -278.5305
   5   2.0000     -10.234600      -278.4976
   6   2.0000     -10.217963      -278.0449
   7   2.0000     -10.214344      -277.9464
   8   2.0000     -10.193492      -277.3790
   9   2.0000     -10.186640      -277.1926
  10   2.0000     -10.178537      -276.9721
  11   2.0000      -1.055975       -28.7345
  12   2.0000      -1.010931       -27.5088
  13   2.0000      -0.986443       -26.8425
  14   2.0000      -0.794080       -21.6080
  15   2.0000      -0.777641       -21.1607
  16   2.0000      -0.739617       -20.1260
  17   2.0000      -0.720750       -19.6126
  18   2.0000      -0.614819       -16.7301
  19   2.0000      -0.603294       -16.4165
  20   2.0000      -0.593534       -16.1509
  21   2.0000      -0.563570       -15.3355
  22   2.0000      -0.524783       -14.2801
  23   2.0000      -0.502192       -13.6653
  24   2.0000      -0.488248       -13.2859
  25   2.0000      -0.480888       -13.0856
  26   2.0000      -0.452331       -12.3085
  27   2.0000      -0.435678       -11.8554
  28   2.0000      -0.429249       -11.6804
  29   2.0000      -0.415161       -11.2971
  30   2.0000      -0.410692       -11.1755
  31   2.0000      -0.380982       -10.3670
  32   2.0000      -0.370928       -10.0935
  33   2.0000      -0.363018        -9.8782
  34   2.0000      -0.361567        -9.8387
  35   2.0000      -0.357047        -9.7157
  36   2.0000      -0.345491        -9.4013
  37   2.0000      -0.331876        -9.0308
  38   2.0000      -0.305712        -8.3188
  39   2.0000      -0.294370        -8.0102
  40   2.0000      -0.268692        -7.3115
  41   2.0000      -0.250139        -6.8066
  42   2.0000      -0.226281        -6.1574
  43   0.0000       0.070330         1.9138
  44   0.0000       0.093961         2.5568
  45   0.0000       0.097391         2.6501
  46   0.0000       0.104000         2.8300
  47   0.0000       0.111840         3.0433

MULLIKEN ATOMIC CHARGES
-----------------------
   0 C :    0.303309
   1 C :   -0.257154
   2 C :   -0.309320
   3 C :   -0.021133
   4 O :   -0.512783
   5 H :    0.155252
   6 H :    0.144225
   7 H :    0.165172
   8 H :    0.149294
   9 H :    0.154868
  10 H :    0.143091
  11 H :    0.153551
  12 C :    0.012630
  13 H :    0.119136
  14 C :    0.053570
  15 C :   -0.286859
  16 C :    0.006875
  17 O :   -0.523016
  18 H :    0.152473
  19 O :   -0.533605
  20 H :    0.154477
  21 H :    0.156343
  22 H :    0.137529
  23 H :    0.129913
  24 H :    0.152161
Sum of atomic charges:    0.0000000

LOEWDIN ATOMIC CHARGES
----------------------
   0 C :    0.184549
   1 C :   -0.220531
   2 C :   -0.219870
   3 C :   -0.033829
   4 O :   -0.320291
   5 H :    0.103518
   6 H :    0.113776
   7 H :    0.128052
   8 H :    0.118377
   9 H :    0.113465
  10 H :    0.100803
  11 H :    0.108243
  12 C :   -0.039369
  13 H :    0.088658
  14 C :    0.035073
  15 C :   -0.229824
  16 C :   -0.027406
  17 O :   -0.331670
  18 H :    0.113588
  19 O :   -0.335376
  20 H :    0.111536
  21 H :    0.124343
  22 H :    0.110413
  23 H :    0.096069
  24 H :    0.107705

  Mayer bond orders larger than 0.100000
B(  0-C ,  1-C ) :   0.9300 B(  0-C ,  4-O ) :   0.9061 B(  0-C ,  5-H ) :   0.9296
B(  0-C , 19-O ) :   0.8528 B(  1-C ,  2-C ) :   0.9537 B(  1-C ,  6-H ) :   0.9349
B(  1-C ,  7-H ) :   0.9350 B(  2-C ,  3-C ) :   0.9522 B(  2-C ,  8-H ) :   0.9445
B(  2-C ,  9-H ) :   0.9427 B(  3-C ,  4-O ) :   0.8297 B(  3-C , 10-H ) :   0.9322
B(  3-C , 11-H ) :   0.9405 B( 12-C , 13-H ) :   0.9137 B( 12-C , 14-C ) :   0.9284
B( 12-C , 17-O ) :   0.8722 B( 12-C , 18-H ) :   0.9315 B( 14-C , 15-C ) :   0.9417
B( 14-C , 19-O ) :   0.8234 B( 14-C , 20-H ) :   0.9066 B( 15-C , 16-C ) :   0.9488
B( 15-C , 21-H ) :   0.9415 B( 15-C , 22-H ) :   0.9391 B( 16-C , 17-O ) :   0.8551
B( 16-C , 23-H ) :   0.9343 B( 16-C , 24-H ) :   0.9367

FINAL SINGLE POINT ENERGY      -538.430291527384

DIPOLE MOMENT
-------------
                                X             Y             Z
Electronic contribution:     -1.26362      -1.40272      -1.53769
Nuclear contribution   :      2.21773       1.52601       2.08408
                        -----------------------------------------
Total Dipole Moment    :      0.95411       0.12329       0.54639
                        -----------------------------------------
Magnitude (a.u.)       :      1.10638
Magnitude (Debye)      :      2.81218

Rotational constants in cm-1:     0.079641     0.021711     0.020895
Rotational constants in MHz :  2387.577708   650.883636   626.408165

                             ****ORCA TERMINATED NORMALLY****
TOTAL RUN TIME: 0 days 0 hours 8 minutes 10 seconds 205 msec
