                         Program Version 4.2.0 -  RELEASE  -
|  1> # Test redundant internal optimization
|  2> #
|  3> ! RKS B3LYP  Opt TightSCF SmallPrint
|  4>
|  5> %basis
|  6>         Basis "6-31G"
|  7> end
|  8>
|  9> %geom
| 10> Constraints
| 11> { D 4  0  15  12  300.0   C } # D for Dihedral angle
| 12> { D 0  15  12  16  135.0   C } # D for Dihedral angle
| 13> { D 0  4  3  2   C } # D for Dihedral angle
| 14> { D 4  3  2  1   C } # D for Dihedral angle
| 15> { D 3  2  1  0   C } # D for Dihedral angle
| 16> { D 2  1  0  4   C } # D for Dihedral angle
| 17> { D 1  0  4  3   C } # D for Dihedral angle
| 18> { D 16  20  19  18   C } # D for Dihedral angle
| 19> { D 20  19  18  17   C } # D for Dihedral angle
| 20> { D 19  18  17  16   C } # D for Dihedral angle
| 21> { D 18  17  16  20   C } # D for Dihedral angle
| 22> { D 17  16  20  19   C } # D for Dihedral angle
| 23> { D 15  12  16  20   C } # D for Dihedral angle
| 24> end
| 25> end
| 26>
| 27>
| 28> #%pal
| 29> #nprocs 8
| 30> #end
| 31>
| 32> * xyz 0 1
| 33> C  -21.048   26.222   46.251
| 34> C  -20.361   27.558   45.944
| 35> C  -20.329   28.222   47.341
| 36> C  -20.110   27.022   48.296
| 37> O  -20.473   25.807   47.535
| 38> H  -20.833   25.428   45.533
| 39> H  -19.344   27.382   45.576
| 40> H  -20.898   28.157   45.201
| 41> H  -19.543   28.978   47.434
| 42> H  -21.289   28.710   47.548
| 43> H  -20.733   27.082   49.195
| 44> H  -19.064   26.913   48.597
| 45> C  -23.362   25.116   46.798
| 46> H  -23.871   24.696   45.922
| 47> H  -22.670   24.359   47.188
| 48> O  -22.586   26.394   46.375
| 49> C  -24.425   25.395   47.895
| 50> C  -25.089   24.097   48.370
| 51> C  -24.018   23.532   49.334
| 52> C  -23.419   24.806   49.979
| 53> O  -23.789   25.937   49.101
| 54> H  -25.123   26.153   47.533
| 55> H  -26.015   24.323   48.910
| 56> O  -25.426   23.124   47.207
| 57> H  -24.436   22.845   50.076
| 58> H  -23.252   22.989   48.768
| 59> H  -22.327   24.760   50.063
| 60> H  -23.842   25.013   50.966
| 61> H  -24.513   22.882   46.652
| 62> *
| 63>
| 64>                          ****END OF INPUT****
 Total Charge           Charge          ....    0
 Multiplicity           Mult            ....    1
 Number of Electrons    NEL             ....  102
FINAL SINGLE POINT ENERGY      -652.833157118348
FINAL SINGLE POINT ENERGY      -652.858318438522
FINAL SINGLE POINT ENERGY      -652.863170571794
FINAL SINGLE POINT ENERGY      -652.864072949176
FINAL SINGLE POINT ENERGY      -652.864210326730
FINAL SINGLE POINT ENERGY      -652.864233857904
FINAL SINGLE POINT ENERGY      -652.864237239352
                    ***********************HURRAY********************

CARTESIAN COORDINATES (ANGSTROEM)
---------------------------------
  C    -21.050032   26.164744   46.215290
  C    -20.507377   27.578468   46.009012
  C    -20.539275   28.139399   47.447190
  C    -20.196231   26.911055   48.316279
  O    -20.440496   25.722255   47.452734
  H    -20.785633   25.420171   45.457826
  H    -19.482028   27.521199   45.625787
  H    -21.118943   28.151674   45.309147
  H    -19.832601   28.962305   47.592495
  H    -21.546932   28.493816   47.678402
  H    -20.834745   26.831821   49.197766
  H    -19.142642   26.870353   48.608134
  C    -23.193688   25.076918   46.701189
  H    -23.719138   24.693366   45.816862
  H    -22.477936   24.327897   47.059956
  O    -22.481279   26.294025   46.343590
  C    -24.204186   25.426130   47.793611
  C    -25.000896   24.218735   48.317286
  C    -24.006458   23.603815   49.346064
  C    -23.310502   24.849050   49.937354
  O    -23.553005   25.965658   48.985779
  H    -24.852940   26.224149   47.421539
  H    -25.903771   24.569875   48.821147
  O    -25.482402   23.302410   47.304816
  H    -24.515599   23.000060   50.102068
  H    -23.290195   22.956634   48.822665
  H    -22.231212   24.715510   50.054626
  H    -23.741906   25.148108   50.897047
  H    -24.745954   22.762400   46.952338

 Multiplicity           Mult            ....    1
 Number of Electrons    NEL             ....  102
 Basis Dimension        Dim             ....  149

ORBITAL ENERGIES
----------------

  NO   OCC          E(Eh)            E(eV)
   0   2.0000     -19.148218      -521.0495
   1   2.0000     -19.137487      -520.7575
   2   2.0000     -19.136593      -520.7332
   3   2.0000     -19.135668      -520.7080
   4   2.0000     -10.273747      -279.5629
   5   2.0000     -10.243218      -278.7321
   6   2.0000     -10.227873      -278.3146
   7   2.0000     -10.227709      -278.3101
   8   2.0000     -10.224501      -278.2228
   9   2.0000     -10.216524      -278.0058
  10   2.0000     -10.193720      -277.3852
  11   2.0000     -10.178832      -276.9801
  12   2.0000     -10.175669      -276.8940
  13   2.0000      -1.050303       -28.5802
  14   2.0000      -1.031453       -28.0673
  15   2.0000      -1.013259       -27.5722
  16   2.0000      -0.986517       -26.8445
  17   2.0000      -0.784723       -21.3534
  18   2.0000      -0.779228       -21.2039
  19   2.0000      -0.762079       -20.7372
  20   2.0000      -0.724989       -19.7280
  21   2.0000      -0.675265       -18.3749
  22   2.0000      -0.609501       -16.5854
  23   2.0000      -0.591643       -16.0994
  24   2.0000      -0.584554       -15.9065
  25   2.0000      -0.575084       -15.6488
  26   2.0000      -0.527156       -14.3446
  27   2.0000      -0.510064       -13.8795
  28   2.0000      -0.490739       -13.3537
  29   2.0000      -0.483019       -13.1436
  30   2.0000      -0.469742       -12.7823
  31   2.0000      -0.454806       -12.3759
  32   2.0000      -0.439986       -11.9726
  33   2.0000      -0.433089       -11.7850
  34   2.0000      -0.421966       -11.4823
  35   2.0000      -0.413054       -11.2398
  36   2.0000      -0.398725       -10.8498
  37   2.0000      -0.394157       -10.7256
  38   2.0000      -0.377409       -10.2698
  39   2.0000      -0.369817       -10.0632
  40   2.0000      -0.350352        -9.5336
  41   2.0000      -0.346349        -9.4246
  42   2.0000      -0.339729        -9.2445
  43   2.0000      -0.329104        -8.9554
  44   2.0000      -0.325509        -8.8575
  45   2.0000      -0.313612        -8.5338
  46   2.0000      -0.292739        -7.9658
  47   2.0000      -0.270652        -7.3648
  48   2.0000      -0.263427        -7.1682
  49   2.0000      -0.248642        -6.7659
  50   2.0000      -0.237911        -6.4739
  51   0.0000       0.051958         1.4138
  52   0.0000       0.078006         2.1227
  53   0.0000       0.093042         2.5318
  54   0.0000       0.103505         2.8165
  55   0.0000       0.105768         2.8781

MULLIKEN ATOMIC CHARGES
-----------------------
   0 C :    0.282864
   1 C :   -0.260454
   2 C :   -0.296997
   3 C :   -0.007063
   4 O :   -0.519339
   5 H :    0.138738
   6 H :    0.140139
   7 H :    0.157151
   8 H :    0.135114
   9 H :    0.175276
  10 H :    0.163017
  11 H :    0.134927
  12 C :   -0.017518
  13 H :    0.134494
  14 H :    0.144355
  15 O :   -0.515152
  16 C :    0.094205
  17 C :    0.085638
  18 C :   -0.324020
  19 C :   -0.014142
  20 O :   -0.509881
  21 H :    0.163631
  22 H :    0.166201
  23 O :   -0.600515
  24 H :    0.156722
  25 H :    0.136708
  26 H :    0.155088
  27 H :    0.145329
  28 H :    0.355486
Sum of atomic charges:   -0.0000000

LOEWDIN ATOMIC CHARGES
----------------------
   0 C :    0.173081
   1 C :   -0.214308
   2 C :   -0.214735
   3 C :   -0.028330
   4 O :   -0.335030
   5 H :    0.093888
   6 H :    0.111447
   7 H :    0.124336
   8 H :    0.110765
   9 H :    0.125899
  10 H :    0.112693
  11 H :    0.098865
  12 C :   -0.055161
  13 H :    0.100651
  14 H :    0.103654
  15 O :   -0.320117
  16 C :    0.020094
  17 C :    0.034917
  18 C :   -0.240743
  19 C :   -0.031732
  20 O :   -0.317502
  21 H :    0.118988
  22 H :    0.118865
  23 O :   -0.407356
  24 H :    0.122074
  25 H :    0.105665
  26 H :    0.107406
  27 H :    0.104231
  28 H :    0.277497

  Mayer bond orders larger than 0.100000
B(  0-C ,  1-C ) :   0.9530 B(  0-C ,  4-O ) :   0.9003 B(  0-C ,  5-H ) :   0.9204
B(  0-C , 15-O ) :   0.8661 B(  1-C ,  2-C ) :   0.9561 B(  1-C ,  6-H ) :   0.9409
B(  1-C ,  7-H ) :   0.9362 B(  2-C ,  3-C ) :   0.9593 B(  2-C ,  8-H ) :   0.9453
B(  2-C ,  9-H ) :   0.9399 B(  3-C ,  4-O ) :   0.8288 B(  3-C , 10-H ) :   0.9274
B(  3-C , 11-H ) :   0.9401 B( 12-C , 13-H ) :   0.9132 B( 12-C , 14-H ) :   0.9129
B( 12-C , 15-O ) :   0.8372 B( 12-C , 16-C ) :   0.9064 B( 16-C , 17-C ) :   0.8743
B( 16-C , 20-O ) :   0.8652 B( 16-C , 21-H ) :   0.9306 B( 17-C , 18-C ) :   0.9208
B( 17-C , 22-H ) :   0.9332 B( 17-C , 23-O ) :   0.8966 B( 18-C , 19-C ) :   0.9433
B( 18-C , 24-H ) :   0.9421 B( 18-C , 25-H ) :   0.9404 B( 19-C , 20-O ) :   0.8470
B( 19-C , 26-H ) :   0.9264 B( 19-C , 27-H ) :   0.9378 B( 23-O , 28-H ) :   0.7985

FINAL SINGLE POINT ENERGY      -652.864237205694

DIPOLE MOMENT
-------------
                                X             Y             Z
Electronic contribution:     -2.91410      -1.18832      -1.82226
Nuclear contribution   :      3.53003       0.80420       2.05134
                        -----------------------------------------
Total Dipole Moment    :      0.61593      -0.38412       0.22908
                        -----------------------------------------
Magnitude (a.u.)       :      0.76118
Magnitude (Debye)      :      1.93477

Rotational constants in cm-1:     0.052993     0.015874     0.014000
Rotational constants in MHz :  1588.698498   475.890130   419.703076

                             ****ORCA TERMINATED NORMALLY****
TOTAL RUN TIME: 0 days 0 hours 40 minutes 49 seconds 682 msec
