                         Program Version 4.2.1 -  RELEASE  -
|  1> # Test redundant internal optimization
|  2> #
|  3> ! RKS B3LYP  Opt TightSCF SmallPrint
|  4>
|  5> %basis
|  6>         Basis "6-31G"
|  7> end
|  8>
|  9> %geom
| 10> Constraints
| 11> { D 4  0  19  14  255.0   C } # D for Dihedral angle
| 12> { D 0  19  14  12  90.0   C } # D for Dihedral angle
| 13> { D 0  4  3  2   C } # D for Dihedral angle
| 14> { D 4  3  2  1   C } # D for Dihedral angle
| 15> { D 3  2  1  0   C } # D for Dihedral angle
| 16> { D 2  1  0  4   C } # D for Dihedral angle
| 17> { D 1  0  4  3   C } # D for Dihedral angle
| 18> { D 14  15  16  17   C } # D for Dihedral angle
| 19> { D 15  16  17  12   C } # D for Dihedral angle
| 20> { D 16  17  12  14   C } # D for Dihedral angle
| 21> { D 17  12  14  15   C } # D for Dihedral angle
| 22> { D 12  14  15  16   C } # D for Dihedral angle
| 23> end
| 24> end
| 25>
| 26>
| 27> #%pal
| 28> #nprocs 8
| 29> #end
| 30>
| 31> * xyz 0 1
| 32> C  -21.048   26.222   46.251
| 33> C  -20.361   27.558   45.944
| 34> C  -20.329   28.222   47.341
| 35> C  -20.110   27.022   48.296
| 36> O  -20.473   25.807   47.535
| 37> H  -20.833   25.428   45.533
| 38> H  -19.344   27.382   45.576
| 39> H  -20.898   28.157   45.201
| 40> H  -19.543   28.978   47.434
| 41> H  -21.289   28.710   47.548
| 42> H  -20.733   27.082   49.195
| 43> H  -19.064   26.913   48.597
| 44> C  -23.496   24.215   46.795
| 45> H  -23.815   23.281   46.306
| 46> C  -23.236   25.322   45.767
| 47> C  -24.673   25.798   45.449
| 48> C  -25.401   25.656   46.809
| 49> O  -24.575   24.747   47.635
| 50> H  -22.653   24.003   47.455
| 51> O  -22.472   26.381   46.366
| 52> H  -22.700   24.968   44.880
| 53> H  -24.706   26.822   45.063
| 54> H  -25.130   25.143   44.696
| 55> H  -26.406   25.232   46.706
| 56> H  -25.471   26.606   47.347
| 57> *
| 58>
| 59>                          ****END OF INPUT****
 Total Charge           Charge          ....    0
 Multiplicity           Mult            ....    1
 Number of Electrons    NEL             ....   86
FINAL SINGLE POINT ENERGY      -538.432820793015
FINAL SINGLE POINT ENERGY      -538.434932725642
FINAL SINGLE POINT ENERGY      -538.435230807692
FINAL SINGLE POINT ENERGY      -538.435259235969
FINAL SINGLE POINT ENERGY      -538.435267104895
                    ***********************HURRAY********************

CARTESIAN COORDINATES (ANGSTROEM)
---------------------------------
  C    -20.980180   26.179271   46.237283
  C    -20.386326   27.558218   45.946490
  C    -20.426208   28.224006   47.343406
  C    -20.139999   27.041768   48.297220
  O    -20.408250   25.811889   47.512064
  H    -20.714882   25.388702   45.528957
  H    -19.352817   27.443573   45.598516
  H    -20.958722   28.100629   45.191361
  H    -19.694858   29.030994   47.447980
  H    -21.424676   28.631860   47.526023
  H    -20.782311   27.039575   49.181009
  H    -19.092409   26.992076   48.609375
  C    -23.531727   24.166335   46.775385
  H    -23.915651   23.261170   46.280356
  C    -23.225911   25.255318   45.747572
  C    -24.630400   25.826707   45.471250
  C    -25.331496   25.728211   46.847950
  O    -24.546435   24.762354   47.644333
  H    -22.673755   23.913895   47.400600
  O    -22.417136   26.323226   46.322325
  H    -22.739465   24.865693   44.842988
  H    -24.569309   26.850470   45.094967
  H    -25.134904   25.205771   44.722095
  H    -26.365572   25.374354   46.768093
  H    -25.315602   26.678936   47.387400

 Multiplicity           Mult            ....    1
 Number of Electrons    NEL             ....   86
 Basis Dimension        Dim             ....  127

ORBITAL ENERGIES
----------------

  NO   OCC          E(Eh)            E(eV)
   0   2.0000     -19.141318      -520.8617
   1   2.0000     -19.136313      -520.7255
   2   2.0000     -19.123891      -520.3875
   3   2.0000     -10.278648      -279.6962
   4   2.0000     -10.240848      -278.6676
   5   2.0000     -10.221228      -278.1337
   6   2.0000     -10.217167      -278.0233
   7   2.0000     -10.215536      -277.9789
   8   2.0000     -10.184978      -277.1473
   9   2.0000     -10.183627      -277.1106
  10   2.0000     -10.182787      -277.0877
  11   2.0000      -1.052139       -28.6302
  12   2.0000      -1.010911       -27.5083
  13   2.0000      -0.989024       -26.9127
  14   2.0000      -0.790122       -21.5003
  15   2.0000      -0.774994       -21.0887
  16   2.0000      -0.735134       -20.0040
  17   2.0000      -0.719765       -19.5858
  18   2.0000      -0.606953       -16.5160
  19   2.0000      -0.596705       -16.2372
  20   2.0000      -0.592418       -16.1205
  21   2.0000      -0.578778       -15.7494
  22   2.0000      -0.520268       -14.1572
  23   2.0000      -0.501650       -13.6506
  24   2.0000      -0.481016       -13.0891
  25   2.0000      -0.473952       -12.8969
  26   2.0000      -0.446789       -12.1577
  27   2.0000      -0.443347       -12.0641
  28   2.0000      -0.432816       -11.7775
  29   2.0000      -0.407727       -11.0948
  30   2.0000      -0.406598       -11.0641
  31   2.0000      -0.383712       -10.4413
  32   2.0000      -0.367041        -9.9877
  33   2.0000      -0.362678        -9.8690
  34   2.0000      -0.354245        -9.6395
  35   2.0000      -0.352305        -9.5867
  36   2.0000      -0.342415        -9.3176
  37   2.0000      -0.319201        -8.6859
  38   2.0000      -0.305872        -8.3232
  39   2.0000      -0.299570        -8.1517
  40   2.0000      -0.266008        -7.2384
  41   2.0000      -0.246270        -6.7014
  42   2.0000      -0.229258        -6.2384
  43   0.0000       0.077904         2.1199
  44   0.0000       0.096228         2.6185
  45   0.0000       0.101288         2.7562
  46   0.0000       0.116212         3.1623
  47   0.0000       0.126240         3.4352

MULLIKEN ATOMIC CHARGES
-----------------------
   0 C :    0.284567
   1 C :   -0.252937
   2 C :   -0.299926
   3 C :    0.000064
   4 O :   -0.506687
   5 H :    0.137112
   6 H :    0.142082
   7 H :    0.147704
   8 H :    0.139830
   9 H :    0.164010
  10 H :    0.155462
  11 H :    0.139573
  12 C :    0.007438
  13 H :    0.115738
  14 C :    0.058733
  15 C :   -0.292546
  16 C :    0.003606
  17 O :   -0.518671
  18 H :    0.177671
  19 O :   -0.509521
  20 H :    0.121270
  21 H :    0.156629
  22 H :    0.141762
  23 H :    0.133930
  24 H :    0.153106
Sum of atomic charges:   -0.0000000

LOEWDIN ATOMIC CHARGES
----------------------
   0 C :    0.172827
   1 C :   -0.217984
   2 C :   -0.216168
   3 C :   -0.026111
   4 O :   -0.323634
   5 H :    0.096542
   6 H :    0.112118
   7 H :    0.119227
   8 H :    0.113017
   9 H :    0.120019
  10 H :    0.109927
  11 H :    0.101226
  12 C :   -0.045813
  13 H :    0.087892
  14 C :    0.038411
  15 C :   -0.226087
  16 C :   -0.027990
  17 O :   -0.328256
  18 H :    0.126673
  19 O :   -0.322118
  20 H :    0.093713
  21 H :    0.125164
  22 H :    0.112685
  23 H :    0.097125
  24 H :    0.107596

  Mayer bond orders larger than 0.100000
B(  0-C ,  1-C ) :   0.9458 B(  0-C ,  4-O ) :   0.9203 B(  0-C ,  5-H ) :   0.9176
B(  0-C , 19-O ) :   0.8525 B(  1-C ,  2-C ) :   0.9580 B(  1-C ,  6-H ) :   0.9385
B(  1-C ,  7-H ) :   0.9384 B(  2-C ,  3-C ) :   0.9544 B(  2-C ,  8-H ) :   0.9453
B(  2-C ,  9-H ) :   0.9437 B(  3-C ,  4-O ) :   0.8358 B(  3-C , 10-H ) :   0.9342
B(  3-C , 11-H ) :   0.9401 B( 12-C , 13-H ) :   0.9100 B( 12-C , 14-C ) :   0.9138
B( 12-C , 17-O ) :   0.8724 B( 12-C , 18-H ) :   0.9256 B( 14-C , 15-C ) :   0.9599
B( 14-C , 19-O ) :   0.8407 B( 14-C , 20-H ) :   0.9192 B( 15-C , 16-C ) :   0.9476
B( 15-C , 21-H ) :   0.9378 B( 15-C , 22-H ) :   0.9411 B( 16-C , 17-O ) :   0.8578
B( 16-C , 23-H ) :   0.9324 B( 16-C , 24-H ) :   0.9359

FINAL SINGLE POINT ENERGY      -538.435267935969

DIPOLE MOMENT
-------------
                                X             Y             Z
Electronic contribution:     -0.13523      -2.95040       1.61290
Nuclear contribution   :      0.41733       3.55329      -2.77977
                        -----------------------------------------
Total Dipole Moment    :      0.28210       0.60289      -1.16687
                        -----------------------------------------
Magnitude (a.u.)       :      1.34337
Magnitude (Debye)      :      3.41457

Rotational constants in cm-1:     0.075911     0.021253     0.020178
Rotational constants in MHz :  2275.750252   637.137986   604.917840

                             ****ORCA TERMINATED NORMALLY****
TOTAL RUN TIME: 0 days 0 hours 5 minutes 52 seconds 153 msec
