                         Program Version 4.2.0 -  RELEASE  -
|  1> # Test redundant internal optimization
|  2> #
|  3> ! RKS B3LYP  Opt TightSCF SmallPrint
|  4>
|  5> %basis
|  6>         Basis "6-31G"
|  7> end
|  8>
|  9> %geom
| 10> Constraints
| 11> { D 4  0  15  12  180.0   C } # D for Dihedral angle
| 12> { D 0  15  12  16  330.0   C } # D for Dihedral angle
| 13> { D 0  4  3  2   C } # D for Dihedral angle
| 14> { D 4  3  2  1   C } # D for Dihedral angle
| 15> { D 3  2  1  0   C } # D for Dihedral angle
| 16> { D 2  1  0  4   C } # D for Dihedral angle
| 17> { D 1  0  4  3   C } # D for Dihedral angle
| 18> { D 16  20  19  18   C } # D for Dihedral angle
| 19> { D 20  19  18  17   C } # D for Dihedral angle
| 20> { D 19  18  17  16   C } # D for Dihedral angle
| 21> { D 18  17  16  20   C } # D for Dihedral angle
| 22> { D 17  16  20  19   C } # D for Dihedral angle
| 23> { D 15  12  16  20   C } # D for Dihedral angle
| 24> end
| 25> end
| 26>
| 27>
| 28> #%pal
| 29> #nprocs 8
| 30> #end
| 31>
| 32> * xyz 0 1
| 33> C  -21.048   26.222   46.251
| 34> C  -20.361   27.558   45.944
| 35> C  -20.329   28.222   47.341
| 36> C  -20.110   27.022   48.296
| 37> O  -20.473   25.807   47.535
| 38> H  -20.833   25.428   45.533
| 39> H  -19.344   27.382   45.576
| 40> H  -20.898   28.157   45.201
| 41> H  -19.543   28.978   47.434
| 42> H  -21.289   28.710   47.548
| 43> H  -20.733   27.082   49.195
| 44> H  -19.064   26.913   48.597
| 45> C  -23.309   26.834   45.072
| 46> H  -23.617   25.943   44.511
| 47> H  -24.207   27.417   45.310
| 48> O  -22.586   26.394   46.375
| 49> C  -22.409   27.704   44.151
| 50> C  -21.209   26.906   43.631
| 51> C  -21.850   26.084   42.487
| 52> C  -22.909   27.055   41.908
| 53> O  -23.139   28.090   42.939
| 54> H  -22.148   28.626   44.674
| 55> O  -20.128   27.873   43.073
| 56> H  -20.744   26.277   44.398
| 57> H  -21.122   25.764   41.735
| 58> H  -22.329   25.185   42.893
| 59> H  -23.858   26.555   41.684
| 60> H  -22.558   27.568   41.009
| 61> H  -20.571   28.514   42.301
| 62> *
| 63>
| 64>                          ****END OF INPUT****
 Total Charge           Charge          ....    0
 Multiplicity           Mult            ....    1
 Number of Electrons    NEL             ....  102
FINAL SINGLE POINT ENERGY      -652.768243437974
FINAL SINGLE POINT ENERGY      -652.822546958772
FINAL SINGLE POINT ENERGY      -652.842460697268
FINAL SINGLE POINT ENERGY      -652.845847870910
FINAL SINGLE POINT ENERGY      -652.846374829369
FINAL SINGLE POINT ENERGY      -652.846488351751
FINAL SINGLE POINT ENERGY      -652.846497004019
                    ***********************HURRAY********************

CARTESIAN COORDINATES (ANGSTROEM)
---------------------------------
  C    -20.880622   26.197769   46.397643
  C    -19.993472   27.435339   46.243719
  C    -20.254175   28.193533   47.576543
  C    -20.429104   27.036948   48.582982
  O    -20.713622   25.830245   47.772430
  H    -20.595429   25.330617   45.792573
  H    -18.947616   27.107598   46.190829
  H    -20.192720   28.053544   45.370496
  H    -19.430869   28.862751   47.842140
  H    -21.172896   28.781772   47.496991
  H    -21.258666   27.192115   49.277369
  H    -19.516508   26.824969   49.148970
  C    -23.010622   26.908829   45.049595
  H    -23.422728   26.006950   44.573203
  H    -23.855837   27.491803   45.422444
  O    -22.302632   26.486334   46.255392
  C    -22.332603   27.740168   43.942366
  C    -21.178121   27.068547   43.178920
  C    -21.943078   26.101780   42.225828
  C    -23.224280   26.906202   41.884358
  O    -23.355494   27.959559   42.914978
  H    -22.039820   28.727962   44.309170
  O    -20.400740   28.060782   42.455494
  H    -20.457658   26.544374   43.799531
  H    -21.337995   25.868948   41.346425
  H    -22.179452   25.166779   42.743388
  H    -24.128176   26.289647   41.889861
  H    -23.154206   27.411638   40.916056
  H    -21.008858   28.682500   42.002307

 Multiplicity           Mult            ....    1
 Number of Electrons    NEL             ....  102
 Basis Dimension        Dim             ....  149

ORBITAL ENERGIES
----------------

  NO   OCC          E(Eh)            E(eV)
   0   2.0000     -19.154360      -521.2166
   1   2.0000     -19.148610      -521.0602
   2   2.0000     -19.138810      -520.7935
   3   2.0000     -19.135956      -520.7158
   4   2.0000     -10.283565      -279.8300
   5   2.0000     -10.250068      -278.9185
   6   2.0000     -10.244762      -278.7742
   7   2.0000     -10.239636      -278.6346
   8   2.0000     -10.233692      -278.4729
   9   2.0000     -10.223437      -278.1939
  10   2.0000     -10.197331      -277.4835
  11   2.0000     -10.186369      -277.1852
  12   2.0000     -10.186107      -277.1781
  13   2.0000      -1.051895       -28.6235
  14   2.0000      -1.046982       -28.4898
  15   2.0000      -1.016972       -27.6732
  16   2.0000      -0.987217       -26.8635
  17   2.0000      -0.787832       -21.4380
  18   2.0000      -0.784671       -21.3520
  19   2.0000      -0.773515       -21.0484
  20   2.0000      -0.739319       -20.1179
  21   2.0000      -0.679548       -18.4914
  22   2.0000      -0.615617       -16.7518
  23   2.0000      -0.607332       -16.5264
  24   2.0000      -0.597587       -16.2612
  25   2.0000      -0.579675       -15.7738
  26   2.0000      -0.531413       -14.4605
  27   2.0000      -0.516157       -14.0453
  28   2.0000      -0.504435       -13.7264
  29   2.0000      -0.483330       -13.1521
  30   2.0000      -0.481340       -13.0979
  31   2.0000      -0.462495       -12.5851
  32   2.0000      -0.449342       -12.2272
  33   2.0000      -0.440234       -11.9794
  34   2.0000      -0.428823       -11.6689
  35   2.0000      -0.419903       -11.4261
  36   2.0000      -0.405845       -11.0436
  37   2.0000      -0.400922       -10.9097
  38   2.0000      -0.381162       -10.3719
  39   2.0000      -0.378979       -10.3125
  40   2.0000      -0.365941        -9.9578
  41   2.0000      -0.356078        -9.6894
  42   2.0000      -0.350709        -9.5433
  43   2.0000      -0.339961        -9.2508
  44   2.0000      -0.317775        -8.6471
  45   2.0000      -0.312448        -8.5021
  46   2.0000      -0.298705        -8.1282
  47   2.0000      -0.281063        -7.6481
  48   2.0000      -0.258106        -7.0234
  49   2.0000      -0.256889        -6.9903
  50   2.0000      -0.245332        -6.6758
  51   0.0000       0.057183         1.5560
  52   0.0000       0.069383         1.8880
  53   0.0000       0.078703         2.1416
  54   0.0000       0.092488         2.5167
  55   0.0000       0.096807         2.6342

MULLIKEN ATOMIC CHARGES
-----------------------
   0 C :    0.301922
   1 C :   -0.289654
   2 C :   -0.302896
   3 C :    0.000483
   4 O :   -0.499391
   5 H :    0.138671
   6 H :    0.148185
   7 H :    0.166544
   8 H :    0.143385
   9 H :    0.156823
  10 H :    0.154076
  11 H :    0.143404
  12 C :    0.012424
  13 H :    0.129626
  14 H :    0.170830
  15 O :   -0.528615
  16 C :    0.021372
  17 C :    0.086333
  18 C :   -0.308087
  19 C :   -0.027338
  20 O :   -0.524233
  21 H :    0.162107
  22 O :   -0.606888
  23 H :    0.163370
  24 H :    0.166528
  25 H :    0.154605
  26 H :    0.151896
  27 H :    0.148000
  28 H :    0.366518
Sum of atomic charges:   -0.0000000

LOEWDIN ATOMIC CHARGES
----------------------
   0 C :    0.183484
   1 C :   -0.237350
   2 C :   -0.216642
   3 C :   -0.025326
   4 O :   -0.300074
   5 H :    0.093563
   6 H :    0.117046
   7 H :    0.121850
   8 H :    0.115240
   9 H :    0.115446
  10 H :    0.109347
  11 H :    0.102641
  12 C :   -0.039694
  13 H :    0.095098
  14 H :    0.124235
  15 O :   -0.344036
  16 C :    0.000533
  17 C :    0.028734
  18 C :   -0.241643
  19 C :   -0.037608
  20 O :   -0.323258
  21 H :    0.112381
  22 O :   -0.413693
  23 H :    0.118047
  24 H :    0.128712
  25 H :    0.117956
  26 H :    0.106750
  27 H :    0.103683
  28 H :    0.284579

  Mayer bond orders larger than 0.100000
B(  0-C ,  1-C ) :   0.9219 B(  0-C ,  4-O ) :   0.9350 B(  0-C ,  5-H ) :   0.9173
B(  0-C , 15-O ) :   0.8298 B(  1-C ,  2-C ) :   0.9471 B(  1-C ,  6-H ) :   0.9318
B(  1-C ,  7-H ) :   0.9174 B(  2-C ,  3-C ) :   0.9548 B(  2-C ,  8-H ) :   0.9443
B(  2-C ,  9-H ) :   0.9450 B(  3-C ,  4-O ) :   0.8323 B(  3-C , 10-H ) :   0.9350
B(  3-C , 11-H ) :   0.9392 B( 12-C , 13-H ) :   0.9222 B( 12-C , 14-H ) :   0.9280
B( 12-C , 15-O ) :   0.8491 B( 12-C , 16-C ) :   0.8790 B( 16-C , 17-C ) :   0.8994
B( 16-C , 20-O ) :   0.8232 B( 16-C , 21-H ) :   0.9221 B( 17-C , 18-C ) :   0.9115
B( 17-C , 22-O ) :   0.8790 B( 17-C , 23-H ) :   0.9198 B( 18-C , 19-C ) :   0.9418
B( 18-C , 24-H ) :   0.9369 B( 18-C , 25-H ) :   0.9324 B( 19-C , 20-O ) :   0.8358
B( 19-C , 26-H ) :   0.9349 B( 19-C , 27-H ) :   0.9379 B( 22-O , 28-H ) :   0.7936

FINAL SINGLE POINT ENERGY      -652.846499780661

DIPOLE MOMENT
-------------
                                X             Y             Z
Electronic contribution:     -1.66613      -0.71522       0.19619
Nuclear contribution   :      1.84911       1.01676      -0.92750
                        -----------------------------------------
Total Dipole Moment    :      0.18298       0.30154      -0.73130
                        -----------------------------------------
Magnitude (a.u.)       :      0.81192
Magnitude (Debye)      :      2.06374

Rotational constants in cm-1:     0.055973     0.014408     0.013391
Rotational constants in MHz :  1678.021034   431.946988   401.459201

                             ****ORCA TERMINATED NORMALLY****
TOTAL RUN TIME: 0 days 0 hours 29 minutes 47 seconds 403 msec
