                         Program Version 4.2.0 -  RELEASE  -
|  1> # Test redundant internal optimization
|  2> #
|  3> ! RKS B3LYP  Opt TightSCF SmallPrint
|  4>
|  5> %basis
|  6>         Basis "6-31G"
|  7> end
|  8>
|  9> %geom
| 10> Constraints
| 11> { D 4  0  15  12  330.0   C } # D for Dihedral angle
| 12> { D 0  15  12  16  180.0   C } # D for Dihedral angle
| 13> { D 0  4  3  2   C } # D for Dihedral angle
| 14> { D 4  3  2  1   C } # D for Dihedral angle
| 15> { D 3  2  1  0   C } # D for Dihedral angle
| 16> { D 2  1  0  4   C } # D for Dihedral angle
| 17> { D 1  0  4  3   C } # D for Dihedral angle
| 18> { D 16  20  19  18   C } # D for Dihedral angle
| 19> { D 20  19  18  17   C } # D for Dihedral angle
| 20> { D 19  18  17  16   C } # D for Dihedral angle
| 21> { D 18  17  16  20   C } # D for Dihedral angle
| 22> { D 17  16  20  19   C } # D for Dihedral angle
| 23> { D 15  12  16  20   C } # D for Dihedral angle
| 24> end
| 25> end
| 26>
| 27>
| 28> #%pal
| 29> #nprocs 8
| 30> #end
| 31>
| 32> * xyz 0 1
| 33> C  -21.048   26.222   46.251
| 34> C  -20.361   27.558   45.944
| 35> C  -20.329   28.222   47.341
| 36> C  -20.110   27.022   48.296
| 37> O  -20.473   25.807   47.535
| 38> H  -20.833   25.428   45.533
| 39> H  -19.344   27.382   45.576
| 40> H  -20.898   28.157   45.201
| 41> H  -19.543   28.978   47.434
| 42> H  -21.289   28.710   47.548
| 43> H  -20.733   27.082   49.195
| 44> H  -19.064   26.913   48.597
| 45> C  -23.271   25.476   47.424
| 46> H  -23.084   24.426   47.163
| 47> H  -22.857   25.659   48.424
| 48> O  -22.586   26.394   46.375
| 49> C  -24.807   25.694   47.501
| 50> C  -25.432   24.858   48.623
| 51> C  -25.094   25.706   49.873
| 52> C  -25.191   27.160   49.347
| 53> O  -25.110   27.080   47.873
| 54> H  -25.243   25.524   46.515
| 55> H  -26.517   24.791   48.484
| 56> O  -24.860   23.416   48.701
| 57> H  -25.773   25.519   50.710
| 58> H  -24.075   25.485   50.212
| 59> H  -24.378   27.795   49.717
| 60> H  -26.147   27.630   49.593
| 61> H  -23.774   23.457   48.842
| 62> *
| 63>
| 64>                          ****END OF INPUT****
 Total Charge           Charge          ....    0
 Multiplicity           Mult            ....    1
 Number of Electrons    NEL             ....  102
FINAL SINGLE POINT ENERGY      -652.829631414980
FINAL SINGLE POINT ENERGY      -652.853866414249
FINAL SINGLE POINT ENERGY      -652.858505534263
FINAL SINGLE POINT ENERGY      -652.859281644342
FINAL SINGLE POINT ENERGY      -652.859409831044
FINAL SINGLE POINT ENERGY      -652.859432235727
FINAL SINGLE POINT ENERGY      -652.859434631352
                    ***********************HURRAY********************

CARTESIAN COORDINATES (ANGSTROEM)
---------------------------------
  C    -21.085141   26.194093   46.283193
  C    -20.548686   27.589158   45.964365
  C    -20.431198   28.208488   47.373290
  C    -20.018328   27.012229   48.257379
  O    -20.361623   25.791811   47.472505
  H    -20.878900   25.419441   45.537028
  H    -19.568280   27.499353   45.482539
  H    -21.222354   28.143988   45.308063
  H    -19.703534   29.024870   47.415351
  H    -21.406826   28.596692   47.679878
  H    -20.550236   26.978389   49.212595
  H    -18.941325   26.967333   48.443804
  C    -23.105289   25.421467   47.480747
  H    -22.949352   24.366030   47.211217
  H    -22.637049   25.593991   48.457608
  O    -22.515893   26.298423   46.486381
  C    -24.601403   25.716325   47.509330
  C    -25.375794   24.894454   48.553331
  C    -25.146335   25.727082   49.850675
  C    -25.136634   27.179092   49.325689
  O    -24.896990   27.103245   47.861972
  H    -24.996469   25.577807   46.498967
  H    -26.435652   24.884378   48.290425
  O    -25.012988   23.496871   48.648503
  H    -25.921616   25.547521   50.600065
  H    -24.178939   25.452683   50.292272
  H    -24.355908   27.793426   49.785811
  H    -26.101448   27.676730   49.466020
  H    -24.139810   23.395629   49.078997

 Multiplicity           Mult            ....    1
 Number of Electrons    NEL             ....  102
 Basis Dimension        Dim             ....  149

ORBITAL ENERGIES
----------------

  NO   OCC          E(Eh)            E(eV)
   0   2.0000     -19.148102      -521.0463
   1   2.0000     -19.146006      -520.9893
   2   2.0000     -19.137274      -520.7517
   3   2.0000     -19.135007      -520.6900
   4   2.0000     -10.276294      -279.6322
   5   2.0000     -10.243386      -278.7367
   6   2.0000     -10.229576      -278.3609
   7   2.0000     -10.229447      -278.3574
   8   2.0000     -10.227726      -278.3106
   9   2.0000     -10.225650      -278.2541
  10   2.0000     -10.194429      -277.4045
  11   2.0000     -10.184932      -277.1461
  12   2.0000     -10.182697      -277.0853
  13   2.0000      -1.053982       -28.6803
  14   2.0000      -1.031810       -28.0770
  15   2.0000      -1.013656       -27.5830
  16   2.0000      -0.990497       -26.9528
  17   2.0000      -0.789268       -21.4771
  18   2.0000      -0.780621       -21.2418
  19   2.0000      -0.766499       -20.8575
  20   2.0000      -0.730382       -19.8747
  21   2.0000      -0.676925       -18.4201
  22   2.0000      -0.610087       -16.6013
  23   2.0000      -0.600336       -16.3360
  24   2.0000      -0.588887       -16.0244
  25   2.0000      -0.571431       -15.5494
  26   2.0000      -0.530028       -14.4228
  27   2.0000      -0.508687       -13.8421
  28   2.0000      -0.495435       -13.4815
  29   2.0000      -0.492271       -13.3954
  30   2.0000      -0.471069       -12.8184
  31   2.0000      -0.455907       -12.4059
  32   2.0000      -0.445106       -12.1119
  33   2.0000      -0.433091       -11.7850
  34   2.0000      -0.426211       -11.5978
  35   2.0000      -0.411541       -11.1986
  36   2.0000      -0.401954       -10.9377
  37   2.0000      -0.400595       -10.9007
  38   2.0000      -0.377531       -10.2731
  39   2.0000      -0.367595       -10.0028
  40   2.0000      -0.358822        -9.7640
  41   2.0000      -0.353802        -9.6274
  42   2.0000      -0.346259        -9.4222
  43   2.0000      -0.337494        -9.1837
  44   2.0000      -0.323282        -8.7970
  45   2.0000      -0.312467        -8.5026
  46   2.0000      -0.300299        -8.1716
  47   2.0000      -0.269793        -7.3414
  48   2.0000      -0.260451        -7.0872
  49   2.0000      -0.250818        -6.8251
  50   2.0000      -0.240954        -6.5567
  51   0.0000       0.052311         1.4235
  52   0.0000       0.066570         1.8115
  53   0.0000       0.091710         2.4956
  54   0.0000       0.097356         2.6492
  55   0.0000       0.104977         2.8566

MULLIKEN ATOMIC CHARGES
-----------------------
   0 C :    0.297389
   1 C :   -0.259278
   2 C :   -0.302787
   3 C :   -0.015040
   4 O :   -0.517197
   5 H :    0.147642
   6 H :    0.142281
   7 H :    0.166656
   8 H :    0.142412
   9 H :    0.169858
  10 H :    0.138543
  11 H :    0.148237
  12 C :    0.001780
  13 H :    0.134019
  14 H :    0.130190
  15 O :   -0.527351
  16 C :    0.090998
  17 C :    0.083973
  18 C :   -0.322074
  19 C :   -0.012318
  20 O :   -0.505758
  21 H :    0.162791
  22 H :    0.167878
  23 O :   -0.600558
  24 H :    0.159040
  25 H :    0.130398
  26 H :    0.141244
  27 H :    0.148667
  28 H :    0.358363
Sum of atomic charges:   -0.0000000

LOEWDIN ATOMIC CHARGES
----------------------
   0 C :    0.178563
   1 C :   -0.214939
   2 C :   -0.217949
   3 C :   -0.031523
   4 O :   -0.328163
   5 H :    0.097576
   6 H :    0.112478
   7 H :    0.129228
   8 H :    0.114702
   9 H :    0.122684
  10 H :    0.099313
  11 H :    0.105244
  12 C :   -0.047888
  13 H :    0.098886
  14 H :    0.092843
  15 O :   -0.324360
  16 C :    0.021961
  17 C :    0.035561
  18 C :   -0.241672
  19 C :   -0.031289
  20 O :   -0.314452
  21 H :    0.119654
  22 H :    0.119607
  23 O :   -0.407017
  24 H :    0.122825
  25 H :    0.102830
  26 H :    0.100715
  27 H :    0.105407
  28 H :    0.279172

  Mayer bond orders larger than 0.100000
B(  0-C ,  1-C ) :   0.9469 B(  0-C ,  4-O ) :   0.8957 B(  0-C ,  5-H ) :   0.9218
B(  0-C , 15-O ) :   0.8513 B(  1-C ,  2-C ) :   0.9540 B(  1-C ,  6-H ) :   0.9380
B(  1-C ,  7-H ) :   0.9344 B(  2-C ,  3-C ) :   0.9553 B(  2-C ,  8-H ) :   0.9446
B(  2-C ,  9-H ) :   0.9419 B(  3-C ,  4-O ) :   0.8339 B(  3-C , 10-H ) :   0.9345
B(  3-C , 11-H ) :   0.9405 B( 12-C , 13-H ) :   0.9059 B( 12-C , 14-H ) :   0.9157
B( 12-C , 15-O ) :   0.8318 B( 12-C , 16-C ) :   0.9039 B( 16-C , 17-C ) :   0.8749
B( 16-C , 20-O ) :   0.8671 B( 16-C , 21-H ) :   0.9291 B( 17-C , 18-C ) :   0.9214
B( 17-C , 22-H ) :   0.9341 B( 17-C , 23-O ) :   0.8991 B( 18-C , 19-C ) :   0.9387
B( 18-C , 24-H ) :   0.9418 B( 18-C , 25-H ) :   0.9410 B( 19-C , 20-O ) :   0.8532
B( 19-C , 26-H ) :   0.9316 B( 19-C , 27-H ) :   0.9373 B( 23-O , 28-H ) :   0.7969

FINAL SINGLE POINT ENERGY      -652.859434712607

DIPOLE MOMENT
-------------
                                X             Y             Z
Electronic contribution:     -2.34000      -3.32447      -3.00318
Nuclear contribution   :      2.94582       3.79923       3.93850
                        -----------------------------------------
Total Dipole Moment    :      0.60582       0.47476       0.93532
                        -----------------------------------------
Magnitude (a.u.)       :      1.21130
Magnitude (Debye)      :      3.07888

Rotational constants in cm-1:     0.048395     0.014381     0.013461
Rotational constants in MHz :  1450.844067   431.122831   403.539029

                             ****ORCA TERMINATED NORMALLY****
TOTAL RUN TIME: 0 days 1 hours 57 minutes 29 seconds 644 msec
