                         Program Version 4.2.0 -  RELEASE  -
|  1> # Test redundant internal optimization
|  2> #
|  3> ! RKS B3LYP  Opt TightSCF SmallPrint
|  4>
|  5> %basis
|  6>         Basis "6-31G"
|  7> end
|  8>
|  9> %geom
| 10> Constraints
| 11> { D 4  0  15  12  75.0   C } # D for Dihedral angle
| 12> { D 0  15  12  16  90.0   C } # D for Dihedral angle
| 13> { D 0  4  3  2   C } # D for Dihedral angle
| 14> { D 4  3  2  1   C } # D for Dihedral angle
| 15> { D 3  2  1  0   C } # D for Dihedral angle
| 16> { D 2  1  0  4   C } # D for Dihedral angle
| 17> { D 1  0  4  3   C } # D for Dihedral angle
| 18> { D 16  20  19  18   C } # D for Dihedral angle
| 19> { D 20  19  18  17   C } # D for Dihedral angle
| 20> { D 19  18  17  16   C } # D for Dihedral angle
| 21> { D 18  17  16  20   C } # D for Dihedral angle
| 22> { D 17  16  20  19   C } # D for Dihedral angle
| 23> { D 15  12  16  20   C } # D for Dihedral angle
| 24> end
| 25> end
| 26>
| 27>
| 28> #%pal
| 29> #nprocs 8
| 30> #end
| 31>
| 32> * xyz 0 1
| 33> C  -21.048   26.222   46.251
| 34> C  -20.361   27.558   45.944
| 35> C  -20.329   28.222   47.341
| 36> C  -20.110   27.022   48.296
| 37> O  -20.473   25.807   47.535
| 38> H  -20.833   25.428   45.533
| 39> H  -19.344   27.382   45.576
| 40> H  -20.898   28.157   45.201
| 41> H  -19.543   28.978   47.434
| 42> H  -21.289   28.710   47.548
| 43> H  -20.733   27.082   49.195
| 44> H  -19.064   26.913   48.597
| 45> C  -23.049   27.675   47.122
| 46> H  -24.002   27.474   47.628
| 47> H  -22.311   27.964   47.881
| 48> O  -22.586   26.394   46.375
| 49> C  -23.248   28.886   46.170
| 50> C  -24.387   28.632   45.176
| 51> C  -25.634   28.916   46.048
| 52> C  -25.162   30.068   46.970
| 53> O  -23.685   30.065   46.925
| 54> H  -22.292   29.139   45.707
| 55> H  -24.327   29.344   44.345
| 56> O  -24.376   27.194   44.590
| 57> H  -26.513   29.187   45.456
| 58> H  -25.889   28.028   46.639
| 59> H  -25.490   29.937   48.006
| 60> H  -25.494   31.048   46.616
| 61> H  -24.436   26.464   45.405
| 62> *
| 63>
| 64>                          ****END OF INPUT****
 Total Charge           Charge          ....    0
 Multiplicity           Mult            ....    1
 Number of Electrons    NEL             ....  102
FINAL SINGLE POINT ENERGY      -652.795868650436
FINAL SINGLE POINT ENERGY      -652.832807363536
FINAL SINGLE POINT ENERGY      -652.852011972854
FINAL SINGLE POINT ENERGY      -652.856784671117
FINAL SINGLE POINT ENERGY      -652.858293829663
FINAL SINGLE POINT ENERGY      -652.859060542092
FINAL SINGLE POINT ENERGY      -652.859303266526
FINAL SINGLE POINT ENERGY      -652.859373833550
FINAL SINGLE POINT ENERGY      -652.859371703198
                    ***********************HURRAY********************

CARTESIAN COORDINATES (ANGSTROEM)
---------------------------------
  C    -21.210325   26.319902   46.426056
  C    -20.290041   27.445968   45.937466
  C    -19.929028   28.171605   47.266885
  C    -19.861587   27.001769   48.279329
  O    -20.587265   25.870683   47.644677
  H    -21.221509   25.457554   45.758467
  H    -19.398367   26.985542   45.499621
  H    -20.749256   28.090228   45.185326
  H    -18.975091   28.703429   47.198370
  H    -20.691871   28.904783   47.540990
  H    -20.332121   27.230153   49.239888
  H    -18.837806   26.660361   48.455019
  C    -23.190951   27.754967   47.247986
  H    -24.145310   27.408108   47.652788
  H    -22.568299   28.064490   48.091608
  O    -22.634184   26.576195   46.569147
  C    -23.407283   28.931495   46.288366
  C    -24.439846   28.665936   45.179504
  C    -25.780402   28.866347   45.944168
  C    -25.453065   29.996846   46.940782
  O    -23.961535   30.058986   47.036599
  H    -22.452768   29.276376   45.883213
  H    -24.341342   29.437865   44.409067
  O    -24.321597   27.396498   44.507801
  H    -26.597363   29.123246   45.265084
  H    -26.049603   27.932693   46.449709
  H    -25.860516   29.826851   47.941966
  H    -25.781351   30.978487   46.587780
  H    -23.836317   26.758637   45.082337

 Multiplicity           Mult            ....    1
 Number of Electrons    NEL             ....  102
 Basis Dimension        Dim             ....  149

ORBITAL ENERGIES
----------------

  NO   OCC          E(Eh)            E(eV)
   0   2.0000     -19.163707      -521.4710
   1   2.0000     -19.150445      -521.1101
   2   2.0000     -19.145300      -520.9701
   3   2.0000     -19.120102      -520.2844
   4   2.0000     -10.290601      -280.0215
   5   2.0000     -10.240429      -278.6562
   6   2.0000     -10.237916      -278.5879
   7   2.0000     -10.236294      -278.5437
   8   2.0000     -10.235290      -278.5164
   9   2.0000     -10.230573      -278.3880
  10   2.0000     -10.200064      -277.5579
  11   2.0000     -10.199819      -277.5512
  12   2.0000     -10.183089      -277.0959
  13   2.0000      -1.062624       -28.9155
  14   2.0000      -1.029491       -28.0139
  15   2.0000      -1.008739       -27.4492
  16   2.0000      -0.997366       -27.1397
  17   2.0000      -0.796922       -21.6853
  18   2.0000      -0.780237       -21.2313
  19   2.0000      -0.772462       -21.0197
  20   2.0000      -0.741228       -20.1698
  21   2.0000      -0.686359       -18.6768
  22   2.0000      -0.612753       -16.6739
  23   2.0000      -0.605555       -16.4780
  24   2.0000      -0.600639       -16.3442
  25   2.0000      -0.578679       -15.7467
  26   2.0000      -0.539511       -14.6808
  27   2.0000      -0.511612       -13.9217
  28   2.0000      -0.506907       -13.7936
  29   2.0000      -0.491543       -13.3756
  30   2.0000      -0.474449       -12.9104
  31   2.0000      -0.461245       -12.5511
  32   2.0000      -0.448882       -12.2147
  33   2.0000      -0.437066       -11.8932
  34   2.0000      -0.427410       -11.6304
  35   2.0000      -0.423080       -11.5126
  36   2.0000      -0.414677       -11.2839
  37   2.0000      -0.395170       -10.7531
  38   2.0000      -0.392367       -10.6768
  39   2.0000      -0.373159       -10.1542
  40   2.0000      -0.368597       -10.0300
  41   2.0000      -0.356145        -9.6912
  42   2.0000      -0.353024        -9.6063
  43   2.0000      -0.341703        -9.2982
  44   2.0000      -0.324503        -8.8302
  45   2.0000      -0.320955        -8.7336
  46   2.0000      -0.291299        -7.9266
  47   2.0000      -0.286780        -7.8037
  48   2.0000      -0.267350        -7.2750
  49   2.0000      -0.252871        -6.8810
  50   2.0000      -0.242870        -6.6088
  51   0.0000       0.054458         1.4819
  52   0.0000       0.067383         1.8336
  53   0.0000       0.085089         2.3154
  54   0.0000       0.093244         2.5373
  55   0.0000       0.100669         2.7393

MULLIKEN ATOMIC CHARGES
-----------------------
   0 C :    0.308293
   1 C :   -0.285924
   2 C :   -0.325476
   3 C :   -0.013559
   4 O :   -0.498381
   5 H :    0.172153
   6 H :    0.161544
   7 H :    0.156719
   8 H :    0.151368
   9 H :    0.164225
  10 H :    0.150415
  11 H :    0.151884
  12 C :   -0.043639
  13 H :    0.164875
  14 H :    0.159220
  15 O :   -0.545460
  16 C :    0.051189
  17 C :    0.117278
  18 C :   -0.305188
  19 C :   -0.018031
  20 O :   -0.524388
  21 H :    0.152663
  22 H :    0.149750
  23 O :   -0.636261
  24 H :    0.154965
  25 H :    0.146647
  26 H :    0.144355
  27 H :    0.149065
  28 H :    0.389700
Sum of atomic charges:   -0.0000000

LOEWDIN ATOMIC CHARGES
----------------------
   0 C :    0.177544
   1 C :   -0.229923
   2 C :   -0.225265
   3 C :   -0.032718
   4 O :   -0.313526
   5 H :    0.116587
   6 H :    0.125622
   7 H :    0.119623
   8 H :    0.119183
   9 H :    0.114974
  10 H :    0.105223
  11 H :    0.107259
  12 C :   -0.050711
  13 H :    0.117014
  14 H :    0.111179
  15 O :   -0.327155
  16 C :    0.004361
  17 C :    0.041205
  18 C :   -0.238260
  19 C :   -0.030974
  20 O :   -0.326087
  21 H :    0.108272
  22 H :    0.107394
  23 O :   -0.431233
  24 H :    0.122886
  25 H :    0.112109
  26 H :    0.103077
  27 H :    0.106375
  28 H :    0.285964

  Mayer bond orders larger than 0.100000
B(  0-C ,  1-C ) :   0.9223 B(  0-C ,  4-O ) :   0.9220 B(  0-C ,  5-H ) :   0.9343
B(  0-C , 15-O ) :   0.8509 B(  1-C ,  2-C ) :   0.9526 B(  1-C ,  6-H ) :   0.9318
B(  1-C ,  7-H ) :   0.9278 B(  2-C ,  3-C ) :   0.9444 B(  2-C ,  8-H ) :   0.9446
B(  2-C ,  9-H ) :   0.9362 B(  3-C ,  4-O ) :   0.8400 B(  3-C , 10-H ) :   0.9332
B(  3-C , 11-H ) :   0.9382 B( 12-C , 13-H ) :   0.9359 B( 12-C , 14-H ) :   0.9209
B( 12-C , 15-O ) :   0.7983 B( 12-C , 16-C ) :   0.8807 B( 16-C , 17-C ) :   0.9072
B( 16-C , 20-O ) :   0.8507 B( 16-C , 21-H ) :   0.9235 B( 17-C , 18-C ) :   0.9013
B( 17-C , 22-H ) :   0.9325 B( 17-C , 23-O ) :   0.9359 B( 18-C , 19-C ) :   0.9383
B( 18-C , 24-H ) :   0.9439 B( 18-C , 25-H ) :   0.9425 B( 19-C , 20-O ) :   0.8281
B( 19-C , 26-H ) :   0.9341 B( 19-C , 27-H ) :   0.9390 B( 23-O , 28-H ) :   0.7278

FINAL SINGLE POINT ENERGY      -652.859370460400

DIPOLE MOMENT
-------------
                                X             Y             Z
Electronic contribution:     -0.79353      -3.23449      -0.84905
Nuclear contribution   :      1.35003       3.97960       1.25613
                        -----------------------------------------
Total Dipole Moment    :      0.55650       0.74510       0.40708
                        -----------------------------------------
Magnitude (a.u.)       :      1.01518
Magnitude (Debye)      :      2.58038

Rotational constants in cm-1:     0.052243     0.015426     0.013852
Rotational constants in MHz :  1566.216293   462.459727   415.258737

                             ****ORCA TERMINATED NORMALLY****
TOTAL RUN TIME: 0 days 1 hours 4 minutes 19 seconds 643 msec
