                         Program Version 4.2.0 -  RELEASE  -
|  1> # Test redundant internal optimization
|  2> #
|  3> ! RKS B3LYP  Opt TightSCF SmallPrint
|  4>
|  5> %basis
|  6>         Basis "6-31G"
|  7> end
|  8>
|  9> %geom
| 10> Constraints
| 11> { D 4  0  15  12  195.0   C } # D for Dihedral angle
| 12> { D 0  15  12  16  165.0   C } # D for Dihedral angle
| 13> { D 0  4  3  2   C } # D for Dihedral angle
| 14> { D 4  3  2  1   C } # D for Dihedral angle
| 15> { D 3  2  1  0   C } # D for Dihedral angle
| 16> { D 2  1  0  4   C } # D for Dihedral angle
| 17> { D 1  0  4  3   C } # D for Dihedral angle
| 18> { D 16  20  19  18   C } # D for Dihedral angle
| 19> { D 20  19  18  17   C } # D for Dihedral angle
| 20> { D 19  18  17  16   C } # D for Dihedral angle
| 21> { D 18  17  16  20   C } # D for Dihedral angle
| 22> { D 17  16  20  19   C } # D for Dihedral angle
| 23> { D 15  12  16  20   C } # D for Dihedral angle
| 24> end
| 25> end
| 26>
| 27>
| 28> #%pal
| 29> #nprocs 8
| 30> #end
| 31>
| 32> * xyz 0 1
| 33> C  -21.048   26.222   46.251
| 34> C  -20.361   27.558   45.944
| 35> C  -20.329   28.222   47.341
| 36> C  -20.110   27.022   48.296
| 37> O  -20.473   25.807   47.535
| 38> H  -20.833   25.428   45.533
| 39> H  -19.344   27.382   45.576
| 40> H  -20.898   28.157   45.201
| 41> H  -19.543   28.978   47.434
| 42> H  -21.289   28.710   47.548
| 43> H  -20.733   27.082   49.195
| 44> H  -19.064   26.913   48.597
| 45> C  -23.353   26.472   45.026
| 46> H  -23.182   27.455   44.569
| 47> H  -22.989   25.703   44.332
| 48> O  -22.586   26.394   46.375
| 49> C  -24.884   26.270   45.194
| 50> C  -25.197   24.952   45.910
| 51> C  -24.930   25.327   47.388
| 52> C  -25.393   26.804   47.465
| 53> O  -25.444   27.302   46.073
| 54> H  -25.368   26.382   44.222
| 55> H  -26.250   24.685   45.764
| 56> O  -24.319   23.768   45.422
| 57> H  -25.466   24.684   48.093
| 58> H  -23.859   25.247   47.609
| 59> H  -24.707   27.429   48.045
| 60> H  -26.400   26.904   47.880
| 61> H  -23.260   24.013   45.559
| 62> *
| 63>
| 64>                          ****END OF INPUT****
 Total Charge           Charge          ....    0
 Multiplicity           Mult            ....    1
 Number of Electrons    NEL             ....  102
FINAL SINGLE POINT ENERGY      -652.832658763199
FINAL SINGLE POINT ENERGY      -652.856473235241
FINAL SINGLE POINT ENERGY      -652.861211890621
FINAL SINGLE POINT ENERGY      -652.862974983434
FINAL SINGLE POINT ENERGY      -652.863175515081
FINAL SINGLE POINT ENERGY      -652.863208472620
FINAL SINGLE POINT ENERGY      -652.863209127650
                    ***********************HURRAY********************

CARTESIAN COORDINATES (ANGSTROEM)
---------------------------------
  C    -21.065510   26.249882   46.166884
  C    -20.351399   27.572581   45.898572
  C    -20.378358   28.239792   47.294367
  C    -20.221427   27.042078   48.253285
  O    -20.570063   25.838299   47.448038
  H    -20.852187   25.448420   45.449716
  H    -19.322725   27.368826   45.578809
  H    -20.837717   28.177025   45.127959
  H    -19.584069   28.981551   47.419788
  H    -21.342107   28.734191   47.447521
  H    -20.889470   27.087016   49.116480
  H    -19.192544   26.898974   48.595184
  C    -23.236915   26.509654   45.031666
  H    -23.073870   27.490450   44.565515
  H    -22.891392   25.728810   44.336546
  O    -22.506227   26.425820   46.289168
  C    -24.731237   26.319804   45.271750
  C    -25.129839   24.976772   45.906548
  C    -24.943997   25.271830   47.428546
  C    -25.366486   26.753018   47.537101
  O    -25.312058   27.314433   46.162029
  H    -25.222965   26.455793   44.300699
  H    -26.172232   24.752626   45.669964
  O    -24.375833   23.839487   45.420144
  H    -25.556415   24.612914   48.050801
  H    -23.890713   25.149184   47.690250
  H    -24.697775   27.334775   48.177183
  H    -26.397158   26.872995   47.885058
  H    -23.499314   23.824999   45.857426

 Multiplicity           Mult            ....    1
 Number of Electrons    NEL             ....  102
 Basis Dimension        Dim             ....  149

ORBITAL ENERGIES
----------------

  NO   OCC          E(Eh)            E(eV)
   0   2.0000     -19.150495      -521.1115
   1   2.0000     -19.148401      -521.0545
   2   2.0000     -19.137265      -520.7515
   3   2.0000     -19.131457      -520.5934
   4   2.0000     -10.287552      -279.9385
   5   2.0000     -10.233777      -278.4752
   6   2.0000     -10.232951      -278.4528
   7   2.0000     -10.230939      -278.3980
   8   2.0000     -10.229464      -278.3579
   9   2.0000     -10.218587      -278.0619
  10   2.0000     -10.192107      -277.3413
  11   2.0000     -10.190794      -277.3056
  12   2.0000     -10.174905      -276.8732
  13   2.0000      -1.061915       -28.8962
  14   2.0000      -1.025388       -27.9022
  15   2.0000      -1.007836       -27.4246
  16   2.0000      -0.999496       -27.1977
  17   2.0000      -0.791950       -21.5501
  18   2.0000      -0.772040       -21.0083
  19   2.0000      -0.762974       -20.7616
  20   2.0000      -0.734952       -19.9991
  21   2.0000      -0.677793       -18.4437
  22   2.0000      -0.606113       -16.4932
  23   2.0000      -0.600279       -16.3344
  24   2.0000      -0.596404       -16.2290
  25   2.0000      -0.568719       -15.4756
  26   2.0000      -0.530609       -14.4386
  27   2.0000      -0.504767       -13.7354
  28   2.0000      -0.501691       -13.6517
  29   2.0000      -0.488982       -13.3059
  30   2.0000      -0.473922       -12.8961
  31   2.0000      -0.454812       -12.3761
  32   2.0000      -0.451758       -12.2929
  33   2.0000      -0.428330       -11.6554
  34   2.0000      -0.422357       -11.4929
  35   2.0000      -0.410408       -11.1678
  36   2.0000      -0.405111       -11.0236
  37   2.0000      -0.398930       -10.8554
  38   2.0000      -0.379563       -10.3284
  39   2.0000      -0.368822       -10.0362
  40   2.0000      -0.361046        -9.8245
  41   2.0000      -0.356849        -9.7104
  42   2.0000      -0.350841        -9.5469
  43   2.0000      -0.324654        -8.8343
  44   2.0000      -0.317217        -8.6319
  45   2.0000      -0.310772        -8.4565
  46   2.0000      -0.306488        -8.3400
  47   2.0000      -0.267860        -7.2888
  48   2.0000      -0.262534        -7.1439
  49   2.0000      -0.258829        -7.0431
  50   2.0000      -0.237166        -6.4536
  51   0.0000       0.061427         1.6715
  52   0.0000       0.082800         2.2531
  53   0.0000       0.091697         2.4952
  54   0.0000       0.098612         2.6834
  55   0.0000       0.105586         2.8731

MULLIKEN ATOMIC CHARGES
-----------------------
   0 C :    0.298910
   1 C :   -0.271030
   2 C :   -0.299662
   3 C :   -0.003462
   4 O :   -0.508844
   5 H :    0.138329
   6 H :    0.147566
   7 H :    0.149416
   8 H :    0.144952
   9 H :    0.166403
  10 H :    0.153543
  11 H :    0.144981
  12 C :   -0.019998
  13 H :    0.143509
  14 H :    0.134898
  15 O :   -0.522005
  16 C :    0.091069
  17 C :    0.088883
  18 C :   -0.315484
  19 C :   -0.002091
  20 O :   -0.523565
  21 H :    0.147725
  22 H :    0.158711
  23 O :   -0.610526
  24 H :    0.142062
  25 H :    0.176306
  26 H :    0.146871
  27 H :    0.137617
  28 H :    0.364915
Sum of atomic charges:   -0.0000000

LOEWDIN ATOMIC CHARGES
----------------------
   0 C :    0.176340
   1 C :   -0.228502
   2 C :   -0.216341
   3 C :   -0.024660
   4 O :   -0.308616
   5 H :    0.094662
   6 H :    0.115650
   7 H :    0.117358
   8 H :    0.116040
   9 H :    0.121107
  10 H :    0.109035
  11 H :    0.104163
  12 C :   -0.049776
  13 H :    0.100654
  14 H :    0.099022
  15 O :   -0.335941
  16 C :    0.020506
  17 C :    0.038237
  18 C :   -0.243665
  19 C :   -0.024108
  20 O :   -0.324364
  21 H :    0.113478
  22 H :    0.114453
  23 O :   -0.413314
  24 H :    0.114081
  25 H :    0.127191
  26 H :    0.105145
  27 H :    0.099385
  28 H :    0.282777

  Mayer bond orders larger than 0.100000
B(  0-C ,  1-C ) :   0.9306 B(  0-C ,  4-O ) :   0.9372 B(  0-C ,  5-H ) :   0.9182
B(  0-C , 15-O ) :   0.8280 B(  1-C ,  2-C ) :   0.9524 B(  1-C ,  6-H ) :   0.9340
B(  1-C ,  7-H ) :   0.9340 B(  2-C ,  3-C ) :   0.9562 B(  2-C ,  8-H ) :   0.9447
B(  2-C ,  9-H ) :   0.9430 B(  3-C ,  4-O ) :   0.8307 B(  3-C , 10-H ) :   0.9350
B(  3-C , 11-H ) :   0.9397 B( 12-C , 13-H ) :   0.9170 B( 12-C , 14-H ) :   0.8998
B( 12-C , 15-O ) :   0.8299 B( 12-C , 16-C ) :   0.9158 B( 16-C , 17-C ) :   0.8855
B( 16-C , 20-O ) :   0.8816 B( 16-C , 21-H ) :   0.9285 B( 17-C , 18-C ) :   0.9354
B( 17-C , 22-H ) :   0.9368 B( 17-C , 23-O ) :   0.8972 B( 18-C , 19-C ) :   0.9476
B( 18-C , 24-H ) :   0.9406 B( 18-C , 25-H ) :   0.9225 B( 19-C , 20-O ) :   0.8354
B( 19-C , 26-H ) :   0.9328 B( 19-C , 27-H ) :   0.9388 B( 23-O , 28-H ) :   0.7936

FINAL SINGLE POINT ENERGY      -652.863195376675

DIPOLE MOMENT
-------------
                                X             Y             Z
Electronic contribution:     -2.48038      -2.98070      -1.55254
Nuclear contribution   :      3.37808       3.63810       1.67217
                        -----------------------------------------
Total Dipole Moment    :      0.89770       0.65740       0.11963
                        -----------------------------------------
Magnitude (a.u.)       :      1.11909
Magnitude (Debye)      :      2.84449

Rotational constants in cm-1:     0.046043     0.015781     0.015152
Rotational constants in MHz :  1380.337811   473.092261   454.252377

                             ****ORCA TERMINATED NORMALLY****
TOTAL RUN TIME: 0 days 0 hours 24 minutes 3 seconds 830 msec
