                         Program Version 4.2.0 -  RELEASE  -
|  1> # Test redundant internal optimization
|  2> #
|  3> ! RKS B3LYP  Opt TightSCF SmallPrint
|  4>
|  5> %basis
|  6>         Basis "6-31G"
|  7> end
|  8>
|  9> %geom
| 10> Constraints
| 11> { D 4  0  15  12  105.0   C } # D for Dihedral angle
| 12> { D 0  15  12  16  150.0   C } # D for Dihedral angle
| 13> { D 0  4  3  2   C } # D for Dihedral angle
| 14> { D 4  3  2  1   C } # D for Dihedral angle
| 15> { D 3  2  1  0   C } # D for Dihedral angle
| 16> { D 2  1  0  4   C } # D for Dihedral angle
| 17> { D 1  0  4  3   C } # D for Dihedral angle
| 18> { D 16  20  19  18   C } # D for Dihedral angle
| 19> { D 20  19  18  17   C } # D for Dihedral angle
| 20> { D 19  18  17  16   C } # D for Dihedral angle
| 21> { D 18  17  16  20   C } # D for Dihedral angle
| 22> { D 17  16  20  19   C } # D for Dihedral angle
| 23> { D 15  12  16  20   C } # D for Dihedral angle
| 24> end
| 25> end
| 26>
| 27>
| 28> #%pal
| 29> #nprocs 8
| 30> #end
| 31>
| 32> * xyz 0 1
| 33> C  -21.048   26.222   46.251
| 34> C  -20.361   27.558   45.944
| 35> C  -20.329   28.222   47.341
| 36> C  -20.110   27.022   48.296
| 37> O  -20.473   25.807   47.535
| 38> H  -20.833   25.428   45.533
| 39> H  -19.344   27.382   45.576
| 40> H  -20.898   28.157   45.201
| 41> H  -19.543   28.978   47.434
| 42> H  -21.289   28.710   47.548
| 43> H  -20.733   27.082   49.195
| 44> H  -19.064   26.913   48.597
| 45> C  -23.085   27.864   46.420
| 46> H  -23.109   28.206   47.462
| 47> H  -22.403   28.518   45.861
| 48> O  -22.586   26.394   46.375
| 49> C  -24.506   28.036   45.816
| 50> C  -25.556   27.286   46.644
| 51> C  -25.775   28.258   47.827
| 52> C  -25.626   29.653   47.169
| 53> O  -24.926   29.439   45.884
| 54> H  -24.481   27.760   44.760
| 55> O  -26.863   27.121   45.821
| 56> H  -25.224   26.293   46.965
| 57> H  -26.748   28.127   48.311
| 58> H  -24.999   28.105   48.588
| 59> H  -25.043   30.347   47.784
| 60> H  -26.592   30.110   46.938
| 61> H  -27.217   28.105   45.489
| 62> *
| 63>
| 64>                          ****END OF INPUT****
 Total Charge           Charge          ....    0
 Multiplicity           Mult            ....    1
 Number of Electrons    NEL             ....  102
FINAL SINGLE POINT ENERGY      -652.820062739448
FINAL SINGLE POINT ENERGY      -652.845169821362
FINAL SINGLE POINT ENERGY      -652.855357089335
FINAL SINGLE POINT ENERGY      -652.857276908188
FINAL SINGLE POINT ENERGY      -652.857587870306
FINAL SINGLE POINT ENERGY      -652.857635884544
FINAL SINGLE POINT ENERGY      -652.857642644601
                    ***********************HURRAY********************

CARTESIAN COORDINATES (ANGSTROEM)
---------------------------------
  C    -21.246221   26.382206   46.331892
  C    -20.262202   27.482171   45.918061
  C    -19.949811   28.165882   47.278087
  C    -19.979159   26.974972   48.267755
  O    -20.705922   25.884871   47.575534
  H    -21.264634   25.521753   45.662024
  H    -19.364728   27.000347   45.516561
  H    -20.646978   28.166616   45.157679
  H    -18.980878   28.674145   47.274075
  H    -20.713914   28.908526   47.527478
  H    -20.493055   27.208080   49.205003
  H    -18.978653   26.595812   48.495121
  C    -23.122033   28.114264   46.523703
  H    -23.152079   28.459746   47.565701
  H    -22.493768   28.803720   45.951561
  O    -22.643663   26.743566   46.455276
  C    -24.519436   28.118899   45.904271
  C    -25.563973   27.269517   46.642400
  C    -25.962639   28.208206   47.807840
  C    -25.885557   29.618769   47.171642
  O    -25.064434   29.480858   45.941223
  H    -24.449301   27.823325   44.854299
  O    -26.694953   26.977404   45.774441
  H    -25.176249   26.304676   46.963551
  H    -26.961104   27.962316   48.177019
  H    -25.255745   28.104242   48.638412
  H    -25.418424   30.359181   47.828519
  H    -26.865490   29.995863   46.863045
  H    -26.948998   27.793068   45.292828

 Multiplicity           Mult            ....    1
 Number of Electrons    NEL             ....  102
 Basis Dimension        Dim             ....  149

ORBITAL ENERGIES
----------------

  NO   OCC          E(Eh)            E(eV)
   0   2.0000     -19.146129      -520.9926
   1   2.0000     -19.145382      -520.9723
   2   2.0000     -19.140346      -520.8353
   3   2.0000     -19.132851      -520.6313
   4   2.0000     -10.282545      -279.8023
   5   2.0000     -10.235024      -278.5092
   6   2.0000     -10.232977      -278.4534
   7   2.0000     -10.232225      -278.4330
   8   2.0000     -10.232077      -278.4290
   9   2.0000     -10.230098      -278.3751
  10   2.0000     -10.197261      -277.4816
  11   2.0000     -10.196793      -277.4688
  12   2.0000     -10.186232      -277.1815
  13   2.0000      -1.053074       -28.6556
  14   2.0000      -1.035304       -28.1720
  15   2.0000      -1.002884       -27.2899
  16   2.0000      -0.997746       -27.1500
  17   2.0000      -0.793335       -21.5877
  18   2.0000      -0.781480       -21.2651
  19   2.0000      -0.770548       -20.9677
  20   2.0000      -0.733808       -19.9679
  21   2.0000      -0.681027       -18.5317
  22   2.0000      -0.607593       -16.5334
  23   2.0000      -0.603124       -16.4119
  24   2.0000      -0.598288       -16.2803
  25   2.0000      -0.574897       -15.6438
  26   2.0000      -0.522979       -14.2310
  27   2.0000      -0.517144       -14.0722
  28   2.0000      -0.505875       -13.7656
  29   2.0000      -0.490842       -13.3565
  30   2.0000      -0.473513       -12.8849
  31   2.0000      -0.460365       -12.5272
  32   2.0000      -0.450486       -12.2583
  33   2.0000      -0.438294       -11.9266
  34   2.0000      -0.430247       -11.7076
  35   2.0000      -0.414016       -11.2659
  36   2.0000      -0.407999       -11.1022
  37   2.0000      -0.391244       -10.6463
  38   2.0000      -0.386668       -10.5218
  39   2.0000      -0.366963        -9.9856
  40   2.0000      -0.365551        -9.9471
  41   2.0000      -0.359967        -9.7952
  42   2.0000      -0.354212        -9.6386
  43   2.0000      -0.330507        -8.9936
  44   2.0000      -0.317386        -8.6365
  45   2.0000      -0.306887        -8.3508
  46   2.0000      -0.296641        -8.0720
  47   2.0000      -0.273269        -7.4360
  48   2.0000      -0.268957        -7.3187
  49   2.0000      -0.256404        -6.9771
  50   2.0000      -0.244088        -6.6420
  51   0.0000       0.064326         1.7504
  52   0.0000       0.067270         1.8305
  53   0.0000       0.090669         2.4672
  54   0.0000       0.097193         2.6448
  55   0.0000       0.102962         2.8017

MULLIKEN ATOMIC CHARGES
-----------------------
   0 C :    0.314289
   1 C :   -0.304142
   2 C :   -0.309674
   3 C :   -0.006220
   4 O :   -0.496459
   5 H :    0.165996
   6 H :    0.160304
   7 H :    0.152687
   8 H :    0.147563
   9 H :    0.149773
  10 H :    0.145534
  11 H :    0.147162
  12 C :   -0.002361
  13 H :    0.128847
  14 H :    0.146715
  15 O :   -0.533222
  16 C :    0.061282
  17 C :    0.088953
  18 C :   -0.296390
  19 C :   -0.035056
  20 O :   -0.530065
  21 H :    0.162184
  22 O :   -0.602652
  23 H :    0.182562
  24 H :    0.160385
  25 H :    0.148003
  26 H :    0.145797
  27 H :    0.146980
  28 H :    0.361226
Sum of atomic charges:   -0.0000000

LOEWDIN ATOMIC CHARGES
----------------------
   0 C :    0.178734
   1 C :   -0.232266
   2 C :   -0.221908
   3 C :   -0.031186
   4 O :   -0.316855
   5 H :    0.112123
   6 H :    0.124922
   7 H :    0.117845
   8 H :    0.117274
   9 H :    0.110088
  10 H :    0.103839
  11 H :    0.104666
  12 C :   -0.038809
  13 H :    0.091844
  14 H :    0.103889
  15 O :   -0.328109
  16 C :    0.016914
  17 C :    0.039216
  18 C :   -0.240960
  19 C :   -0.039338
  20 O :   -0.333539
  21 H :    0.117201
  22 O :   -0.414656
  23 H :    0.131425
  24 H :    0.126539
  25 H :    0.114881
  26 H :    0.103069
  27 H :    0.102704
  28 H :    0.280457

  Mayer bond orders larger than 0.100000
B(  0-C ,  1-C ) :   0.9316 B(  0-C ,  4-O ) :   0.9110 B(  0-C ,  5-H ) :   0.9334
B(  0-C , 15-O ) :   0.8756 B(  1-C ,  2-C ) :   0.9505 B(  1-C ,  6-H ) :   0.9335
B(  1-C ,  7-H ) :   0.9291 B(  2-C ,  3-C ) :   0.9482 B(  2-C ,  8-H ) :   0.9454
B(  2-C ,  9-H ) :   0.9411 B(  3-C ,  4-O ) :   0.8478 B(  3-C , 10-H ) :   0.9346
B(  3-C , 11-H ) :   0.9390 B( 12-C , 13-H ) :   0.9195 B( 12-C , 14-H ) :   0.9067
B( 12-C , 15-O ) :   0.8304 B( 12-C , 16-C ) :   0.8960 B( 16-C , 17-C ) :   0.9147
B( 16-C , 20-O ) :   0.8437 B( 16-C , 21-H ) :   0.9257 B( 17-C , 18-C ) :   0.9117
B( 17-C , 22-O ) :   0.8897 B( 17-C , 23-H ) :   0.9223 B( 18-C , 19-C ) :   0.9407
B( 18-C , 24-H ) :   0.9384 B( 18-C , 25-H ) :   0.9345 B( 19-C , 20-O ) :   0.8416
B( 19-C , 26-H ) :   0.9356 B( 19-C , 27-H ) :   0.9381 B( 22-O , 28-H ) :   0.7966

FINAL SINGLE POINT ENERGY      -652.857643509140

DIPOLE MOMENT
-------------
                                X             Y             Z
Electronic contribution:     -3.29498      -3.72283      -2.72607
Nuclear contribution   :      4.16386       5.01680       3.08269
                        -----------------------------------------
Total Dipole Moment    :      0.86888       1.29396       0.35661
                        -----------------------------------------
Magnitude (a.u.)       :      1.59890
Magnitude (Debye)      :      4.06408

Rotational constants in cm-1:     0.056095     0.012561     0.011995
Rotational constants in MHz :  1681.689130   376.571499   359.600841

                             ****ORCA TERMINATED NORMALLY****
TOTAL RUN TIME: 0 days 0 hours 42 minutes 49 seconds 514 msec
