                         Program Version 4.2.0 -  RELEASE  -
|  1> # Test redundant internal optimization
|  2> #
|  3> ! RKS B3LYP  Opt TightSCF SmallPrint
|  4>
|  5> %basis
|  6>         Basis "6-31G"
|  7> end
|  8>
|  9> %geom
| 10> Constraints
| 11> { D 4  0  15  12  240.0   C } # D for Dihedral angle
| 12> { D 0  15  12  16  225.0   C } # D for Dihedral angle
| 13> { D 0  4  3  2   C } # D for Dihedral angle
| 14> { D 4  3  2  1   C } # D for Dihedral angle
| 15> { D 3  2  1  0   C } # D for Dihedral angle
| 16> { D 2  1  0  4   C } # D for Dihedral angle
| 17> { D 1  0  4  3   C } # D for Dihedral angle
| 18> { D 16  20  19  18   C } # D for Dihedral angle
| 19> { D 20  19  18  17   C } # D for Dihedral angle
| 20> { D 19  18  17  16   C } # D for Dihedral angle
| 21> { D 18  17  16  20   C } # D for Dihedral angle
| 22> { D 17  16  20  19   C } # D for Dihedral angle
| 23> { D 15  12  16  20   C } # D for Dihedral angle
| 24> end
| 25> end
| 26>
| 27>
| 28> #%pal
| 29> #nprocs 8
| 30> #end
| 31>
| 32> * xyz 0 1
| 33> C  -21.048   26.222   46.251
| 34> C  -20.361   27.558   45.944
| 35> C  -20.329   28.222   47.341
| 36> C  -20.110   27.022   48.296
| 37> O  -20.473   25.807   47.535
| 38> H  -20.833   25.428   45.533
| 39> H  -19.344   27.382   45.576
| 40> H  -20.898   28.157   45.201
| 41> H  -19.543   28.978   47.434
| 42> H  -21.289   28.710   47.548
| 43> H  -20.733   27.082   49.195
| 44> H  -19.064   26.913   48.597
| 45> C  -23.430   25.483   45.442
| 46> H  -22.779   25.054   44.670
| 47> H  -23.875   24.657   46.012
| 48> O  -22.586   26.394   46.375
| 49> C  -24.585   26.248   44.739
| 50> C  -24.042   27.317   43.783
| 51> C  -23.649   26.467   42.552
| 52> C  -24.735   25.362   42.527
| 53> O  -25.347   25.343   43.872
| 54> H  -25.276   26.626   45.494
| 55> O  -25.167   28.325   43.418
| 56> H  -23.199   27.879   44.199
| 57> H  -23.624   27.049   41.625
| 58> H  -22.655   26.029   42.699
| 59> H  -24.321   24.373   42.306
| 60> H  -25.534   25.578   41.812
| 61> H  -26.024   27.784   42.998
| 62> *
| 63>
| 64>                          ****END OF INPUT****
 Total Charge           Charge          ....    0
 Multiplicity           Mult            ....    1
 Number of Electrons    NEL             ....  102
FINAL SINGLE POINT ENERGY      -652.835532430693
FINAL SINGLE POINT ENERGY      -652.857819824710
FINAL SINGLE POINT ENERGY      -652.861384627243
FINAL SINGLE POINT ENERGY      -652.862009005090
FINAL SINGLE POINT ENERGY      -652.862088513124
FINAL SINGLE POINT ENERGY      -652.862098258585
FINAL SINGLE POINT ENERGY      -652.862099556457
                    ***********************HURRAY********************

CARTESIAN COORDINATES (ANGSTROEM)
---------------------------------
  C    -21.067659   26.153231   46.207848
  C    -20.429223   27.503858   45.884256
  C    -20.485461   28.222163   47.255205
  C    -20.256039   27.068188   48.255682
  O    -20.539565   25.819627   47.504816
  H    -20.806364   25.333392   45.531917
  H    -19.389818   27.345864   45.571864
  H    -20.955260   28.041950   45.092978
  H    -19.734912   29.012613   47.348354
  H    -21.476135   28.664332   47.396431
  H    -20.919952   27.112635   49.122428
  H    -19.218486   27.000268   48.596217
  C    -23.339890   25.433022   45.452636
  H    -22.725955   24.918569   44.699121
  H    -23.811048   24.670340   46.082133
  O    -22.510368   26.303838   46.273125
  C    -24.431041   26.262764   44.772210
  C    -23.934983   27.335386   43.790870
  C    -23.631963   26.489624   42.527701
  C    -24.731253   25.398839   42.562082
  O    -25.258977   25.374969   43.948424
  H    -25.082844   26.704752   45.530856
  O    -24.971264   28.323793   43.538371
  H    -23.080803   27.896135   44.165330
  H    -23.675109   27.109553   41.628842
  H    -22.630769   26.049137   42.592395
  H    -24.352662   24.404190   42.308238
  H    -25.573137   25.629680   41.901651
  H    -25.832059   27.866293   43.432019

 Multiplicity           Mult            ....    1
 Number of Electrons    NEL             ....  102
 Basis Dimension        Dim             ....  149

ORBITAL ENERGIES
----------------

  NO   OCC          E(Eh)            E(eV)
   0   2.0000     -19.147762      -521.0371
   1   2.0000     -19.144838      -520.9575
   2   2.0000     -19.139604      -520.8151
   3   2.0000     -19.138456      -520.7839
   4   2.0000     -10.283504      -279.8284
   5   2.0000     -10.240712      -278.6639
   6   2.0000     -10.235188      -278.5136
   7   2.0000     -10.234862      -278.5047
   8   2.0000     -10.234313      -278.4898
   9   2.0000     -10.224559      -278.2244
  10   2.0000     -10.192298      -277.3465
  11   2.0000     -10.187880      -277.2263
  12   2.0000     -10.185931      -277.1733
  13   2.0000      -1.053864       -28.6771
  14   2.0000      -1.039317       -28.2813
  15   2.0000      -1.007739       -27.4220
  16   2.0000      -0.996718       -27.1221
  17   2.0000      -0.789194       -21.4751
  18   2.0000      -0.782094       -21.2819
  19   2.0000      -0.769983       -20.9523
  20   2.0000      -0.732428       -19.9304
  21   2.0000      -0.677061       -18.4238
  22   2.0000      -0.607445       -16.5294
  23   2.0000      -0.599400       -16.3105
  24   2.0000      -0.593468       -16.1491
  25   2.0000      -0.588382       -16.0107
  26   2.0000      -0.524463       -14.2714
  27   2.0000      -0.521569       -14.1926
  28   2.0000      -0.496224       -13.5029
  29   2.0000      -0.493125       -13.4186
  30   2.0000      -0.472959       -12.8699
  31   2.0000      -0.458790       -12.4843
  32   2.0000      -0.452676       -12.3180
  33   2.0000      -0.440811       -11.9951
  34   2.0000      -0.426201       -11.5975
  35   2.0000      -0.415876       -11.3166
  36   2.0000      -0.405024       -11.0213
  37   2.0000      -0.395091       -10.7510
  38   2.0000      -0.377436       -10.2706
  39   2.0000      -0.371928       -10.1207
  40   2.0000      -0.361622        -9.8402
  41   2.0000      -0.356296        -9.6953
  42   2.0000      -0.351725        -9.5709
  43   2.0000      -0.333974        -9.0879
  44   2.0000      -0.318399        -8.6641
  45   2.0000      -0.310582        -8.4514
  46   2.0000      -0.307845        -8.3769
  47   2.0000      -0.273312        -7.4372
  48   2.0000      -0.268148        -7.2967
  49   2.0000      -0.258387        -7.0311
  50   2.0000      -0.241003        -6.5580
  51   0.0000       0.061781         1.6811
  52   0.0000       0.066057         1.7975
  53   0.0000       0.082512         2.2453
  54   0.0000       0.092956         2.5295
  55   0.0000       0.102857         2.7989

MULLIKEN ATOMIC CHARGES
-----------------------
   0 C :    0.285639
   1 C :   -0.261697
   2 C :   -0.300201
   3 C :   -0.000520
   4 O :   -0.500936
   5 H :    0.139011
   6 H :    0.144156
   7 H :    0.148176
   8 H :    0.142527
   9 H :    0.165871
  10 H :    0.153350
  11 H :    0.141120
  12 C :   -0.001665
  13 H :    0.120328
  14 H :    0.162217
  15 O :   -0.523227
  16 C :    0.058650
  17 C :    0.082397
  18 C :   -0.296135
  19 C :   -0.030401
  20 O :   -0.525007
  21 H :    0.170578
  22 O :   -0.603640
  23 H :    0.167513
  24 H :    0.163857
  25 H :    0.137834
  26 H :    0.146425
  27 H :    0.149307
  28 H :    0.364474
Sum of atomic charges:   -0.0000000

LOEWDIN ATOMIC CHARGES
----------------------
   0 C :    0.177045
   1 C :   -0.222516
   2 C :   -0.216138
   3 C :   -0.026011
   4 O :   -0.314780
   5 H :    0.097171
   6 H :    0.113154
   7 H :    0.114984
   8 H :    0.114568
   9 H :    0.120976
  10 H :    0.108864
  11 H :    0.102020
  12 C :   -0.033158
  13 H :    0.091241
  14 H :    0.113376
  15 O :   -0.335733
  16 C :    0.013670
  17 C :    0.036686
  18 C :   -0.241321
  19 C :   -0.038258
  20 O :   -0.329256
  21 H :    0.120043
  22 O :   -0.414290
  23 H :    0.119344
  24 H :    0.127391
  25 H :    0.110104
  26 H :    0.104174
  27 H :    0.103974
  28 H :    0.282674

  Mayer bond orders larger than 0.100000
B(  0-C ,  1-C ) :   0.9405 B(  0-C ,  4-O ) :   0.9355 B(  0-C ,  5-H ) :   0.9192
B(  0-C , 15-O ) :   0.8405 B(  1-C ,  2-C ) :   0.9577 B(  1-C ,  6-H ) :   0.9360
B(  1-C ,  7-H ) :   0.9321 B(  2-C ,  3-C ) :   0.9539 B(  2-C ,  8-H ) :   0.9450
B(  2-C ,  9-H ) :   0.9430 B(  3-C ,  4-O ) :   0.8363 B(  3-C , 10-H ) :   0.9346
B(  3-C , 11-H ) :   0.9398 B( 12-C , 13-H ) :   0.9211 B( 12-C , 14-H ) :   0.9229
B( 12-C , 15-O ) :   0.8335 B( 12-C , 16-C ) :   0.8995 B( 16-C , 17-C ) :   0.9086
B( 16-C , 20-O ) :   0.8404 B( 16-C , 21-H ) :   0.9248 B( 17-C , 18-C ) :   0.9127
B( 17-C , 22-O ) :   0.8907 B( 17-C , 23-H ) :   0.9205 B( 18-C , 19-C ) :   0.9389
B( 18-C , 24-H ) :   0.9380 B( 18-C , 25-H ) :   0.9358 B( 19-C , 20-O ) :   0.8433
B( 19-C , 26-H ) :   0.9356 B( 19-C , 27-H ) :   0.9377 B( 22-O , 28-H ) :   0.7946

FINAL SINGLE POINT ENERGY      -652.862099862523

DIPOLE MOMENT
-------------
                                X             Y             Z
Electronic contribution:     -3.90491      -2.04306       1.61325
Nuclear contribution   :      4.59810       2.13427      -2.38620
                        -----------------------------------------
Total Dipole Moment    :      0.69319       0.09121      -0.77295
                        -----------------------------------------
Magnitude (a.u.)       :      1.04225
Magnitude (Debye)      :      2.64920

Rotational constants in cm-1:     0.057055     0.012847     0.011919
Rotational constants in MHz :  1710.459070   385.147917   357.327468

                             ****ORCA TERMINATED NORMALLY****
TOTAL RUN TIME: 0 days 0 hours 40 minutes 37 seconds 260 msec
