                         Program Version 4.2.0 -  RELEASE  -
|  1> # Test redundant internal optimization
|  2> #
|  3> ! RKS B3LYP  Opt TightSCF SmallPrint
|  4>
|  5> %basis
|  6>         Basis "6-31G"
|  7> end
|  8>
|  9> %geom
| 10> Constraints
| 11> { D 4  0  15  12  300.0   C } # D for Dihedral angle
| 12> { D 0  15  12  16  270.0   C } # D for Dihedral angle
| 13> { D 0  4  3  2   C } # D for Dihedral angle
| 14> { D 4  3  2  1   C } # D for Dihedral angle
| 15> { D 3  2  1  0   C } # D for Dihedral angle
| 16> { D 2  1  0  4   C } # D for Dihedral angle
| 17> { D 1  0  4  3   C } # D for Dihedral angle
| 18> { D 16  20  19  18   C } # D for Dihedral angle
| 19> { D 20  19  18  17   C } # D for Dihedral angle
| 20> { D 19  18  17  16   C } # D for Dihedral angle
| 21> { D 18  17  16  20   C } # D for Dihedral angle
| 22> { D 17  16  20  19   C } # D for Dihedral angle
| 23> { D 15  12  16  20   C } # D for Dihedral angle
| 24> end
| 25> end
| 26>
| 27>
| 28> #%pal
| 29> #nprocs 8
| 30> #end
| 31>
| 32> * xyz 0 1
| 33> C  -21.048   26.222   46.251
| 34> C  -20.361   27.558   45.944
| 35> C  -20.329   28.222   47.341
| 36> C  -20.110   27.022   48.296
| 37> O  -20.473   25.807   47.535
| 38> H  -20.833   25.428   45.533
| 39> H  -19.344   27.382   45.576
| 40> H  -20.898   28.157   45.201
| 41> H  -19.543   28.978   47.434
| 42> H  -21.289   28.710   47.548
| 43> H  -20.733   27.082   49.195
| 44> H  -19.064   26.913   48.597
| 45> C  -23.362   25.116   46.798
| 46> H  -22.719   24.498   47.437
| 47> H  -24.259   25.384   47.370
| 48> O  -22.586   26.394   46.375
| 49> C  -23.813   24.258   45.583
| 50> C  -24.672   23.071   46.030
| 51> C  -26.045   23.746   46.260
| 52> C  -26.092   24.833   45.158
| 53> O  -24.698   25.035   44.708
| 54> H  -22.936   23.986   44.992
| 55> O  -24.763   22.019   44.890
| 56> H  -24.287   22.574   46.927
| 57> H  -26.882   23.043   46.188
| 58> H  -26.078   24.203   47.256
| 59> H  -26.491   25.786   45.525
| 60> H  -26.670   24.519   44.285
| 61> H  -25.147   22.495   43.981
| 62> *
| 63>
| 64>                          ****END OF INPUT****
 Total Charge           Charge          ....    0
 Multiplicity           Mult            ....    1
 Number of Electrons    NEL             ....  102
FINAL SINGLE POINT ENERGY      -652.836795336960
FINAL SINGLE POINT ENERGY      -652.860820917730
FINAL SINGLE POINT ENERGY      -652.864969535594
FINAL SINGLE POINT ENERGY      -652.865781619523
FINAL SINGLE POINT ENERGY      -652.865899567217
FINAL SINGLE POINT ENERGY      -652.865910419452
FINAL SINGLE POINT ENERGY      -652.865912416046
                    ***********************HURRAY********************

CARTESIAN COORDINATES (ANGSTROEM)
---------------------------------
  C    -21.112048   26.137121   46.234122
  C    -20.484109   27.496640   45.927463
  C    -20.429889   28.140920   47.329880
  C    -20.139402   26.942457   48.260204
  O    -20.490615   25.726654   47.478100
  H    -20.901619   25.338915   45.515818
  H    -19.478212   27.346374   45.519723
  H    -21.079388   28.067927   45.212405
  H    -19.663732   28.918821   47.406482
  H    -21.400960   28.585419   47.565425
  H    -20.733131   26.956450   49.177703
  H    -19.080161   26.849606   48.517494
  C    -23.294821   25.181022   46.809565
  H    -22.681949   24.571742   47.485746
  H    -24.140487   25.587680   47.371365
  O    -22.533996   26.348029   46.376713
  C    -23.786946   24.343156   45.628554
  C    -24.638263   23.135868   46.046266
  C    -26.033382   23.786233   46.245360
  C    -26.068606   24.879262   45.148257
  O    -24.663465   25.108740   44.736186
  H    -22.935731   24.022175   45.019346
  O    -24.660870   22.128617   44.996929
  H    -24.269852   22.619014   46.933324
  H    -26.824463   23.040582   46.133891
  H    -26.109004   24.223125   47.247171
  H    -26.494850   25.822436   45.502610
  H    -26.619241   24.561261   44.256883
  H    -24.775807   22.574754   44.131015

 Multiplicity           Mult            ....    1
 Number of Electrons    NEL             ....  102
 Basis Dimension        Dim             ....  149

ORBITAL ENERGIES
----------------

  NO   OCC          E(Eh)            E(eV)
   0   2.0000     -19.141514      -520.8671
   1   2.0000     -19.141129      -520.8566
   2   2.0000     -19.139385      -520.8091
   3   2.0000     -19.139124      -520.8020
   4   2.0000     -10.275941      -279.6226
   5   2.0000     -10.242964      -278.7252
   6   2.0000     -10.232957      -278.4529
   7   2.0000     -10.229731      -278.3651
   8   2.0000     -10.226563      -278.2789
   9   2.0000     -10.225164      -278.2409
  10   2.0000     -10.189790      -277.2783
  11   2.0000     -10.183432      -277.1053
  12   2.0000     -10.182606      -277.0828
  13   2.0000      -1.053469       -28.6663
  14   2.0000      -1.035316       -28.1724
  15   2.0000      -1.005600       -27.3638
  16   2.0000      -0.990621       -26.9562
  17   2.0000      -0.789542       -21.4845
  18   2.0000      -0.780932       -21.2502
  19   2.0000      -0.764493       -20.8029
  20   2.0000      -0.731273       -19.8989
  21   2.0000      -0.671669       -18.2770
  22   2.0000      -0.604746       -16.4560
  23   2.0000      -0.601539       -16.3687
  24   2.0000      -0.595739       -16.2109
  25   2.0000      -0.571842       -15.5606
  26   2.0000      -0.526718       -14.3327
  27   2.0000      -0.509039       -13.8517
  28   2.0000      -0.492473       -13.4009
  29   2.0000      -0.491680       -13.3793
  30   2.0000      -0.472826       -12.8662
  31   2.0000      -0.455194       -12.3865
  32   2.0000      -0.452988       -12.3264
  33   2.0000      -0.435886       -11.8611
  34   2.0000      -0.426664       -11.6101
  35   2.0000      -0.406294       -11.0558
  36   2.0000      -0.400220       -10.8905
  37   2.0000      -0.393342       -10.7034
  38   2.0000      -0.372574       -10.1383
  39   2.0000      -0.369042       -10.0421
  40   2.0000      -0.357141        -9.7183
  41   2.0000      -0.354995        -9.6599
  42   2.0000      -0.345561        -9.4032
  43   2.0000      -0.334675        -9.1070
  44   2.0000      -0.328689        -8.9441
  45   2.0000      -0.307521        -8.3681
  46   2.0000      -0.294633        -8.0174
  47   2.0000      -0.273535        -7.4433
  48   2.0000      -0.270291        -7.3550
  49   2.0000      -0.255147        -6.9429
  50   2.0000      -0.237651        -6.4668
  51   0.0000       0.066703         1.8151
  52   0.0000       0.088258         2.4016
  53   0.0000       0.090206         2.4546
  54   0.0000       0.096770         2.6333
  55   0.0000       0.105453         2.8695

MULLIKEN ATOMIC CHARGES
-----------------------
   0 C :    0.280224
   1 C :   -0.261010
   2 C :   -0.299470
   3 C :   -0.004921
   4 O :   -0.515740
   5 H :    0.145812
   6 H :    0.144127
   7 H :    0.164508
   8 H :    0.141071
   9 H :    0.163525
  10 H :    0.144931
  11 H :    0.143726
  12 C :   -0.022488
  13 H :    0.156943
  14 H :    0.144700
  15 O :   -0.503971
  16 C :    0.059152
  17 C :    0.077687
  18 C :   -0.290340
  19 C :   -0.030541
  20 O :   -0.511324
  21 H :    0.158821
  22 O :   -0.602788
  23 H :    0.152972
  24 H :    0.162705
  25 H :    0.140956
  26 H :    0.150193
  27 H :    0.145086
  28 H :    0.365455
Sum of atomic charges:    0.0000000

LOEWDIN ATOMIC CHARGES
----------------------
   0 C :    0.170425
   1 C :   -0.213109
   2 C :   -0.216321
   3 C :   -0.028231
   4 O :   -0.332168
   5 H :    0.095549
   6 H :    0.113686
   7 H :    0.128088
   8 H :    0.113436
   9 H :    0.119788
  10 H :    0.104246
  11 H :    0.103252
  12 C :   -0.049750
  13 H :    0.112380
  14 H :    0.109852
  15 O :   -0.315540
  16 C :    0.007166
  17 C :    0.035676
  18 C :   -0.239800
  19 C :   -0.038400
  20 O :   -0.324321
  21 H :    0.113225
  22 O :   -0.415017
  23 H :    0.115883
  24 H :    0.126727
  25 H :    0.111894
  26 H :    0.106117
  27 H :    0.101800
  28 H :    0.283465

  Mayer bond orders larger than 0.100000
B(  0-C ,  1-C ) :   0.9504 B(  0-C ,  4-O ) :   0.8941 B(  0-C ,  5-H ) :   0.9166
B(  0-C , 15-O ) :   0.8683 B(  1-C ,  2-C ) :   0.9554 B(  1-C ,  6-H ) :   0.9406
B(  1-C ,  7-H ) :   0.9346 B(  2-C ,  3-C ) :   0.9561 B(  2-C ,  8-H ) :   0.9452
B(  2-C ,  9-H ) :   0.9441 B(  3-C ,  4-O ) :   0.8349 B(  3-C , 10-H ) :   0.9363
B(  3-C , 11-H ) :   0.9406 B( 12-C , 13-H ) :   0.9055 B( 12-C , 14-H ) :   0.9397
B( 12-C , 15-O ) :   0.8525 B( 12-C , 16-C ) :   0.8822 B( 16-C , 17-C ) :   0.8990
B( 16-C , 20-O ) :   0.8635 B( 16-C , 21-H ) :   0.9252 B( 17-C , 18-C ) :   0.9120
B( 17-C , 22-O ) :   0.8927 B( 17-C , 23-H ) :   0.9331 B( 18-C , 19-C ) :   0.9387
B( 18-C , 24-H ) :   0.9376 B( 18-C , 25-H ) :   0.9351 B( 19-C , 20-O ) :   0.8498
B( 19-C , 26-H ) :   0.9340 B( 19-C , 27-H ) :   0.9376 B( 22-O , 28-H ) :   0.7939

FINAL SINGLE POINT ENERGY      -652.865912506053

DIPOLE MOMENT
-------------
                                X             Y             Z
Electronic contribution:     -0.31926      -3.19379      -2.57769
Nuclear contribution   :      0.16388       3.81298       3.03047
                        -----------------------------------------
Total Dipole Moment    :     -0.15538       0.61919       0.45278
                        -----------------------------------------
Magnitude (a.u.)       :      0.78265
Magnitude (Debye)      :      1.98934

Rotational constants in cm-1:     0.065626     0.011625     0.011113
Rotational constants in MHz :  1967.418422   348.501923   333.167802

                             ****ORCA TERMINATED NORMALLY****
TOTAL RUN TIME: 0 days 0 hours 20 minutes 52 seconds 602 msec
