                         Program Version 4.2.0 -  RELEASE  -
|  1> # Test redundant internal optimization
|  2> #
|  3> ! RKS B3LYP  Opt TightSCF SmallPrint
|  4>
|  5> %basis
|  6>         Basis "6-31G"
|  7> end
|  8>
|  9> %geom
| 10> Constraints
| 11> { D 4  0  15  12  345.0   C } # D for Dihedral angle
| 12> { D 0  15  12  16  300.0   C } # D for Dihedral angle
| 13> { D 0  4  3  2   C } # D for Dihedral angle
| 14> { D 4  3  2  1   C } # D for Dihedral angle
| 15> { D 3  2  1  0   C } # D for Dihedral angle
| 16> { D 2  1  0  4   C } # D for Dihedral angle
| 17> { D 1  0  4  3   C } # D for Dihedral angle
| 18> { D 16  20  19  18   C } # D for Dihedral angle
| 19> { D 20  19  18  17   C } # D for Dihedral angle
| 20> { D 19  18  17  16   C } # D for Dihedral angle
| 21> { D 18  17  16  20   C } # D for Dihedral angle
| 22> { D 17  16  20  19   C } # D for Dihedral angle
| 23> { D 15  12  16  20   C } # D for Dihedral angle
| 24> end
| 25> end
| 26>
| 27>
| 28> #%pal
| 29> #nprocs 8
| 30> #end
| 31>
| 32> * xyz 0 1
| 33> C  -21.048   26.222   46.251
| 34> C  -20.361   27.558   45.944
| 35> C  -20.329   28.222   47.341
| 36> C  -20.110   27.022   48.296
| 37> O  -20.473   25.807   47.535
| 38> H  -20.833   25.428   45.533
| 39> H  -19.344   27.382   45.576
| 40> H  -20.898   28.157   45.201
| 41> H  -19.543   28.978   47.434
| 42> H  -21.289   28.710   47.548
| 43> H  -20.733   27.082   49.195
| 44> H  -19.064   26.913   48.597
| 45> C  -23.221   25.764   47.645
| 46> H  -22.786   26.232   48.537
| 47> H  -24.304   25.939   47.660
| 48> O  -22.586   26.394   46.375
| 49> C  -22.988   24.231   47.735
| 50> C  -23.724   23.626   48.936
| 51> C  -25.172   23.530   48.401
| 52> C  -24.971   23.194   46.902
| 53> O  -23.575   23.554   46.574
| 54> H  -21.915   24.030   47.715
| 55> H  -23.327   22.629   49.158
| 56> O  -23.613   24.493   50.220
| 57> H  -25.768   22.774   48.922
| 58> H  -25.681   24.495   48.516
| 59> H  -25.649   23.759   46.251
| 60> H  -25.087   22.127   46.694
| 61> H  -24.005   25.497   50.023
| 62> *
| 63>
| 64>                          ****END OF INPUT****
 Total Charge           Charge          ....    0
 Multiplicity           Mult            ....    1
 Number of Electrons    NEL             ....  102
FINAL SINGLE POINT ENERGY      -652.827720999860
FINAL SINGLE POINT ENERGY      -652.850828746810
FINAL SINGLE POINT ENERGY      -652.855679954350
FINAL SINGLE POINT ENERGY      -652.856493837335
FINAL SINGLE POINT ENERGY      -652.856665547480
FINAL SINGLE POINT ENERGY      -652.856712289455
FINAL SINGLE POINT ENERGY      -652.856720491756
FINAL SINGLE POINT ENERGY      -652.856723217949
                    ***********************HURRAY********************

CARTESIAN COORDINATES (ANGSTROEM)
---------------------------------
  C    -21.049753   26.211215   46.292377
  C    -20.446506   27.576666   45.960583
  C    -20.330435   28.218871   47.361815
  C    -19.987570   27.019581   48.274201
  O    -20.368657   25.803103   47.501931
  H    -20.860494   25.424533   45.558481
  H    -19.459529   27.435089   45.505357
  H    -21.078717   28.145733   45.275985
  H    -19.567482   29.002218   47.405282
  H    -21.290652   28.661277   47.645516
  H    -20.536062   27.020722   49.220101
  H    -18.916857   26.933284   48.479985
  C    -23.154558   25.785679   47.599626
  H    -22.789910   26.263656   48.518852
  H    -24.202160   26.062775   47.446447
  O    -22.491189   26.353619   46.437253
  C    -22.998227   24.268109   47.751952
  C    -23.771351   23.699066   48.956080
  C    -25.213142   23.560954   48.376707
  C    -24.947923   23.169380   46.904920
  O    -23.541400   23.536777   46.609670
  H    -21.935644   24.025410   47.797897
  H    -23.367863   22.717165   49.212355
  O    -23.678929   24.462270   50.185281
  H    -25.806876   22.818501   48.916346
  H    -25.730282   24.526897   48.447843
  H    -25.608011   23.685641   46.200946
  H    -25.037745   22.090813   46.743872
  H    -24.229077   25.269994   50.127338

 Multiplicity           Mult            ....    1
 Number of Electrons    NEL             ....  102
 Basis Dimension        Dim             ....  149

ORBITAL ENERGIES
----------------

  NO   OCC          E(Eh)            E(eV)
   0   2.0000     -19.147135      -521.0200
   1   2.0000     -19.146662      -521.0072
   2   2.0000     -19.133897      -520.6598
   3   2.0000     -19.131324      -520.5898
   4   2.0000     -10.273936      -279.5680
   5   2.0000     -10.240767      -278.6654
   6   2.0000     -10.229348      -278.3547
   7   2.0000     -10.226302      -278.2718
   8   2.0000     -10.226102      -278.2664
   9   2.0000     -10.219812      -278.0952
  10   2.0000     -10.192289      -277.3463
  11   2.0000     -10.187997      -277.2295
  12   2.0000     -10.182940      -277.0919
  13   2.0000      -1.051660       -28.6171
  14   2.0000      -1.029142       -28.0044
  15   2.0000      -1.010531       -27.4979
  16   2.0000      -0.987768       -26.8785
  17   2.0000      -0.789001       -21.4698
  18   2.0000      -0.777776       -21.1643
  19   2.0000      -0.761360       -20.7177
  20   2.0000      -0.731935       -19.9170
  21   2.0000      -0.675552       -18.3827
  22   2.0000      -0.607391       -16.5279
  23   2.0000      -0.600523       -16.3411
  24   2.0000      -0.598110       -16.2754
  25   2.0000      -0.560352       -15.2479
  26   2.0000      -0.522016       -14.2048
  27   2.0000      -0.510032       -13.8787
  28   2.0000      -0.498327       -13.5602
  29   2.0000      -0.489710       -13.3257
  30   2.0000      -0.464943       -12.6517
  31   2.0000      -0.456316       -12.4170
  32   2.0000      -0.436844       -11.8871
  33   2.0000      -0.429537       -11.6883
  34   2.0000      -0.423503       -11.5241
  35   2.0000      -0.413480       -11.2514
  36   2.0000      -0.406162       -11.0522
  37   2.0000      -0.396718       -10.7952
  38   2.0000      -0.377155       -10.2629
  39   2.0000      -0.368019       -10.0143
  40   2.0000      -0.358120        -9.7449
  41   2.0000      -0.354936        -9.6583
  42   2.0000      -0.347470        -9.4551
  43   2.0000      -0.328557        -8.9405
  44   2.0000      -0.323989        -8.8162
  45   2.0000      -0.311234        -8.4691
  46   2.0000      -0.301397        -8.2014
  47   2.0000      -0.267425        -7.2770
  48   2.0000      -0.260645        -7.0925
  49   2.0000      -0.254583        -6.9275
  50   2.0000      -0.228012        -6.2045
  51   0.0000       0.053448         1.4544
  52   0.0000       0.075648         2.0585
  53   0.0000       0.087966         2.3937
  54   0.0000       0.094356         2.5676
  55   0.0000       0.107494         2.9251

MULLIKEN ATOMIC CHARGES
-----------------------
   0 C :    0.296628
   1 C :   -0.256784
   2 C :   -0.304890
   3 C :   -0.015883
   4 O :   -0.517238
   5 H :    0.165010
   6 H :    0.143944
   7 H :    0.161711
   8 H :    0.145545
   9 H :    0.154399
  10 H :    0.148888
  11 H :    0.150052
  12 C :   -0.006035
  13 H :    0.124827
  14 H :    0.140305
  15 O :   -0.530834
  16 C :    0.069432
  17 C :    0.080956
  18 C :   -0.326869
  19 C :   -0.007963
  20 O :   -0.512089
  21 H :    0.193379
  22 H :    0.166598
  23 O :   -0.598002
  24 H :    0.157507
  25 H :    0.131448
  26 H :    0.144987
  27 H :    0.147570
  28 H :    0.353402
Sum of atomic charges:   -0.0000000

LOEWDIN ATOMIC CHARGES
----------------------
   0 C :    0.179950
   1 C :   -0.216042
   2 C :   -0.218616
   3 C :   -0.032021
   4 O :   -0.322511
   5 H :    0.107736
   6 H :    0.113378
   7 H :    0.126537
   8 H :    0.116225
   9 H :    0.114748
  10 H :    0.103751
  11 H :    0.106610
  12 C :   -0.046112
  13 H :    0.093528
  14 H :    0.106822
  15 O :   -0.329259
  16 C :    0.002421
  17 C :    0.035698
  18 C :   -0.243062
  19 C :   -0.030282
  20 O :   -0.319926
  21 H :    0.130023
  22 H :    0.119154
  23 O :   -0.407704
  24 H :    0.122100
  25 H :    0.102835
  26 H :    0.103194
  27 H :    0.105018
  28 H :    0.275808

  Mayer bond orders larger than 0.100000
B(  0-C ,  1-C ) :   0.9387 B(  0-C ,  4-O ) :   0.8921 B(  0-C ,  5-H ) :   0.9243
B(  0-C , 15-O ) :   0.8454 B(  1-C ,  2-C ) :   0.9521 B(  1-C ,  6-H ) :   0.9368
B(  1-C ,  7-H ) :   0.9361 B(  2-C ,  3-C ) :   0.9537 B(  2-C ,  8-H ) :   0.9449
B(  2-C ,  9-H ) :   0.9459 B(  3-C ,  4-O ) :   0.8291 B(  3-C , 10-H ) :   0.9316
B(  3-C , 11-H ) :   0.9404 B( 12-C , 13-H ) :   0.9025 B( 12-C , 14-H ) :   0.9401
B( 12-C , 15-O ) :   0.8584 B( 12-C , 16-C ) :   0.8858 B( 16-C , 17-C ) :   0.8714
B( 16-C , 20-O ) :   0.8540 B( 16-C , 21-H ) :   0.9116 B( 17-C , 18-C ) :   0.9231
B( 17-C , 22-H ) :   0.9334 B( 17-C , 23-O ) :   0.8958 B( 18-C , 19-C ) :   0.9414
B( 18-C , 24-H ) :   0.9416 B( 18-C , 25-H ) :   0.9409 B( 19-C , 20-O ) :   0.8522
B( 19-C , 26-H ) :   0.9310 B( 19-C , 27-H ) :   0.9380 B( 23-O , 28-H ) :   0.7990

FINAL SINGLE POINT ENERGY      -652.856723684444

DIPOLE MOMENT
-------------
                                X             Y             Z
Electronic contribution:      0.38366      -3.26710      -0.90243
Nuclear contribution   :     -0.83387       4.11266       1.23728
                        -----------------------------------------
Total Dipole Moment    :     -0.45021       0.84556       0.33485
                        -----------------------------------------
Magnitude (a.u.)       :      1.01478
Magnitude (Debye)      :      2.57937

Rotational constants in cm-1:     0.053888     0.014861     0.013071
Rotational constants in MHz :  1615.512881   445.509214   391.863932

                             ****ORCA TERMINATED NORMALLY****
TOTAL RUN TIME: 0 days 0 hours 19 minutes 8 seconds 23 msec
