                         Program Version 4.2.0 -  RELEASE  -
|  1> # Test redundant internal optimization
|  2> #
|  3> ! RKS B3LYP  Opt TightSCF SmallPrint
|  4>
|  5> %basis
|  6>         Basis "6-31G"
|  7> end
|  8>
|  9> %geom
| 10> Constraints
| 11> { D 4  0  15  12  195.0   C } # D for Dihedral angle
| 12> { D 0  15  12  16  90.0   C } # D for Dihedral angle
| 13> { D 0  4  3  2   C } # D for Dihedral angle
| 14> { D 4  3  2  1   C } # D for Dihedral angle
| 15> { D 3  2  1  0   C } # D for Dihedral angle
| 16> { D 2  1  0  4   C } # D for Dihedral angle
| 17> { D 1  0  4  3   C } # D for Dihedral angle
| 18> { D 16  20  19  18   C } # D for Dihedral angle
| 19> { D 20  19  18  17   C } # D for Dihedral angle
| 20> { D 19  18  17  16   C } # D for Dihedral angle
| 21> { D 18  17  16  20   C } # D for Dihedral angle
| 22> { D 17  16  20  19   C } # D for Dihedral angle
| 23> { D 15  12  16  20   C } # D for Dihedral angle
| 24> end
| 25> end
| 26>
| 27>
| 28> #%pal
| 29> #nprocs 8
| 30> #end
| 31>
| 32> * xyz 0 1
| 33> C  -21.048   26.222   46.251
| 34> C  -20.361   27.558   45.944
| 35> C  -20.329   28.222   47.341
| 36> C  -20.110   27.022   48.296
| 37> O  -20.473   25.807   47.535
| 38> H  -20.833   25.428   45.533
| 39> H  -19.344   27.382   45.576
| 40> H  -20.898   28.157   45.201
| 41> H  -19.543   28.978   47.434
| 42> H  -21.289   28.710   47.548
| 43> H  -20.733   27.082   49.195
| 44> H  -19.064   26.913   48.597
| 45> C  -23.353   26.472   45.026
| 46> H  -24.243   27.101   45.152
| 47> H  -22.721   26.924   44.251
| 48> O  -22.586   26.394   46.375
| 49> C  -23.808   25.078   44.513
| 50> C  -24.457   25.180   43.128
| 51> C  -23.218   25.286   42.208
| 52> C  -22.177   24.380   42.913
| 53> O  -22.648   24.205   44.304
| 54> H  -24.433   24.604   45.271
| 55> O  -25.260   23.887   42.819
| 56> H  -25.132   26.037   43.032
| 57> H  -23.422   24.965   41.181
| 58> H  -22.864   26.323   42.170
| 59> H  -21.176   24.825   42.927
| 60> H  -22.118   23.385   42.465
| 61> H  -24.603   23.015   42.910
| 62> *
| 63>
| 64>                          ****END OF INPUT****
 Total Charge           Charge          ....    0
 Multiplicity           Mult            ....    1
 Number of Electrons    NEL             ....  102
FINAL SINGLE POINT ENERGY      -652.832886642889
FINAL SINGLE POINT ENERGY      -652.855601875769
FINAL SINGLE POINT ENERGY      -652.859563671009
FINAL SINGLE POINT ENERGY      -652.860253399361
FINAL SINGLE POINT ENERGY      -652.860343835875
FINAL SINGLE POINT ENERGY      -652.860353167760
                    ***********************HURRAY********************

CARTESIAN COORDINATES (ANGSTROEM)
---------------------------------
  C    -21.018648   26.235960   46.162596
  C    -20.338863   27.588097   45.958925
  C    -20.420716   28.206281   47.376113
  C    -20.250813   26.978457   48.294681
  O    -20.541997   25.796860   47.440908
  H    -20.788935   25.454769   45.437882
  H    -19.295941   27.427635   45.660000
  H    -20.821960   28.207030   45.196719
  H    -19.654261   28.967853   47.548101
  H    -21.404286   28.662486   47.521657
  H    -20.939968   26.974813   49.142613
  H    -19.225954   26.856603   48.658035
  C    -23.211421   26.504189   45.024633
  H    -24.096993   27.106310   45.255881
  H    -22.623695   27.044654   44.265821
  O    -22.472278   26.393321   46.268251
  C    -23.655523   25.136090   44.505041
  C    -24.421001   25.166179   43.173017
  C    -23.260437   25.219595   42.145600
  C    -22.162300   24.349967   42.806920
  O    -22.513426   24.248260   44.246164
  H    -24.241312   24.646989   45.289112
  O    -25.233329   23.972809   43.008676
  H    -25.115640   26.002674   43.080716
  H    -23.584210   24.833119   41.176457
  H    -22.922536   26.252801   42.007828
  H    -21.162375   24.785101   42.712559
  H    -22.136420   23.330862   42.409871
  H    -24.728760   23.192235   43.321225

 Multiplicity           Mult            ....    1
 Number of Electrons    NEL             ....  102
 Basis Dimension        Dim             ....  149

ORBITAL ENERGIES
----------------

  NO   OCC          E(Eh)            E(eV)
   0   2.0000     -19.149692      -521.0896
   1   2.0000     -19.142399      -520.8912
   2   2.0000     -19.135400      -520.7007
   3   2.0000     -19.134041      -520.6637
   4   2.0000     -10.269372      -279.4438
   5   2.0000     -10.247304      -278.8433
   6   2.0000     -10.236997      -278.5628
   7   2.0000     -10.235804      -278.5304
   8   2.0000     -10.235479      -278.5215
   9   2.0000     -10.219764      -278.0939
  10   2.0000     -10.194931      -277.4182
  11   2.0000     -10.183871      -277.1172
  12   2.0000     -10.182835      -277.0890
  13   2.0000      -1.048709       -28.5368
  14   2.0000      -1.039260       -28.2797
  15   2.0000      -1.010915       -27.5084
  16   2.0000      -0.988215       -26.8907
  17   2.0000      -0.789285       -21.4775
  18   2.0000      -0.782106       -21.2822
  19   2.0000      -0.769408       -20.9367
  20   2.0000      -0.728987       -19.8367
  21   2.0000      -0.677508       -18.4359
  22   2.0000      -0.608914       -16.5694
  23   2.0000      -0.601308       -16.3624
  24   2.0000      -0.592649       -16.1268
  25   2.0000      -0.576880       -15.6977
  26   2.0000      -0.529909       -14.4195
  27   2.0000      -0.505742       -13.7619
  28   2.0000      -0.500314       -13.6142
  29   2.0000      -0.488952       -13.3051
  30   2.0000      -0.477138       -12.9836
  31   2.0000      -0.458338       -12.4720
  32   2.0000      -0.448530       -12.2051
  33   2.0000      -0.447190       -12.1687
  34   2.0000      -0.425900       -11.5893
  35   2.0000      -0.408496       -11.1157
  36   2.0000      -0.400199       -10.8900
  37   2.0000      -0.396115       -10.7788
  38   2.0000      -0.378111       -10.2889
  39   2.0000      -0.370699       -10.0872
  40   2.0000      -0.367466        -9.9993
  41   2.0000      -0.352706        -9.5976
  42   2.0000      -0.349755        -9.5173
  43   2.0000      -0.336045        -9.1442
  44   2.0000      -0.313999        -8.5444
  45   2.0000      -0.306723        -8.3464
  46   2.0000      -0.299742        -8.1564
  47   2.0000      -0.276962        -7.5365
  48   2.0000      -0.269219        -7.3258
  49   2.0000      -0.252203        -6.8628
  50   2.0000      -0.234675        -6.3858
  51   0.0000       0.058077         1.5804
  52   0.0000       0.079699         2.1687
  53   0.0000       0.086521         2.3544
  54   0.0000       0.097014         2.6399
  55   0.0000       0.102961         2.8017

MULLIKEN ATOMIC CHARGES
-----------------------
   0 C :    0.289381
   1 C :   -0.273140
   2 C :   -0.297453
   3 C :   -0.000221
   4 O :   -0.501244
   5 H :    0.172262
   6 H :    0.143562
   7 H :    0.137005
   8 H :    0.139239
   9 H :    0.158392
  10 H :    0.153176
  11 H :    0.139235
  12 C :   -0.033845
  13 H :    0.153159
  14 H :    0.116550
  15 O :   -0.503210
  16 C :    0.074929
  17 C :    0.078308
  18 C :   -0.291044
  19 C :   -0.031893
  20 O :   -0.515766
  21 H :    0.173685
  22 O :   -0.602242
  23 H :    0.153261
  24 H :    0.164543
  25 H :    0.140889
  26 H :    0.142152
  27 H :    0.152178
  28 H :    0.368153
Sum of atomic charges:   -0.0000000

LOEWDIN ATOMIC CHARGES
----------------------
   0 C :    0.176980
   1 C :   -0.231932
   2 C :   -0.217070
   3 C :   -0.025768
   4 O :   -0.300633
   5 H :    0.112258
   6 H :    0.112918
   7 H :    0.110308
   8 H :    0.112771
   9 H :    0.117301
  10 H :    0.108846
  11 H :    0.101103
  12 C :   -0.046660
  13 H :    0.115567
  14 H :    0.087369
  15 O :   -0.329503
  16 C :    0.008611
  17 C :    0.034911
  18 C :   -0.239999
  19 C :   -0.039471
  20 O :   -0.325514
  21 H :    0.122998
  22 O :   -0.413634
  23 H :    0.116218
  24 H :    0.128118
  25 H :    0.111317
  26 H :    0.101602
  27 H :    0.105579
  28 H :    0.285408

  Mayer bond orders larger than 0.100000
B(  0-C ,  1-C ) :   0.9286 B(  0-C ,  4-O ) :   0.9343 B(  0-C ,  5-H ) :   0.9058
B(  0-C , 15-O ) :   0.8151 B(  1-C ,  2-C ) :   0.9512 B(  1-C ,  6-H ) :   0.9348
B(  1-C ,  7-H ) :   0.9349 B(  2-C ,  3-C ) :   0.9567 B(  2-C ,  8-H ) :   0.9453
B(  2-C ,  9-H ) :   0.9444 B(  3-C ,  4-O ) :   0.8388 B(  3-C , 10-H ) :   0.9345
B(  3-C , 11-H ) :   0.9399 B( 12-C , 13-H ) :   0.9281 B( 12-C , 14-H ) :   0.9174
B( 12-C , 15-O ) :   0.8764 B( 12-C , 16-C ) :   0.8831 B( 16-C , 17-C ) :   0.8928
B( 16-C , 20-O ) :   0.8530 B( 16-C , 21-H ) :   0.9237 B( 17-C , 18-C ) :   0.9092
B( 17-C , 22-O ) :   0.8947 B( 17-C , 23-H ) :   0.9336 B( 18-C , 19-C ) :   0.9406
B( 18-C , 24-H ) :   0.9372 B( 18-C , 25-H ) :   0.9340 B( 19-C , 20-O ) :   0.8460
B( 19-C , 26-H ) :   0.9347 B( 19-C , 27-H ) :   0.9377 B( 22-O , 28-H ) :   0.7926

FINAL SINGLE POINT ENERGY      -652.860355603343

DIPOLE MOMENT
-------------
                                X             Y             Z
Electronic contribution:     -2.98850      -5.26745       1.79203
Nuclear contribution   :      3.56996       6.42426      -2.77897
                        -----------------------------------------
Total Dipole Moment    :      0.58146       1.15681      -0.98694
                        -----------------------------------------
Magnitude (a.u.)       :      1.62799
Magnitude (Debye)      :      4.13801

Rotational constants in cm-1:     0.068519     0.012103     0.011961
Rotational constants in MHz :  2054.156463   362.832306   358.567065

                             ****ORCA TERMINATED NORMALLY****
TOTAL RUN TIME: 0 days 0 hours 25 minutes 25 seconds 830 msec
