                         Program Version 4.2.0 -  RELEASE  -
|  1> # Test redundant internal optimization
|  2> #
|  3> ! RKS B3LYP  Opt TightSCF SmallPrint
|  4>
|  5> %basis
|  6>         Basis "6-31G"
|  7> end
|  8>
|  9> %geom
| 10> Constraints
| 11> { D 4  0  15  12  75.0   C } # D for Dihedral angle
| 12> { D 0  15  12  16  225.0   C } # D for Dihedral angle
| 13> { D 0  4  3  2   C } # D for Dihedral angle
| 14> { D 4  3  2  1   C } # D for Dihedral angle
| 15> { D 3  2  1  0   C } # D for Dihedral angle
| 16> { D 2  1  0  4   C } # D for Dihedral angle
| 17> { D 1  0  4  3   C } # D for Dihedral angle
| 18> { D 16  20  19  18   C } # D for Dihedral angle
| 19> { D 20  19  18  17   C } # D for Dihedral angle
| 20> { D 19  18  17  16   C } # D for Dihedral angle
| 21> { D 18  17  16  20   C } # D for Dihedral angle
| 22> { D 17  16  20  19   C } # D for Dihedral angle
| 23> { D 15  12  16  20   C } # D for Dihedral angle
| 24> end
| 25> end
| 26>
| 27>
| 28> #%pal
| 29> #nprocs 8
| 30> #end
| 31>
| 32> * xyz 0 1
| 33> C  -21.048   26.222   46.251
| 34> C  -20.361   27.558   45.944
| 35> C  -20.329   28.222   47.341
| 36> C  -20.110   27.022   48.296
| 37> O  -20.473   25.807   47.535
| 38> H  -20.833   25.428   45.533
| 39> H  -19.344   27.382   45.576
| 40> H  -20.898   28.157   45.201
| 41> H  -19.543   28.978   47.434
| 42> H  -21.289   28.710   47.548
| 43> H  -20.733   27.082   49.195
| 44> H  -19.064   26.913   48.597
| 45> C  -23.049   27.675   47.122
| 46> H  -22.197   28.109   47.659
| 47> H  -23.422   28.421   46.409
| 48> O  -22.586   26.394   46.375
| 49> C  -24.181   27.395   48.149
| 50> C  -23.692   26.488   49.283
| 51> C  -22.920   27.490   50.175
| 52> C  -23.746   28.794   50.034
| 53> O  -24.579   28.635   48.823
| 54> H  -25.060   27.022   47.619
| 55> O  -24.904   25.893   50.050
| 56> H  -23.065   25.660   48.934
| 57> H  -22.839   27.158   51.215
| 58> H  -21.904   27.632   49.788
| 59> H  -23.113   29.680   49.921
| 60> H  -24.426   28.950   50.876
| 61> H  -25.547   26.705   50.411
| 62> *
| 63>
| 64>                          ****END OF INPUT****
 Total Charge           Charge          ....    0
 Multiplicity           Mult            ....    1
 Number of Electrons    NEL             ....  102
FINAL SINGLE POINT ENERGY      -652.779597723870
FINAL SINGLE POINT ENERGY      -652.830065816504
FINAL SINGLE POINT ENERGY      -652.851600980461
FINAL SINGLE POINT ENERGY      -652.856046095079
FINAL SINGLE POINT ENERGY      -652.856719062545
FINAL SINGLE POINT ENERGY      -652.856898678295
FINAL SINGLE POINT ENERGY      -652.856935658096
FINAL SINGLE POINT ENERGY      -652.856946100239
FINAL SINGLE POINT ENERGY      -652.856946916138
                    ***********************HURRAY********************

CARTESIAN COORDINATES (ANGSTROEM)
---------------------------------
  C    -21.200443   26.360329   46.426337
  C    -20.285574   27.435190   45.817343
  C    -19.813021   28.213903   47.081132
  C    -19.705277   27.091823   48.146023
  O    -20.500017   25.950784   47.628231
  H    -21.249344   25.461747   45.809087
  H    -19.440852   26.936710   45.331810
  H    -20.796668   28.062228   45.082080
  H    -18.851149   28.712239   46.924147
  H    -20.535448   28.982865   47.364528
  H    -20.092392   27.386738   49.125825
  H    -18.678751   26.733739   48.265852
  C    -23.125216   27.843892   47.244363
  H    -22.358522   28.390147   47.800734
  H    -23.542125   28.508545   46.480560
  O    -22.596619   26.642018   46.607839
  C    -24.229527   27.395251   48.206164
  C    -23.767718   26.484666   49.352966
  C    -23.178360   27.514460   50.352448
  C    -24.102550   28.745369   50.177384
  O    -24.803177   28.566492   48.879751
  H    -25.034939   26.920141   47.639700
  O    -24.897127   25.769696   49.925748
  H    -23.055084   25.725465   49.037186
  H    -23.190773   27.113429   51.369051
  H    -22.141601   27.749810   50.091009
  H    -23.554428   29.692544   50.156841
  H    -24.873418   28.806487   50.951797
  H    -25.654882   26.385292   50.018061

 Multiplicity           Mult            ....    1
 Number of Electrons    NEL             ....  102
 Basis Dimension        Dim             ....  149

ORBITAL ENERGIES
----------------

  NO   OCC          E(Eh)            E(eV)
   0   2.0000     -19.149004      -521.0709
   1   2.0000     -19.148472      -521.0564
   2   2.0000     -19.144395      -520.9455
   3   2.0000     -19.130780      -520.5750
   4   2.0000     -10.284036      -279.8428
   5   2.0000     -10.236176      -278.5405
   6   2.0000     -10.234913      -278.5061
   7   2.0000     -10.231704      -278.4188
   8   2.0000     -10.230401      -278.3834
   9   2.0000     -10.230216      -278.3783
  10   2.0000     -10.199892      -277.5532
  11   2.0000     -10.197287      -277.4823
  12   2.0000     -10.186431      -277.1869
  13   2.0000      -1.056402       -28.7462
  14   2.0000      -1.033971       -28.1358
  15   2.0000      -1.002982       -27.2925
  16   2.0000      -0.999673       -27.2025
  17   2.0000      -0.794990       -21.6328
  18   2.0000      -0.781476       -21.2651
  19   2.0000      -0.770570       -20.9683
  20   2.0000      -0.735187       -20.0055
  21   2.0000      -0.681439       -18.5429
  22   2.0000      -0.610944       -16.6246
  23   2.0000      -0.602848       -16.4043
  24   2.0000      -0.597998       -16.2724
  25   2.0000      -0.577092       -15.7035
  26   2.0000      -0.525236       -14.2924
  27   2.0000      -0.511551       -13.9200
  28   2.0000      -0.508262       -13.8305
  29   2.0000      -0.493468       -13.4280
  30   2.0000      -0.475993       -12.9524
  31   2.0000      -0.456469       -12.4212
  32   2.0000      -0.453343       -12.3361
  33   2.0000      -0.436648       -11.8818
  34   2.0000      -0.427866       -11.6428
  35   2.0000      -0.421178       -11.4608
  36   2.0000      -0.411003       -11.1840
  37   2.0000      -0.390148       -10.6165
  38   2.0000      -0.388193       -10.5633
  39   2.0000      -0.368544       -10.0286
  40   2.0000      -0.364326        -9.9138
  41   2.0000      -0.362660        -9.8685
  42   2.0000      -0.349593        -9.5129
  43   2.0000      -0.331398        -9.0178
  44   2.0000      -0.320808        -8.7296
  45   2.0000      -0.304851        -8.2954
  46   2.0000      -0.302735        -8.2378
  47   2.0000      -0.278670        -7.5830
  48   2.0000      -0.263861        -7.1800
  49   2.0000      -0.259862        -7.0712
  50   2.0000      -0.243871        -6.6361
  51   0.0000       0.050828         1.3831
  52   0.0000       0.066287         1.8038
  53   0.0000       0.087466         2.3801
  54   0.0000       0.095601         2.6014
  55   0.0000       0.103870         2.8265

MULLIKEN ATOMIC CHARGES
-----------------------
   0 C :    0.301144
   1 C :   -0.276202
   2 C :   -0.318041
   3 C :   -0.015684
   4 O :   -0.503427
   5 H :    0.170557
   6 H :    0.159026
   7 H :    0.151994
   8 H :    0.147758
   9 H :    0.150412
  10 H :    0.142697
  11 H :    0.151886
  12 C :   -0.014711
  13 H :    0.125980
  14 H :    0.154927
  15 O :   -0.524890
  16 C :    0.062981
  17 C :    0.088391
  18 C :   -0.313345
  19 C :   -0.030663
  20 O :   -0.529281
  21 H :    0.169603
  22 O :   -0.603328
  23 H :    0.191103
  24 H :    0.163644
  25 H :    0.147919
  26 H :    0.140090
  27 H :    0.148892
  28 H :    0.360569
Sum of atomic charges:    0.0000000

LOEWDIN ATOMIC CHARGES
----------------------
   0 C :    0.174145
   1 C :   -0.227323
   2 C :   -0.224287
   3 C :   -0.034923
   4 O :   -0.323151
   5 H :    0.114935
   6 H :    0.123844
   7 H :    0.120388
   8 H :    0.117036
   9 H :    0.108544
  10 H :    0.098177
  11 H :    0.106934
  12 C :   -0.040102
  13 H :    0.093915
  14 H :    0.111085
  15 O :   -0.319332
  16 C :    0.015942
  17 C :    0.037641
  18 C :   -0.243774
  19 C :   -0.039646
  20 O :   -0.332830
  21 H :    0.119521
  22 O :   -0.413494
  23 H :    0.134404
  24 H :    0.127468
  25 H :    0.110157
  26 H :    0.100784
  27 H :    0.103908
  28 H :    0.280032

  Mayer bond orders larger than 0.100000
B(  0-C ,  1-C ) :   0.9181 B(  0-C ,  4-O ) :   0.8913 B(  0-C ,  5-H ) :   0.9353
B(  0-C , 15-O ) :   0.9070 B(  1-C ,  2-C ) :   0.9540 B(  1-C ,  6-H ) :   0.9351
B(  1-C ,  7-H ) :   0.9375 B(  2-C ,  3-C ) :   0.9458 B(  2-C ,  8-H ) :   0.9442
B(  2-C ,  9-H ) :   0.9391 B(  3-C ,  4-O ) :   0.8496 B(  3-C , 10-H ) :   0.9246
B(  3-C , 11-H ) :   0.9379 B( 12-C , 13-H ) :   0.9106 B( 12-C , 14-H ) :   0.9277
B( 12-C , 15-O ) :   0.8204 B( 12-C , 16-C ) :   0.8985 B( 16-C , 17-C ) :   0.9115
B( 16-C , 20-O ) :   0.8391 B( 16-C , 21-H ) :   0.9255 B( 17-C , 18-C ) :   0.9113
B( 17-C , 22-O ) :   0.8843 B( 17-C , 23-H ) :   0.9145 B( 18-C , 19-C ) :   0.9392
B( 18-C , 24-H ) :   0.9380 B( 18-C , 25-H ) :   0.9264 B( 19-C , 20-O ) :   0.8459
B( 19-C , 26-H ) :   0.9366 B( 19-C , 27-H ) :   0.9377 B( 22-O , 28-H ) :   0.7967

FINAL SINGLE POINT ENERGY      -652.856945869694

DIPOLE MOMENT
-------------
                                X             Y             Z
Electronic contribution:     -5.32298      -4.24224      -0.95564
Nuclear contribution   :      6.52675       5.63222       0.86467
                        -----------------------------------------
Total Dipole Moment    :      1.20376       1.38997      -0.09097
                        -----------------------------------------
Magnitude (a.u.)       :      1.84102
Magnitude (Debye)      :      4.67950

Rotational constants in cm-1:     0.047061     0.015564     0.015473
Rotational constants in MHz :  1410.847339   466.591754   463.856131

                             ****ORCA TERMINATED NORMALLY****
TOTAL RUN TIME: 0 days 1 hours 26 minutes 2 seconds 904 msec
