                         Program Version 4.2.0 -  RELEASE  -
|  1> # Test redundant internal optimization
|  2> #
|  3> ! RKS B3LYP  Opt TightSCF SmallPrint
|  4>
|  5> %basis
|  6>         Basis "6-31G"
|  7> end
|  8>
|  9> %geom
| 10> Constraints
| 11> { D 4  0  15  12  255.0   C } # D for Dihedral angle
| 12> { D 0  15  12  16  345.0   C } # D for Dihedral angle
| 13> { D 0  4  3  2   C } # D for Dihedral angle
| 14> { D 4  3  2  1   C } # D for Dihedral angle
| 15> { D 3  2  1  0   C } # D for Dihedral angle
| 16> { D 2  1  0  4   C } # D for Dihedral angle
| 17> { D 1  0  4  3   C } # D for Dihedral angle
| 18> { D 16  20  19  18   C } # D for Dihedral angle
| 19> { D 20  19  18  17   C } # D for Dihedral angle
| 20> { D 19  18  17  16   C } # D for Dihedral angle
| 21> { D 18  17  16  20   C } # D for Dihedral angle
| 22> { D 17  16  20  19   C } # D for Dihedral angle
| 23> { D 15  12  16  20   C } # D for Dihedral angle
| 24> end
| 25> end
| 26>
| 27>
| 28> #%pal
| 29> #nprocs 8
| 30> #end
| 31>
| 32> * xyz 0 1
| 33> C  -21.048   26.222   46.251
| 34> C  -20.361   27.558   45.944
| 35> C  -20.329   28.222   47.341
| 36> C  -20.110   27.022   48.296
| 37> O  -20.473   25.807   47.535
| 38> H  -20.833   25.428   45.533
| 39> H  -19.344   27.382   45.576
| 40> H  -20.898   28.157   45.201
| 41> H  -19.543   28.978   47.434
| 42> H  -21.289   28.710   47.548
| 43> H  -20.733   27.082   49.195
| 44> H  -19.064   26.913   48.597
| 45> C  -23.431   25.260   45.734
| 46> H  -23.846   24.625   46.526
| 47> H  -24.266   25.681   45.159
| 48> O  -22.586   26.394   46.375
| 49> C  -22.602   24.362   44.774
| 50> C  -23.490   23.329   44.072
| 51> C  -24.144   24.181   42.959
| 52> C  -23.017   25.169   42.565
| 53> O  -22.044   25.162   43.678
| 54> H  -21.759   23.936   45.321
| 55> O  -22.614   22.203   43.457
| 56> H  -24.225   22.868   44.741
| 57> H  -24.487   23.581   42.110
| 58> H  -25.009   24.723   43.358
| 59> H  -23.387   26.190   42.418
| 60> H  -22.480   24.853   41.665
| 61> H  -21.870   22.641   42.783
| 62> *
| 63>
| 64>                          ****END OF INPUT****
 Total Charge           Charge          ....    0
 Multiplicity           Mult            ....    1
 Number of Electrons    NEL             ....  102
FINAL SINGLE POINT ENERGY      -652.828176628538
FINAL SINGLE POINT ENERGY      -652.851588095786
FINAL SINGLE POINT ENERGY      -652.856246355137
FINAL SINGLE POINT ENERGY      -652.858583450545
FINAL SINGLE POINT ENERGY      -652.858818823995
FINAL SINGLE POINT ENERGY      -652.858856376648
                    ***********************HURRAY********************

CARTESIAN COORDINATES (ANGSTROEM)
---------------------------------
  C    -20.882583   26.220944   46.203180
  C    -20.364686   27.646532   46.004676
  C    -20.477868   28.229503   47.434643
  C    -20.144922   27.013157   48.328765
  O    -20.319840   25.816506   47.472747
  H    -20.550447   25.505986   45.454589
  H    -19.318388   27.610020   45.678978
  H    -20.949786   28.192290   45.262722
  H    -19.798012   29.069745   47.604410
  H    -21.502651   28.568654   47.611746
  H    -20.804979   26.926803   49.196100
  H    -19.103899   27.008570   48.666986
  C    -23.195471   25.291933   45.688281
  H    -23.628682   24.692534   46.501743
  H    -24.004148   25.857088   45.212983
  O    -22.325588   26.299170   46.279698
  C    -22.560131   24.332788   44.683531
  C    -23.571428   23.353386   44.067213
  C    -24.211820   24.220339   42.949000
  C    -23.024936   25.090527   42.461248
  O    -21.996192   25.039218   43.528148
  H    -21.739961   23.777012   45.146899
  O    -22.897132   22.185766   43.525650
  H    -24.298178   22.960530   44.779211
  H    -24.629000   23.588452   42.161264
  H    -25.018509   24.837279   43.359230
  H    -23.306014   26.133359   42.289157
  H    -22.563510   24.698122   41.550085
  H    -22.093240   22.472788   43.043118

 Multiplicity           Mult            ....    1
 Number of Electrons    NEL             ....  102
 Basis Dimension        Dim             ....  149

ORBITAL ENERGIES
----------------

  NO   OCC          E(Eh)            E(eV)
   0   2.0000     -19.151965      -521.1515
   1   2.0000     -19.144798      -520.9565
   2   2.0000     -19.134246      -520.6693
   3   2.0000     -19.127792      -520.4937
   4   2.0000     -10.267846      -279.4023
   5   2.0000     -10.250297      -278.9248
   6   2.0000     -10.242128      -278.7025
   7   2.0000     -10.238588      -278.6061
   8   2.0000     -10.233736      -278.4741
   9   2.0000     -10.215707      -277.9835
  10   2.0000     -10.196506      -277.4610
  11   2.0000     -10.175798      -276.8975
  12   2.0000     -10.173686      -276.8401
  13   2.0000      -1.048005       -28.5177
  14   2.0000      -1.038511       -28.2593
  15   2.0000      -1.013407       -27.5762
  16   2.0000      -0.984176       -26.7808
  17   2.0000      -0.792379       -21.5617
  18   2.0000      -0.777993       -21.1703
  19   2.0000      -0.767953       -20.8971
  20   2.0000      -0.729259       -19.8442
  21   2.0000      -0.674685       -18.3591
  22   2.0000      -0.611975       -16.6527
  23   2.0000      -0.608942       -16.5702
  24   2.0000      -0.588259       -16.0073
  25   2.0000      -0.565727       -15.3942
  26   2.0000      -0.533820       -14.5260
  27   2.0000      -0.511601       -13.9214
  28   2.0000      -0.493206       -13.4208
  29   2.0000      -0.483632       -13.1603
  30   2.0000      -0.475454       -12.9378
  31   2.0000      -0.456677       -12.4268
  32   2.0000      -0.450731       -12.2650
  33   2.0000      -0.436138       -11.8679
  34   2.0000      -0.428402       -11.6574
  35   2.0000      -0.409523       -11.1437
  36   2.0000      -0.400785       -10.9059
  37   2.0000      -0.394189       -10.7264
  38   2.0000      -0.380797       -10.3620
  39   2.0000      -0.368540       -10.0285
  40   2.0000      -0.362189        -9.8557
  41   2.0000      -0.346555        -9.4302
  42   2.0000      -0.341906        -9.3037
  43   2.0000      -0.335918        -9.1408
  44   2.0000      -0.320175        -8.7124
  45   2.0000      -0.309500        -8.4219
  46   2.0000      -0.298100        -8.1117
  47   2.0000      -0.278875        -7.5886
  48   2.0000      -0.260464        -7.0876
  49   2.0000      -0.249982        -6.8024
  50   2.0000      -0.236633        -6.4391
  51   0.0000       0.060169         1.6373
  52   0.0000       0.082559         2.2465
  53   0.0000       0.087989         2.3943
  54   0.0000       0.095188         2.5902
  55   0.0000       0.101327         2.7572

MULLIKEN ATOMIC CHARGES
-----------------------
   0 C :    0.273458
   1 C :   -0.246505
   2 C :   -0.297984
   3 C :    0.000895
   4 O :   -0.510305
   5 H :    0.171631
   6 H :    0.139532
   7 H :    0.150141
   8 H :    0.135121
   9 H :    0.159751
  10 H :    0.145077
  11 H :    0.137250
  12 C :    0.045360
  13 H :    0.137929
  14 H :    0.139803
  15 O :   -0.537812
  16 C :    0.011558
  17 C :    0.077076
  18 C :   -0.295942
  19 C :   -0.024783
  20 O :   -0.528871
  21 H :    0.178519
  22 O :   -0.598438
  23 H :    0.158397
  24 H :    0.165970
  25 H :    0.146558
  26 H :    0.152533
  27 H :    0.148241
  28 H :    0.365840
Sum of atomic charges:   -0.0000000

LOEWDIN ATOMIC CHARGES
----------------------
   0 C :    0.172761
   1 C :   -0.214197
   2 C :   -0.217102
   3 C :   -0.027155
   4 O :   -0.327880
   5 H :    0.110861
   6 H :    0.110842
   7 H :    0.120825
   8 H :    0.110617
   9 H :    0.117921
  10 H :    0.104016
  11 H :    0.099696
  12 C :   -0.030946
  13 H :    0.103341
  14 H :    0.104762
  15 O :   -0.329583
  16 C :   -0.003216
  17 C :    0.039700
  18 C :   -0.239676
  19 C :   -0.035318
  20 O :   -0.335812
  21 H :    0.120758
  22 O :   -0.411627
  23 H :    0.118614
  24 H :    0.128227
  25 H :    0.114197
  26 H :    0.107508
  27 H :    0.103897
  28 H :    0.283966

  Mayer bond orders larger than 0.100000
B(  0-C ,  1-C ) :   0.9453 B(  0-C ,  4-O ) :   0.9099 B(  0-C ,  5-H ) :   0.9020
B(  0-C , 15-O ) :   0.8448 B(  1-C ,  2-C ) :   0.9571 B(  1-C ,  6-H ) :   0.9404
B(  1-C ,  7-H ) :   0.9389 B(  2-C ,  3-C ) :   0.9544 B(  2-C ,  8-H ) :   0.9461
B(  2-C ,  9-H ) :   0.9442 B(  3-C ,  4-O ) :   0.8422 B(  3-C , 10-H ) :   0.9357
B(  3-C , 11-H ) :   0.9404 B( 12-C , 13-H ) :   0.9130 B( 12-C , 14-H ) :   0.9313
B( 12-C , 15-O ) :   0.8508 B( 12-C , 16-C ) :   0.8977 B( 16-C , 17-C ) :   0.8979
B( 16-C , 20-O ) :   0.8332 B( 16-C , 21-H ) :   0.9164 B( 17-C , 18-C ) :   0.9100
B( 17-C , 22-O ) :   0.8960 B( 17-C , 23-H ) :   0.9325 B( 18-C , 19-C ) :   0.9407
B( 18-C , 24-H ) :   0.9372 B( 18-C , 25-H ) :   0.9336 B( 19-C , 20-O ) :   0.8400
B( 19-C , 26-H ) :   0.9343 B( 19-C , 27-H ) :   0.9384 B( 22-O , 28-H ) :   0.7936

FINAL SINGLE POINT ENERGY      -652.858859377217

DIPOLE MOMENT
-------------
                                X             Y             Z
Electronic contribution:      0.79709      -4.20332       0.02946
Nuclear contribution   :     -1.28958       4.88435      -0.71559
                        -----------------------------------------
Total Dipole Moment    :     -0.49250       0.68103      -0.68613
                        -----------------------------------------
Magnitude (a.u.)       :      1.08496
Magnitude (Debye)      :      2.75774

Rotational constants in cm-1:     0.065375     0.012448     0.011799
Rotational constants in MHz :  1959.882480   373.180384   353.725746

                             ****ORCA TERMINATED NORMALLY****
TOTAL RUN TIME: 0 days 0 hours 55 minutes 0 seconds 969 msec
