                         Program Version 4.2.0 -  RELEASE  -
|  1> # Test redundant internal optimization
|  2> #
|  3> ! RKS B3LYP  Opt TightSCF SmallPrint
|  4>
|  5> %basis
|  6>         Basis "6-31G"
|  7> end
|  8>
|  9> %geom
| 10> Constraints
| 11> { D 4  0  15  12  285.0   C } # D for Dihedral angle
| 12> { D 0  15  12  16  240.0   C } # D for Dihedral angle
| 13> { D 0  4  3  2   C } # D for Dihedral angle
| 14> { D 4  3  2  1   C } # D for Dihedral angle
| 15> { D 3  2  1  0   C } # D for Dihedral angle
| 16> { D 2  1  0  4   C } # D for Dihedral angle
| 17> { D 1  0  4  3   C } # D for Dihedral angle
| 18> { D 16  20  19  18   C } # D for Dihedral angle
| 19> { D 20  19  18  17   C } # D for Dihedral angle
| 20> { D 19  18  17  16   C } # D for Dihedral angle
| 21> { D 18  17  16  20   C } # D for Dihedral angle
| 22> { D 17  16  20  19   C } # D for Dihedral angle
| 23> { D 15  12  16  20   C } # D for Dihedral angle
| 24> end
| 25> end
| 26>
| 27>
| 28> #%pal
| 29> #nprocs 8
| 30> #end
| 31>
| 32> * xyz 0 1
| 33> C  -21.048   26.222   46.251
| 34> C  -20.361   27.558   45.944
| 35> C  -20.329   28.222   47.341
| 36> C  -20.110   27.022   48.296
| 37> O  -20.473   25.807   47.535
| 38> H  -20.833   25.428   45.533
| 39> H  -19.344   27.382   45.576
| 40> H  -20.898   28.157   45.201
| 41> H  -19.543   28.978   47.434
| 42> H  -21.289   28.710   47.548
| 43> H  -20.733   27.082   49.195
| 44> H  -19.064   26.913   48.597
| 45> C  -23.396   25.070   46.435
| 46> H  -22.704   24.220   46.386
| 47> H  -23.954   25.004   47.378
| 48> O  -22.586   26.394   46.375
| 49> C  -24.417   24.937   45.272
| 50> C  -25.365   26.141   45.222
| 51> C  -24.481   27.207   44.530
| 52> C  -23.645   26.373   43.527
| 53> O  -23.727   24.967   43.978
| 54> H  -24.919   23.970   45.345
| 55> H  -26.240   25.905   44.607
| 56> O  -25.858   26.588   46.625
| 57> H  -25.067   27.989   44.036
| 58> H  -23.829   27.692   45.267
| 59> H  -22.595   26.681   43.498
| 60> H  -24.053   26.410   42.512
| 61> H  -24.998   26.829   47.259
| 62> *
| 63>
| 64>                          ****END OF INPUT****
 Total Charge           Charge          ....    0
 Multiplicity           Mult            ....    1
 Number of Electrons    NEL             ....  102
FINAL SINGLE POINT ENERGY      -652.837574317149
FINAL SINGLE POINT ENERGY      -652.861671408097
FINAL SINGLE POINT ENERGY      -652.866231650107
FINAL SINGLE POINT ENERGY      -652.867886522694
FINAL SINGLE POINT ENERGY      -652.868019046942
FINAL SINGLE POINT ENERGY      -652.868042210527
FINAL SINGLE POINT ENERGY      -652.868042913307
                    ***********************HURRAY********************

CARTESIAN COORDINATES (ANGSTROEM)
---------------------------------
  C    -21.043384   26.158078   46.269965
  C    -20.420166   27.523592   45.980065
  C    -20.386722   28.162814   47.388000
  C    -20.100002   26.957099   48.311023
  O    -20.434936   25.748599   47.515470
  H    -20.835157   25.366226   45.545812
  H    -19.406296   27.378104   45.590621
  H    -20.998208   28.100739   45.255381
  H    -19.626464   28.944764   47.477936
  H    -21.362504   28.601461   47.617144
  H    -20.704680   26.959902   49.221397
  H    -19.043323   26.870456   48.580563
  C    -23.267847   25.119917   46.474348
  H    -22.604734   24.248389   46.443395
  H    -23.795501   25.110499   47.434987
  O    -22.470952   26.345106   46.398105
  C    -24.278897   25.021951   45.337682
  C    -25.316440   26.156415   45.262417
  C    -24.543127   27.244491   44.455230
  C    -23.704479   26.404013   43.469836
  O    -23.662880   25.021016   44.015365
  H    -24.776411   24.049735   45.442613
  H    -26.201566   25.815236   44.721996
  O    -25.810061   26.603787   46.547358
  H    -25.218937   27.940271   43.949491
  H    -23.898416   27.797412   45.143164
  H    -22.680009   26.772062   43.362613
  H    -24.164499   26.337457   42.479134
  H    -25.102404   27.098410   47.011889

 Multiplicity           Mult            ....    1
 Number of Electrons    NEL             ....  102
 Basis Dimension        Dim             ....  149

ORBITAL ENERGIES
----------------

  NO   OCC          E(Eh)            E(eV)
   0   2.0000     -19.150687      -521.1167
   1   2.0000     -19.142434      -520.8921
   2   2.0000     -19.139819      -520.8209
   3   2.0000     -19.136819      -520.7393
   4   2.0000     -10.282047      -279.7887
   5   2.0000     -10.236964      -278.5620
   6   2.0000     -10.229257      -278.3522
   7   2.0000     -10.228887      -278.3422
   8   2.0000     -10.228262      -278.3252
   9   2.0000     -10.224960      -278.2353
  10   2.0000     -10.190172      -277.2887
  11   2.0000     -10.189756      -277.2774
  12   2.0000     -10.181174      -277.0438
  13   2.0000      -1.058013       -28.7900
  14   2.0000      -1.027536       -27.9607
  15   2.0000      -1.010363       -27.4934
  16   2.0000      -0.996089       -27.1050
  17   2.0000      -0.792480       -21.5645
  18   2.0000      -0.772639       -21.0246
  19   2.0000      -0.766390       -20.8545
  20   2.0000      -0.732746       -19.9390
  21   2.0000      -0.677779       -18.4433
  22   2.0000      -0.603473       -16.4213
  23   2.0000      -0.602717       -16.4008
  24   2.0000      -0.596721       -16.2376
  25   2.0000      -0.571787       -15.5591
  26   2.0000      -0.527371       -14.3505
  27   2.0000      -0.509340       -13.8599
  28   2.0000      -0.497596       -13.5403
  29   2.0000      -0.491848       -13.3839
  30   2.0000      -0.464319       -12.6348
  31   2.0000      -0.460828       -12.5398
  32   2.0000      -0.446397       -12.1471
  33   2.0000      -0.430802       -11.7227
  34   2.0000      -0.422492       -11.4966
  35   2.0000      -0.414200       -11.2710
  36   2.0000      -0.405691       -11.0394
  37   2.0000      -0.396881       -10.7997
  38   2.0000      -0.384880       -10.4731
  39   2.0000      -0.362333        -9.8596
  40   2.0000      -0.361726        -9.8431
  41   2.0000      -0.355253        -9.6669
  42   2.0000      -0.347815        -9.4645
  43   2.0000      -0.332841        -9.0571
  44   2.0000      -0.323652        -8.8070
  45   2.0000      -0.308927        -8.4063
  46   2.0000      -0.303286        -8.2528
  47   2.0000      -0.278838        -7.5876
  48   2.0000      -0.262181        -7.1343
  49   2.0000      -0.257033        -6.9942
  50   2.0000      -0.238459        -6.4888
  51   0.0000       0.064983         1.7683
  52   0.0000       0.076123         2.0714
  53   0.0000       0.088646         2.4122
  54   0.0000       0.099876         2.7178
  55   0.0000       0.102370         2.7856

MULLIKEN ATOMIC CHARGES
-----------------------
   0 C :    0.284954
   1 C :   -0.268112
   2 C :   -0.298811
   3 C :   -0.002722
   4 O :   -0.509917
   5 H :    0.162069
   6 H :    0.149980
   7 H :    0.153396
   8 H :    0.143577
   9 H :    0.155469
  10 H :    0.147429
  11 H :    0.144812
  12 C :   -0.028672
  13 H :    0.160278
  14 H :    0.149158
  15 O :   -0.538825
  16 C :    0.100321
  17 C :    0.084273
  18 C :   -0.309068
  19 C :   -0.006975
  20 O :   -0.526691
  21 H :    0.147024
  22 H :    0.162383
  23 O :   -0.605989
  24 H :    0.143107
  25 H :    0.162008
  26 H :    0.137804
  27 H :    0.143169
  28 H :    0.364571
Sum of atomic charges:    0.0000000

LOEWDIN ATOMIC CHARGES
----------------------
   0 C :    0.172739
   1 C :   -0.216097
   2 C :   -0.216101
   3 C :   -0.027526
   4 O :   -0.327661
   5 H :    0.106004
   6 H :    0.116760
   7 H :    0.120078
   8 H :    0.114458
   9 H :    0.115539
  10 H :    0.105666
  11 H :    0.103902
  12 C :   -0.045991
  13 H :    0.115963
  14 H :    0.109972
  15 O :   -0.339712
  16 C :    0.013750
  17 C :    0.037265
  18 C :   -0.242591
  19 C :   -0.026183
  20 O :   -0.327776
  21 H :    0.113761
  22 H :    0.116332
  23 O :   -0.410588
  24 H :    0.114950
  25 H :    0.119292
  26 H :    0.099135
  27 H :    0.101768
  28 H :    0.282891

  Mayer bond orders larger than 0.100000
B(  0-C ,  1-C ) :   0.9490 B(  0-C ,  4-O ) :   0.9073 B(  0-C ,  5-H ) :   0.9162
B(  0-C , 15-O ) :   0.8469 B(  1-C ,  2-C ) :   0.9552 B(  1-C ,  6-H ) :   0.9396
B(  1-C ,  7-H ) :   0.9361 B(  2-C ,  3-C ) :   0.9549 B(  2-C ,  8-H ) :   0.9451
B(  2-C ,  9-H ) :   0.9458 B(  3-C ,  4-O ) :   0.8379 B(  3-C , 10-H ) :   0.9356
B(  3-C , 11-H ) :   0.9401 B( 12-C , 13-H ) :   0.9226 B( 12-C , 14-H ) :   0.9171
B( 12-C , 15-O ) :   0.8303 B( 12-C , 16-C ) :   0.9020 B( 16-C , 17-C ) :   0.8866
B( 16-C , 20-O ) :   0.8711 B( 16-C , 21-H ) :   0.9257 B( 17-C , 18-C ) :   0.9329
B( 17-C , 22-H ) :   0.9360 B( 17-C , 23-O ) :   0.9025 B( 18-C , 19-C ) :   0.9447
B( 18-C , 24-H ) :   0.9415 B( 18-C , 25-H ) :   0.9267 B( 19-C , 20-O ) :   0.8400
B( 19-C , 26-H ) :   0.9317 B( 19-C , 27-H ) :   0.9376 B( 23-O , 28-H ) :   0.7927

FINAL SINGLE POINT ENERGY      -652.868041189545

DIPOLE MOMENT
-------------
                                X             Y             Z
Electronic contribution:     -2.53285      -4.54623       0.15750
Nuclear contribution   :      3.19216       5.55769      -0.21093
                        -----------------------------------------
Total Dipole Moment    :      0.65931       1.01145      -0.05343
                        -----------------------------------------
Magnitude (a.u.)       :      1.20855
Magnitude (Debye)      :      3.07188

Rotational constants in cm-1:     0.047889     0.015432     0.014848
Rotational constants in MHz :  1435.665222   462.625713   445.138518

                             ****ORCA TERMINATED NORMALLY****
TOTAL RUN TIME: 0 days 0 hours 19 minutes 15 seconds 840 msec
