                         Program Version 4.2.0 -  RELEASE  -
|  1> # Test redundant internal optimization
|  2> #
|  3> ! RKS B3LYP  Opt TightSCF SmallPrint
|  4>
|  5> %basis
|  6>         Basis "6-31G"
|  7> end
|  8>
|  9> %geom
| 10> Constraints
| 11> { D 4  0  15  12  165.0   C } # D for Dihedral angle
| 12> { D 0  15  12  16  330.0   C } # D for Dihedral angle
| 13> { D 0  4  3  2   C } # D for Dihedral angle
| 14> { D 4  3  2  1   C } # D for Dihedral angle
| 15> { D 3  2  1  0   C } # D for Dihedral angle
| 16> { D 2  1  0  4   C } # D for Dihedral angle
| 17> { D 1  0  4  3   C } # D for Dihedral angle
| 18> { D 16  20  19  18   C } # D for Dihedral angle
| 19> { D 20  19  18  17   C } # D for Dihedral angle
| 20> { D 19  18  17  16   C } # D for Dihedral angle
| 21> { D 18  17  16  20   C } # D for Dihedral angle
| 22> { D 17  16  20  19   C } # D for Dihedral angle
| 23> { D 15  12  16  20   C } # D for Dihedral angle
| 24> end
| 25> end
| 26>
| 27>
| 28> #%pal
| 29> #nprocs 8
| 30> #end
| 31>
| 32> * xyz 0 1
| 33> C  -21.048   26.222   46.251
| 34> C  -20.361   27.558   45.944
| 35> C  -20.329   28.222   47.341
| 36> C  -20.110   27.022   48.296
| 37> O  -20.473   25.807   47.535
| 38> H  -20.833   25.428   45.533
| 39> H  -19.344   27.382   45.576
| 40> H  -20.898   28.157   45.201
| 41> H  -19.543   28.978   47.434
| 42> H  -21.289   28.710   47.548
| 43> H  -20.733   27.082   49.195
| 44> H  -19.064   26.913   48.597
| 45> C  -23.260   27.170   45.210
| 46> H  -23.565   26.460   44.432
| 47> H  -24.155   27.695   45.566
| 48> O  -22.586   26.394   46.375
| 49> C  -22.317   28.225   44.567
| 50> C  -23.049   29.049   43.502
| 51> C  -23.837   30.057   44.373
| 52> C  -22.876   30.325   45.558
| 53> O  -21.899   29.215   45.565
| 54> H  -21.413   27.727   44.211
| 55> H  -22.326   29.571   42.866
| 56> O  -23.971   28.191   42.593
| 57> H  -24.097   30.973   43.831
| 58> H  -24.769   29.601   44.727
| 59> H  -23.396   30.352   46.522
| 60> H  -22.309   31.252   45.434
| 61> H  -24.705   27.659   43.208
| 62> *
| 63>
| 64>                          ****END OF INPUT****
 Total Charge           Charge          ....    0
 Multiplicity           Mult            ....    1
 Number of Electrons    NEL             ....  102
FINAL SINGLE POINT ENERGY      -652.719196482138
FINAL SINGLE POINT ENERGY      -652.813671411503
FINAL SINGLE POINT ENERGY      -652.836502053450
FINAL SINGLE POINT ENERGY      -652.841538476161
FINAL SINGLE POINT ENERGY      -652.842340915765
FINAL SINGLE POINT ENERGY      -652.842545899739
FINAL SINGLE POINT ENERGY      -652.842566259681
FINAL SINGLE POINT ENERGY      -652.842570270823
FINAL SINGLE POINT ENERGY      -652.842571120194
                    ***********************HURRAY********************

CARTESIAN COORDINATES (ANGSTROEM)
---------------------------------
  C    -20.878611   26.199775   46.256660
  C    -19.914336   27.378455   46.119614
  C    -20.064521   28.083964   47.494679
  C    -20.278145   26.896277   48.454976
  O    -20.681208   25.752534   47.604162
  H    -20.657317   25.352739   45.599513
  H    -18.905300   26.961265   46.009808
  H    -20.100438   28.057557   45.293290
  H    -19.184696   28.680931   47.753852
  H    -20.936319   28.741073   47.461718
  H    -21.064041   27.073869   49.194155
  H    -19.360306   26.593831   48.969155
  C    -23.044200   27.247884   45.168468
  H    -23.406312   26.535818   44.409926
  H    -23.912776   27.618677   45.725521
  O    -22.313471   26.494227   46.176017
  C    -22.402384   28.397353   44.389407
  C    -23.390143   29.076148   43.420793
  C    -24.131673   30.076466   44.366421
  C    -23.014534   30.508657   45.341577
  O    -21.935550   29.491096   45.236915
  H    -21.527383   28.033920   43.844231
  H    -22.822029   29.624747   42.666638
  O    -24.244717   28.195062   42.659624
  H    -24.565028   30.915864   43.817367
  H    -24.944235   29.555515   44.888247
  H    -23.350290   30.560660   46.381041
  H    -22.571790   31.469475   45.063756
  H    -24.953248   27.823159   43.223467

 Multiplicity           Mult            ....    1
 Number of Electrons    NEL             ....  102
 Basis Dimension        Dim             ....  149

ORBITAL ENERGIES
----------------

  NO   OCC          E(Eh)            E(eV)
   0   2.0000     -19.158090      -521.3181
   1   2.0000     -19.152042      -521.1535
   2   2.0000     -19.128905      -520.5240
   3   2.0000     -19.127824      -520.4946
   4   2.0000     -10.272710      -279.5346
   5   2.0000     -10.255058      -279.0543
   6   2.0000     -10.241721      -278.6914
   7   2.0000     -10.241228      -278.6780
   8   2.0000     -10.233298      -278.4622
   9   2.0000     -10.213616      -277.9266
  10   2.0000     -10.203839      -277.6606
  11   2.0000     -10.173274      -276.8288
  12   2.0000     -10.171061      -276.7686
  13   2.0000      -1.045711       -28.4552
  14   2.0000      -1.038571       -28.2610
  15   2.0000      -1.026964       -27.9451
  16   2.0000      -0.978033       -26.6136
  17   2.0000      -0.792303       -21.5597
  18   2.0000      -0.774360       -21.0714
  19   2.0000      -0.772177       -21.0120
  20   2.0000      -0.731051       -19.8929
  21   2.0000      -0.683230       -18.5916
  22   2.0000      -0.621717       -16.9178
  23   2.0000      -0.603713       -16.4279
  24   2.0000      -0.587912       -15.9979
  25   2.0000      -0.566389       -15.4122
  26   2.0000      -0.532161       -14.4808
  27   2.0000      -0.514810       -14.0087
  28   2.0000      -0.490938       -13.3591
  29   2.0000      -0.486506       -13.2385
  30   2.0000      -0.467091       -12.7102
  31   2.0000      -0.454212       -12.3597
  32   2.0000      -0.445813       -12.1312
  33   2.0000      -0.436758       -11.8848
  34   2.0000      -0.435613       -11.8536
  35   2.0000      -0.420197       -11.4341
  36   2.0000      -0.410702       -11.1758
  37   2.0000      -0.401778       -10.9329
  38   2.0000      -0.386020       -10.5041
  39   2.0000      -0.366973        -9.9858
  40   2.0000      -0.361554        -9.8384
  41   2.0000      -0.343850        -9.3566
  42   2.0000      -0.340580        -9.2676
  43   2.0000      -0.336286        -9.1508
  44   2.0000      -0.324884        -8.8405
  45   2.0000      -0.302547        -8.2327
  46   2.0000      -0.285683        -7.7738
  47   2.0000      -0.281094        -7.6490
  48   2.0000      -0.257239        -6.9998
  49   2.0000      -0.248973        -6.7749
  50   2.0000      -0.236981        -6.4486
  51   0.0000       0.045887         1.2487
  52   0.0000       0.068096         1.8530
  53   0.0000       0.078956         2.1485
  54   0.0000       0.094065         2.5596
  55   0.0000       0.104133         2.8336

MULLIKEN ATOMIC CHARGES
-----------------------
   0 C :    0.306490
   1 C :   -0.274517
   2 C :   -0.299588
   3 C :   -0.001546
   4 O :   -0.497625
   5 H :    0.138738
   6 H :    0.136138
   7 H :    0.166296
   8 H :    0.132059
   9 H :    0.171899
  10 H :    0.146114
  11 H :    0.137677
  12 C :    0.014079
  13 H :    0.130792
  14 H :    0.137766
  15 O :   -0.534094
  16 C :    0.060330
  17 C :    0.085422
  18 C :   -0.320911
  19 C :   -0.005646
  20 O :   -0.520784
  21 H :    0.155062
  22 H :    0.169034
  23 O :   -0.595002
  24 H :    0.160326
  25 H :    0.138140
  26 H :    0.150764
  27 H :    0.151992
  28 H :    0.360594
Sum of atomic charges:   -0.0000000

LOEWDIN ATOMIC CHARGES
----------------------
   0 C :    0.190663
   1 C :   -0.230813
   2 C :   -0.216927
   3 C :   -0.028372
   4 O :   -0.303713
   5 H :    0.094938
   6 H :    0.111739
   7 H :    0.125467
   8 H :    0.110595
   9 H :    0.122269
  10 H :    0.104967
  11 H :    0.099649
  12 C :   -0.044171
  13 H :    0.097822
  14 H :    0.104448
  15 O :   -0.343018
  16 C :    0.000846
  17 C :    0.038651
  18 C :   -0.239348
  19 C :   -0.027440
  20 O :   -0.322793
  21 H :    0.111023
  22 H :    0.119755
  23 O :   -0.402386
  24 H :    0.124321
  25 H :    0.106629
  26 H :    0.106449
  27 H :    0.107678
  28 H :    0.281074

  Mayer bond orders larger than 0.100000
B(  0-C ,  1-C ) :   0.9301 B(  0-C ,  4-O ) :   0.9373 B(  0-C ,  5-H ) :   0.9245
B(  0-C , 15-O ) :   0.8285 B(  1-C ,  2-C ) :   0.9527 B(  1-C ,  6-H ) :   0.9318
B(  1-C ,  7-H ) :   0.9146 B(  2-C ,  3-C ) :   0.9538 B(  2-C ,  8-H ) :   0.9465
B(  2-C ,  9-H ) :   0.9327 B(  3-C ,  4-O ) :   0.8331 B(  3-C , 10-H ) :   0.9362
B(  3-C , 11-H ) :   0.9396 B( 12-C , 13-H ) :   0.9007 B( 12-C , 14-H ) :   0.9338
B( 12-C , 15-O ) :   0.8714 B( 12-C , 16-C ) :   0.8898 B( 16-C , 17-C ) :   0.8658
B( 16-C , 20-O ) :   0.8389 B( 16-C , 21-H ) :   0.9252 B( 17-C , 18-C ) :   0.9203
B( 17-C , 22-H ) :   0.9333 B( 17-C , 23-O ) :   0.9091 B( 18-C , 19-C ) :   0.9398
B( 18-C , 24-H ) :   0.9416 B( 18-C , 25-H ) :   0.9405 B( 19-C , 20-O ) :   0.8347
B( 19-C , 26-H ) :   0.9316 B( 19-C , 27-H ) :   0.9382 B( 23-O , 28-H ) :   0.7948

FINAL SINGLE POINT ENERGY      -652.842571205858

DIPOLE MOMENT
-------------
                                X             Y             Z
Electronic contribution:     -0.83354      -4.19938      -1.24354
Nuclear contribution   :      0.41578       5.62486       0.92836
                        -----------------------------------------
Total Dipole Moment    :     -0.41775       1.42548      -0.31517
                        -----------------------------------------
Magnitude (a.u.)       :      1.51850
Magnitude (Debye)      :      3.85972

Rotational constants in cm-1:     0.053799     0.015148     0.013279
Rotational constants in MHz :  1612.856289   454.119782   398.093799

                             ****ORCA TERMINATED NORMALLY****
TOTAL RUN TIME: 0 days 0 hours 32 minutes 10 seconds 71 msec
