                         Program Version 4.2.0 -  RELEASE  -
|  1> # Test redundant internal optimization
|  2> #
|  3> ! RKS B3LYP  Opt TightSCF SmallPrint
|  4>
|  5> %basis
|  6>         Basis "6-31G"
|  7> end
|  8>
|  9> %geom
| 10> Constraints
| 11> { D 4  0  15  12  180.0   C } # D for Dihedral angle
| 12> { D 0  15  12  16  180.0   C } # D for Dihedral angle
| 13> { D 0  4  3  2   C } # D for Dihedral angle
| 14> { D 4  3  2  1   C } # D for Dihedral angle
| 15> { D 3  2  1  0   C } # D for Dihedral angle
| 16> { D 2  1  0  4   C } # D for Dihedral angle
| 17> { D 1  0  4  3   C } # D for Dihedral angle
| 18> { D 16  20  19  18   C } # D for Dihedral angle
| 19> { D 20  19  18  17   C } # D for Dihedral angle
| 20> { D 19  18  17  16   C } # D for Dihedral angle
| 21> { D 18  17  16  20   C } # D for Dihedral angle
| 22> { D 17  16  20  19   C } # D for Dihedral angle
| 23> { D 15  12  16  20   C } # D for Dihedral angle
| 24> end
| 25> end
| 26>
| 27>
| 28> #%pal
| 29> #nprocs 8
| 30> #end
| 31>
| 32> * xyz 0 1
| 33> C  -21.048   26.222   46.251
| 34> C  -20.361   27.558   45.944
| 35> C  -20.329   28.222   47.341
| 36> C  -20.110   27.022   48.296
| 37> O  -20.473   25.807   47.535
| 38> H  -20.833   25.428   45.533
| 39> H  -19.344   27.382   45.576
| 40> H  -20.898   28.157   45.201
| 41> H  -19.543   28.978   47.434
| 42> H  -21.289   28.710   47.548
| 43> H  -20.733   27.082   49.195
| 44> H  -19.064   26.913   48.597
| 45> C  -23.309   26.834   45.072
| 46> H  -22.903   27.797   44.741
| 47> H  -23.142   26.099   44.274
| 48> O  -22.586   26.394   46.375
| 49> C  -24.843   26.988   45.260
| 50> C  -25.470   25.702   45.810
| 51> C  -25.121   25.802   47.314
| 52> C  -25.209   27.323   47.595
| 53> O  -25.136   27.999   46.282
| 54> H  -25.284   27.342   44.325
| 55> H  -26.555   25.720   45.663
| 56> O  -24.906   24.416   45.146
| 57> H  -25.799   25.220   47.947
| 58> H  -24.102   25.436   47.490
| 59> H  -24.392   27.681   48.230
| 60> H  -26.162   27.608   48.051
| 61> H  -23.820   24.377   45.281
| 62> *
| 63>
| 64>                          ****END OF INPUT****
 Total Charge           Charge          ....    0
 Multiplicity           Mult            ....    1
 Number of Electrons    NEL             ....  102
FINAL SINGLE POINT ENERGY      -652.832312166890
FINAL SINGLE POINT ENERGY      -652.855678448963
FINAL SINGLE POINT ENERGY      -652.860672363456
FINAL SINGLE POINT ENERGY      -652.862137914428
FINAL SINGLE POINT ENERGY      -652.862301468817
FINAL SINGLE POINT ENERGY      -652.862326356791
                    ***********************HURRAY********************

CARTESIAN COORDINATES (ANGSTROEM)
---------------------------------
  C    -21.059861   26.260883   46.159340
  C    -20.321967   27.573091   45.901865
  C    -20.373514   28.249865   47.293998
  C    -20.255389   27.053967   48.260180
  O    -20.600201   25.852132   47.453302
  H    -20.839975   25.453284   45.452329
  H    -19.288951   27.344802   45.614568
  H    -20.763258   28.187309   45.113383
  H    -19.570984   28.980122   47.433647
  H    -21.332848   28.760094   47.421504
  H    -20.942348   27.111645   49.107796
  H    -19.236656   26.899378   48.626781
  C    -23.205035   26.857126   45.059035
  H    -22.830784   27.829834   44.717121
  H    -23.059524   26.122845   44.251627
  O    -22.505790   26.437849   46.264751
  C    -24.697970   26.993837   45.341139
  C    -25.399177   25.711043   45.820480
  C    -25.126128   25.749438   47.355950
  C    -25.178417   27.259448   47.669674
  O    -25.010924   27.970239   46.374552
  H    -25.156144   27.369119   44.418160
  H    -26.467932   25.769266   45.603443
  O    -24.942813   24.503437   45.162338
  H    -25.868412   25.175949   47.918754
  H    -24.129188   25.348658   47.550990
  H    -24.380498   27.575204   48.347230
  H    -26.144981   27.572800   48.076958
  H    -24.074331   24.246336   45.536106

 Multiplicity           Mult            ....    1
 Number of Electrons    NEL             ....  102
 Basis Dimension        Dim             ....  149

ORBITAL ENERGIES
----------------

  NO   OCC          E(Eh)            E(eV)
   0   2.0000     -19.150365      -521.1079
   1   2.0000     -19.147288      -521.0242
   2   2.0000     -19.137255      -520.7512
   3   2.0000     -19.132505      -520.6219
   4   2.0000     -10.287417      -279.9349
   5   2.0000     -10.233915      -278.4790
   6   2.0000     -10.232903      -278.4514
   7   2.0000     -10.230310      -278.3809
   8   2.0000     -10.229925      -278.3704
   9   2.0000     -10.219235      -278.0795
  10   2.0000     -10.192913      -277.3633
  11   2.0000     -10.190721      -277.3036
  12   2.0000     -10.174805      -276.8705
  13   2.0000      -1.061165       -28.8758
  14   2.0000      -1.025583       -27.9075
  15   2.0000      -1.007725       -27.4216
  16   2.0000      -0.998515       -27.1710
  17   2.0000      -0.791655       -21.5420
  18   2.0000      -0.772536       -21.0218
  19   2.0000      -0.763554       -20.7774
  20   2.0000      -0.735152       -20.0045
  21   2.0000      -0.678705       -18.4685
  22   2.0000      -0.606367       -16.5001
  23   2.0000      -0.600044       -16.3280
  24   2.0000      -0.596081       -16.2202
  25   2.0000      -0.566880       -15.4256
  26   2.0000      -0.531480       -14.4623
  27   2.0000      -0.505893       -13.7661
  28   2.0000      -0.501144       -13.6368
  29   2.0000      -0.488667       -13.2973
  30   2.0000      -0.474010       -12.8985
  31   2.0000      -0.456884       -12.4325
  32   2.0000      -0.451323       -12.2811
  33   2.0000      -0.428789       -11.6679
  34   2.0000      -0.421868       -11.4796
  35   2.0000      -0.411542       -11.1986
  36   2.0000      -0.402783       -10.9603
  37   2.0000      -0.399486       -10.8706
  38   2.0000      -0.381690       -10.3863
  39   2.0000      -0.369917       -10.0659
  40   2.0000      -0.360210        -9.8018
  41   2.0000      -0.356466        -9.6999
  42   2.0000      -0.351044        -9.5524
  43   2.0000      -0.324819        -8.8388
  44   2.0000      -0.316436        -8.6107
  45   2.0000      -0.308624        -8.3981
  46   2.0000      -0.305420        -8.3109
  47   2.0000      -0.266573        -7.2538
  48   2.0000      -0.263495        -7.1701
  49   2.0000      -0.258888        -7.0447
  50   2.0000      -0.238379        -6.4866
  51   0.0000       0.063566         1.7297
  52   0.0000       0.081321         2.2129
  53   0.0000       0.092749         2.5238
  54   0.0000       0.098740         2.6868
  55   0.0000       0.102690         2.7943

MULLIKEN ATOMIC CHARGES
-----------------------
   0 C :    0.310018
   1 C :   -0.283743
   2 C :   -0.300261
   3 C :   -0.002956
   4 O :   -0.505745
   5 H :    0.140868
   6 H :    0.150374
   7 H :    0.148920
   8 H :    0.144945
   9 H :    0.169305
  10 H :    0.153425
  11 H :    0.144759
  12 C :   -0.018207
  13 H :    0.140165
  14 H :    0.135049
  15 O :   -0.528433
  16 C :    0.092688
  17 C :    0.083689
  18 C :   -0.313269
  19 C :   -0.000866
  20 O :   -0.524652
  21 H :    0.146087
  22 H :    0.160285
  23 O :   -0.608864
  24 H :    0.142727
  25 H :    0.177284
  26 H :    0.145037
  27 H :    0.136955
  28 H :    0.364415
Sum of atomic charges:   -0.0000000

LOEWDIN ATOMIC CHARGES
----------------------
   0 C :    0.180400
   1 C :   -0.231064
   2 C :   -0.216711
   3 C :   -0.024776
   4 O :   -0.305633
   5 H :    0.096221
   6 H :    0.117471
   7 H :    0.116437
   8 H :    0.116018
   9 H :    0.121861
  10 H :    0.108850
  11 H :    0.104091
  12 C :   -0.050877
  13 H :    0.099661
  14 H :    0.098053
  15 O :   -0.339486
  16 C :    0.021159
  17 C :    0.037391
  18 C :   -0.243201
  19 C :   -0.023530
  20 O :   -0.324991
  21 H :    0.113077
  22 H :    0.115094
  23 O :   -0.413435
  24 H :    0.114414
  25 H :    0.127843
  26 H :    0.103943
  27 H :    0.099093
  28 H :    0.282627

  Mayer bond orders larger than 0.100000
B(  0-C ,  1-C ) :   0.9309 B(  0-C ,  4-O ) :   0.9409 B(  0-C ,  5-H ) :   0.9210
B(  0-C , 15-O ) :   0.8229 B(  1-C ,  2-C ) :   0.9505 B(  1-C ,  6-H ) :   0.9337
B(  1-C ,  7-H ) :   0.9296 B(  2-C ,  3-C ) :   0.9563 B(  2-C ,  8-H ) :   0.9447
B(  2-C ,  9-H ) :   0.9421 B(  3-C ,  4-O ) :   0.8306 B(  3-C , 10-H ) :   0.9348
B(  3-C , 11-H ) :   0.9397 B( 12-C , 13-H ) :   0.9122 B( 12-C , 14-H ) :   0.9020
B( 12-C , 15-O ) :   0.8312 B( 12-C , 16-C ) :   0.9158 B( 16-C , 17-C ) :   0.8851
B( 16-C , 20-O ) :   0.8836 B( 16-C , 21-H ) :   0.9292 B( 17-C , 18-C ) :   0.9363
B( 17-C , 22-H ) :   0.9360 B( 17-C , 23-O ) :   0.9011 B( 18-C , 19-C ) :   0.9455
B( 18-C , 24-H ) :   0.9408 B( 18-C , 25-H ) :   0.9224 B( 19-C , 20-O ) :   0.8347
B( 19-C , 26-H ) :   0.9329 B( 19-C , 27-H ) :   0.9388 B( 23-O , 28-H ) :   0.7927

FINAL SINGLE POINT ENERGY      -652.862327001997

DIPOLE MOMENT
-------------
                                X             Y             Z
Electronic contribution:     -2.46273      -2.83318      -1.53971
Nuclear contribution   :      3.36771       3.40734       1.61630
                        -----------------------------------------
Total Dipole Moment    :      0.90498       0.57416       0.07659
                        -----------------------------------------
Magnitude (a.u.)       :      1.07448
Magnitude (Debye)      :      2.73111

Rotational constants in cm-1:     0.046155     0.016091     0.015298
Rotational constants in MHz :  1383.685440   482.397950   458.623044

                             ****ORCA TERMINATED NORMALLY****
TOTAL RUN TIME: 0 days 0 hours 30 minutes 38 seconds 67 msec
