                         Program Version 4.2.0 -  RELEASE  -
|  1> # Test redundant internal optimization
|  2> #
|  3> ! RKS B3LYP  Opt TightSCF SmallPrint
|  4>
|  5> %basis
|  6>         Basis "6-31G"
|  7> end
|  8>
|  9> %geom
| 10> Constraints
| 11> { D 4  0  15  12  90.0   C } # D for Dihedral angle
| 12> { D 0  15  12  16  105.0   C } # D for Dihedral angle
| 13> { D 0  4  3  2   C } # D for Dihedral angle
| 14> { D 4  3  2  1   C } # D for Dihedral angle
| 15> { D 3  2  1  0   C } # D for Dihedral angle
| 16> { D 2  1  0  4   C } # D for Dihedral angle
| 17> { D 1  0  4  3   C } # D for Dihedral angle
| 18> { D 16  20  19  18   C } # D for Dihedral angle
| 19> { D 20  19  18  17   C } # D for Dihedral angle
| 20> { D 19  18  17  16   C } # D for Dihedral angle
| 21> { D 18  17  16  20   C } # D for Dihedral angle
| 22> { D 17  16  20  19   C } # D for Dihedral angle
| 23> { D 15  12  16  20   C } # D for Dihedral angle
| 24> end
| 25> end
| 26>
| 27>
| 28> #%pal
| 29> #nprocs 8
| 30> #end
| 31>
| 32> * xyz 0 1
| 33> C  -21.048   26.222   46.251
| 34> C  -20.361   27.558   45.944
| 35> C  -20.329   28.222   47.341
| 36> C  -20.110   27.022   48.296
| 37> O  -20.473   25.807   47.535
| 38> H  -20.833   25.428   45.533
| 39> H  -19.344   27.382   45.576
| 40> H  -20.898   28.157   45.201
| 41> H  -19.543   28.978   47.434
| 42> H  -21.289   28.710   47.548
| 43> H  -20.733   27.082   49.195
| 44> H  -19.064   26.913   48.597
| 45> C  -23.061   27.816   46.783
| 46> H  -23.826   27.731   47.565
| 47> H  -22.223   28.400   47.185
| 48> O  -22.586   26.394   46.375
| 49> C  -23.664   28.612   45.593
| 50> C  -24.947   27.952   45.076
| 51> C  -25.987   28.425   46.120
| 52> C  -25.504   29.854   46.474
| 53> O  -24.095   29.943   46.034
| 54> H  -22.894   28.760   44.834
| 55> O  -25.297   28.501   43.666
| 56> H  -24.875   26.861   45.011
| 57> H  -27.011   28.414   45.734
| 58> H  -25.954   27.775   47.003
| 59> H  -25.558   30.060   47.548
| 60> H  -26.060   30.627   45.937
| 61> H  -25.376   29.594   43.705
| 62> *
| 63>
| 64>                          ****END OF INPUT****
 Total Charge           Charge          ....    0
 Multiplicity           Mult            ....    1
 Number of Electrons    NEL             ....  102
FINAL SINGLE POINT ENERGY      -652.790064360422
FINAL SINGLE POINT ENERGY      -652.832476423789
FINAL SINGLE POINT ENERGY      -652.851690792971
FINAL SINGLE POINT ENERGY      -652.855079493846
FINAL SINGLE POINT ENERGY      -652.855545899938
FINAL SINGLE POINT ENERGY      -652.855665995031
FINAL SINGLE POINT ENERGY      -652.855682535636
FINAL SINGLE POINT ENERGY      -652.855685583351
FINAL SINGLE POINT ENERGY      -652.855684686686
                    ***********************HURRAY********************

CARTESIAN COORDINATES (ANGSTROEM)
---------------------------------
  C    -21.233066   26.401956   46.380681
  C    -20.272453   27.517964   45.941561
  C    -19.889439   28.176148   47.303174
  C    -19.865558   26.957491   48.261708
  O    -20.624109   25.881903   47.582895
  H    -21.249592   25.560377   45.686214
  H    -19.394888   27.053854   45.480840
  H    -20.712308   28.216926   45.225526
  H    -18.914947   28.672901   47.258041
  H    -20.621066   28.926057   47.611461
  H    -20.326698   27.163923   49.232285
  H    -18.852491   26.577798   48.422903
  C    -23.204641   27.964181   46.938392
  H    -23.990212   27.721521   47.661501
  H    -22.482941   28.613164   47.438089
  O    -22.642216   26.688692   46.512765
  C    -23.785934   28.702906   45.729941
  C    -24.950929   27.987734   45.032030
  C    -26.140643   28.352713   45.955071
  C    -25.803016   29.792074   46.418970
  O    -24.352206   29.987182   46.161268
  H    -22.991507   28.931212   45.012950
  O    -25.134838   28.494921   43.680871
  H    -24.787013   26.916417   44.927014
  H    -27.084659   28.292871   45.407303
  H    -26.194457   27.661254   46.802662
  H    -25.998229   29.954382   47.483157
  H    -26.336325   30.556368   45.845691
  H    -25.106619   29.475112   43.699037

 Multiplicity           Mult            ....    1
 Number of Electrons    NEL             ....  102
 Basis Dimension        Dim             ....  149

ORBITAL ENERGIES
----------------

  NO   OCC          E(Eh)            E(eV)
   0   2.0000     -19.147520      -521.0305
   1   2.0000     -19.145841      -520.9848
   2   2.0000     -19.140150      -520.8300
   3   2.0000     -19.136407      -520.7281
   4   2.0000     -10.280842      -279.7559
   5   2.0000     -10.236710      -278.5550
   6   2.0000     -10.234517      -278.4954
   7   2.0000     -10.234061      -278.4829
   8   2.0000     -10.233990      -278.4810
   9   2.0000     -10.229410      -278.3564
  10   2.0000     -10.195615      -277.4368
  11   2.0000     -10.195311      -277.4285
  12   2.0000     -10.189118      -277.2600
  13   2.0000      -1.051219       -28.6051
  14   2.0000      -1.037320       -28.2269
  15   2.0000      -1.005901       -27.3720
  16   2.0000      -0.997459       -27.1422
  17   2.0000      -0.790302       -21.5052
  18   2.0000      -0.783087       -21.3089
  19   2.0000      -0.771772       -21.0010
  20   2.0000      -0.735123       -20.0037
  21   2.0000      -0.681513       -18.5449
  22   2.0000      -0.607849       -16.5404
  23   2.0000      -0.604527       -16.4500
  24   2.0000      -0.601889       -16.3782
  25   2.0000      -0.574272       -15.6267
  26   2.0000      -0.529086       -14.3972
  27   2.0000      -0.510844       -13.9008
  28   2.0000      -0.503089       -13.6897
  29   2.0000      -0.492893       -13.4123
  30   2.0000      -0.473576       -12.8867
  31   2.0000      -0.461192       -12.5497
  32   2.0000      -0.446116       -12.1394
  33   2.0000      -0.441026       -12.0009
  34   2.0000      -0.430114       -11.7040
  35   2.0000      -0.414635       -11.2828
  36   2.0000      -0.412580       -11.2269
  37   2.0000      -0.394333       -10.7303
  38   2.0000      -0.385460       -10.4889
  39   2.0000      -0.370469       -10.0810
  40   2.0000      -0.364341        -9.9142
  41   2.0000      -0.359367        -9.7789
  42   2.0000      -0.350984        -9.5508
  43   2.0000      -0.331616        -9.0237
  44   2.0000      -0.316103        -8.6016
  45   2.0000      -0.310442        -8.4476
  46   2.0000      -0.295419        -8.0388
  47   2.0000      -0.280834        -7.6419
  48   2.0000      -0.266466        -7.2509
  49   2.0000      -0.258650        -7.0382
  50   2.0000      -0.242512        -6.5991
  51   0.0000       0.061739         1.6800
  52   0.0000       0.065810         1.7908
  53   0.0000       0.085849         2.3361
  54   0.0000       0.095826         2.6076
  55   0.0000       0.099961         2.7201

MULLIKEN ATOMIC CHARGES
-----------------------
   0 C :    0.308933
   1 C :   -0.295224
   2 C :   -0.317533
   3 C :   -0.008505
   4 O :   -0.498704
   5 H :    0.168064
   6 H :    0.161022
   7 H :    0.152379
   8 H :    0.147159
   9 H :    0.156144
  10 H :    0.146127
  11 H :    0.148315
  12 C :   -0.025609
  13 H :    0.152488
  14 H :    0.144866
  15 O :   -0.526500
  16 C :    0.058315
  17 C :    0.088191
  18 C :   -0.305649
  19 C :   -0.030763
  20 O :   -0.528112
  21 H :    0.157123
  22 O :   -0.601783
  23 H :    0.179623
  24 H :    0.162238
  25 H :    0.153402
  26 H :    0.145825
  27 H :    0.147935
  28 H :    0.360230
Sum of atomic charges:   -0.0000000

LOEWDIN ATOMIC CHARGES
----------------------
   0 C :    0.176617
   1 C :   -0.230875
   2 C :   -0.223544
   3 C :   -0.032945
   4 O :   -0.318294
   5 H :    0.113239
   6 H :    0.125338
   7 H :    0.117635
   8 H :    0.116647
   9 H :    0.110079
  10 H :    0.103917
  11 H :    0.105152
  12 C :   -0.043282
  13 H :    0.109780
  14 H :    0.105380
  15 O :   -0.323038
  16 C :    0.008279
  17 C :    0.037244
  18 C :   -0.242641
  19 C :   -0.038266
  20 O :   -0.333959
  21 H :    0.110219
  22 O :   -0.414051
  23 H :    0.129442
  24 H :    0.126893
  25 H :    0.117604
  26 H :    0.104111
  27 H :    0.103080
  28 H :    0.280239

  Mayer bond orders larger than 0.100000
B(  0-C ,  1-C ) :   0.9219 B(  0-C ,  4-O ) :   0.9081 B(  0-C ,  5-H ) :   0.9352
B(  0-C , 15-O ) :   0.8918 B(  1-C ,  2-C ) :   0.9538 B(  1-C ,  6-H ) :   0.9344
B(  1-C ,  7-H ) :   0.9307 B(  2-C ,  3-C ) :   0.9464 B(  2-C ,  8-H ) :   0.9444
B(  2-C ,  9-H ) :   0.9346 B(  3-C ,  4-O ) :   0.8480 B(  3-C , 10-H ) :   0.9342
B(  3-C , 11-H ) :   0.9389 B( 12-C , 13-H ) :   0.9354 B( 12-C , 14-H ) :   0.9043
B( 12-C , 15-O ) :   0.8286 B( 12-C , 16-C ) :   0.8864 B( 16-C , 17-C ) :   0.9118
B( 16-C , 20-O ) :   0.8417 B( 16-C , 21-H ) :   0.9238 B( 17-C , 18-C ) :   0.9142
B( 17-C , 22-O ) :   0.8892 B( 17-C , 23-H ) :   0.9226 B( 18-C , 19-C ) :   0.9435
B( 18-C , 24-H ) :   0.9375 B( 18-C , 25-H ) :   0.9329 B( 19-C , 20-O ) :   0.8422
B( 19-C , 26-H ) :   0.9359 B( 19-C , 27-H ) :   0.9377 B( 22-O , 28-H ) :   0.7975

FINAL SINGLE POINT ENERGY      -652.855673489332

DIPOLE MOMENT
-------------
                                X             Y             Z
Electronic contribution:     -1.45095      -2.35765      -1.98825
Nuclear contribution   :      1.70540       3.30780       2.43836
                        -----------------------------------------
Total Dipole Moment    :      0.25445       0.95015       0.45011
                        -----------------------------------------
Magnitude (a.u.)       :      1.08172
Magnitude (Debye)      :      2.74952

Rotational constants in cm-1:     0.057753     0.012749     0.012313
Rotational constants in MHz :  1731.401701   382.214698   369.144652

                             ****ORCA TERMINATED NORMALLY****
TOTAL RUN TIME: 0 days 0 hours 30 minutes 21 seconds 102 msec
