                         Program Version 4.2.0 -  RELEASE  -
|  1> # Test redundant internal optimization
|  2> #
|  3> ! RKS B3LYP  Opt TightSCF SmallPrint
|  4>
|  5> %basis
|  6>         Basis "6-31G"
|  7> end
|  8>
|  9> %geom
| 10> Constraints
| 11> { D 4  0  15  12  300.0   C } # D for Dihedral angle
| 12> { D 0  15  12  16  195.0   C } # D for Dihedral angle
| 13> { D 0  4  3  2   C } # D for Dihedral angle
| 14> { D 4  3  2  1   C } # D for Dihedral angle
| 15> { D 3  2  1  0   C } # D for Dihedral angle
| 16> { D 2  1  0  4   C } # D for Dihedral angle
| 17> { D 1  0  4  3   C } # D for Dihedral angle
| 18> { D 16  20  19  18   C } # D for Dihedral angle
| 19> { D 20  19  18  17   C } # D for Dihedral angle
| 20> { D 19  18  17  16   C } # D for Dihedral angle
| 21> { D 18  17  16  20   C } # D for Dihedral angle
| 22> { D 17  16  20  19   C } # D for Dihedral angle
| 23> { D 15  12  16  20   C } # D for Dihedral angle
| 24> end
| 25> end
| 26>
| 27>
| 28> #%pal
| 29> #nprocs 8
| 30> #end
| 31>
| 32> * xyz 0 1
| 33> C  -21.048   26.222   46.251
| 34> C  -20.361   27.558   45.944
| 35> C  -20.329   28.222   47.341
| 36> C  -20.110   27.022   48.296
| 37> O  -20.473   25.807   47.535
| 38> H  -20.833   25.428   45.533
| 39> H  -19.344   27.382   45.576
| 40> H  -20.898   28.157   45.201
| 41> H  -19.543   28.978   47.434
| 42> H  -21.289   28.710   47.548
| 43> H  -20.733   27.082   49.195
| 44> H  -19.064   26.913   48.597
| 45> C  -23.362   25.116   46.798
| 46> H  -22.984   24.258   46.227
| 47> H  -23.211   24.911   47.866
| 48> O  -22.586   26.394   46.375
| 49> C  -24.891   25.232   46.550
| 50> C  -25.205   25.351   45.054
| 51> C  -25.085   23.879   44.591
| 52> C  -25.621   23.084   45.808
| 53> O  -25.572   24.002   46.965
| 54> H  -25.292   26.042   47.162
| 55> O  -26.654   25.873   44.854
| 56> H  -24.521   26.021   44.522
| 57> H  -25.651   23.675   43.677
| 58> H  -24.035   23.630   44.398
| 59> H  -25.018   22.197   46.027
| 60> H  -26.664   22.779   45.681
| 61> H  -27.358   25.217   45.378
| 62> *
| 63>
| 64>                          ****END OF INPUT****
 Total Charge           Charge          ....    0
 Multiplicity           Mult            ....    1
 Number of Electrons    NEL             ....  102
FINAL SINGLE POINT ENERGY      -652.841167189435
FINAL SINGLE POINT ENERGY      -652.865608754534
FINAL SINGLE POINT ENERGY      -652.869535162491
FINAL SINGLE POINT ENERGY      -652.870230876125
FINAL SINGLE POINT ENERGY      -652.870321184720
FINAL SINGLE POINT ENERGY      -652.870333675592
FINAL SINGLE POINT ENERGY      -652.870335992077
                    ***********************HURRAY********************

CARTESIAN COORDINATES (ANGSTROEM)
---------------------------------
  C    -21.113535   26.116572   46.267470
  C    -20.551060   27.496302   45.926485
  C    -20.540795   28.182773   47.310271
  C    -20.199358   27.026782   48.276367
  O    -20.483905   25.773975   47.525648
  H    -20.862949   25.304400   45.575681
  H    -19.535244   27.382642   45.531776
  H    -21.163949   28.020167   45.189967
  H    -19.815249   28.999904   47.369274
  H    -21.534439   28.585451   47.526079
  H    -20.801289   27.036067   49.188416
  H    -19.139209   26.993815   48.544026
  C    -23.239167   25.042589   46.833164
  H    -22.845748   24.162722   46.302962
  H    -23.084844   24.886910   47.904655
  O    -22.544358   26.244339   46.383252
  C    -24.723873   25.238993   46.536085
  C    -25.075368   25.382918   45.047967
  C    -25.061680   23.905137   44.579410
  C    -25.609293   23.138904   45.809921
  O    -25.467801   24.051803   46.971739
  H    -25.105023   26.089312   47.108363
  O    -26.389017   25.986239   44.882809
  H    -24.382794   26.025346   44.507620
  H    -25.680930   23.778023   43.688175
  H    -24.041228   23.590143   44.335730
  H    -25.060461   22.215073   46.015493
  H    -26.673019   22.899629   45.717490
  H    -27.009416   25.585068   45.527704

 Multiplicity           Mult            ....    1
 Number of Electrons    NEL             ....  102
 Basis Dimension        Dim             ....  149

ORBITAL ENERGIES
----------------

  NO   OCC          E(Eh)            E(eV)
   0   2.0000     -19.149268      -521.0781
   1   2.0000     -19.143783      -520.9288
   2   2.0000     -19.143092      -520.9100
   3   2.0000     -19.134271      -520.6700
   4   2.0000     -10.281331      -279.7692
   5   2.0000     -10.234671      -278.4995
   6   2.0000     -10.231541      -278.4144
   7   2.0000     -10.231004      -278.3998
   8   2.0000     -10.227749      -278.3112
   9   2.0000     -10.226921      -278.2887
  10   2.0000     -10.187187      -277.2074
  11   2.0000     -10.187148      -277.2064
  12   2.0000     -10.186264      -277.1823
  13   2.0000      -1.058140       -28.7935
  14   2.0000      -1.034944       -28.1623
  15   2.0000      -1.003322       -27.3018
  16   2.0000      -0.996825       -27.1250
  17   2.0000      -0.791880       -21.5481
  18   2.0000      -0.777814       -21.1654
  19   2.0000      -0.766798       -20.8656
  20   2.0000      -0.730003       -19.8644
  21   2.0000      -0.672707       -18.3053
  22   2.0000      -0.603004       -16.4086
  23   2.0000      -0.600630       -16.3440
  24   2.0000      -0.589210       -16.0332
  25   2.0000      -0.582822       -15.8594
  26   2.0000      -0.522155       -14.2086
  27   2.0000      -0.517575       -14.0839
  28   2.0000      -0.494844       -13.4654
  29   2.0000      -0.492936       -13.4135
  30   2.0000      -0.470349       -12.7989
  31   2.0000      -0.456829       -12.4309
  32   2.0000      -0.448143       -12.1946
  33   2.0000      -0.438266       -11.9258
  34   2.0000      -0.424065       -11.5394
  35   2.0000      -0.409247       -11.1362
  36   2.0000      -0.403626       -10.9832
  37   2.0000      -0.391667       -10.6578
  38   2.0000      -0.376932       -10.2568
  39   2.0000      -0.366953        -9.9853
  40   2.0000      -0.358770        -9.7626
  41   2.0000      -0.353800        -9.6274
  42   2.0000      -0.349537        -9.5114
  43   2.0000      -0.340527        -9.2662
  44   2.0000      -0.324309        -8.8249
  45   2.0000      -0.306899        -8.3511
  46   2.0000      -0.300670        -8.1817
  47   2.0000      -0.270848        -7.3701
  48   2.0000      -0.268128        -7.2961
  49   2.0000      -0.257329        -7.0023
  50   2.0000      -0.246039        -6.6951
  51   0.0000       0.066868         1.8196
  52   0.0000       0.075167         2.0454
  53   0.0000       0.094652         2.5756
  54   0.0000       0.101315         2.7569
  55   0.0000       0.107518         2.9257

MULLIKEN ATOMIC CHARGES
-----------------------
   0 C :    0.292492
   1 C :   -0.264098
   2 C :   -0.298642
   3 C :   -0.006038
   4 O :   -0.514457
   5 H :    0.141548
   6 H :    0.146181
   7 H :    0.159162
   8 H :    0.142374
   9 H :    0.163724
  10 H :    0.148401
  11 H :    0.144682
  12 C :    0.008160
  13 H :    0.123363
  14 H :    0.165615
  15 O :   -0.531611
  16 C :    0.052815
  17 C :    0.091783
  18 C :   -0.299372
  19 C :   -0.031581
  20 O :   -0.527703
  21 H :    0.166920
  22 O :   -0.603982
  23 H :    0.169444
  24 H :    0.161974
  25 H :    0.140789
  26 H :    0.147430
  27 H :    0.147904
  28 H :    0.362722
Sum of atomic charges:   -0.0000000

LOEWDIN ATOMIC CHARGES
----------------------
   0 C :    0.172534
   1 C :   -0.214707
   2 C :   -0.215870
   3 C :   -0.028208
   4 O :   -0.329908
   5 H :    0.094316
   6 H :    0.114872
   7 H :    0.125165
   8 H :    0.114256
   9 H :    0.119875
  10 H :    0.105997
  11 H :    0.103745
  12 C :   -0.037386
  13 H :    0.092515
  14 H :    0.114588
  15 O :   -0.331109
  16 C :    0.016808
  17 C :    0.037698
  18 C :   -0.241786
  19 C :   -0.038543
  20 O :   -0.330324
  21 H :    0.118789
  22 O :   -0.415282
  23 H :    0.124481
  24 H :    0.126512
  25 H :    0.111798
  26 H :    0.104411
  27 H :    0.103212
  28 H :    0.281552

  Mayer bond orders larger than 0.100000
B(  0-C ,  1-C ) :   0.9516 B(  0-C ,  4-O ) :   0.9014 B(  0-C ,  5-H ) :   0.9191
B(  0-C , 15-O ) :   0.8566 B(  1-C ,  2-C ) :   0.9560 B(  1-C ,  6-H ) :   0.9396
B(  1-C ,  7-H ) :   0.9355 B(  2-C ,  3-C ) :   0.9554 B(  2-C ,  8-H ) :   0.9450
B(  2-C ,  9-H ) :   0.9442 B(  3-C ,  4-O ) :   0.8351 B(  3-C , 10-H ) :   0.9357
B(  3-C , 11-H ) :   0.9404 B( 12-C , 13-H ) :   0.9190 B( 12-C , 14-H ) :   0.9179
B( 12-C , 15-O ) :   0.8120 B( 12-C , 16-C ) :   0.9074 B( 16-C , 17-C ) :   0.9106
B( 16-C , 20-O ) :   0.8431 B( 16-C , 21-H ) :   0.9244 B( 17-C , 18-C ) :   0.9117
B( 17-C , 22-O ) :   0.8904 B( 17-C , 23-H ) :   0.9248 B( 18-C , 19-C ) :   0.9426
B( 18-C , 24-H ) :   0.9382 B( 18-C , 25-H ) :   0.9352 B( 19-C , 20-O ) :   0.8436
B( 19-C , 26-H ) :   0.9353 B( 19-C , 27-H ) :   0.9378 B( 22-O , 28-H ) :   0.7956

FINAL SINGLE POINT ENERGY      -652.870336156772

DIPOLE MOMENT
-------------
                                X             Y             Z
Electronic contribution:     -3.22554      -1.09938       1.00363
Nuclear contribution   :      3.88510       1.02358      -1.26221
                        -----------------------------------------
Total Dipole Moment    :      0.65956      -0.07580      -0.25858
                        -----------------------------------------
Magnitude (a.u.)       :      0.71248
Magnitude (Debye)      :      1.81099

Rotational constants in cm-1:     0.060383     0.012077     0.011348
Rotational constants in MHz :  1810.222617   362.057641   340.216881

                             ****ORCA TERMINATED NORMALLY****
TOTAL RUN TIME: 0 days 1 hours 18 minutes 50 seconds 850 msec
