                         Program Version 4.2.0 -  RELEASE  -
|  1> # Test redundant internal optimization
|  2> #
|  3> ! RKS B3LYP  Opt TightSCF SmallPrint
|  4>
|  5> %basis
|  6>         Basis "6-31G"
|  7> end
|  8>
|  9> %geom
| 10> Constraints
| 11> { D 4  0  15  12  150.0   C } # D for Dihedral angle
| 12> { D 0  15  12  16  135.0   C } # D for Dihedral angle
| 13> { D 0  4  3  2   C } # D for Dihedral angle
| 14> { D 4  3  2  1   C } # D for Dihedral angle
| 15> { D 3  2  1  0   C } # D for Dihedral angle
| 16> { D 2  1  0  4   C } # D for Dihedral angle
| 17> { D 1  0  4  3   C } # D for Dihedral angle
| 18> { D 16  20  19  18   C } # D for Dihedral angle
| 19> { D 20  19  18  17   C } # D for Dihedral angle
| 20> { D 19  18  17  16   C } # D for Dihedral angle
| 21> { D 18  17  16  20   C } # D for Dihedral angle
| 22> { D 17  16  20  19   C } # D for Dihedral angle
| 23> { D 15  12  16  20   C } # D for Dihedral angle
| 24> end
| 25> end
| 26>
| 27>
| 28> #%pal
| 29> #nprocs 8
| 30> #end
| 31>
| 32> * xyz 0 1
| 33> C  -21.048   26.222   46.251
| 34> C  -20.361   27.558   45.944
| 35> C  -20.329   28.222   47.341
| 36> C  -20.110   27.022   48.296
| 37> O  -20.473   25.807   47.535
| 38> H  -20.833   25.428   45.533
| 39> H  -19.344   27.382   45.576
| 40> H  -20.898   28.157   45.201
| 41> H  -19.543   28.978   47.434
| 42> H  -21.289   28.710   47.548
| 43> H  -20.733   27.082   49.195
| 44> H  -19.064   26.913   48.597
| 45> C  -23.210   27.459   45.431
| 46> H  -23.455   28.357   46.011
| 47> H  -22.496   27.741   44.646
| 48> O  -22.586   26.394   46.375
| 49> C  -24.505   26.959   44.735
| 50> C  -25.621   26.700   45.754
| 51> C  -26.136   28.134   46.025
| 52> C  -25.990   28.826   44.646
| 53> O  -25.051   28.000   43.858
| 54> H  -24.264   26.103   44.102
| 55> O  -26.736   25.829   45.113
| 56> H  -25.269   26.197   46.660
| 57> H  -27.166   28.152   46.394
| 58> H  -25.503   28.626   46.773
| 59> H  -25.593   29.843   44.728
| 60> H  -26.933   28.859   44.094
| 61> H  -27.106   26.314   44.202
| 62> *
| 63>
| 64>                          ****END OF INPUT****
 Total Charge           Charge          ....    0
 Multiplicity           Mult            ....    1
 Number of Electrons    NEL             ....  102
FINAL SINGLE POINT ENERGY      -652.828235093733
FINAL SINGLE POINT ENERGY      -652.851698409684
FINAL SINGLE POINT ENERGY      -652.855619435008
FINAL SINGLE POINT ENERGY      -652.856880795349
FINAL SINGLE POINT ENERGY      -652.857013410204
FINAL SINGLE POINT ENERGY      -652.857041653866
                    ***********************HURRAY********************

CARTESIAN COORDINATES (ANGSTROEM)
---------------------------------
  C    -21.157219   26.292704   46.177407
  C    -20.245689   27.493793   45.925111
  C    -20.248325   28.198674   47.306950
  C    -20.316374   27.010798   48.290145
  O    -20.790535   25.852904   47.492772
  H    -21.007968   25.443587   45.506231
  H    -19.244064   27.119163   45.685165
  H    -20.559928   28.147510   45.108771
  H    -19.359638   28.818086   47.459972
  H    -21.131348   28.838840   47.404643
  H    -21.011876   27.174812   49.117056
  H    -19.336501   26.734761   48.690150
  C    -23.171336   27.628375   45.358069
  H    -23.370065   28.533869   45.946404
  H    -22.518145   27.903254   44.522944
  O    -22.585577   26.608793   46.213891
  C    -24.460054   27.051971   44.770017
  C    -25.546816   26.704138   45.797014
  C    -26.171785   28.094571   46.071985
  C    -26.091263   28.799582   44.694496
  O    -25.090607   28.047925   43.895258
  H    -24.217270   26.183686   44.151193
  O    -26.518696   25.781373   45.228451
  H    -25.150475   26.211062   46.682820
  H    -27.196180   27.992718   46.438267
  H    -25.589267   28.630242   46.829632
  H    -25.775211   29.845098   44.767432
  H    -27.037339   28.759191   44.145702
  H    -26.745450   26.072520   44.320052

 Multiplicity           Mult            ....    1
 Number of Electrons    NEL             ....  102
 Basis Dimension        Dim             ....  149

ORBITAL ENERGIES
----------------

  NO   OCC          E(Eh)            E(eV)
   0   2.0000     -19.144898      -520.9592
   1   2.0000     -19.142138      -520.8840
   2   2.0000     -19.141832      -520.8757
   3   2.0000     -19.132823      -520.6306
   4   2.0000     -10.283957      -279.8407
   5   2.0000     -10.234450      -278.4936
   6   2.0000     -10.232932      -278.4522
   7   2.0000     -10.231833      -278.4223
   8   2.0000     -10.231677      -278.4181
   9   2.0000     -10.228610      -278.3346
  10   2.0000     -10.194843      -277.4158
  11   2.0000     -10.194308      -277.4012
  12   2.0000     -10.186403      -277.1861
  13   2.0000      -1.054220       -28.6868
  14   2.0000      -1.034932       -28.1619
  15   2.0000      -1.002307       -27.2741
  16   2.0000      -0.994776       -27.0692
  17   2.0000      -0.792497       -21.5649
  18   2.0000      -0.779608       -21.2142
  19   2.0000      -0.768856       -20.9216
  20   2.0000      -0.734011       -19.9734
  21   2.0000      -0.679160       -18.4809
  22   2.0000      -0.606612       -16.5068
  23   2.0000      -0.602463       -16.3939
  24   2.0000      -0.597125       -16.2486
  25   2.0000      -0.574608       -15.6359
  26   2.0000      -0.521619       -14.1940
  27   2.0000      -0.518271       -14.1029
  28   2.0000      -0.502282       -13.6678
  29   2.0000      -0.492756       -13.4086
  30   2.0000      -0.473370       -12.8811
  31   2.0000      -0.457997       -12.4627
  32   2.0000      -0.453627       -12.3438
  33   2.0000      -0.439855       -11.9691
  34   2.0000      -0.428437       -11.6584
  35   2.0000      -0.411055       -11.1854
  36   2.0000      -0.408124       -11.1056
  37   2.0000      -0.391015       -10.6401
  38   2.0000      -0.382882       -10.4188
  39   2.0000      -0.367733       -10.0065
  40   2.0000      -0.362408        -9.8616
  41   2.0000      -0.359997        -9.7960
  42   2.0000      -0.354900        -9.6573
  43   2.0000      -0.331114        -9.0101
  44   2.0000      -0.316260        -8.6059
  45   2.0000      -0.306570        -8.3422
  46   2.0000      -0.296156        -8.0588
  47   2.0000      -0.273074        -7.4307
  48   2.0000      -0.265345        -7.2204
  49   2.0000      -0.257402        -7.0043
  50   2.0000      -0.241421        -6.5694
  51   0.0000       0.065244         1.7754
  52   0.0000       0.068626         1.8674
  53   0.0000       0.094371         2.5680
  54   0.0000       0.099793         2.7155
  55   0.0000       0.103113         2.8059

MULLIKEN ATOMIC CHARGES
-----------------------
   0 C :    0.315512
   1 C :   -0.293373
   2 C :   -0.302684
   3 C :   -0.000079
   4 O :   -0.495172
   5 H :    0.152890
   6 H :    0.153860
   7 H :    0.147490
   8 H :    0.145880
   9 H :    0.153349
  10 H :    0.152743
  11 H :    0.144722
  12 C :   -0.012866
  13 H :    0.129838
  14 H :    0.144305
  15 O :   -0.529779
  16 C :    0.061988
  17 C :    0.092183
  18 C :   -0.300632
  19 C :   -0.033973
  20 O :   -0.530062
  21 H :    0.162092
  22 O :   -0.603262
  23 H :    0.182683
  24 H :    0.162224
  25 H :    0.144943
  26 H :    0.145828
  27 H :    0.147557
  28 H :    0.361795
Sum of atomic charges:   -0.0000000

LOEWDIN ATOMIC CHARGES
----------------------
   0 C :    0.186164
   1 C :   -0.233510
   2 C :   -0.217204
   3 C :   -0.026598
   4 O :   -0.303468
   5 H :    0.103467
   6 H :    0.120558
   7 H :    0.115577
   8 H :    0.116315
   9 H :    0.112517
  10 H :    0.108573
  11 H :    0.104153
  12 C :   -0.041017
  13 H :    0.093704
  14 H :    0.103877
  15 O :   -0.342294
  16 C :    0.014739
  17 C :    0.039450
  18 C :   -0.242075
  19 C :   -0.039420
  20 O :   -0.334107
  21 H :    0.117023
  22 O :   -0.414919
  23 H :    0.131517
  24 H :    0.126927
  25 H :    0.113498
  26 H :    0.103087
  27 H :    0.102711
  28 H :    0.280754

  Mayer bond orders larger than 0.100000
B(  0-C ,  1-C ) :   0.9333 B(  0-C ,  4-O ) :   0.9363 B(  0-C ,  5-H ) :   0.9253
B(  0-C , 15-O ) :   0.8347 B(  1-C ,  2-C ) :   0.9480 B(  1-C ,  6-H ) :   0.9336
B(  1-C ,  7-H ) :   0.9268 B(  2-C ,  3-C ) :   0.9539 B(  2-C ,  8-H ) :   0.9452
B(  2-C ,  9-H ) :   0.9458 B(  3-C ,  4-O ) :   0.8377 B(  3-C , 10-H ) :   0.9346
B(  3-C , 11-H ) :   0.9394 B( 12-C , 13-H ) :   0.9250 B( 12-C , 14-H ) :   0.9122
B( 12-C , 15-O ) :   0.8338 B( 12-C , 16-C ) :   0.8889 B( 16-C , 17-C ) :   0.9160
B( 16-C , 20-O ) :   0.8412 B( 16-C , 21-H ) :   0.9265 B( 17-C , 18-C ) :   0.9131
B( 17-C , 22-O ) :   0.8909 B( 17-C , 23-H ) :   0.9223 B( 18-C , 19-C ) :   0.9412
B( 18-C , 24-H ) :   0.9378 B( 18-C , 25-H ) :   0.9349 B( 19-C , 20-O ) :   0.8423
B( 19-C , 26-H ) :   0.9355 B( 19-C , 27-H ) :   0.9377 B( 22-O , 28-H ) :   0.7962

FINAL SINGLE POINT ENERGY      -652.857044411642

DIPOLE MOMENT
-------------
                                X             Y             Z
Electronic contribution:     -2.39336      -5.38818      -1.84063
Nuclear contribution   :      3.10074       6.97809       1.77052
                        -----------------------------------------
Total Dipole Moment    :      0.70738       1.58991      -0.07012
                        -----------------------------------------
Magnitude (a.u.)       :      1.74158
Magnitude (Debye)      :      4.42675

Rotational constants in cm-1:     0.057332     0.012200     0.011574
Rotational constants in MHz :  1718.756285   365.759923   346.975355

                             ****ORCA TERMINATED NORMALLY****
TOTAL RUN TIME: 0 days 0 hours 44 minutes 22 seconds 44 msec
