                         Program Version 4.2.0 -  RELEASE  -
|  1> # Test redundant internal optimization
|  2> #
|  3> ! RKS B3LYP  Opt TightSCF SmallPrint
|  4>
|  5> %basis
|  6>         Basis "6-31G"
|  7> end
|  8>
|  9> %geom
| 10> Constraints
| 11> { D 4  0  15  12  60.0   C } # D for Dihedral angle
| 12> { D 0  15  12  16  165.0   C } # D for Dihedral angle
| 13> { D 0  4  3  2   C } # D for Dihedral angle
| 14> { D 4  3  2  1   C } # D for Dihedral angle
| 15> { D 3  2  1  0   C } # D for Dihedral angle
| 16> { D 2  1  0  4   C } # D for Dihedral angle
| 17> { D 1  0  4  3   C } # D for Dihedral angle
| 18> { D 16  20  19  18   C } # D for Dihedral angle
| 19> { D 20  19  18  17   C } # D for Dihedral angle
| 20> { D 19  18  17  16   C } # D for Dihedral angle
| 21> { D 18  17  16  20   C } # D for Dihedral angle
| 22> { D 17  16  20  19   C } # D for Dihedral angle
| 23> { D 15  12  16  20   C } # D for Dihedral angle
| 24> end
| 25> end
| 26>
| 27>
| 28> #%pal
| 29> #nprocs 8
| 30> #end
| 31>
| 32> * xyz 0 1
| 33> C  -21.048   26.222   46.251
| 34> C  -20.361   27.558   45.944
| 35> C  -20.329   28.222   47.341
| 36> C  -20.110   27.022   48.296
| 37> O  -20.473   25.807   47.535
| 38> H  -20.833   25.428   45.533
| 39> H  -19.344   27.382   45.576
| 40> H  -20.898   28.157   45.201
| 41> H  -19.543   28.978   47.434
| 42> H  -21.289   28.710   47.548
| 43> H  -20.733   27.082   49.195
| 44> H  -19.064   26.913   48.597
| 45> C  -23.051   27.452   47.413
| 46> H  -22.917   27.049   48.425
| 47> H  -22.449   28.366   47.326
| 48> O  -22.586   26.394   46.375
| 49> C  -24.543   27.849   47.239
| 50> C  -24.935   28.975   48.202
| 51> C  -24.360   30.218   47.482
| 52> C  -24.561   29.880   45.984
| 53> O  -24.770   28.418   45.907
| 54> H  -25.163   26.953   47.315
| 55> H  -26.026   29.043   48.279
| 56> O  -24.355   28.786   49.631
| 57> H  -24.863   31.147   47.771
| 58> H  -23.294   30.328   47.714
| 59> H  -23.692   30.151   45.373
| 60> H  -25.452   30.356   45.564
| 61> H  -23.263   28.716   49.580
| 62> *
| 63>
| 64>                          ****END OF INPUT****
 Total Charge           Charge          ....    0
 Multiplicity           Mult            ....    1
 Number of Electrons    NEL             ....  102
FINAL SINGLE POINT ENERGY      -652.794859345355
FINAL SINGLE POINT ENERGY      -652.827211273018
FINAL SINGLE POINT ENERGY      -652.845930007200
FINAL SINGLE POINT ENERGY      -652.849357360676
FINAL SINGLE POINT ENERGY      -652.849841014866
FINAL SINGLE POINT ENERGY      -652.849971746830
FINAL SINGLE POINT ENERGY      -652.849990756495
FINAL SINGLE POINT ENERGY      -652.849992716162
                    ***********************HURRAY********************

CARTESIAN COORDINATES (ANGSTROEM)
---------------------------------
  C    -21.176946   26.337736   46.387248
  C    -20.253624   27.473154   45.916394
  C    -19.805181   28.110709   47.266349
  C    -19.714898   26.876751   48.202333
  O    -20.496392   25.801498   47.549006
  H    -21.225509   25.517507   45.669183
  H    -19.397572   27.033965   45.394166
  H    -20.759742   28.172330   45.245991
  H    -18.839902   28.620871   47.182798
  H    -20.531097   28.844548   47.623588
  H    -20.124197   27.060766   49.200714
  H    -18.689220   26.509417   48.302040
  C    -23.046782   27.576726   47.562477
  H    -22.995324   27.138198   48.567565
  H    -22.456986   28.501438   47.543120
  O    -22.571300   26.628853   46.573952
  C    -24.499067   27.888620   47.204728
  C    -25.171151   28.919245   48.128047
  C    -24.691663   30.265896   47.507307
  C    -24.651483   29.947989   45.997029
  O    -24.635590   28.467866   45.871888
  H    -25.047575   26.943239   47.173294
  H    -26.255780   28.825000   48.042551
  O    -24.903364   28.765417   49.542477
  H    -25.360059   31.095331   47.752393
  H    -23.693553   30.511117   47.895072
  H    -23.768907   30.359991   45.496755
  H    -25.545968   30.303116   45.476137
  H    -23.996168   29.064707   49.756396

 Multiplicity           Mult            ....    1
 Number of Electrons    NEL             ....  102
 Basis Dimension        Dim             ....  149

ORBITAL ENERGIES
----------------

  NO   OCC          E(Eh)            E(eV)
   0   2.0000     -19.152383      -521.1628
   1   2.0000     -19.141454      -520.8654
   2   2.0000     -19.140508      -520.8397
   3   2.0000     -19.137755      -520.7648
   4   2.0000     -10.276235      -279.6306
   5   2.0000     -10.247132      -278.8386
   6   2.0000     -10.232403      -278.4378
   7   2.0000     -10.232113      -278.4299
   8   2.0000     -10.231243      -278.4063
   9   2.0000     -10.230528      -278.3868
  10   2.0000     -10.198430      -277.5134
  11   2.0000     -10.195890      -277.4443
  12   2.0000     -10.189862      -277.2803
  13   2.0000      -1.051478       -28.6122
  14   2.0000      -1.035250       -28.1706
  15   2.0000      -1.017164       -27.6784
  16   2.0000      -0.994733       -27.0681
  17   2.0000      -0.789086       -21.4721
  18   2.0000      -0.785179       -21.3658
  19   2.0000      -0.773831       -21.0570
  20   2.0000      -0.733188       -19.9510
  21   2.0000      -0.684829       -18.6351
  22   2.0000      -0.613741       -16.7007
  23   2.0000      -0.605571       -16.4784
  24   2.0000      -0.597982       -16.2719
  25   2.0000      -0.573624       -15.6091
  26   2.0000      -0.528434       -14.3794
  27   2.0000      -0.507550       -13.8111
  28   2.0000      -0.505128       -13.7452
  29   2.0000      -0.495576       -13.4853
  30   2.0000      -0.472630       -12.8609
  31   2.0000      -0.462761       -12.5924
  32   2.0000      -0.449103       -12.2207
  33   2.0000      -0.434317       -11.8184
  34   2.0000      -0.426747       -11.6124
  35   2.0000      -0.419959       -11.4277
  36   2.0000      -0.412212       -11.2168
  37   2.0000      -0.403340       -10.9754
  38   2.0000      -0.382891       -10.4190
  39   2.0000      -0.378161       -10.2903
  40   2.0000      -0.362064        -9.8523
  41   2.0000      -0.358640        -9.7591
  42   2.0000      -0.347077        -9.4444
  43   2.0000      -0.333203        -9.0669
  44   2.0000      -0.318408        -8.6643
  45   2.0000      -0.314568        -8.5598
  46   2.0000      -0.303909        -8.2698
  47   2.0000      -0.272722        -7.4211
  48   2.0000      -0.263427        -7.1682
  49   2.0000      -0.250039        -6.8039
  50   2.0000      -0.242874        -6.6089
  51   0.0000       0.042495         1.1564
  52   0.0000       0.063488         1.7276
  53   0.0000       0.083050         2.2599
  54   0.0000       0.090550         2.4640
  55   0.0000       0.103154         2.8070

MULLIKEN ATOMIC CHARGES
-----------------------
   0 C :    0.302761
   1 C :   -0.275274
   2 C :   -0.314560
   3 C :   -0.009889
   4 O :   -0.507198
   5 H :    0.169231
   6 H :    0.155347
   7 H :    0.156980
   8 H :    0.145021
   9 H :    0.139329
  10 H :    0.139947
  11 H :    0.149250
  12 C :   -0.011300
  13 H :    0.147232
  14 H :    0.111326
  15 O :   -0.511062
  16 C :    0.091534
  17 C :    0.076056
  18 C :   -0.319043
  19 C :   -0.012003
  20 O :   -0.502150
  21 H :    0.171220
  22 H :    0.173964
  23 O :   -0.597668
  24 H :    0.159261
  25 H :    0.125007
  26 H :    0.140554
  27 H :    0.151776
  28 H :    0.354352
Sum of atomic charges:   -0.0000000

LOEWDIN ATOMIC CHARGES
----------------------
   0 C :    0.175946
   1 C :   -0.228722
   2 C :   -0.224116
   3 C :   -0.034257
   4 O :   -0.322748
   5 H :    0.115157
   6 H :    0.121930
   7 H :    0.122668
   8 H :    0.114924
   9 H :    0.102815
  10 H :    0.099924
  11 H :    0.105303
  12 C :   -0.052274
  13 H :    0.106176
  14 H :    0.083519
  15 O :   -0.305293
  16 C :    0.022614
  17 C :    0.033899
  18 C :   -0.241575
  19 C :   -0.031245
  20 O :   -0.311450
  21 H :    0.123320
  22 H :    0.122008
  23 O :   -0.406297
  24 H :    0.123219
  25 H :    0.100105
  26 H :    0.100687
  27 H :    0.106907
  28 H :    0.276856

  Mayer bond orders larger than 0.100000
B(  0-C ,  1-C ) :   0.9152 B(  0-C ,  4-O ) :   0.8927 B(  0-C ,  5-H ) :   0.9360
B(  0-C , 15-O ) :   0.9065 B(  1-C ,  2-C ) :   0.9562 B(  1-C ,  6-H ) :   0.9350
B(  1-C ,  7-H ) :   0.9358 B(  2-C ,  3-C ) :   0.9471 B(  2-C ,  8-H ) :   0.9449
B(  2-C ,  9-H ) :   0.9396 B(  3-C ,  4-O ) :   0.8498 B(  3-C , 10-H ) :   0.9339
B(  3-C , 11-H ) :   0.9385 B( 12-C , 13-H ) :   0.9056 B( 12-C , 14-H ) :   0.9024
B( 12-C , 15-O ) :   0.8422 B( 12-C , 16-C ) :   0.9063 B( 16-C , 17-C ) :   0.8753
B( 16-C , 20-O ) :   0.8714 B( 16-C , 21-H ) :   0.9268 B( 17-C , 18-C ) :   0.9233
B( 17-C , 22-H ) :   0.9317 B( 17-C , 23-O ) :   0.8980 B( 18-C , 19-C ) :   0.9372
B( 18-C , 24-H ) :   0.9416 B( 18-C , 25-H ) :   0.9412 B( 19-C , 20-O ) :   0.8526
B( 19-C , 26-H ) :   0.9319 B( 19-C , 27-H ) :   0.9372 B( 23-O , 28-H ) :   0.7989

FINAL SINGLE POINT ENERGY      -652.849991370432

DIPOLE MOMENT
-------------
                                X             Y             Z
Electronic contribution:     -3.94840      -5.44010      -0.43542
Nuclear contribution   :      4.91703       7.18984       0.63231
                        -----------------------------------------
Total Dipole Moment    :      0.96863       1.74974       0.19689
                        -----------------------------------------
Magnitude (a.u.)       :      2.00962
Magnitude (Debye)      :      5.10806

Rotational constants in cm-1:     0.046262     0.014489     0.013565
Rotational constants in MHz :  1386.905233   434.380356   406.675486

                             ****ORCA TERMINATED NORMALLY****
TOTAL RUN TIME: 0 days 3 hours 8 minutes 16 seconds 505 msec
