                         Program Version 4.2.0 -  RELEASE  -
|  1> # Test redundant internal optimization
|  2> #
|  3> ! RKS B3LYP  Opt TightSCF SmallPrint
|  4>
|  5> %basis
|  6>         Basis "6-31G"
|  7> end
|  8>
|  9> %geom
| 10> Constraints
| 11> { D 4  0  15  12  195.0   C } # D for Dihedral angle
| 12> { D 0  15  12  16  270.0   C } # D for Dihedral angle
| 13> { D 0  4  3  2   C } # D for Dihedral angle
| 14> { D 4  3  2  1   C } # D for Dihedral angle
| 15> { D 3  2  1  0   C } # D for Dihedral angle
| 16> { D 2  1  0  4   C } # D for Dihedral angle
| 17> { D 1  0  4  3   C } # D for Dihedral angle
| 18> { D 16  20  19  18   C } # D for Dihedral angle
| 19> { D 20  19  18  17   C } # D for Dihedral angle
| 20> { D 19  18  17  16   C } # D for Dihedral angle
| 21> { D 18  17  16  20   C } # D for Dihedral angle
| 22> { D 17  16  20  19   C } # D for Dihedral angle
| 23> { D 15  12  16  20   C } # D for Dihedral angle
| 24> end
| 25> end
| 26>
| 27>
| 28> #%pal
| 29> #nprocs 8
| 30> #end
| 31>
| 32> * xyz 0 1
| 33> C  -21.048   26.222   46.251
| 34> C  -20.361   27.558   45.944
| 35> C  -20.329   28.222   47.341
| 36> C  -20.110   27.022   48.296
| 37> O  -20.473   25.807   47.535
| 38> H  -20.833   25.428   45.533
| 39> H  -19.344   27.382   45.576
| 40> H  -20.898   28.157   45.201
| 41> H  -19.543   28.978   47.434
| 42> H  -21.289   28.710   47.548
| 43> H  -20.733   27.082   49.195
| 44> H  -19.064   26.913   48.597
| 45> C  -23.353   26.472   45.026
| 46> H  -22.820   25.880   44.272
| 47> H  -24.364   26.059   45.135
| 48> O  -22.586   26.394   46.375
| 49> C  -23.490   27.927   44.497
| 50> C  -24.349   27.978   43.229
| 51> C  -25.779   27.892   43.815
| 52> C  -25.663   28.679   45.143
| 53> O  -24.221   28.756   45.462
| 54> H  -22.496   28.363   44.388
| 55> O  -24.138   29.332   42.497
| 56> H  -24.128   27.167   42.526
| 57> H  -26.538   28.311   43.146
| 58> H  -26.044   26.846   44.008
| 59> H  -26.187   28.187   45.970
| 60> H  -26.028   29.706   45.054
| 61> H  -24.354   30.159   43.182
| 62> *
| 63>
| 64>                          ****END OF INPUT****
 Total Charge           Charge          ....    0
 Multiplicity           Mult            ....    1
 Number of Electrons    NEL             ....  102
FINAL SINGLE POINT ENERGY      -652.827940830324
FINAL SINGLE POINT ENERGY      -652.850829311533
FINAL SINGLE POINT ENERGY      -652.855378438826
FINAL SINGLE POINT ENERGY      -652.856101540737
FINAL SINGLE POINT ENERGY      -652.856216176061
FINAL SINGLE POINT ENERGY      -652.856227702152
                    ***********************HURRAY********************

CARTESIAN COORDINATES (ANGSTROEM)
---------------------------------
  C    -21.031187   26.259592   46.145715
  C    -20.309915   27.587464   45.920495
  C    -20.385301   28.239212   47.325144
  C    -20.259127   27.024859   48.267618
  O    -20.577535   25.836016   47.436587
  H    -20.792087   25.470184   45.423267
  H    -19.268446   27.377429   45.646055
  H    -20.747187   28.209077   45.138937
  H    -19.596920   28.980016   47.487018
  H    -21.357300   28.725981   47.447920
  H    -20.957172   27.056458   49.107546
  H    -19.241819   26.880157   48.643441
  C    -23.265452   26.495688   45.036231
  H    -22.807053   25.887450   44.237446
  H    -24.227566   26.043114   45.294920
  O    -22.480516   26.399008   46.251610
  C    -23.483672   27.919626   44.513095
  C    -24.376250   27.968828   43.264215
  C    -25.797511   27.897752   43.886871
  C    -25.638785   28.694585   45.206871
  O    -24.184987   28.760233   45.487028
  H    -22.529560   28.410145   44.311611
  O    -24.169336   29.206033   42.527694
  H    -24.179021   27.173051   42.544832
  H    -26.536582   28.333521   43.209816
  H    -26.078275   26.856423   44.078393
  H    -26.142737   28.217730   46.052732
  H    -25.998560   29.724749   45.122078
  H    -24.143142   29.954617   43.160815

 Multiplicity           Mult            ....    1
 Number of Electrons    NEL             ....  102
 Basis Dimension        Dim             ....  149

ORBITAL ENERGIES
----------------

  NO   OCC          E(Eh)            E(eV)
   0   2.0000     -19.145058      -520.9635
   1   2.0000     -19.144519      -520.9489
   2   2.0000     -19.137583      -520.7601
   3   2.0000     -19.136870      -520.7407
   4   2.0000     -10.278540      -279.6933
   5   2.0000     -10.248020      -278.8628
   6   2.0000     -10.237901      -278.5874
   7   2.0000     -10.235589      -278.5245
   8   2.0000     -10.234241      -278.4879
   9   2.0000     -10.220638      -278.1177
  10   2.0000     -10.194356      -277.4025
  11   2.0000     -10.184632      -277.1379
  12   2.0000     -10.181224      -277.0452
  13   2.0000      -1.051473       -28.6120
  14   2.0000      -1.040400       -28.3107
  15   2.0000      -1.010775       -27.5046
  16   2.0000      -0.990558       -26.9545
  17   2.0000      -0.789076       -21.4718
  18   2.0000      -0.782131       -21.2829
  19   2.0000      -0.769898       -20.9500
  20   2.0000      -0.733021       -19.9465
  21   2.0000      -0.676782       -18.4162
  22   2.0000      -0.609417       -16.5831
  23   2.0000      -0.601279       -16.3616
  24   2.0000      -0.596055       -16.2195
  25   2.0000      -0.580340       -15.7918
  26   2.0000      -0.525257       -14.2930
  27   2.0000      -0.513924       -13.9846
  28   2.0000      -0.497239       -13.5306
  29   2.0000      -0.491560       -13.3760
  30   2.0000      -0.473299       -12.8791
  31   2.0000      -0.456249       -12.4152
  32   2.0000      -0.453450       -12.3390
  33   2.0000      -0.448338       -12.1999
  34   2.0000      -0.427044       -11.6205
  35   2.0000      -0.413203       -11.2438
  36   2.0000      -0.401540       -10.9265
  37   2.0000      -0.397194       -10.8082
  38   2.0000      -0.376497       -10.2450
  39   2.0000      -0.373901       -10.1744
  40   2.0000      -0.364430        -9.9167
  41   2.0000      -0.352900        -9.6029
  42   2.0000      -0.349201        -9.5023
  43   2.0000      -0.336159        -9.1473
  44   2.0000      -0.313341        -8.5264
  45   2.0000      -0.308183        -8.3861
  46   2.0000      -0.298617        -8.1258
  47   2.0000      -0.275867        -7.5067
  48   2.0000      -0.266045        -7.2394
  49   2.0000      -0.255267        -6.9462
  50   2.0000      -0.237966        -6.4754
  51   0.0000       0.061835         1.6826
  52   0.0000       0.082848         2.2544
  53   0.0000       0.084994         2.3128
  54   0.0000       0.085975         2.3395
  55   0.0000       0.101397         2.7592

MULLIKEN ATOMIC CHARGES
-----------------------
   0 C :    0.296606
   1 C :   -0.274908
   2 C :   -0.304292
   3 C :    0.000397
   4 O :   -0.501166
   5 H :    0.135834
   6 H :    0.144192
   7 H :    0.143471
   8 H :    0.139669
   9 H :    0.178486
  10 H :    0.155933
  11 H :    0.139308
  12 C :   -0.016023
  13 H :    0.119048
  14 H :    0.155382
  15 O :   -0.494180
  16 C :    0.056999
  17 C :    0.074875
  18 C :   -0.300490
  19 C :   -0.028959
  20 O :   -0.512705
  21 H :    0.161179
  22 O :   -0.599550
  23 H :    0.152708
  24 H :    0.164810
  25 H :    0.147899
  26 H :    0.153662
  27 H :    0.146704
  28 H :    0.365110
Sum of atomic charges:   -0.0000000

LOEWDIN ATOMIC CHARGES
----------------------
   0 C :    0.181633
   1 C :   -0.231375
   2 C :   -0.218049
   3 C :   -0.024344
   4 O :   -0.302584
   5 H :    0.094170
   6 H :    0.113787
   7 H :    0.112008
   8 H :    0.113492
   9 H :    0.126562
  10 H :    0.110374
  11 H :    0.100986
  12 C :   -0.042855
  13 H :    0.092525
  14 H :    0.113947
  15 O :   -0.322183
  16 C :    0.003055
  17 C :    0.034431
  18 C :   -0.242140
  19 C :   -0.037490
  20 O :   -0.325066
  21 H :    0.110636
  22 O :   -0.413727
  23 H :    0.115624
  24 H :    0.127563
  25 H :    0.114602
  26 H :    0.108069
  27 H :    0.102763
  28 H :    0.283583

  Mayer bond orders larger than 0.100000
B(  0-C ,  1-C ) :   0.9289 B(  0-C ,  4-O ) :   0.9404 B(  0-C ,  5-H ) :   0.9180
B(  0-C , 15-O ) :   0.8385 B(  1-C ,  2-C ) :   0.9529 B(  1-C ,  6-H ) :   0.9327
B(  1-C ,  7-H ) :   0.9249 B(  2-C ,  3-C ) :   0.9555 B(  2-C ,  8-H ) :   0.9449
B(  2-C ,  9-H ) :   0.9382 B(  3-C ,  4-O ) :   0.8324 B(  3-C , 10-H ) :   0.9345
B(  3-C , 11-H ) :   0.9399 B( 12-C , 13-H ) :   0.9104 B( 12-C , 14-H ) :   0.9363
B( 12-C , 15-O ) :   0.8749 B( 12-C , 16-C ) :   0.8729 B( 16-C , 17-C ) :   0.8937
B( 16-C , 20-O ) :   0.8659 B( 16-C , 21-H ) :   0.9124 B( 17-C , 18-C ) :   0.9122
B( 17-C , 22-O ) :   0.8950 B( 17-C , 23-H ) :   0.9323 B( 18-C , 19-C ) :   0.9411
B( 18-C , 24-H ) :   0.9371 B( 18-C , 25-H ) :   0.9330 B( 19-C , 20-O ) :   0.8454
B( 19-C , 26-H ) :   0.9335 B( 19-C , 27-H ) :   0.9374 B( 22-O , 28-H ) :   0.7939

FINAL SINGLE POINT ENERGY      -652.856230334258

DIPOLE MOMENT
-------------
                                X             Y             Z
Electronic contribution:     -0.05585      -1.58802       0.18581
Nuclear contribution   :     -0.19031       2.00980      -0.62493
                        -----------------------------------------
Total Dipole Moment    :     -0.24616       0.42178      -0.43912
                        -----------------------------------------
Magnitude (a.u.)       :      0.65675
Magnitude (Debye)      :      1.66933

Rotational constants in cm-1:     0.058753     0.012652     0.012508
Rotational constants in MHz :  1761.356136   379.301602   374.984363

                             ****ORCA TERMINATED NORMALLY****
TOTAL RUN TIME: 0 days 0 hours 59 minutes 56 seconds 602 msec
