                         Program Version 4.2.0 -  RELEASE  -
|  1> # Test redundant internal optimization
|  2> #
|  3> ! RKS B3LYP  Opt TightSCF SmallPrint
|  4>
|  5> %basis
|  6>         Basis "6-31G"
|  7> end
|  8>
|  9> %geom
| 10> Constraints
| 11> { D 4  0  15  12  315.0   C } # D for Dihedral angle
| 12> { D 0  15  12  16  180.0   C } # D for Dihedral angle
| 13> { D 0  4  3  2   C } # D for Dihedral angle
| 14> { D 4  3  2  1   C } # D for Dihedral angle
| 15> { D 3  2  1  0   C } # D for Dihedral angle
| 16> { D 2  1  0  4   C } # D for Dihedral angle
| 17> { D 1  0  4  3   C } # D for Dihedral angle
| 18> { D 16  20  19  18   C } # D for Dihedral angle
| 19> { D 20  19  18  17   C } # D for Dihedral angle
| 20> { D 19  18  17  16   C } # D for Dihedral angle
| 21> { D 18  17  16  20   C } # D for Dihedral angle
| 22> { D 17  16  20  19   C } # D for Dihedral angle
| 23> { D 15  12  16  20   C } # D for Dihedral angle
| 24> end
| 25> end
| 26>
| 27>
| 28> #%pal
| 29> #nprocs 8
| 30> #end
| 31>
| 32> * xyz 0 1
| 33> C  -21.048   26.222   46.251
| 34> C  -20.361   27.558   45.944
| 35> C  -20.329   28.222   47.341
| 36> C  -20.110   27.022   48.296
| 37> O  -20.473   25.807   47.535
| 38> H  -20.833   25.428   45.533
| 39> H  -19.344   27.382   45.576
| 40> H  -20.898   28.157   45.201
| 41> H  -19.543   28.978   47.434
| 42> H  -21.289   28.710   47.548
| 43> H  -20.733   27.082   49.195
| 44> H  -19.064   26.913   48.597
| 45> C  -23.319   25.255   47.135
| 46> H  -23.142   24.303   46.618
| 47> H  -22.933   25.166   48.159
| 48> O  -22.586   26.394   46.375
| 49> C  -24.853   25.483   47.226
| 50> C  -25.177   26.842   47.858
| 51> C  -24.949   27.804   46.668
| 52> C  -25.422   26.973   45.449
| 53> O  -25.440   25.560   45.884
| 54> H  -25.313   24.630   47.728
| 55> H  -26.224   26.866   48.180
| 56> O  -24.281   27.175   49.082
| 57> H  -25.499   28.745   46.770
| 58> H  -23.883   28.047   46.579
| 59> H  -24.753   27.075   44.587
| 60> H  -26.439   27.228   45.139
| 61> H  -23.227   27.156   48.782
| 62> *
| 63>
| 64>                          ****END OF INPUT****
 Total Charge           Charge          ....    0
 Multiplicity           Mult            ....    1
 Number of Electrons    NEL             ....  102
FINAL SINGLE POINT ENERGY      -652.837280402953
FINAL SINGLE POINT ENERGY      -652.861275598800
FINAL SINGLE POINT ENERGY      -652.865716750437
FINAL SINGLE POINT ENERGY      -652.867079045341
FINAL SINGLE POINT ENERGY      -652.867203916134
FINAL SINGLE POINT ENERGY      -652.867225405238
FINAL SINGLE POINT ENERGY      -652.867225974771
                    ***********************HURRAY********************

CARTESIAN COORDINATES (ANGSTROEM)
---------------------------------
  C    -21.065961   26.144271   46.294668
  C    -20.432665   27.495170   45.961259
  C    -20.382213   28.170853   47.349917
  C    -20.098984   26.991375   48.307712
  O    -20.451882   25.760446   47.547771
  H    -20.845857   25.328925   45.597319
  H    -19.424776   27.329476   45.565808
  H    -21.015312   28.055396   45.226926
  H    -19.612336   28.946079   47.412445
  H    -21.347624   28.636389   47.572963
  H    -20.691327   27.023125   49.226467
  H    -19.041110   26.902064   48.569282
  C    -23.200828   25.260345   47.123314
  H    -23.029640   24.298376   46.620842
  H    -22.808866   25.188197   48.143189
  O    -22.499838   26.315407   46.389150
  C    -24.698858   25.535399   47.163863
  C    -25.119559   26.850610   47.843733
  C    -24.998638   27.872925   46.672125
  C    -25.430806   27.034953   45.449327
  O    -25.319860   25.608891   45.848759
  H    -25.154058   24.674259   47.667913
  H    -26.150103   26.773840   48.196374
  O    -24.346657   27.192844   49.020189
  H    -25.630401   28.752474   46.826418
  H    -23.956452   28.185428   46.580063
  H    -24.792705   27.202923   44.577517
  H    -26.475458   27.205652   45.172005
  H    -23.442225   27.446909   48.742685

 Multiplicity           Mult            ....    1
 Number of Electrons    NEL             ....  102
 Basis Dimension        Dim             ....  149

ORBITAL ENERGIES
----------------

  NO   OCC          E(Eh)            E(eV)
   0   2.0000     -19.152786      -521.1738
   1   2.0000     -19.152571      -521.1680
   2   2.0000     -19.140044      -520.8271
   3   2.0000     -19.130887      -520.5779
   4   2.0000     -10.285893      -279.8934
   5   2.0000     -10.237084      -278.5652
   6   2.0000     -10.235285      -278.5163
   7   2.0000     -10.228458      -278.3305
   8   2.0000     -10.225922      -278.2615
   9   2.0000     -10.219496      -278.0866
  10   2.0000     -10.197972      -277.5009
  11   2.0000     -10.194855      -277.4161
  12   2.0000     -10.178228      -276.9637
  13   2.0000      -1.063470       -28.9385
  14   2.0000      -1.026309       -27.9273
  15   2.0000      -1.008908       -27.4538
  16   2.0000      -0.998854       -27.1802
  17   2.0000      -0.798900       -21.7392
  18   2.0000      -0.772058       -21.0088
  19   2.0000      -0.764883       -20.8135
  20   2.0000      -0.736271       -20.0349
  21   2.0000      -0.675805       -18.3896
  22   2.0000      -0.610349       -16.6084
  23   2.0000      -0.600476       -16.3398
  24   2.0000      -0.597436       -16.2570
  25   2.0000      -0.568811       -15.4781
  26   2.0000      -0.526222       -14.3192
  27   2.0000      -0.513907       -13.9841
  28   2.0000      -0.502334       -13.6692
  29   2.0000      -0.491080       -13.3630
  30   2.0000      -0.469790       -12.7836
  31   2.0000      -0.463185       -12.6039
  32   2.0000      -0.443848       -12.0777
  33   2.0000      -0.424879       -11.5615
  34   2.0000      -0.419770       -11.4225
  35   2.0000      -0.417870       -11.3708
  36   2.0000      -0.405670       -11.0388
  37   2.0000      -0.398568       -10.8456
  38   2.0000      -0.384901       -10.4737
  39   2.0000      -0.368346       -10.0232
  40   2.0000      -0.366501        -9.9730
  41   2.0000      -0.356919        -9.7123
  42   2.0000      -0.351177        -9.5560
  43   2.0000      -0.340389        -9.2625
  44   2.0000      -0.322257        -8.7690
  45   2.0000      -0.307079        -8.3560
  46   2.0000      -0.305357        -8.3092
  47   2.0000      -0.270216        -7.3529
  48   2.0000      -0.267238        -7.2719
  49   2.0000      -0.259993        -7.0748
  50   2.0000      -0.237549        -6.4640
  51   0.0000       0.038883         1.0581
  52   0.0000       0.085424         2.3245
  53   0.0000       0.090727         2.4688
  54   0.0000       0.096310         2.6207
  55   0.0000       0.103453         2.8151

MULLIKEN ATOMIC CHARGES
-----------------------
   0 C :    0.300205
   1 C :   -0.264791
   2 C :   -0.306278
   3 C :   -0.015242
   4 O :   -0.511493
   5 H :    0.153980
   6 H :    0.151561
   7 H :    0.159764
   8 H :    0.150479
   9 H :    0.149129
  10 H :    0.146535
  11 H :    0.152805
  12 C :   -0.011310
  13 H :    0.144580
  14 H :    0.156477
  15 O :   -0.542953
  16 C :    0.088698
  17 C :    0.081688
  18 C :   -0.310917
  19 C :    0.002499
  20 O :   -0.523616
  21 H :    0.150344
  22 H :    0.162246
  23 O :   -0.609558
  24 H :    0.141335
  25 H :    0.159697
  26 H :    0.144575
  27 H :    0.138215
  28 H :    0.361348
Sum of atomic charges:   -0.0000000

LOEWDIN ATOMIC CHARGES
----------------------
   0 C :    0.175771
   1 C :   -0.214122
   2 C :   -0.217768
   3 C :   -0.031823
   4 O :   -0.324567
   5 H :    0.100309
   6 H :    0.117991
   7 H :    0.125380
   8 H :    0.118222
   9 H :    0.108922
  10 H :    0.103177
  11 H :    0.108272
  12 C :   -0.048093
  13 H :    0.106095
  14 H :    0.109697
  15 O :   -0.338081
  16 C :    0.019712
  17 C :    0.037888
  18 C :   -0.242430
  19 C :   -0.023610
  20 O :   -0.324059
  21 H :    0.115239
  22 H :    0.116202
  23 O :   -0.411082
  24 H :    0.113940
  25 H :    0.117611
  26 H :    0.104563
  27 H :    0.099788
  28 H :    0.276856

  Mayer bond orders larger than 0.100000
B(  0-C ,  1-C ) :   0.9489 B(  0-C ,  4-O ) :   0.8962 B(  0-C ,  5-H ) :   0.9195
B(  0-C , 15-O ) :   0.8501 B(  1-C ,  2-C ) :   0.9529 B(  1-C ,  6-H ) :   0.9381
B(  1-C ,  7-H ) :   0.9354 B(  2-C ,  3-C ) :   0.9531 B(  2-C ,  8-H ) :   0.9441
B(  2-C ,  9-H ) :   0.9433 B(  3-C ,  4-O ) :   0.8355 B(  3-C , 10-H ) :   0.9332
B(  3-C , 11-H ) :   0.9396 B( 12-C , 13-H ) :   0.9229 B( 12-C , 14-H ) :   0.9001
B( 12-C , 15-O ) :   0.8145 B( 12-C , 16-C ) :   0.9183 B( 16-C , 17-C ) :   0.8863
B( 16-C , 20-O ) :   0.8748 B( 16-C , 21-H ) :   0.9288 B( 17-C , 18-C ) :   0.9335
B( 17-C , 22-H ) :   0.9361 B( 17-C , 23-O ) :   0.8980 B( 18-C , 19-C ) :   0.9460
B( 18-C , 24-H ) :   0.9414 B( 18-C , 25-H ) :   0.9272 B( 19-C , 20-O ) :   0.8397
B( 19-C , 26-H ) :   0.9329 B( 19-C , 27-H ) :   0.9384 B( 23-O , 28-H ) :   0.7895

FINAL SINGLE POINT ENERGY      -652.867224423047

DIPOLE MOMENT
-------------
                                X             Y             Z
Electronic contribution:     -2.30659      -4.51686       0.23024
Nuclear contribution   :      3.20028       5.49124      -0.47703
                        -----------------------------------------
Total Dipole Moment    :      0.89369       0.97438      -0.24680
                        -----------------------------------------
Magnitude (a.u.)       :      1.34500
Magnitude (Debye)      :      3.41871

Rotational constants in cm-1:     0.045861     0.016829     0.016031
Rotational constants in MHz :  1374.878242   504.516889   480.606266

                             ****ORCA TERMINATED NORMALLY****
TOTAL RUN TIME: 0 days 0 hours 37 minutes 50 seconds 115 msec
