                         Program Version 4.2.0 -  RELEASE  -
|  1> # Test redundant internal optimization
|  2> #
|  3> ! RKS B3LYP  Opt TightSCF SmallPrint
|  4>
|  5> %basis
|  6>         Basis "6-31G"
|  7> end
|  8>
|  9> %geom
| 10> Constraints
| 11> { D 4  0  15  12  0.0   C } # D for Dihedral angle
| 12> { D 0  15  12  16  240.0   C } # D for Dihedral angle
| 13> { D 0  4  3  2   C } # D for Dihedral angle
| 14> { D 4  3  2  1   C } # D for Dihedral angle
| 15> { D 3  2  1  0   C } # D for Dihedral angle
| 16> { D 2  1  0  4   C } # D for Dihedral angle
| 17> { D 1  0  4  3   C } # D for Dihedral angle
| 18> { D 16  20  19  18   C } # D for Dihedral angle
| 19> { D 20  19  18  17   C } # D for Dihedral angle
| 20> { D 19  18  17  16   C } # D for Dihedral angle
| 21> { D 18  17  16  20   C } # D for Dihedral angle
| 22> { D 17  16  20  19   C } # D for Dihedral angle
| 23> { D 15  12  16  20   C } # D for Dihedral angle
| 24> end
| 25> end
| 26>
| 27>
| 28> #%pal
| 29> #nprocs 8
| 30> #end
| 31>
| 32> * xyz 0 1
| 33> C  -21.048   26.222   46.251
| 34> C  -20.361   27.558   45.944
| 35> C  -20.329   28.222   47.341
| 36> C  -20.110   27.022   48.296
| 37> O  -20.473   25.807   47.535
| 38> H  -20.833   25.428   45.533
| 39> H  -19.344   27.382   45.576
| 40> H  -20.898   28.157   45.201
| 41> H  -19.543   28.978   47.434
| 42> H  -21.289   28.710   47.548
| 43> H  -20.733   27.082   49.195
| 44> H  -19.064   26.913   48.597
| 45> C  -23.172   26.101   47.783
| 46> H  -22.357   25.822   48.464
| 47> H  -23.666   26.994   48.187
| 48> O  -22.586   26.394   46.375
| 49> C  -24.214   24.948   47.772
| 50> C  -24.855   24.764   49.152
| 51> C  -25.894   25.910   49.171
| 52> C  -26.366   25.982   47.698
| 53> O  -25.340   25.284   46.894
| 54> H  -23.748   24.048   47.366
| 55> O  -25.561   23.383   49.232
| 56> H  -24.133   24.831   49.974
| 57> H  -26.720   25.723   49.865
| 58> H  -25.412   26.850   49.469
| 59> H  -26.463   27.012   47.338
| 60> H  -27.313   25.459   47.537
| 61> H  -26.289   23.294   48.418
| 62> *
| 63>
| 64>                          ****END OF INPUT****
 Total Charge           Charge          ....    0
 Multiplicity           Mult            ....    1
 Number of Electrons    NEL             ....  102
FINAL SINGLE POINT ENERGY      -652.830198138975
FINAL SINGLE POINT ENERGY      -652.852727902654
FINAL SINGLE POINT ENERGY      -652.856842039703
FINAL SINGLE POINT ENERGY      -652.857558766532
FINAL SINGLE POINT ENERGY      -652.857647475232
FINAL SINGLE POINT ENERGY      -652.857661066350
                    ***********************HURRAY********************

CARTESIAN COORDINATES (ANGSTROEM)
---------------------------------
  C    -21.131730   26.196060   46.377921
  C    -20.486285   27.517881   45.959755
  C    -20.263501   28.207355   47.326390
  C    -19.925826   27.028639   48.265391
  O    -20.405042   25.803454   47.562429
  H    -21.012053   25.381858   45.659958
  H    -19.531787   27.312965   45.460987
  H    -21.128152   28.088916   45.286007
  H    -19.463875   28.953856   47.297121
  H    -21.183386   28.709189   47.644692
  H    -20.419944   27.092541   49.238913
  H    -18.850865   26.896137   48.415904
  C    -23.161200   26.157686   47.881235
  H    -22.390565   25.867079   48.602504
  H    -23.619883   27.102801   48.197672
  O    -22.568735   26.374032   46.572630
  C    -24.207833   25.046003   47.803330
  C    -24.925347   24.779207   49.134816
  C    -26.019968   25.879432   49.130986
  C    -26.400970   25.986041   47.633154
  O    -25.292958   25.365527   46.871005
  H    -23.729658   24.139286   47.420550
  O    -25.508016   23.446312   49.152479
  H    -24.272769   24.820346   50.008276
  H    -26.859319   25.591135   49.768419
  H    -25.609412   26.823794   49.505767
  H    -26.527799   27.020832   47.301264
  H    -27.312293   25.429497   47.391732
  H    -25.904827   23.262142   48.274715

 Multiplicity           Mult            ....    1
 Number of Electrons    NEL             ....  102
 Basis Dimension        Dim             ....  149

ORBITAL ENERGIES
----------------

  NO   OCC          E(Eh)            E(eV)
   0   2.0000     -19.153639      -521.1970
   1   2.0000     -19.135761      -520.7105
   2   2.0000     -19.135717      -520.7093
   3   2.0000     -19.134422      -520.6741
   4   2.0000     -10.278924      -279.7037
   5   2.0000     -10.239671      -278.6356
   6   2.0000     -10.235360      -278.5183
   7   2.0000     -10.228227      -278.3242
   8   2.0000     -10.226905      -278.2882
   9   2.0000     -10.226546      -278.2785
  10   2.0000     -10.192848      -277.3615
  11   2.0000     -10.187033      -277.2033
  12   2.0000     -10.185685      -277.1666
  13   2.0000      -1.055557       -28.7232
  14   2.0000      -1.032467       -28.0949
  15   2.0000      -1.002776       -27.2869
  16   2.0000      -0.989981       -26.9388
  17   2.0000      -0.792829       -21.5740
  18   2.0000      -0.780589       -21.2409
  19   2.0000      -0.765921       -20.8418
  20   2.0000      -0.734673       -19.9915
  21   2.0000      -0.671482       -18.2719
  22   2.0000      -0.605590       -16.4789
  23   2.0000      -0.601870       -16.3777
  24   2.0000      -0.596460       -16.2305
  25   2.0000      -0.572082       -15.5671
  26   2.0000      -0.523396       -14.2423
  27   2.0000      -0.509484       -13.8638
  28   2.0000      -0.500439       -13.6176
  29   2.0000      -0.491432       -13.3725
  30   2.0000      -0.474253       -12.9051
  31   2.0000      -0.460738       -12.5373
  32   2.0000      -0.451009       -12.2726
  33   2.0000      -0.435801       -11.8588
  34   2.0000      -0.422201       -11.4887
  35   2.0000      -0.415426       -11.3043
  36   2.0000      -0.396617       -10.7925
  37   2.0000      -0.390124       -10.6158
  38   2.0000      -0.375677       -10.2227
  39   2.0000      -0.369197       -10.0464
  40   2.0000      -0.362251        -9.8573
  41   2.0000      -0.355198        -9.6654
  42   2.0000      -0.351506        -9.5650
  43   2.0000      -0.334500        -9.1022
  44   2.0000      -0.327356        -8.9078
  45   2.0000      -0.308307        -8.3895
  46   2.0000      -0.297841        -8.1047
  47   2.0000      -0.269337        -7.3290
  48   2.0000      -0.266106        -7.2411
  49   2.0000      -0.257487        -7.0066
  50   2.0000      -0.231451        -6.2981
  51   0.0000       0.069057         1.8791
  52   0.0000       0.078061         2.1242
  53   0.0000       0.088549         2.4095
  54   0.0000       0.097388         2.6501
  55   0.0000       0.106018         2.8849

MULLIKEN ATOMIC CHARGES
-----------------------
   0 C :    0.296072
   1 C :   -0.255183
   2 C :   -0.308740
   3 C :   -0.019554
   4 O :   -0.512373
   5 H :    0.160177
   6 H :    0.143800
   7 H :    0.163992
   8 H :    0.148453
   9 H :    0.155189
  10 H :    0.142142
  11 H :    0.154090
  12 C :   -0.012980
  13 H :    0.156501
  14 H :    0.127417
  15 O :   -0.523825
  16 C :    0.074658
  17 C :    0.074416
  18 C :   -0.295476
  19 C :   -0.023293
  20 O :   -0.511721
  21 H :    0.162791
  22 O :   -0.603557
  23 H :    0.149852
  24 H :    0.163460
  25 H :    0.138965
  26 H :    0.146249
  27 H :    0.142177
  28 H :    0.366302
Sum of atomic charges:    0.0000000

LOEWDIN ATOMIC CHARGES
----------------------
   0 C :    0.182893
   1 C :   -0.220409
   2 C :   -0.219859
   3 C :   -0.033338
   4 O :   -0.319413
   5 H :    0.106496
   6 H :    0.113446
   7 H :    0.127429
   8 H :    0.117892
   9 H :    0.114543
  10 H :    0.100867
  11 H :    0.108567
  12 C :   -0.046188
  13 H :    0.113019
  14 H :    0.095689
  15 O :   -0.331082
  16 C :    0.013667
  17 C :    0.033904
  18 C :   -0.241293
  19 C :   -0.037178
  20 O :   -0.322338
  21 H :    0.118302
  22 O :   -0.415647
  23 H :    0.114034
  24 H :    0.126603
  25 H :    0.110222
  26 H :    0.104340
  27 H :    0.100927
  28 H :    0.283906

  Mayer bond orders larger than 0.100000
B(  0-C ,  1-C ) :   0.9287 B(  0-C ,  4-O ) :   0.9063 B(  0-C ,  5-H ) :   0.9283
B(  0-C , 15-O ) :   0.8526 B(  1-C ,  2-C ) :   0.9532 B(  1-C ,  6-H ) :   0.9352
B(  1-C ,  7-H ) :   0.9356 B(  2-C ,  3-C ) :   0.9527 B(  2-C ,  8-H ) :   0.9449
B(  2-C ,  9-H ) :   0.9455 B(  3-C ,  4-O ) :   0.8290 B(  3-C , 10-H ) :   0.9332
B(  3-C , 11-H ) :   0.9406 B( 12-C , 13-H ) :   0.8975 B( 12-C , 14-H ) :   0.9291
B( 12-C , 15-O ) :   0.8468 B( 12-C , 16-C ) :   0.8938 B( 16-C , 17-C ) :   0.8989
B( 16-C , 20-O ) :   0.8609 B( 16-C , 21-H ) :   0.9268 B( 17-C , 18-C ) :   0.9100
B( 17-C , 22-O ) :   0.8914 B( 17-C , 23-H ) :   0.9334 B( 18-C , 19-C ) :   0.9396
B( 18-C , 24-H ) :   0.9370 B( 18-C , 25-H ) :   0.9347 B( 19-C , 20-O ) :   0.8541
B( 19-C , 26-H ) :   0.9345 B( 19-C , 27-H ) :   0.9383 B( 22-O , 28-H ) :   0.7932

FINAL SINGLE POINT ENERGY      -652.857663018237

DIPOLE MOMENT
-------------
                                X             Y             Z
Electronic contribution:     -1.53105      -5.39137      -2.12189
Nuclear contribution   :      1.94536       6.68803       2.55768
                        -----------------------------------------
Total Dipole Moment    :      0.41431       1.29666       0.43579
                        -----------------------------------------
Magnitude (a.u.)       :      1.42930
Magnitude (Debye)      :      3.63298

Rotational constants in cm-1:     0.059149     0.012346     0.011749
Rotational constants in MHz :  1773.249573   370.124071   352.216216

                             ****ORCA TERMINATED NORMALLY****
TOTAL RUN TIME: 0 days 2 hours 3 minutes 17 seconds 74 msec
