                         Program Version 4.2.1 -  RELEASE  -
|  1> # Test redundant internal optimization
|  2> #
|  3> ! RKS B3LYP  Opt TightSCF SmallPrint
|  4>
|  5> %basis
|  6>         Basis "6-31G"
|  7> end
|  8>
|  9> %geom
| 10> Constraints
| 11> { D 4  0  19  14  270.0   C } # D for Dihedral angle
| 12> { D 0  19  14  12  315.0   C } # D for Dihedral angle
| 13> { D 0  4  3  2   C } # D for Dihedral angle
| 14> { D 4  3  2  1   C } # D for Dihedral angle
| 15> { D 3  2  1  0   C } # D for Dihedral angle
| 16> { D 2  1  0  4   C } # D for Dihedral angle
| 17> { D 1  0  4  3   C } # D for Dihedral angle
| 18> { D 14  15  16  17   C } # D for Dihedral angle
| 19> { D 15  16  17  12   C } # D for Dihedral angle
| 20> { D 16  17  12  14   C } # D for Dihedral angle
| 21> { D 17  12  14  15   C } # D for Dihedral angle
| 22> { D 12  14  15  16   C } # D for Dihedral angle
| 23> end
| 24> end
| 25>
| 26>
| 27> #%pal
| 28> #nprocs 8
| 29> #end
| 30>
| 31> * xyz 0 1
| 32> C  -21.048   26.222   46.251
| 33> C  -20.361   27.558   45.944
| 34> C  -20.329   28.222   47.341
| 35> C  -20.110   27.022   48.296
| 36> O  -20.473   25.807   47.535
| 37> H  -20.833   25.428   45.533
| 38> H  -19.344   27.382   45.576
| 39> H  -20.898   28.157   45.201
| 40> H  -19.543   28.978   47.434
| 41> H  -21.289   28.710   47.548
| 42> H  -20.733   27.082   49.195
| 43> H  -19.064   26.913   48.597
| 44> C  -22.685   24.516   44.816
| 45> H  -23.404   23.785   44.414
| 46> C  -23.226   25.191   46.082
| 47> C  -22.960   24.108   47.154
| 48> C  -21.630   23.467   46.685
| 49> O  -21.463   23.839   45.262
| 50> H  -22.396   25.207   44.023
| 51> O  -22.472   26.381   46.366
| 52> H  -24.284   25.463   46.006
| 53> H  -22.892   24.519   48.166
| 54> H  -23.769   23.366   47.148
| 55> H  -21.635   22.375   46.772
| 56> H  -20.763   23.862   47.224
| 57> *
| 58>
| 59>                          ****END OF INPUT****
 Total Charge           Charge          ....    0
 Multiplicity           Mult            ....    1
 Number of Electrons    NEL             ....   86
FINAL SINGLE POINT ENERGY      -538.418914480915
FINAL SINGLE POINT ENERGY      -538.434578831098
FINAL SINGLE POINT ENERGY      -538.437257845097
FINAL SINGLE POINT ENERGY      -538.437791096606
FINAL SINGLE POINT ENERGY      -538.437837744084
FINAL SINGLE POINT ENERGY      -538.437857005158
                    ***********************HURRAY********************

CARTESIAN COORDINATES (ANGSTROEM)
---------------------------------
  C    -20.836170   26.284625   46.211467
  C    -20.340742   27.713249   45.973758
  C    -20.412868   28.314991   47.397928
  C    -20.036885   27.116975   48.300858
  O    -20.225401   25.902291   47.471753
  H    -20.530870   25.532427   45.484949
  H    -19.306484   27.680566   45.612450
  H    -20.958040   28.245584   45.247621
  H    -19.736605   29.164388   47.533048
  H    -21.434585   28.646562   47.603680
  H    -20.666857   27.041200   49.191301
  H    -18.985669   27.130225   48.604860
  C    -22.723544   24.389725   44.802050
  H    -23.579434   23.793686   44.453136
  C    -23.100721   25.173684   46.063058
  C    -22.983172   24.084978   47.149606
  C    -21.799463   23.212588   46.669931
  O    -21.617288   23.522703   45.221198
  H    -22.364909   25.016622   43.982570
  O    -22.278863   26.351919   46.329892
  H    -24.110855   25.586986   46.004049
  H    -22.805946   24.529022   48.131169
  H    -23.913532   23.506108   47.186966
  H    -21.988572   22.139122   46.772622
  H    -20.866524   23.479774   47.169082

 Multiplicity           Mult            ....    1
 Number of Electrons    NEL             ....   86
 Basis Dimension        Dim             ....  127

ORBITAL ENERGIES
----------------

  NO   OCC          E(Eh)            E(eV)
   0   2.0000     -19.138266      -520.7787
   1   2.0000     -19.134678      -520.6811
   2   2.0000     -19.133292      -520.6433
   3   2.0000     -10.268638      -279.4238
   4   2.0000     -10.239052      -278.6188
   5   2.0000     -10.225505      -278.2501
   6   2.0000     -10.220627      -278.1174
   7   2.0000     -10.215217      -277.9702
   8   2.0000     -10.180363      -277.0218
   9   2.0000     -10.179960      -277.0108
  10   2.0000     -10.179556      -276.9998
  11   2.0000      -1.047670       -28.5086
  12   2.0000      -1.012374       -27.5481
  13   2.0000      -0.985562       -26.8185
  14   2.0000      -0.788278       -21.4501
  15   2.0000      -0.771314       -20.9885
  16   2.0000      -0.737596       -20.0710
  17   2.0000      -0.718289       -19.5456
  18   2.0000      -0.615133       -16.7386
  19   2.0000      -0.595307       -16.1991
  20   2.0000      -0.592801       -16.1309
  21   2.0000      -0.563319       -15.3287
  22   2.0000      -0.520228       -14.1561
  23   2.0000      -0.499673       -13.5968
  24   2.0000      -0.477314       -12.9884
  25   2.0000      -0.473684       -12.8896
  26   2.0000      -0.449140       -12.2217
  27   2.0000      -0.444991       -12.1088
  28   2.0000      -0.416944       -11.3456
  29   2.0000      -0.410577       -11.1724
  30   2.0000      -0.397048       -10.8042
  31   2.0000      -0.390203       -10.6180
  32   2.0000      -0.369142       -10.0449
  33   2.0000      -0.366634        -9.9766
  34   2.0000      -0.354116        -9.6360
  35   2.0000      -0.350330        -9.5330
  36   2.0000      -0.338513        -9.2114
  37   2.0000      -0.317289        -8.6339
  38   2.0000      -0.311368        -8.4728
  39   2.0000      -0.293961        -7.9991
  40   2.0000      -0.267315        -7.2740
  41   2.0000      -0.245413        -6.6780
  42   2.0000      -0.233434        -6.3521
  43   0.0000       0.080358         2.1867
  44   0.0000       0.101810         2.7704
  45   0.0000       0.104385         2.8405
  46   0.0000       0.112586         3.0636
  47   0.0000       0.117783         3.2050

MULLIKEN ATOMIC CHARGES
-----------------------
   0 C :    0.267777
   1 C :   -0.253461
   2 C :   -0.297502
   3 C :   -0.000718
   4 O :   -0.518198
   5 H :    0.184014
   6 H :    0.144076
   7 H :    0.150484
   8 H :    0.137522
   9 H :    0.161066
  10 H :    0.142966
  11 H :    0.140369
  12 C :   -0.036523
  13 H :    0.135436
  14 C :    0.086966
  15 C :   -0.283782
  16 C :   -0.034102
  17 O :   -0.524204
  18 H :    0.156784
  19 O :   -0.529256
  20 H :    0.145040
  21 H :    0.167649
  22 H :    0.134957
  23 H :    0.137878
  24 H :    0.184762
Sum of atomic charges:   -0.0000000

LOEWDIN ATOMIC CHARGES
----------------------
   0 C :    0.164236
   1 C :   -0.215002
   2 C :   -0.215783
   3 C :   -0.028898
   4 O :   -0.330401
   5 H :    0.117573
   6 H :    0.113118
   7 H :    0.120970
   8 H :    0.111747
   9 H :    0.118592
  10 H :    0.102839
  11 H :    0.101244
  12 C :   -0.054812
  13 H :    0.099624
  14 C :    0.042436
  15 C :   -0.233403
  16 C :   -0.040246
  17 O :   -0.338135
  18 H :    0.113594
  19 O :   -0.324941
  20 H :    0.112595
  21 H :    0.130253
  22 H :    0.110566
  23 H :    0.100388
  24 H :    0.121846

  Mayer bond orders larger than 0.100000
B(  0-C ,  1-C ) :   0.9462 B(  0-C ,  4-O ) :   0.8855 B(  0-C ,  5-H ) :   0.8958
B(  0-C , 19-O ) :   0.8438 B(  1-C ,  2-C ) :   0.9559 B(  1-C ,  6-H ) :   0.9408
B(  1-C ,  7-H ) :   0.9381 B(  2-C ,  3-C ) :   0.9550 B(  2-C ,  8-H ) :   0.9458
B(  2-C ,  9-H ) :   0.9441 B(  3-C ,  4-O ) :   0.8387 B(  3-C , 10-H ) :   0.9361
B(  3-C , 11-H ) :   0.9404 B( 12-C , 13-H ) :   0.9157 B( 12-C , 14-C ) :   0.9206
B( 12-C , 17-O ) :   0.8581 B( 12-C , 18-H ) :   0.9317 B( 14-C , 15-C ) :   0.9264
B( 14-C , 19-O ) :   0.8723 B( 14-C , 20-H ) :   0.9377 B( 15-C , 16-C ) :   0.9503
B( 15-C , 21-H ) :   0.9347 B( 15-C , 22-H ) :   0.9384 B( 16-C , 17-O ) :   0.8318
B( 16-C , 23-H ) :   0.9352 B( 16-C , 24-H ) :   0.9197

FINAL SINGLE POINT ENERGY      -538.437858120431

DIPOLE MOMENT
-------------
                                X             Y             Z
Electronic contribution:     -0.00111      -1.96750      -1.54219
Nuclear contribution   :     -0.47770       2.49819       1.74910
                        -----------------------------------------
Total Dipole Moment    :     -0.47881       0.53069       0.20692
                        -----------------------------------------
Magnitude (a.u.)       :      0.74412
Magnitude (Debye)      :      1.89139

Rotational constants in cm-1:     0.074798     0.024904     0.023258
Rotational constants in MHz :  2242.394430   746.605041   697.259739

                             ****ORCA TERMINATED NORMALLY****
TOTAL RUN TIME: 0 days 0 hours 16 minutes 20 seconds 871 msec
