                         Program Version 4.2.0 -  RELEASE  -
|  1> # Test redundant internal optimization
|  2> #
|  3> ! RKS B3LYP  Opt TightSCF SmallPrint
|  4>
|  5> %basis
|  6>         Basis "6-31G"
|  7> end
|  8>
|  9> %geom
| 10> Constraints
| 11> { D 4  0  15  12  195.0   C } # D for Dihedral angle
| 12> { D 0  15  12  16  315.0   C } # D for Dihedral angle
| 13> { D 0  4  3  2   C } # D for Dihedral angle
| 14> { D 4  3  2  1   C } # D for Dihedral angle
| 15> { D 3  2  1  0   C } # D for Dihedral angle
| 16> { D 2  1  0  4   C } # D for Dihedral angle
| 17> { D 1  0  4  3   C } # D for Dihedral angle
| 18> { D 16  20  19  18   C } # D for Dihedral angle
| 19> { D 20  19  18  17   C } # D for Dihedral angle
| 20> { D 19  18  17  16   C } # D for Dihedral angle
| 21> { D 18  17  16  20   C } # D for Dihedral angle
| 22> { D 17  16  20  19   C } # D for Dihedral angle
| 23> { D 15  12  16  20   C } # D for Dihedral angle
| 24> end
| 25> end
| 26>
| 27>
| 28> #%pal
| 29> #nprocs 8
| 30> #end
| 31>
| 32> * xyz 0 1
| 33> C  -21.048   26.222   46.251
| 34> C  -20.361   27.558   45.944
| 35> C  -20.329   28.222   47.341
| 36> C  -20.110   27.022   48.296
| 37> O  -20.473   25.807   47.535
| 38> H  -20.833   25.428   45.533
| 39> H  -19.344   27.382   45.576
| 40> H  -20.898   28.157   45.201
| 41> H  -19.543   28.978   47.434
| 42> H  -21.289   28.710   47.548
| 43> H  -20.733   27.082   49.195
| 44> H  -19.064   26.913   48.597
| 45> C  -23.353   26.472   45.026
| 46> H  -23.419   25.468   44.589
| 47> H  -24.373   26.845   45.186
| 48> O  -22.586   26.394   46.375
| 49> C  -22.663   27.409   43.997
| 50> C  -23.504   27.553   42.724
| 51> C  -24.575   28.577   43.170
| 52> C  -23.793   29.509   44.129
| 53> O  -22.573   28.774   44.526
| 54> H  -21.641   27.064   43.827
| 55> O  -22.637   28.133   41.574
| 56> H  -23.938   26.606   42.385
| 57> H  -25.019   29.121   42.330
| 58> H  -25.385   28.066   43.704
| 59> H  -24.367   29.763   45.027
| 60> H  -23.469   30.433   43.641
| 61> H  -22.193   29.084   41.891
| 62> *
| 63>
| 64>                          ****END OF INPUT****
 Total Charge           Charge          ....    0
 Multiplicity           Mult            ....    1
 Number of Electrons    NEL             ....  102
FINAL SINGLE POINT ENERGY      -652.822941382630
FINAL SINGLE POINT ENERGY      -652.846673868748
FINAL SINGLE POINT ENERGY      -652.853390507203
FINAL SINGLE POINT ENERGY      -652.855448155617
FINAL SINGLE POINT ENERGY      -652.855743980280
FINAL SINGLE POINT ENERGY      -652.855796007027
                    ***********************HURRAY********************

CARTESIAN COORDINATES (ANGSTROEM)
---------------------------------
  C    -20.938123   26.243920   46.185046
  C    -20.192131   27.567246   46.017933
  C    -20.327807   28.195210   47.428881
  C    -20.260275   26.963141   48.354587
  O    -20.550858   25.791993   47.490720
  H    -20.672302   25.457552   45.468837
  H    -19.141240   27.347729   45.790043
  H    -20.598146   28.222528   45.249584
  H    -19.539983   28.923884   47.641274
  H    -21.298117   28.693413   47.508119
  H    -20.995255   26.987674   49.163469
  H    -19.262969   26.801255   48.775317
  C    -23.168258   26.540886   45.016563
  H    -23.286027   25.544119   44.556219
  H    -24.149084   26.863675   45.374646
  O    -22.389720   26.407485   46.234526
  C    -22.663373   27.479303   43.916477
  C    -23.626051   27.558732   42.721336
  C    -24.665410   28.599885   43.220721
  C    -23.802429   29.580195   44.056685
  O    -22.539456   28.868178   44.368996
  H    -21.671330   27.171907   43.574158
  O    -22.934351   28.011757   41.526283
  H    -24.070244   26.601334   42.447118
  H    -25.164619   29.082882   42.377549
  H    -25.427299   28.112268   43.838114
  H    -24.282962   29.875871   44.993347
  H    -23.534231   30.484069   43.501068
  H    -22.360949   28.773908   41.754382

 Multiplicity           Mult            ....    1
 Number of Electrons    NEL             ....  102
 Basis Dimension        Dim             ....  149

ORBITAL ENERGIES
----------------

  NO   OCC          E(Eh)            E(eV)
   0   2.0000     -19.154437      -521.2187
   1   2.0000     -19.148163      -521.0480
   2   2.0000     -19.134679      -520.6811
   3   2.0000     -19.132092      -520.6107
   4   2.0000     -10.273724      -279.5622
   5   2.0000     -10.252541      -278.9858
   6   2.0000     -10.244256      -278.7604
   7   2.0000     -10.240885      -278.6686
   8   2.0000     -10.235292      -278.5164
   9   2.0000     -10.216317      -278.0001
  10   2.0000     -10.198652      -277.5194
  11   2.0000     -10.175391      -276.8865
  12   2.0000     -10.171849      -276.7901
  13   2.0000      -1.050156       -28.5762
  14   2.0000      -1.042734       -28.3742
  15   2.0000      -1.016319       -27.6555
  16   2.0000      -0.986046       -26.8317
  17   2.0000      -0.793840       -21.6015
  18   2.0000      -0.774776       -21.0827
  19   2.0000      -0.773499       -21.0480
  20   2.0000      -0.731107       -19.8944
  21   2.0000      -0.676881       -18.4189
  22   2.0000      -0.615026       -16.7357
  23   2.0000      -0.608255       -16.5515
  24   2.0000      -0.589660       -16.0455
  25   2.0000      -0.570741       -15.5307
  26   2.0000      -0.531502       -14.4629
  27   2.0000      -0.515379       -14.0242
  28   2.0000      -0.491230       -13.3671
  29   2.0000      -0.490487       -13.3468
  30   2.0000      -0.472712       -12.8632
  31   2.0000      -0.455547       -12.3961
  32   2.0000      -0.452076       -12.3016
  33   2.0000      -0.450229       -12.2514
  34   2.0000      -0.422047       -11.4845
  35   2.0000      -0.415686       -11.3114
  36   2.0000      -0.405524       -11.0349
  37   2.0000      -0.396708       -10.7950
  38   2.0000      -0.381879       -10.3915
  39   2.0000      -0.369662       -10.0590
  40   2.0000      -0.363666        -9.8958
  41   2.0000      -0.351866        -9.5748
  42   2.0000      -0.342613        -9.3230
  43   2.0000      -0.335522        -9.1300
  44   2.0000      -0.320991        -8.7346
  45   2.0000      -0.306220        -8.3327
  46   2.0000      -0.296512        -8.0685
  47   2.0000      -0.281838        -7.6692
  48   2.0000      -0.262096        -7.1320
  49   2.0000      -0.250226        -6.8090
  50   2.0000      -0.241231        -6.5642
  51   0.0000       0.055825         1.5191
  52   0.0000       0.082444         2.2434
  53   0.0000       0.086257         2.3472
  54   0.0000       0.090213         2.4548
  55   0.0000       0.099114         2.6970

MULLIKEN ATOMIC CHARGES
-----------------------
   0 C :    0.292323
   1 C :   -0.287623
   2 C :   -0.298573
   3 C :   -0.000233
   4 O :   -0.503657
   5 H :    0.133083
   6 H :    0.134453
   7 H :    0.190246
   8 H :    0.136615
   9 H :    0.163802
  10 H :    0.150649
  11 H :    0.137368
  12 C :    0.015203
  13 H :    0.124612
  14 H :    0.150016
  15 O :   -0.509002
  16 C :    0.037845
  17 C :    0.078356
  18 C :   -0.293176
  19 C :   -0.027312
  20 O :   -0.526846
  21 H :    0.161364
  22 O :   -0.599425
  23 H :    0.157253
  24 H :    0.164792
  25 H :    0.148356
  26 H :    0.155733
  27 H :    0.149441
  28 H :    0.364338
Sum of atomic charges:   -0.0000000

LOEWDIN ATOMIC CHARGES
----------------------
   0 C :    0.181258
   1 C :   -0.238729
   2 C :   -0.215045
   3 C :   -0.026237
   4 O :   -0.304887
   5 H :    0.092608
   6 H :    0.109201
   7 H :    0.134337
   8 H :    0.112125
   9 H :    0.119923
  10 H :    0.107214
  11 H :    0.100008
  12 C :   -0.039241
  13 H :    0.093674
  14 H :    0.113579
  15 O :   -0.329049
  16 C :   -0.002876
  17 C :    0.038922
  18 C :   -0.238804
  19 C :   -0.036371
  20 O :   -0.331105
  21 H :    0.113214
  22 O :   -0.412088
  23 H :    0.118196
  24 H :    0.128140
  25 H :    0.115397
  26 H :    0.109199
  27 H :    0.104227
  28 H :    0.283209

  Mayer bond orders larger than 0.100000
B(  0-C ,  1-C ) :   0.9304 B(  0-C ,  4-O ) :   0.9376 B(  0-C ,  5-H ) :   0.9198
B(  0-C , 15-O ) :   0.8267 B(  1-C ,  2-C ) :   0.9536 B(  1-C ,  6-H ) :   0.9327
B(  1-C ,  7-H ) :   0.9050 B(  2-C ,  3-C ) :   0.9561 B(  2-C ,  8-H ) :   0.9454
B(  2-C ,  9-H ) :   0.9421 B(  3-C ,  4-O ) :   0.8337 B(  3-C , 10-H ) :   0.9354
B(  3-C , 11-H ) :   0.9400 B( 12-C , 13-H ) :   0.9081 B( 12-C , 14-H ) :   0.9373
B( 12-C , 15-O ) :   0.8761 B( 12-C , 16-C ) :   0.8788 B( 16-C , 17-C ) :   0.8984
B( 16-C , 20-O ) :   0.8327 B( 16-C , 21-H ) :   0.9225 B( 17-C , 18-C ) :   0.9114
B( 17-C , 22-O ) :   0.8942 B( 17-C , 23-H ) :   0.9326 B( 18-C , 19-C ) :   0.9402
B( 18-C , 24-H ) :   0.9373 B( 18-C , 25-H ) :   0.9331 B( 19-C , 20-O ) :   0.8356
B( 19-C , 26-H ) :   0.9339 B( 19-C , 27-H ) :   0.9378 B( 22-O , 28-H ) :   0.7947

FINAL SINGLE POINT ENERGY      -652.855800141979

DIPOLE MOMENT
-------------
                                X             Y             Z
Electronic contribution:      0.43328      -3.18815      -0.79794
Nuclear contribution   :     -0.85685       4.22360       0.36210
                        -----------------------------------------
Total Dipole Moment    :     -0.42358       1.03545      -0.43583
                        -----------------------------------------
Magnitude (a.u.)       :      1.20064
Magnitude (Debye)      :      3.05178

Rotational constants in cm-1:     0.060088     0.013514     0.012947
Rotational constants in MHz :  1801.386150   405.131819   388.155440

                             ****ORCA TERMINATED NORMALLY****
TOTAL RUN TIME: 0 days 0 hours 22 minutes 51 seconds 751 msec
