                         Program Version 4.2.0 -  RELEASE  -
|  1> # Test redundant internal optimization
|  2> #
|  3> ! RKS B3LYP  Opt TightSCF SmallPrint
|  4>
|  5> %basis
|  6>         Basis "6-31G"
|  7> end
|  8>
|  9> %geom
| 10> Constraints
| 11> { D 4  0  15  12  45.0   C } # D for Dihedral angle
| 12> { D 0  15  12  16  150.0   C } # D for Dihedral angle
| 13> { D 0  4  3  2   C } # D for Dihedral angle
| 14> { D 4  3  2  1   C } # D for Dihedral angle
| 15> { D 3  2  1  0   C } # D for Dihedral angle
| 16> { D 2  1  0  4   C } # D for Dihedral angle
| 17> { D 1  0  4  3   C } # D for Dihedral angle
| 18> { D 16  20  19  18   C } # D for Dihedral angle
| 19> { D 20  19  18  17   C } # D for Dihedral angle
| 20> { D 19  18  17  16   C } # D for Dihedral angle
| 21> { D 18  17  16  20   C } # D for Dihedral angle
| 22> { D 17  16  20  19   C } # D for Dihedral angle
| 23> { D 15  12  16  20   C } # D for Dihedral angle
| 24> end
| 25> end
| 26>
| 27>
| 28> #%pal
| 29> #nprocs 8
| 30> #end
| 31>
| 32> * xyz 0 1
| 33> C  -21.048   26.222   46.251
| 34> C  -20.361   27.558   45.944
| 35> C  -20.329   28.222   47.341
| 36> C  -20.110   27.022   48.296
| 37> O  -20.473   25.807   47.535
| 38> H  -20.833   25.428   45.533
| 39> H  -19.344   27.382   45.576
| 40> H  -20.898   28.157   45.201
| 41> H  -19.543   28.978   47.434
| 42> H  -21.289   28.710   47.548
| 43> H  -20.733   27.082   49.195
| 44> H  -19.064   26.913   48.597
| 45> C  -23.065   27.161   47.638
| 46> H  -23.226   26.448   48.455
| 47> H  -22.305   27.885   47.959
| 48> O  -22.586   26.394   46.375
| 49> C  -24.389   27.940   47.401
| 50> C  -25.552   26.985   47.112
| 51> C  -25.915   26.494   48.534
| 52> C  -25.659   27.743   49.414
| 53> O  -24.794   28.644   48.622
| 54> H  -24.225   28.699   46.634
| 55> O  -26.738   27.765   46.482
| 56> H  -25.281   26.167   46.436
| 57> H  -26.946   26.135   48.609
| 58> H  -25.252   25.671   48.828
| 59> H  -25.155   27.497   50.354
| 60> H  -26.578   28.291   49.637
| 61> H  -27.029   28.591   47.143
| 62> *
| 63>
| 64>                          ****END OF INPUT****
 Total Charge           Charge          ....    0
 Multiplicity           Mult            ....    1
 Number of Electrons    NEL             ....  102
FINAL SINGLE POINT ENERGY      -652.816099792425
FINAL SINGLE POINT ENERGY      -652.843785151589
FINAL SINGLE POINT ENERGY      -652.857175846319
FINAL SINGLE POINT ENERGY      -652.859134599812
FINAL SINGLE POINT ENERGY      -652.859442650926
FINAL SINGLE POINT ENERGY      -652.859491813508
FINAL SINGLE POINT ENERGY      -652.859496984158
                    ***********************HURRAY********************

CARTESIAN COORDINATES (ANGSTROEM)
---------------------------------
  C    -21.231457   26.361849   46.424604
  C    -20.443373   27.579795   45.922195
  C    -20.005273   28.254344   47.254739
  C    -19.757435   27.039175   48.182842
  O    -20.460067   25.891013   47.553104
  H    -21.244566   25.544284   45.701268
  H    -19.572127   27.224318   45.361569
  H    -21.040711   28.229249   45.277757
  H    -19.101106   28.859957   47.135339
  H    -20.789874   28.912259   47.636986
  H    -20.145128   27.179594   49.196122
  H    -18.699207   26.767812   48.239488
  C    -23.116750   27.220698   47.893230
  H    -23.251140   26.479624   48.690033
  H    -22.430644   27.987899   48.259428
  O    -22.637990   26.552868   46.689597
  C    -24.435592   27.898657   47.526510
  C    -25.560842   26.946364   47.099606
  C    -26.079744   26.442189   48.470067
  C    -25.924399   27.680202   49.387333
  O    -24.972443   28.593279   48.702977
  H    -24.254015   28.655267   46.758213
  O    -26.591693   27.662012   46.362000
  H    -25.217774   26.152915   46.437958
  H    -27.114069   26.099508   48.388434
  H    -25.468164   25.604484   48.822782
  H    -25.528055   27.432123   50.376662
  H    -26.861571   28.230906   49.514870
  H    -26.784792   28.508356   46.818285

 Multiplicity           Mult            ....    1
 Number of Electrons    NEL             ....  102
 Basis Dimension        Dim             ....  149

ORBITAL ENERGIES
----------------

  NO   OCC          E(Eh)            E(eV)
   0   2.0000     -19.147211      -521.0221
   1   2.0000     -19.145290      -520.9698
   2   2.0000     -19.144889      -520.9589
   3   2.0000     -19.133727      -520.6552
   4   2.0000     -10.281198      -279.7656
   5   2.0000     -10.233675      -278.4725
   6   2.0000     -10.233404      -278.4651
   7   2.0000     -10.232208      -278.4325
   8   2.0000     -10.231399      -278.4105
   9   2.0000     -10.231155      -278.4039
  10   2.0000     -10.195483      -277.4332
  11   2.0000     -10.191003      -277.3113
  12   2.0000     -10.185757      -277.1685
  13   2.0000      -1.055184       -28.7130
  14   2.0000      -1.034870       -28.1602
  15   2.0000      -1.002967       -27.2921
  16   2.0000      -0.997652       -27.1475
  17   2.0000      -0.791463       -21.5368
  18   2.0000      -0.781176       -21.2569
  19   2.0000      -0.770301       -20.9610
  20   2.0000      -0.733475       -19.9589
  21   2.0000      -0.677517       -18.4362
  22   2.0000      -0.607064       -16.5191
  23   2.0000      -0.603443       -16.4205
  24   2.0000      -0.596237       -16.2244
  25   2.0000      -0.576066       -15.6756
  26   2.0000      -0.525295       -14.2940
  27   2.0000      -0.512946       -13.9580
  28   2.0000      -0.503791       -13.7089
  29   2.0000      -0.490245       -13.3402
  30   2.0000      -0.472853       -12.8670
  31   2.0000      -0.459141       -12.4939
  32   2.0000      -0.446313       -12.1448
  33   2.0000      -0.439695       -11.9647
  34   2.0000      -0.424190       -11.5428
  35   2.0000      -0.418346       -11.3838
  36   2.0000      -0.407604       -11.0915
  37   2.0000      -0.391148       -10.6437
  38   2.0000      -0.382054       -10.3962
  39   2.0000      -0.366416        -9.9707
  40   2.0000      -0.363094        -9.8803
  41   2.0000      -0.358938        -9.7672
  42   2.0000      -0.349673        -9.5151
  43   2.0000      -0.332932        -9.0595
  44   2.0000      -0.322583        -8.7779
  45   2.0000      -0.314228        -8.5506
  46   2.0000      -0.302854        -8.2411
  47   2.0000      -0.270983        -7.3738
  48   2.0000      -0.265491        -7.2244
  49   2.0000      -0.255307        -6.9473
  50   2.0000      -0.244194        -6.6449
  51   0.0000       0.065210         1.7745
  52   0.0000       0.067695         1.8421
  53   0.0000       0.093559         2.5459
  54   0.0000       0.096220         2.6183
  55   0.0000       0.102240         2.7821

MULLIKEN ATOMIC CHARGES
-----------------------
   0 C :    0.301827
   1 C :   -0.266984
   2 C :   -0.321503
   3 C :   -0.015318
   4 O :   -0.507846
   5 H :    0.166184
   6 H :    0.153541
   7 H :    0.154228
   8 H :    0.148023
   9 H :    0.157405
  10 H :    0.146998
  11 H :    0.151409
  12 C :   -0.007782
  13 H :    0.145238
  14 H :    0.142322
  15 O :   -0.535597
  16 C :    0.060546
  17 C :    0.086441
  18 C :   -0.298564
  19 C :   -0.034593
  20 O :   -0.529944
  21 H :    0.159545
  22 O :   -0.603110
  23 H :    0.180839
  24 H :    0.161432
  25 H :    0.149399
  26 H :    0.147133
  27 H :    0.147231
  28 H :    0.361498
Sum of atomic charges:    0.0000000

LOEWDIN ATOMIC CHARGES
----------------------
   0 C :    0.178197
   1 C :   -0.227103
   2 C :   -0.224687
   3 C :   -0.034759
   4 O :   -0.321015
   5 H :    0.112699
   6 H :    0.120109
   7 H :    0.121800
   8 H :    0.117088
   9 H :    0.111572
  10 H :    0.103498
  11 H :    0.106885
  12 C :   -0.039394
  13 H :    0.101797
  14 H :    0.103200
  15 O :   -0.330092
  16 C :    0.016511
  17 C :    0.038156
  18 C :   -0.241267
  19 C :   -0.038930
  20 O :   -0.334158
  21 H :    0.115225
  22 O :   -0.415491
  23 H :    0.129978
  24 H :    0.126727
  25 H :    0.116022
  26 H :    0.104183
  27 H :    0.102511
  28 H :    0.280738

  Mayer bond orders larger than 0.100000
B(  0-C ,  1-C ) :   0.9163 B(  0-C ,  4-O ) :   0.9069 B(  0-C ,  5-H ) :   0.9360
B(  0-C , 15-O ) :   0.8790 B(  1-C ,  2-C ) :   0.9539 B(  1-C ,  6-H ) :   0.9344
B(  1-C ,  7-H ) :   0.9369 B(  2-C ,  3-C ) :   0.9481 B(  2-C ,  8-H ) :   0.9439
B(  2-C ,  9-H ) :   0.9379 B(  3-C ,  4-O ) :   0.8401 B(  3-C , 10-H ) :   0.9329
B(  3-C , 11-H ) :   0.9385 B( 12-C , 13-H ) :   0.9251 B( 12-C , 14-H ) :   0.9047
B( 12-C , 15-O ) :   0.8147 B( 12-C , 16-C ) :   0.9001 B( 16-C , 17-C ) :   0.9147
B( 16-C , 20-O ) :   0.8455 B( 16-C , 21-H ) :   0.9256 B( 17-C , 18-C ) :   0.9139
B( 17-C , 22-O ) :   0.8915 B( 17-C , 23-H ) :   0.9225 B( 18-C , 19-C ) :   0.9408
B( 18-C , 24-H ) :   0.9379 B( 18-C , 25-H ) :   0.9340 B( 19-C , 20-O ) :   0.8418
B( 19-C , 26-H ) :   0.9355 B( 19-C , 27-H ) :   0.9381 B( 22-O , 28-H ) :   0.7962

FINAL SINGLE POINT ENERGY      -652.859487850507

DIPOLE MOMENT
-------------
                                X             Y             Z
Electronic contribution:     -2.70144      -1.32679      -1.91140
Nuclear contribution   :      3.36892       1.81650       2.48327
                        -----------------------------------------
Total Dipole Moment    :      0.66748       0.48971       0.57187
                        -----------------------------------------
Magnitude (a.u.)       :      1.00617
Magnitude (Debye)      :      2.55748

Rotational constants in cm-1:     0.056386     0.012814     0.012233
Rotational constants in MHz :  1690.422770   384.141880   366.740305

                             ****ORCA TERMINATED NORMALLY****
TOTAL RUN TIME: 0 days 1 hours 54 minutes 43 seconds 949 msec
