                         Program Version 4.2.0 -  RELEASE  -
|  1> # Test redundant internal optimization
|  2> #
|  3> ! RKS B3LYP  Opt TightSCF SmallPrint
|  4>
|  5> %basis
|  6>         Basis "6-31G"
|  7> end
|  8>
|  9> %geom
| 10> Constraints
| 11> { D 4  0  15  12  240.0   C } # D for Dihedral angle
| 12> { D 0  15  12  16  120.0   C } # D for Dihedral angle
| 13> { D 0  4  3  2   C } # D for Dihedral angle
| 14> { D 4  3  2  1   C } # D for Dihedral angle
| 15> { D 3  2  1  0   C } # D for Dihedral angle
| 16> { D 2  1  0  4   C } # D for Dihedral angle
| 17> { D 1  0  4  3   C } # D for Dihedral angle
| 18> { D 16  20  19  18   C } # D for Dihedral angle
| 19> { D 20  19  18  17   C } # D for Dihedral angle
| 20> { D 19  18  17  16   C } # D for Dihedral angle
| 21> { D 18  17  16  20   C } # D for Dihedral angle
| 22> { D 17  16  20  19   C } # D for Dihedral angle
| 23> { D 15  12  16  20   C } # D for Dihedral angle
| 24> end
| 25> end
| 26>
| 27>
| 28> #%pal
| 29> #nprocs 8
| 30> #end
| 31>
| 32> * xyz 0 1
| 33> C  -21.048   26.222   46.251
| 34> C  -20.361   27.558   45.944
| 35> C  -20.329   28.222   47.341
| 36> C  -20.110   27.022   48.296
| 37> O  -20.473   25.807   47.535
| 38> H  -20.833   25.428   45.533
| 39> H  -19.344   27.382   45.576
| 40> H  -20.898   28.157   45.201
| 41> H  -19.543   28.978   47.434
| 42> H  -21.289   28.710   47.548
| 43> H  -20.733   27.082   49.195
| 44> H  -19.064   26.913   48.597
| 45> C  -23.430   25.483   45.442
| 46> H  -24.035   26.109   44.775
| 47> H  -22.775   24.855   44.823
| 48> O  -22.586   26.394   46.375
| 49> C  -24.384   24.540   46.226
| 50> C  -25.448   25.336   46.990
| 51> C  -26.456   25.674   45.865
| 52> C  -26.405   24.418   44.960
| 53> O  -25.155   23.705   45.299
| 54> H  -23.791   23.866   46.847
| 55> O  -26.112   24.438   48.070
| 56> H  -25.048   26.228   47.484
| 57> H  -27.463   25.875   46.244
| 58> H  -26.121   26.561   45.315
| 59> H  -26.397   24.669   43.894
| 60> H  -27.232   23.729   45.154
| 61> H  -26.522   23.537   47.598
| 62> *
| 63>
| 64>                          ****END OF INPUT****
 Total Charge           Charge          ....    0
 Multiplicity           Mult            ....    1
 Number of Electrons    NEL             ....  102
FINAL SINGLE POINT ENERGY      -652.837662723430
FINAL SINGLE POINT ENERGY      -652.860054479421
FINAL SINGLE POINT ENERGY      -652.863567606695
FINAL SINGLE POINT ENERGY      -652.864167793323
FINAL SINGLE POINT ENERGY      -652.864246969377
FINAL SINGLE POINT ENERGY      -652.864260572950
FINAL SINGLE POINT ENERGY      -652.864262432232
                    ***********************HURRAY********************

CARTESIAN COORDINATES (ANGSTROEM)
---------------------------------
  C    -21.088374   26.135815   46.192611
  C    -20.442786   27.499390   45.948983
  C    -20.542322   28.155062   47.347467
  C    -20.341823   26.958739   48.303794
  O    -20.600196   25.743833   47.489188
  H    -20.808748   25.345848   45.488968
  H    -19.394853   27.359483   45.657915
  H    -20.954506   28.066397   45.168140
  H    -19.796813   28.941080   47.499553
  H    -21.537754   28.590052   47.478204
  H    -21.031760   26.964099   49.151207
  H    -19.314995   26.876026   48.672331
  C    -23.336850   25.458065   45.334922
  H    -23.889087   26.115215   44.652854
  H    -22.705340   24.792612   44.732244
  O    -22.531054   26.287698   46.217767
  C    -24.291012   24.609416   46.175671
  C    -25.313546   25.408192   46.995989
  C    -26.383041   25.740915   45.924959
  C    -26.383144   24.483167   45.020410
  O    -25.109584   23.768366   45.293403
  H    -23.711986   23.941163   46.818844
  O    -25.865344   24.596213   48.070148
  H    -24.880620   26.283574   47.476661
  H    -27.352155   25.928584   46.393100
  H    -26.094804   26.636075   45.362784
  H    -26.433189   24.724347   43.954133
  H    -27.197146   23.792340   45.261182
  H    -26.052167   23.696233   47.728568

 Multiplicity           Mult            ....    1
 Number of Electrons    NEL             ....  102
 Basis Dimension        Dim             ....  149

ORBITAL ENERGIES
----------------

  NO   OCC          E(Eh)            E(eV)
   0   2.0000     -19.145333      -520.9710
   1   2.0000     -19.143913      -520.9323
   2   2.0000     -19.138832      -520.7941
   3   2.0000     -19.132391      -520.6188
   4   2.0000     -10.282004      -279.7875
   5   2.0000     -10.233945      -278.4798
   6   2.0000     -10.233277      -278.4616
   7   2.0000     -10.230893      -278.3967
   8   2.0000     -10.229505      -278.3590
   9   2.0000     -10.223914      -278.2069
  10   2.0000     -10.185979      -277.1746
  11   2.0000     -10.185686      -277.1666
  12   2.0000     -10.185452      -277.1603
  13   2.0000      -1.053446       -28.6657
  14   2.0000      -1.033686       -28.1280
  15   2.0000      -1.001844       -27.2616
  16   2.0000      -0.996229       -27.1088
  17   2.0000      -0.788572       -21.4581
  18   2.0000      -0.777139       -21.1470
  19   2.0000      -0.766155       -20.8481
  20   2.0000      -0.729907       -19.8618
  21   2.0000      -0.674669       -18.3587
  22   2.0000      -0.602233       -16.3876
  23   2.0000      -0.599123       -16.3030
  24   2.0000      -0.593802       -16.1582
  25   2.0000      -0.580989       -15.8095
  26   2.0000      -0.520415       -14.1612
  27   2.0000      -0.519437       -14.1346
  28   2.0000      -0.495847       -13.4927
  29   2.0000      -0.487581       -13.2677
  30   2.0000      -0.467780       -12.7289
  31   2.0000      -0.456892       -12.4327
  32   2.0000      -0.449754       -12.2384
  33   2.0000      -0.441528       -12.0146
  34   2.0000      -0.425298       -11.5730
  35   2.0000      -0.412847       -11.2341
  36   2.0000      -0.399068       -10.8592
  37   2.0000      -0.390619       -10.6293
  38   2.0000      -0.373292       -10.1578
  39   2.0000      -0.365419        -9.9436
  40   2.0000      -0.357874        -9.7382
  41   2.0000      -0.353439        -9.6176
  42   2.0000      -0.351271        -9.5586
  43   2.0000      -0.330047        -8.9810
  44   2.0000      -0.318382        -8.6636
  45   2.0000      -0.311377        -8.4730
  46   2.0000      -0.300852        -8.1866
  47   2.0000      -0.277923        -7.5627
  48   2.0000      -0.262895        -7.1537
  49   2.0000      -0.252478        -6.8703
  50   2.0000      -0.239919        -6.5285
  51   0.0000       0.065177         1.7736
  52   0.0000       0.075631         2.0580
  53   0.0000       0.097003         2.6396
  54   0.0000       0.099666         2.7120
  55   0.0000       0.105981         2.8839

MULLIKEN ATOMIC CHARGES
-----------------------
   0 C :    0.286292
   1 C :   -0.252349
   2 C :   -0.300997
   3 C :   -0.002611
   4 O :   -0.501256
   5 H :    0.142161
   6 H :    0.143690
   7 H :    0.145508
   8 H :    0.141694
   9 H :    0.162113
  10 H :    0.154791
  11 H :    0.141540
  12 C :   -0.014114
  13 H :    0.136569
  14 H :    0.143132
  15 O :   -0.524458
  16 C :    0.062644
  17 C :    0.094482
  18 C :   -0.295884
  19 C :   -0.034573
  20 O :   -0.527528
  21 H :    0.169677
  22 O :   -0.604071
  23 H :    0.173578
  24 H :    0.160796
  25 H :    0.142648
  26 H :    0.146174
  27 H :    0.147605
  28 H :    0.362747
Sum of atomic charges:   -0.0000000

LOEWDIN ATOMIC CHARGES
----------------------
   0 C :    0.177151
   1 C :   -0.221304
   2 C :   -0.216642
   3 C :   -0.026623
   4 O :   -0.315829
   5 H :    0.098944
   6 H :    0.113008
   7 H :    0.117903
   8 H :    0.114052
   9 H :    0.118982
  10 H :    0.109315
  11 H :    0.102322
  12 C :   -0.035636
  13 H :    0.098755
  14 H :    0.105158
  15 O :   -0.335697
  16 C :    0.011171
  17 C :    0.039120
  18 C :   -0.240585
  19 C :   -0.039654
  20 O :   -0.333346
  21 H :    0.120728
  22 O :   -0.415219
  23 H :    0.126932
  24 H :    0.126344
  25 H :    0.112670
  26 H :    0.103469
  27 H :    0.103045
  28 H :    0.281464

  Mayer bond orders larger than 0.100000
B(  0-C ,  1-C ) :   0.9423 B(  0-C ,  4-O ) :   0.9352 B(  0-C ,  5-H ) :   0.9176
B(  0-C , 15-O ) :   0.8366 B(  1-C ,  2-C ) :   0.9574 B(  1-C ,  6-H ) :   0.9364
B(  1-C ,  7-H ) :   0.9389 B(  2-C ,  3-C ) :   0.9541 B(  2-C ,  8-H ) :   0.9452
B(  2-C ,  9-H ) :   0.9439 B(  3-C ,  4-O ) :   0.8362 B(  3-C , 10-H ) :   0.9343
B(  3-C , 11-H ) :   0.9399 B( 12-C , 13-H ) :   0.9324 B( 12-C , 14-H ) :   0.9183
B( 12-C , 15-O ) :   0.8361 B( 12-C , 16-C ) :   0.8897 B( 16-C , 17-C ) :   0.9171
B( 16-C , 20-O ) :   0.8391 B( 16-C , 21-H ) :   0.9252 B( 17-C , 18-C ) :   0.9114
B( 17-C , 22-O ) :   0.8900 B( 17-C , 23-H ) :   0.9246 B( 18-C , 19-C ) :   0.9418
B( 18-C , 24-H ) :   0.9382 B( 18-C , 25-H ) :   0.9354 B( 19-C , 20-O ) :   0.8455
B( 19-C , 26-H ) :   0.9354 B( 19-C , 27-H ) :   0.9377 B( 22-O , 28-H ) :   0.7957

FINAL SINGLE POINT ENERGY      -652.864262421336

DIPOLE MOMENT
-------------
                                X             Y             Z
Electronic contribution:     -0.89385      -4.95049       1.36186
Nuclear contribution   :      1.04049       5.89205      -2.29489
                        -----------------------------------------
Total Dipole Moment    :      0.14664       0.94157      -0.93303
                        -----------------------------------------
Magnitude (a.u.)       :      1.33364
Magnitude (Debye)      :      3.38984

Rotational constants in cm-1:     0.057288     0.012237     0.011567
Rotational constants in MHz :  1717.442535   366.867781   346.759751

                             ****ORCA TERMINATED NORMALLY****
TOTAL RUN TIME: 0 days 0 hours 24 minutes 12 seconds 69 msec
