                         Program Version 4.2.0 -  RELEASE  -
|  1> # Test redundant internal optimization
|  2> #
|  3> ! RKS B3LYP  Opt TightSCF SmallPrint
|  4>
|  5> %basis
|  6>         Basis "6-31G"
|  7> end
|  8>
|  9> %geom
| 10> Constraints
| 11> { D 4  0  15  12  0.0   C } # D for Dihedral angle
| 12> { D 0  15  12  16  105.0   C } # D for Dihedral angle
| 13> { D 0  4  3  2   C } # D for Dihedral angle
| 14> { D 4  3  2  1   C } # D for Dihedral angle
| 15> { D 3  2  1  0   C } # D for Dihedral angle
| 16> { D 2  1  0  4   C } # D for Dihedral angle
| 17> { D 1  0  4  3   C } # D for Dihedral angle
| 18> { D 16  20  19  18   C } # D for Dihedral angle
| 19> { D 20  19  18  17   C } # D for Dihedral angle
| 20> { D 19  18  17  16   C } # D for Dihedral angle
| 21> { D 18  17  16  20   C } # D for Dihedral angle
| 22> { D 17  16  20  19   C } # D for Dihedral angle
| 23> { D 15  12  16  20   C } # D for Dihedral angle
| 24> end
| 25> end
| 26>
| 27>
| 28> #%pal
| 29> #nprocs 8
| 30> #end
| 31>
| 32> * xyz 0 1
| 33> C  -21.048   26.222   46.251
| 34> C  -20.361   27.558   45.944
| 35> C  -20.329   28.222   47.341
| 36> C  -20.110   27.022   48.296
| 37> O  -20.473   25.807   47.535
| 38> H  -20.833   25.428   45.533
| 39> H  -19.344   27.382   45.576
| 40> H  -20.898   28.157   45.201
| 41> H  -19.543   28.978   47.434
| 42> H  -21.289   28.710   47.548
| 43> H  -20.733   27.082   49.195
| 44> H  -19.064   26.913   48.597
| 45> C  -23.172   26.101   47.783
| 46> H  -24.069   25.477   47.680
| 47> H  -22.443   25.554   48.396
| 48> O  -22.586   26.394   46.375
| 49> C  -23.562   27.393   48.553
| 50> C  -24.703   28.137   47.849
| 51> C  -25.935   27.314   48.295
| 52> C  -25.572   26.893   49.741
| 53> O  -24.108   27.059   49.872
| 54> H  -22.666   27.994   48.720
| 55> O  -24.795   29.594   48.378
| 56> H  -24.587   28.173   46.760
| 57> H  -26.867   27.887   48.249
| 58> H  -26.052   26.433   47.653
| 59> H  -25.835   25.851   49.953
| 60> H  -26.038   27.535   50.493
| 61> H  -24.912   29.584   49.468
| 62> *
| 63>
| 64>                          ****END OF INPUT****
 Total Charge           Charge          ....    0
 Multiplicity           Mult            ....    1
 Number of Electrons    NEL             ....  102
FINAL SINGLE POINT ENERGY      -652.835129378656
FINAL SINGLE POINT ENERGY      -652.856972299582
FINAL SINGLE POINT ENERGY      -652.860768226032
FINAL SINGLE POINT ENERGY      -652.861679659539
FINAL SINGLE POINT ENERGY      -652.861813946396
FINAL SINGLE POINT ENERGY      -652.861839845748
                    ***********************HURRAY********************

CARTESIAN COORDINATES (ANGSTROEM)
---------------------------------
  C    -21.114940   26.250382   46.377073
  C    -20.497514   27.591943   45.977983
  C    -20.281795   28.264987   47.355800
  C    -19.916520   27.077202   48.273353
  O    -20.376336   25.854803   47.549471
  H    -20.959791   25.456220   45.642273
  H    -19.541687   27.405399   45.475605
  H    -21.146702   28.165368   45.312755
  H    -19.488816   29.019172   47.330779
  H    -21.199862   28.760596   47.681838
  H    -20.404624   27.110086   49.251148
  H    -18.838086   26.963885   48.413410
  C    -23.168560   26.038715   47.852196
  H    -24.030816   25.396295   47.642607
  H    -22.469330   25.485966   48.485437
  O    -22.563028   26.338700   46.559566
  C    -23.607629   27.314460   48.573359
  C    -24.689567   28.132252   47.854145
  C    -25.972893   27.356350   48.238543
  C    -25.680869   26.877681   49.683680
  O    -24.210703   26.969762   49.867621
  H    -22.739409   27.938985   48.797064
  O    -24.711662   29.505026   48.337489
  H    -24.522894   28.201286   46.779950
  H    -26.851869   28.003059   48.173677
  H    -26.121299   26.509378   47.560505
  H    -25.997863   25.845815   49.862636
  H    -26.141408   27.519481   50.441295
  H    -24.680527   29.500743   49.317740

 Multiplicity           Mult            ....    1
 Number of Electrons    NEL             ....  102
 Basis Dimension        Dim             ....  149

ORBITAL ENERGIES
----------------

  NO   OCC          E(Eh)            E(eV)
   0   2.0000     -19.152779      -521.1736
   1   2.0000     -19.144369      -520.9448
   2   2.0000     -19.139565      -520.8141
   3   2.0000     -19.136072      -520.7190
   4   2.0000     -10.280189      -279.7382
   5   2.0000     -10.235499      -278.5221
   6   2.0000     -10.233572      -278.4697
   7   2.0000     -10.231652      -278.4174
   8   2.0000     -10.230542      -278.3872
   9   2.0000     -10.225134      -278.2400
  10   2.0000     -10.191289      -277.3191
  11   2.0000     -10.187753      -277.2229
  12   2.0000     -10.187263      -277.2095
  13   2.0000      -1.055181       -28.7129
  14   2.0000      -1.035403       -28.1747
  15   2.0000      -1.004563       -27.3356
  16   2.0000      -0.992969       -27.0201
  17   2.0000      -0.791778       -21.5454
  18   2.0000      -0.779881       -21.2216
  19   2.0000      -0.768321       -20.9071
  20   2.0000      -0.733741       -19.9661
  21   2.0000      -0.673186       -18.3183
  22   2.0000      -0.605200       -16.4683
  23   2.0000      -0.603194       -16.4137
  24   2.0000      -0.599043       -16.3008
  25   2.0000      -0.573211       -15.5979
  26   2.0000      -0.525959       -14.3121
  27   2.0000      -0.507146       -13.8001
  28   2.0000      -0.499372       -13.5886
  29   2.0000      -0.493129       -13.4187
  30   2.0000      -0.474926       -12.9234
  31   2.0000      -0.457491       -12.4490
  32   2.0000      -0.454288       -12.3618
  33   2.0000      -0.433468       -11.7953
  34   2.0000      -0.422786       -11.5046
  35   2.0000      -0.416580       -11.3357
  36   2.0000      -0.401421       -10.9232
  37   2.0000      -0.391379       -10.6500
  38   2.0000      -0.376004       -10.2316
  39   2.0000      -0.367036        -9.9875
  40   2.0000      -0.361763        -9.8441
  41   2.0000      -0.358636        -9.7590
  42   2.0000      -0.349953        -9.5227
  43   2.0000      -0.338007        -9.1976
  44   2.0000      -0.326513        -8.8849
  45   2.0000      -0.311274        -8.4702
  46   2.0000      -0.300533        -8.1779
  47   2.0000      -0.272798        -7.4232
  48   2.0000      -0.267748        -7.2858
  49   2.0000      -0.260798        -7.0967
  50   2.0000      -0.236638        -6.4393
  51   0.0000       0.063982         1.7410
  52   0.0000       0.074657         2.0315
  53   0.0000       0.090014         2.4494
  54   0.0000       0.094932         2.5832
  55   0.0000       0.100494         2.7346

MULLIKEN ATOMIC CHARGES
-----------------------
   0 C :    0.307679
   1 C :   -0.261770
   2 C :   -0.320163
   3 C :   -0.023630
   4 O :   -0.511249
   5 H :    0.157398
   6 H :    0.147661
   7 H :    0.161486
   8 H :    0.149505
   9 H :    0.168494
  10 H :    0.153839
  11 H :    0.154042
  12 C :   -0.031313
  13 H :    0.142917
  14 H :    0.179246
  15 O :   -0.542156
  16 C :    0.055356
  17 C :    0.089181
  18 C :   -0.307124
  19 C :   -0.027693
  20 O :   -0.529299
  21 H :    0.152741
  22 O :   -0.604832
  23 H :    0.173936
  24 H :    0.161207
  25 H :    0.152622
  26 H :    0.145635
  27 H :    0.146181
  28 H :    0.360103
Sum of atomic charges:    0.0000000

LOEWDIN ATOMIC CHARGES
----------------------
   0 C :    0.183809
   1 C :   -0.220528
   2 C :   -0.222749
   3 C :   -0.033676
   4 O :   -0.316341
   5 H :    0.104100
   6 H :    0.115908
   7 H :    0.126226
   8 H :    0.118531
   9 H :    0.116444
  10 H :    0.106297
  11 H :    0.109029
  12 C :   -0.044511
  13 H :    0.104605
  14 H :    0.122539
  15 O :   -0.345706
  16 C :    0.005258
  17 C :    0.036112
  18 C :   -0.242603
  19 C :   -0.037642
  20 O :   -0.331918
  21 H :    0.107289
  22 O :   -0.416466
  23 H :    0.126271
  24 H :    0.126141
  25 H :    0.117274
  26 H :    0.104083
  27 H :    0.102023
  28 H :    0.280200

  Mayer bond orders larger than 0.100000
B(  0-C ,  1-C ) :   0.9291 B(  0-C ,  4-O ) :   0.9145 B(  0-C ,  5-H ) :   0.9309
B(  0-C , 15-O ) :   0.8411 B(  1-C ,  2-C ) :   0.9525 B(  1-C ,  6-H ) :   0.9352
B(  1-C ,  7-H ) :   0.9354 B(  2-C ,  3-C ) :   0.9527 B(  2-C ,  8-H ) :   0.9439
B(  2-C ,  9-H ) :   0.9310 B(  3-C ,  4-O ) :   0.8265 B(  3-C , 10-H ) :   0.9304
B(  3-C , 11-H ) :   0.9394 B( 12-C , 13-H ) :   0.9360 B( 12-C , 14-H ) :   0.9075
B( 12-C , 15-O ) :   0.8323 B( 12-C , 16-C ) :   0.8845 B( 16-C , 17-C ) :   0.9089
B( 16-C , 20-O ) :   0.8352 B( 16-C , 21-H ) :   0.9183 B( 17-C , 18-C ) :   0.9143
B( 17-C , 22-O ) :   0.8876 B( 17-C , 23-H ) :   0.9246 B( 18-C , 19-C ) :   0.9432
B( 18-C , 24-H ) :   0.9379 B( 18-C , 25-H ) :   0.9333 B( 19-C , 20-O ) :   0.8438
B( 19-C , 26-H ) :   0.9358 B( 19-C , 27-H ) :   0.9376 B( 22-O , 28-H ) :   0.7978

FINAL SINGLE POINT ENERGY      -652.861842589200

DIPOLE MOMENT
-------------
                                X             Y             Z
Electronic contribution:     -0.24609      -1.70410       0.28392
Nuclear contribution   :      0.29125       1.85181      -0.22372
                        -----------------------------------------
Total Dipole Moment    :      0.04516       0.14771       0.06020
                        -----------------------------------------
Magnitude (a.u.)       :      0.16577
Magnitude (Debye)      :      0.42136

Rotational constants in cm-1:     0.049906     0.015202     0.014556
Rotational constants in MHz :  1496.152523   455.737505   436.371612

                             ****ORCA TERMINATED NORMALLY****
TOTAL RUN TIME: 0 days 0 hours 47 minutes 25 seconds 600 msec
