                         Program Version 4.2.0 -  RELEASE  -
|  1> # Test redundant internal optimization
|  2> #
|  3> ! RKS B3LYP  Opt TightSCF SmallPrint
|  4>
|  5> %basis
|  6>         Basis "6-31G"
|  7> end
|  8>
|  9> %geom
| 10> Constraints
| 11> { D 4  0  15  12  105.0   C } # D for Dihedral angle
| 12> { D 0  15  12  16  225.0   C } # D for Dihedral angle
| 13> { D 0  4  3  2   C } # D for Dihedral angle
| 14> { D 4  3  2  1   C } # D for Dihedral angle
| 15> { D 3  2  1  0   C } # D for Dihedral angle
| 16> { D 2  1  0  4   C } # D for Dihedral angle
| 17> { D 1  0  4  3   C } # D for Dihedral angle
| 18> { D 16  20  19  18   C } # D for Dihedral angle
| 19> { D 20  19  18  17   C } # D for Dihedral angle
| 20> { D 19  18  17  16   C } # D for Dihedral angle
| 21> { D 18  17  16  20   C } # D for Dihedral angle
| 22> { D 17  16  20  19   C } # D for Dihedral angle
| 23> { D 15  12  16  20   C } # D for Dihedral angle
| 24> end
| 25> end
| 26>
| 27>
| 28> #%pal
| 29> #nprocs 8
| 30> #end
| 31>
| 32> * xyz 0 1
| 33> C  -21.048   26.222   46.251
| 34> C  -20.361   27.558   45.944
| 35> C  -20.329   28.222   47.341
| 36> C  -20.110   27.022   48.296
| 37> O  -20.473   25.807   47.535
| 38> H  -20.833   25.428   45.533
| 39> H  -19.344   27.382   45.576
| 40> H  -20.898   28.157   45.201
| 41> H  -19.543   28.978   47.434
| 42> H  -21.289   28.710   47.548
| 43> H  -20.733   27.082   49.195
| 44> H  -19.064   26.913   48.597
| 45> C  -23.085   27.864   46.420
| 46> H  -22.234   28.529   46.615
| 47> H  -23.529   28.149   45.458
| 48> O  -22.586   26.394   46.375
| 49> C  -24.153   28.103   47.523
| 50> C  -25.337   27.142   47.369
| 51> C  -24.768   25.841   47.985
| 52> C  -23.865   26.361   49.131
| 53> O  -23.603   27.789   48.846
| 54> H  -24.427   29.159   47.534
| 55> O  -26.549   27.653   48.193
| 56> H  -25.656   27.014   46.329
| 57> H  -25.549   25.164   48.344
| 58> H  -24.172   25.301   47.240
| 59> H  -22.911   25.826   49.191
| 60> H  -24.359   26.314   50.106
| 61> H  -26.253   27.788   49.239
| 62> *
| 63>
| 64>                          ****END OF INPUT****
 Total Charge           Charge          ....    0
 Multiplicity           Mult            ....    1
 Number of Electrons    NEL             ....  102
FINAL SINGLE POINT ENERGY      -652.813594459948
FINAL SINGLE POINT ENERGY      -652.841634721886
FINAL SINGLE POINT ENERGY      -652.855476180161
FINAL SINGLE POINT ENERGY      -652.857841389598
FINAL SINGLE POINT ENERGY      -652.858179336440
FINAL SINGLE POINT ENERGY      -652.858227611441
FINAL SINGLE POINT ENERGY      -652.858217195431
                    ***********************HURRAY********************

CARTESIAN COORDINATES (ANGSTROEM)
---------------------------------
  C    -21.162284   26.391287   46.336525
  C    -20.230189   27.541981   45.929856
  C    -19.992723   28.265946   47.289612
  C    -19.981055   27.087603   48.295355
  O    -20.626373   25.946467   47.601572
  H    -21.101214   25.522923   45.678492
  H    -19.295448   27.112428   45.556998
  H    -20.646112   28.190163   45.153107
  H    -19.047169   28.817452   47.298319
  H    -20.790613   28.972756   47.525483
  H    -20.542409   27.306885   49.206838
  H    -18.968473   26.766882   48.555118
  C    -23.188274   27.974123   46.450114
  H    -22.459970   28.755201   46.671446
  H    -23.629275   28.186694   45.465503
  O    -22.581285   26.654206   46.412373
  C    -24.274800   28.020263   47.524511
  C    -25.443271   27.032854   47.389682
  C    -24.839606   25.743836   48.009290
  C    -23.934631   26.287447   49.141352
  O    -23.704210   27.727309   48.840652
  H    -24.661644   29.046288   47.563797
  O    -26.602804   27.517399   48.125287
  H    -25.790240   26.899723   46.364452
  H    -25.631847   25.084880   48.375987
  H    -24.240438   25.225328   47.260040
  H    -22.966059   25.784519   49.168604
  H    -24.407035   26.240948   50.128283
  H    -26.321548   27.768208   49.030351

 Multiplicity           Mult            ....    1
 Number of Electrons    NEL             ....  102
 Basis Dimension        Dim             ....  149

ORBITAL ENERGIES
----------------

  NO   OCC          E(Eh)            E(eV)
   0   2.0000     -19.145472      -520.9748
   1   2.0000     -19.141624      -520.8701
   2   2.0000     -19.135451      -520.7021
   3   2.0000     -19.131135      -520.5847
   4   2.0000     -10.284036      -279.8428
   5   2.0000     -10.235873      -278.5323
   6   2.0000     -10.232261      -278.4340
   7   2.0000     -10.231217      -278.4056
   8   2.0000     -10.226488      -278.2769
   9   2.0000     -10.214770      -277.9580
  10   2.0000     -10.197560      -277.4897
  11   2.0000     -10.194254      -277.3998
  12   2.0000     -10.168855      -276.7086
  13   2.0000      -1.053700       -28.6726
  14   2.0000      -1.027854       -27.9693
  15   2.0000      -1.001499       -27.2522
  16   2.0000      -0.992629       -27.0108
  17   2.0000      -0.791296       -21.5323
  18   2.0000      -0.778217       -21.1764
  19   2.0000      -0.760025       -20.6813
  20   2.0000      -0.733046       -19.9472
  21   2.0000      -0.677278       -18.4297
  22   2.0000      -0.608315       -16.5531
  23   2.0000      -0.599998       -16.3268
  24   2.0000      -0.590873       -16.0785
  25   2.0000      -0.567287       -15.4367
  26   2.0000      -0.526219       -14.3191
  27   2.0000      -0.508227       -13.8296
  28   2.0000      -0.497774       -13.5451
  29   2.0000      -0.486976       -13.2513
  30   2.0000      -0.470125       -12.7927
  31   2.0000      -0.458426       -12.4744
  32   2.0000      -0.444599       -12.0982
  33   2.0000      -0.435669       -11.8552
  34   2.0000      -0.425971       -11.5913
  35   2.0000      -0.410980       -11.1833
  36   2.0000      -0.401479       -10.9248
  37   2.0000      -0.388013       -10.5584
  38   2.0000      -0.380842       -10.3632
  39   2.0000      -0.362603        -9.8669
  40   2.0000      -0.361066        -9.8251
  41   2.0000      -0.355182        -9.6650
  42   2.0000      -0.351943        -9.5769
  43   2.0000      -0.325044        -8.8449
  44   2.0000      -0.314554        -8.5594
  45   2.0000      -0.302438        -8.2298
  46   2.0000      -0.290793        -7.9129
  47   2.0000      -0.277125        -7.5410
  48   2.0000      -0.261379        -7.1125
  49   2.0000      -0.253832        -6.9071
  50   2.0000      -0.238016        -6.4767
  51   0.0000       0.069732         1.8975
  52   0.0000       0.081357         2.2138
  53   0.0000       0.093517         2.5447
  54   0.0000       0.105712         2.8766
  55   0.0000       0.107561         2.9269

MULLIKEN ATOMIC CHARGES
-----------------------
   0 C :    0.321236
   1 C :   -0.301611
   2 C :   -0.315855
   3 C :   -0.007388
   4 O :   -0.501246
   5 H :    0.161753
   6 H :    0.159379
   7 H :    0.148845
   8 H :    0.145459
   9 H :    0.166592
  10 H :    0.162344
  11 H :    0.143535
  12 C :    0.003539
  13 H :    0.137187
  14 H :    0.132109
  15 O :   -0.537834
  16 C :    0.071128
  17 C :    0.079741
  18 C :   -0.287158
  19 C :   -0.030598
  20 O :   -0.536379
  21 H :    0.150003
  22 O :   -0.604278
  23 H :    0.149485
  24 H :    0.144952
  25 H :    0.181789
  26 H :    0.172697
  27 H :    0.129173
  28 H :    0.361399
Sum of atomic charges:    0.0000000

LOEWDIN ATOMIC CHARGES
----------------------
   0 C :    0.180814
   1 C :   -0.231163
   2 C :   -0.222410
   3 C :   -0.031084
   4 O :   -0.319755
   5 H :    0.108929
   6 H :    0.124891
   7 H :    0.116740
   8 H :    0.115906
   9 H :    0.114423
  10 H :    0.112438
  11 H :    0.103133
  12 C :   -0.035668
  13 H :    0.103566
  14 H :    0.097975
  15 O :   -0.327033
  16 C :    0.011990
  17 C :    0.039645
  18 C :   -0.241206
  19 C :   -0.036708
  20 O :   -0.338343
  21 H :    0.112952
  22 O :   -0.418077
  23 H :    0.115159
  24 H :    0.116647
  25 H :    0.134023
  26 H :    0.117932
  27 H :    0.093250
  28 H :    0.281034

  Mayer bond orders larger than 0.100000
B(  0-C ,  1-C ) :   0.9312 B(  0-C ,  4-O ) :   0.9091 B(  0-C ,  5-H ) :   0.9345
B(  0-C , 15-O ) :   0.8721 B(  1-C ,  2-C ) :   0.9517 B(  1-C ,  6-H ) :   0.9341
B(  1-C ,  7-H ) :   0.9334 B(  2-C ,  3-C ) :   0.9485 B(  2-C ,  8-H ) :   0.9450
B(  2-C ,  9-H ) :   0.9317 B(  3-C ,  4-O ) :   0.8393 B(  3-C , 10-H ) :   0.9298
B(  3-C , 11-H ) :   0.9392 B( 12-C , 13-H ) :   0.9044 B( 12-C , 14-H ) :   0.9204
B( 12-C , 15-O ) :   0.8449 B( 12-C , 16-C ) :   0.8947 B( 16-C , 17-C ) :   0.9115
B( 16-C , 20-O ) :   0.8758 B( 16-C , 21-H ) :   0.9207 B( 17-C , 18-C ) :   0.9271
B( 17-C , 22-O ) :   0.8885 B( 17-C , 23-H ) :   0.9360 B( 18-C , 19-C ) :   0.9465
B( 18-C , 24-H ) :   0.9374 B( 18-C , 25-H ) :   0.9163 B( 19-C , 20-O ) :   0.8285
B( 19-C , 26-H ) :   0.9231 B( 19-C , 27-H ) :   0.9377 B( 22-O , 28-H ) :   0.7968

FINAL SINGLE POINT ENERGY      -652.858214367976

DIPOLE MOMENT
-------------
                                X             Y             Z
Electronic contribution:     -3.46266      -1.43387       0.53288
Nuclear contribution   :      4.54771       2.05861      -1.00552
                        -----------------------------------------
Total Dipole Moment    :      1.08505       0.62474      -0.47263
                        -----------------------------------------
Magnitude (a.u.)       :      1.33829
Magnitude (Debye)      :      3.40166

Rotational constants in cm-1:     0.056549     0.016014     0.015320
Rotational constants in MHz :  1695.283939   480.076169   459.287986

                             ****ORCA TERMINATED NORMALLY****
TOTAL RUN TIME: 0 days 0 hours 45 minutes 19 seconds 220 msec
