                         Program Version 4.2.0 -  RELEASE  -
|  1> # Test redundant internal optimization
|  2> #
|  3> ! RKS B3LYP  Opt TightSCF SmallPrint
|  4>
|  5> %basis
|  6>         Basis "6-31G"
|  7> end
|  8>
|  9> %geom
| 10> Constraints
| 11> { D 4  0  15  12  90.0   C } # D for Dihedral angle
| 12> { D 0  15  12  16  150.0   C } # D for Dihedral angle
| 13> { D 0  4  3  2   C } # D for Dihedral angle
| 14> { D 4  3  2  1   C } # D for Dihedral angle
| 15> { D 3  2  1  0   C } # D for Dihedral angle
| 16> { D 2  1  0  4   C } # D for Dihedral angle
| 17> { D 1  0  4  3   C } # D for Dihedral angle
| 18> { D 16  20  19  18   C } # D for Dihedral angle
| 19> { D 20  19  18  17   C } # D for Dihedral angle
| 20> { D 19  18  17  16   C } # D for Dihedral angle
| 21> { D 18  17  16  20   C } # D for Dihedral angle
| 22> { D 17  16  20  19   C } # D for Dihedral angle
| 23> { D 15  12  16  20   C } # D for Dihedral angle
| 24> end
| 25> end
| 26>
| 27>
| 28> #%pal
| 29> #nprocs 8
| 30> #end
| 31>
| 32> * xyz 0 1
| 33> C  -21.048   26.222   46.251
| 34> C  -20.361   27.558   45.944
| 35> C  -20.329   28.222   47.341
| 36> C  -20.110   27.022   48.296
| 37> O  -20.473   25.807   47.535
| 38> H  -20.833   25.428   45.533
| 39> H  -19.344   27.382   45.576
| 40> H  -20.898   28.157   45.201
| 41> H  -19.543   28.978   47.434
| 42> H  -21.289   28.710   47.548
| 43> H  -20.733   27.082   49.195
| 44> H  -19.064   26.913   48.597
| 45> C  -23.061   27.816   46.783
| 46> H  -23.113   27.880   47.877
| 47> H  -22.351   28.574   46.428
| 48> O  -22.586   26.394   46.375
| 49> C  -24.459   28.170   46.206
| 50> C  -24.844   29.618   46.531
| 51> C  -24.037   30.403   45.470
| 52> C  -24.071   29.465   44.238
| 53> O  -24.436   28.123   44.741
| 54> H  -25.184   27.424   46.539
| 55> H  -25.921   29.764   46.384
| 56> O  -24.489   30.032   47.986
| 57> H  -24.463   31.389   45.256
| 58> H  -23.007   30.551   45.814
| 59> H  -23.103   29.406   43.729
| 60> H  -24.836   29.757   43.512
| 61> H  -23.416   29.896   48.157
| 62> *
| 63>
| 64>                          ****END OF INPUT****
 Total Charge           Charge          ....    0
 Multiplicity           Mult            ....    1
 Number of Electrons    NEL             ....  102
FINAL SINGLE POINT ENERGY      -652.802211306914
FINAL SINGLE POINT ENERGY      -652.830898658924
FINAL SINGLE POINT ENERGY      -652.845625346454
FINAL SINGLE POINT ENERGY      -652.848025495536
FINAL SINGLE POINT ENERGY      -652.848446384623
FINAL SINGLE POINT ENERGY      -652.848553679971
FINAL SINGLE POINT ENERGY      -652.848565618040
FINAL SINGLE POINT ENERGY      -652.848566556477
                    ***********************HURRAY********************

CARTESIAN COORDINATES (ANGSTROEM)
---------------------------------
  C    -21.176076   26.336792   46.367298
  C    -20.188881   27.446847   45.976811
  C    -19.849741   28.083451   47.357967
  C    -19.873419   26.853210   48.303321
  O    -20.616174   25.794221   47.587304
  H    -21.190615   25.502191   45.665578
  H    -19.299646   26.981062   45.541149
  H    -20.599036   28.154778   45.251090
  H    -18.872959   28.577430   47.358006
  H    -20.596268   28.825824   47.651962
  H    -20.367485   27.056142   49.258664
  H    -18.870046   26.463752   48.499804
  C    -23.062266   27.973049   46.873174
  H    -23.211970   27.998993   47.960895
  H    -22.359325   28.766268   46.590081
  O    -22.571546   26.673148   46.460613
  C    -24.397127   28.191127   46.161034
  C    -25.055943   29.551553   46.448428
  C    -24.321431   30.482640   45.437807
  C    -24.104464   29.558510   44.220228
  O    -24.262977   28.164278   44.708072
  H    -25.053813   27.353555   46.412348
  H    -26.119884   29.493634   46.209061
  O    -25.017477   29.990232   47.827956
  H    -24.904662   31.375795   45.198904
  H    -23.365761   30.810208   45.869634
  H    -23.112730   29.670523   43.769369
  H    -24.859947   29.712958   43.443778
  H    -24.120329   30.300830   48.066663

 Multiplicity           Mult            ....    1
 Number of Electrons    NEL             ....  102
 Basis Dimension        Dim             ....  149

ORBITAL ENERGIES
----------------

  NO   OCC          E(Eh)            E(eV)
   0   2.0000     -19.153244      -521.1863
   1   2.0000     -19.140059      -520.8275
   2   2.0000     -19.139144      -520.8026
   3   2.0000     -19.137092      -520.7468
   4   2.0000     -10.276791      -279.6457
   5   2.0000     -10.248044      -278.8635
   6   2.0000     -10.234081      -278.4835
   7   2.0000     -10.233727      -278.4739
   8   2.0000     -10.231004      -278.3998
   9   2.0000     -10.228450      -278.3303
  10   2.0000     -10.199539      -277.5436
  11   2.0000     -10.196379      -277.4576
  12   2.0000     -10.193816      -277.3878
  13   2.0000      -1.049822       -28.5671
  14   2.0000      -1.035943       -28.1894
  15   2.0000      -1.018109       -27.7042
  16   2.0000      -0.994060       -27.0497
  17   2.0000      -0.789972       -21.4962
  18   2.0000      -0.786214       -21.3940
  19   2.0000      -0.774090       -21.0641
  20   2.0000      -0.733219       -19.9519
  21   2.0000      -0.686978       -18.6936
  22   2.0000      -0.614745       -16.7281
  23   2.0000      -0.605878       -16.4868
  24   2.0000      -0.598488       -16.2857
  25   2.0000      -0.573550       -15.6071
  26   2.0000      -0.529632       -14.4120
  27   2.0000      -0.508566       -13.8388
  28   2.0000      -0.506572       -13.7845
  29   2.0000      -0.495535       -13.4842
  30   2.0000      -0.474568       -12.9136
  31   2.0000      -0.462290       -12.5796
  32   2.0000      -0.447683       -12.1821
  33   2.0000      -0.436616       -11.8809
  34   2.0000      -0.427345       -11.6286
  35   2.0000      -0.422411       -11.4944
  36   2.0000      -0.410639       -11.1741
  37   2.0000      -0.403796       -10.9879
  38   2.0000      -0.385170       -10.4810
  39   2.0000      -0.380276       -10.3478
  40   2.0000      -0.362862        -9.8740
  41   2.0000      -0.358477        -9.7546
  42   2.0000      -0.351091        -9.5537
  43   2.0000      -0.333027        -9.0621
  44   2.0000      -0.317870        -8.6497
  45   2.0000      -0.313977        -8.5438
  46   2.0000      -0.295179        -8.0322
  47   2.0000      -0.273607        -7.4452
  48   2.0000      -0.265075        -7.2131
  49   2.0000      -0.253037        -6.8855
  50   2.0000      -0.241212        -6.5637
  51   0.0000       0.041778         1.1368
  52   0.0000       0.062453         1.6994
  53   0.0000       0.081566         2.2195
  54   0.0000       0.091020         2.4768
  55   0.0000       0.101874         2.7721

MULLIKEN ATOMIC CHARGES
-----------------------
   0 C :    0.311421
   1 C :   -0.296753
   2 C :   -0.312801
   3 C :   -0.005592
   4 O :   -0.499917
   5 H :    0.170658
   6 H :    0.159395
   7 H :    0.151890
   8 H :    0.145079
   9 H :    0.138977
  10 H :    0.143664
  11 H :    0.146370
  12 C :   -0.012646
  13 H :    0.141900
  14 H :    0.115459
  15 O :   -0.511802
  16 C :    0.095087
  17 C :    0.076918
  18 C :   -0.321940
  19 C :   -0.013509
  20 O :   -0.503809
  21 H :    0.172479
  22 H :    0.173964
  23 O :   -0.598112
  24 H :    0.159116
  25 H :    0.127975
  26 H :    0.139477
  27 H :    0.153146
  28 H :    0.353906
Sum of atomic charges:   -0.0000000

LOEWDIN ATOMIC CHARGES
----------------------
   0 C :    0.177864
   1 C :   -0.232016
   2 C :   -0.224778
   3 C :   -0.032321
   4 O :   -0.320381
   5 H :    0.115547
   6 H :    0.124901
   7 H :    0.117494
   8 H :    0.115263
   9 H :    0.103732
  10 H :    0.102193
  11 H :    0.103846
  12 C :   -0.050799
  13 H :    0.102857
  14 H :    0.086433
  15 O :   -0.306407
  16 C :    0.021234
  17 C :    0.033863
  18 C :   -0.242085
  19 C :   -0.031737
  20 O :   -0.312230
  21 H :    0.123627
  22 H :    0.121981
  23 O :   -0.406536
  24 H :    0.123460
  25 H :    0.101057
  26 H :    0.099935
  27 H :    0.107475
  28 H :    0.276527

  Mayer bond orders larger than 0.100000
B(  0-C ,  1-C ) :   0.9246 B(  0-C ,  4-O ) :   0.8972 B(  0-C ,  5-H ) :   0.9343
B(  0-C , 15-O ) :   0.9014 B(  1-C ,  2-C ) :   0.9533 B(  1-C ,  6-H ) :   0.9348
B(  1-C ,  7-H ) :   0.9318 B(  2-C ,  3-C ) :   0.9460 B(  2-C ,  8-H ) :   0.9459
B(  2-C ,  9-H ) :   0.9409 B(  3-C ,  4-O ) :   0.8534 B(  3-C , 10-H ) :   0.9340
B(  3-C , 11-H ) :   0.9388 B( 12-C , 13-H ) :   0.9063 B( 12-C , 14-H ) :   0.9050
B( 12-C , 15-O ) :   0.8504 B( 12-C , 16-C ) :   0.9008 B( 16-C , 17-C ) :   0.8724
B( 16-C , 20-O ) :   0.8687 B( 16-C , 21-H ) :   0.9272 B( 17-C , 18-C ) :   0.9243
B( 17-C , 22-H ) :   0.9315 B( 17-C , 23-O ) :   0.8962 B( 18-C , 19-C ) :   0.9369
B( 18-C , 24-H ) :   0.9417 B( 18-C , 25-H ) :   0.9411 B( 19-C , 20-O ) :   0.8537
B( 19-C , 26-H ) :   0.9317 B( 19-C , 27-H ) :   0.9372 B( 23-O , 28-H ) :   0.7993

FINAL SINGLE POINT ENERGY      -652.848554626194

DIPOLE MOMENT
-------------
                                X             Y             Z
Electronic contribution:     -4.24325      -5.27359       0.29648
Nuclear contribution   :      5.32683       7.11766      -0.51178
                        -----------------------------------------
Total Dipole Moment    :      1.08358       1.84407      -0.21530
                        -----------------------------------------
Magnitude (a.u.)       :      2.14967
Magnitude (Debye)      :      5.46403

Rotational constants in cm-1:     0.048234     0.014109     0.013294
Rotational constants in MHz :  1446.027963   422.980062   398.542031

                             ****ORCA TERMINATED NORMALLY****
TOTAL RUN TIME: 0 days 2 hours 22 minutes 37 seconds 564 msec
