                         Program Version 4.2.1 -  RELEASE  -
|  1> # Test redundant internal optimization
|  2> #
|  3> ! RKS B3LYP  Opt TightSCF SmallPrint
|  4>
|  5> %basis
|  6>         Basis "6-31G"
|  7> end
|  8>
|  9> %geom
| 10> Constraints
| 11> { D 4  0  19  14  45.0   C } # D for Dihedral angle
| 12> { D 0  19  14  12  150.0   C } # D for Dihedral angle
| 13> { D 0  4  3  2   C } # D for Dihedral angle
| 14> { D 4  3  2  1   C } # D for Dihedral angle
| 15> { D 3  2  1  0   C } # D for Dihedral angle
| 16> { D 2  1  0  4   C } # D for Dihedral angle
| 17> { D 1  0  4  3   C } # D for Dihedral angle
| 18> { D 14  15  16  17   C } # D for Dihedral angle
| 19> { D 15  16  17  12   C } # D for Dihedral angle
| 20> { D 16  17  12  14   C } # D for Dihedral angle
| 21> { D 17  12  14  15   C } # D for Dihedral angle
| 22> { D 12  14  15  16   C } # D for Dihedral angle
| 23> end
| 24> end
| 25>
| 26>
| 27> #%pal
| 28> #nprocs 8
| 29> #end
| 30>
| 31> * xyz 0 1
| 32> C  -21.048   26.222   46.251
| 33> C  -20.361   27.558   45.944
| 34> C  -20.329   28.222   47.341
| 35> C  -20.110   27.022   48.296
| 36> O  -20.473   25.807   47.535
| 37> H  -20.833   25.428   45.533
| 38> H  -19.344   27.382   45.576
| 39> H  -20.898   28.157   45.201
| 40> H  -19.543   28.978   47.434
| 41> H  -21.289   28.710   47.548
| 42> H  -20.733   27.082   49.195
| 43> H  -19.064   26.913   48.597
| 44> C  -24.200   27.846   47.255
| 45> H  -24.393   28.617   48.018
| 46> C  -22.896   27.093   47.540
| 47> C  -23.337   26.108   48.647
| 48> C  -24.791   25.754   48.245
| 49> O  -25.235   26.807   47.306
| 50> H  -24.253   28.302   46.265
| 51> O  -22.472   26.381   46.366
| 52> H  -22.080   27.751   47.857
| 53> H  -22.694   25.224   48.710
| 54> H  -23.317   26.605   49.625
| 55> H  -25.470   25.729   49.104
| 56> H  -24.857   24.800   47.714
| 57> *
| 58>
| 59>                          ****END OF INPUT****
 Total Charge           Charge          ....    0
 Multiplicity           Mult            ....    1
 Number of Electrons    NEL             ....   86
FINAL SINGLE POINT ENERGY      -538.395306534869
FINAL SINGLE POINT ENERGY      -538.424108232150
FINAL SINGLE POINT ENERGY      -538.426895083354
FINAL SINGLE POINT ENERGY      -538.427256594237
FINAL SINGLE POINT ENERGY      -538.427294811693
FINAL SINGLE POINT ENERGY      -538.427306684006
                    ***********************HURRAY********************

CARTESIAN COORDINATES (ANGSTROEM)
---------------------------------
  C    -21.080339   26.332498   46.390007
  C    -20.296973   27.568569   45.922686
  C    -19.970309   28.274089   47.270874
  C    -19.748515   27.078821   48.232465
  O    -20.370485   25.900723   47.577528
  H    -21.014270   25.505616   45.680327
  H    -19.378917   27.235015   45.427532
  H    -20.871194   28.188599   45.230346
  H    -19.079083   28.906344   47.203481
  H    -20.798737   28.912713   47.589995
  H    -20.205587   27.222045   49.216408
  H    -18.688220   26.844402   48.364328
  C    -24.410438   27.783965   47.259902
  H    -24.756099   28.518732   48.003370
  C    -23.095043   27.146958   47.709307
  C    -23.586219   26.100759   48.730879
  C    -24.931181   25.625909   48.133111
  O    -25.338782   26.659959   47.156086
  H    -24.344593   28.250538   46.275967
  O    -22.505308   26.479426   46.550881
  H    -22.412681   27.874506   48.154492
  H    -22.854801   25.298573   48.847179
  H    -23.736544   26.582868   49.704848
  H    -25.715219   25.517879   48.890979
  H    -24.830462   24.688495   47.580022

 Multiplicity           Mult            ....    1
 Number of Electrons    NEL             ....   86
 Basis Dimension        Dim             ....  127

ORBITAL ENERGIES
----------------

  NO   OCC          E(Eh)            E(eV)
   0   2.0000     -19.148167      -521.0481
   1   2.0000     -19.140211      -520.8316
   2   2.0000     -19.123153      -520.3674
   3   2.0000     -10.280296      -279.7411
   4   2.0000     -10.240151      -278.6487
   5   2.0000     -10.235076      -278.5106
   6   2.0000     -10.219854      -278.0964
   7   2.0000     -10.214704      -277.9562
   8   2.0000     -10.197450      -277.4867
   9   2.0000     -10.191296      -277.3193
  10   2.0000     -10.178576      -276.9731
  11   2.0000      -1.054661       -28.6988
  12   2.0000      -1.012388       -27.5485
  13   2.0000      -0.989954       -26.9380
  14   2.0000      -0.792922       -21.5765
  15   2.0000      -0.782638       -21.2967
  16   2.0000      -0.739898       -20.1336
  17   2.0000      -0.722378       -19.6569
  18   2.0000      -0.619265       -16.8511
  19   2.0000      -0.607719       -16.5369
  20   2.0000      -0.593981       -16.1630
  21   2.0000      -0.565383       -15.3849
  22   2.0000      -0.526181       -14.3181
  23   2.0000      -0.504008       -13.7148
  24   2.0000      -0.484105       -13.1732
  25   2.0000      -0.480126       -13.0649
  26   2.0000      -0.452043       -12.3007
  27   2.0000      -0.447375       -12.1737
  28   2.0000      -0.424647       -11.5552
  29   2.0000      -0.415816       -11.3149
  30   2.0000      -0.411829       -11.2064
  31   2.0000      -0.386617       -10.5204
  32   2.0000      -0.374729       -10.1969
  33   2.0000      -0.367400        -9.9975
  34   2.0000      -0.363835        -9.9005
  35   2.0000      -0.360235        -9.8025
  36   2.0000      -0.343179        -9.3384
  37   2.0000      -0.321938        -8.7604
  38   2.0000      -0.310383        -8.4460
  39   2.0000      -0.293612        -7.9896
  40   2.0000      -0.265846        -7.2340
  41   2.0000      -0.253025        -6.8851
  42   2.0000      -0.228022        -6.2048
  43   0.0000       0.065406         1.7798
  44   0.0000       0.091419         2.4876
  45   0.0000       0.096579         2.6281
  46   0.0000       0.109869         2.9897
  47   0.0000       0.120980         3.2920

MULLIKEN ATOMIC CHARGES
-----------------------
   0 C :    0.298175
   1 C :   -0.264376
   2 C :   -0.320548
   3 C :   -0.015116
   4 O :   -0.509766
   5 H :    0.166350
   6 H :    0.152688
   7 H :    0.154653
   8 H :    0.148027
   9 H :    0.151431
  10 H :    0.144015
  11 H :    0.151402
  12 C :    0.010430
  13 H :    0.120557
  14 C :    0.057599
  15 C :   -0.287579
  16 C :   -0.000885
  17 O :   -0.518320
  18 H :    0.159335
  19 O :   -0.517943
  20 H :    0.123963
  21 H :    0.176482
  22 H :    0.130803
  23 H :    0.133798
  24 H :    0.154825
Sum of atomic charges:   -0.0000000

LOEWDIN ATOMIC CHARGES
----------------------
   0 C :    0.177530
   1 C :   -0.226593
   2 C :   -0.225201
   3 C :   -0.035796
   4 O :   -0.323951
   5 H :    0.112909
   6 H :    0.119701
   7 H :    0.122056
   8 H :    0.117064
   9 H :    0.108444
  10 H :    0.101274
  11 H :    0.107018
  12 C :   -0.035491
  13 H :    0.089049
  14 C :    0.036198
  15 C :   -0.233112
  16 C :   -0.028602
  17 O :   -0.328729
  18 H :    0.118621
  19 O :   -0.316428
  20 H :    0.096750
  21 H :    0.133233
  22 H :    0.107432
  23 H :    0.097492
  24 H :    0.109131

  Mayer bond orders larger than 0.100000
B(  0-C ,  1-C ) :   0.9155 B(  0-C ,  4-O ) :   0.8922 B(  0-C ,  5-H ) :   0.9358
B(  0-C , 19-O ) :   0.8982 B(  1-C ,  2-C ) :   0.9539 B(  1-C ,  6-H ) :   0.9347
B(  1-C ,  7-H ) :   0.9372 B(  2-C ,  3-C ) :   0.9476 B(  2-C ,  8-H ) :   0.9439
B(  2-C ,  9-H ) :   0.9382 B(  3-C ,  4-O ) :   0.8430 B(  3-C , 10-H ) :   0.9324
B(  3-C , 11-H ) :   0.9383 B( 12-C , 13-H ) :   0.9144 B( 12-C , 14-C ) :   0.9367
B( 12-C , 17-O ) :   0.8761 B( 12-C , 18-H ) :   0.9315 B( 14-C , 15-C ) :   0.9362
B( 14-C , 19-O ) :   0.8195 B( 14-C , 20-H ) :   0.9089 B( 15-C , 16-C ) :   0.9483
B( 15-C , 21-H ) :   0.9326 B( 15-C , 22-H ) :   0.9382 B( 16-C , 17-O ) :   0.8533
B( 16-C , 23-H ) :   0.9333 B( 16-C , 24-H ) :   0.9360

FINAL SINGLE POINT ENERGY      -538.427306952637

DIPOLE MOMENT
-------------
                                X             Y             Z
Electronic contribution:     -2.30597      -3.00141      -2.31841
Nuclear contribution   :      3.45223       3.99256       2.95185
                        -----------------------------------------
Total Dipole Moment    :      1.14626       0.99115       0.63344
                        -----------------------------------------
Magnitude (a.u.)       :      1.64242
Magnitude (Debye)      :      4.17470

Rotational constants in cm-1:     0.079418     0.022260     0.020974
Rotational constants in MHz :  2380.880471   667.339145   628.795622

                             ****ORCA TERMINATED NORMALLY****
TOTAL RUN TIME: 0 days 0 hours 16 minutes 46 seconds 921 msec
