                         Program Version 4.2.0 -  RELEASE  -
|  1> # Test redundant internal optimization
|  2> #
|  3> ! RKS B3LYP  Opt TightSCF SmallPrint
|  4>
|  5> %basis
|  6>         Basis "6-31G"
|  7> end
|  8>
|  9> %geom
| 10> Constraints
| 11> { D 4  0  15  12  60.0   C } # D for Dihedral angle
| 12> { D 0  15  12  16  120.0   C } # D for Dihedral angle
| 13> { D 0  4  3  2   C } # D for Dihedral angle
| 14> { D 4  3  2  1   C } # D for Dihedral angle
| 15> { D 3  2  1  0   C } # D for Dihedral angle
| 16> { D 2  1  0  4   C } # D for Dihedral angle
| 17> { D 1  0  4  3   C } # D for Dihedral angle
| 18> { D 16  20  19  18   C } # D for Dihedral angle
| 19> { D 20  19  18  17   C } # D for Dihedral angle
| 20> { D 19  18  17  16   C } # D for Dihedral angle
| 21> { D 18  17  16  20   C } # D for Dihedral angle
| 22> { D 17  16  20  19   C } # D for Dihedral angle
| 23> { D 15  12  16  20   C } # D for Dihedral angle
| 24> end
| 25> end
| 26>
| 27>
| 28> #%pal
| 29> #nprocs 8
| 30> #end
| 31>
| 32> * xyz 0 1
| 33> C  -21.048   26.222   46.251
| 34> C  -20.361   27.558   45.944
| 35> C  -20.329   28.222   47.341
| 36> C  -20.110   27.022   48.296
| 37> O  -20.473   25.807   47.535
| 38> H  -20.833   25.428   45.533
| 39> H  -19.344   27.382   45.576
| 40> H  -20.898   28.157   45.201
| 41> H  -19.543   28.978   47.434
| 42> H  -21.289   28.710   47.548
| 43> H  -20.733   27.082   49.195
| 44> H  -19.064   26.913   48.597
| 45> C  -23.051   27.452   47.413
| 46> H  -23.665   26.962   48.179
| 47> H  -22.185   27.909   47.909
| 48> O  -22.586   26.394   46.375
| 49> C  -23.887   28.594   46.774
| 50> C  -23.123   29.270   45.629
| 51> C  -23.333   28.261   44.474
| 52> C  -24.765   27.727   44.729
| 53> O  -25.091   28.053   46.135
| 54> H  -24.220   29.276   47.558
| 55> O  -23.775   30.637   45.287
| 56> H  -22.065   29.439   45.857
| 57> H  -23.229   28.719   43.485
| 58> H  -22.600   27.448   44.546
| 59> H  -24.842   26.645   44.584
| 60> H  -25.513   28.222   44.103
| 61> H  -24.836   30.492   45.054
| 62> *
| 63>
| 64>                          ****END OF INPUT****
 Total Charge           Charge          ....    0
 Multiplicity           Mult            ....    1
 Number of Electrons    NEL             ....  102
FINAL SINGLE POINT ENERGY      -652.789505792854
FINAL SINGLE POINT ENERGY      -652.829191951793
FINAL SINGLE POINT ENERGY      -652.847497326144
FINAL SINGLE POINT ENERGY      -652.851363108016
FINAL SINGLE POINT ENERGY      -652.851995928508
FINAL SINGLE POINT ENERGY      -652.852127145534
FINAL SINGLE POINT ENERGY      -652.852151816099
FINAL SINGLE POINT ENERGY      -652.852153867615
                    ***********************HURRAY********************

CARTESIAN COORDINATES (ANGSTROEM)
---------------------------------
  C    -21.144042   26.243171   46.497488
  C    -20.244001   27.376353   45.977566
  C    -19.957199   28.192056   47.277515
  C    -19.887759   27.077796   48.353687
  O    -20.546106   25.889441   47.764601
  H    -21.082312   25.348669   45.875847
  H    -19.320051   26.927503   45.599146
  H    -20.694131   27.970931   45.182440
  H    -19.019736   28.753113   47.214093
  H    -20.755359   28.909898   47.481255
  H    -20.397293   27.342441   49.285428
  H    -18.857741   26.790498   48.583362
  C    -23.201119   27.437578   47.422521
  H    -23.887133   26.883017   48.071009
  H    -22.470390   27.939287   48.064829
  O    -22.579106   26.431698   46.564893
  C    -24.039270   28.483388   46.678331
  C    -23.348894   29.376830   45.635696
  C    -23.389742   28.478721   44.366666
  C    -24.743090   27.737089   44.520172
  O    -25.136391   27.863901   45.938243
  H    -24.500231   29.113146   47.450297
  O    -24.093021   30.613097   45.451329
  H    -22.343106   29.691337   45.914087
  H    -23.335076   29.088276   43.460712
  H    -22.568886   27.762486   44.374855
  H    -24.663781   26.675426   44.273163
  H    -25.542305   28.186063   43.920760
  H    -25.043729   30.397790   45.342009

 Multiplicity           Mult            ....    1
 Number of Electrons    NEL             ....  102
 Basis Dimension        Dim             ....  149

ORBITAL ENERGIES
----------------

  NO   OCC          E(Eh)            E(eV)
   0   2.0000     -19.148106      -521.0465
   1   2.0000     -19.147556      -521.0315
   2   2.0000     -19.139674      -520.8170
   3   2.0000     -19.139591      -520.8148
   4   2.0000     -10.284801      -279.8637
   5   2.0000     -10.243260      -278.7333
   6   2.0000     -10.236587      -278.5517
   7   2.0000     -10.235385      -278.5190
   8   2.0000     -10.233992      -278.4811
   9   2.0000     -10.225633      -278.2536
  10   2.0000     -10.200432      -277.5679
  11   2.0000     -10.197875      -277.4983
  12   2.0000     -10.184423      -277.1322
  13   2.0000      -1.056578       -28.7509
  14   2.0000      -1.037149       -28.2223
  15   2.0000      -1.007729       -27.4217
  16   2.0000      -0.997099       -27.1324
  17   2.0000      -0.795194       -21.6383
  18   2.0000      -0.782020       -21.2799
  19   2.0000      -0.771446       -20.9921
  20   2.0000      -0.739553       -20.1243
  21   2.0000      -0.680816       -18.5259
  22   2.0000      -0.612506       -16.6671
  23   2.0000      -0.609500       -16.5853
  24   2.0000      -0.602192       -16.3865
  25   2.0000      -0.570650       -15.5282
  26   2.0000      -0.522826       -14.2268
  27   2.0000      -0.520147       -14.1539
  28   2.0000      -0.506286       -13.7767
  29   2.0000      -0.495600       -13.4860
  30   2.0000      -0.471540       -12.8313
  31   2.0000      -0.457537       -12.4502
  32   2.0000      -0.452671       -12.3178
  33   2.0000      -0.436189       -11.8693
  34   2.0000      -0.431008       -11.7283
  35   2.0000      -0.425175       -11.5696
  36   2.0000      -0.410119       -11.1599
  37   2.0000      -0.391681       -10.6582
  38   2.0000      -0.385679       -10.4949
  39   2.0000      -0.375311       -10.2127
  40   2.0000      -0.370388       -10.0788
  41   2.0000      -0.360401        -9.8070
  42   2.0000      -0.349958        -9.5228
  43   2.0000      -0.332658        -9.0521
  44   2.0000      -0.320286        -8.7154
  45   2.0000      -0.311796        -8.4844
  46   2.0000      -0.306150        -8.3308
  47   2.0000      -0.272690        -7.4203
  48   2.0000      -0.268361        -7.3025
  49   2.0000      -0.261334        -7.1113
  50   2.0000      -0.239239        -6.5100
  51   0.0000       0.060292         1.6406
  52   0.0000       0.071600         1.9483
  53   0.0000       0.083709         2.2778
  54   0.0000       0.096488         2.6256
  55   0.0000       0.106967         2.9107

MULLIKEN ATOMIC CHARGES
-----------------------
   0 C :    0.303702
   1 C :   -0.283192
   2 C :   -0.325087
   3 C :   -0.012038
   4 O :   -0.503774
   5 H :    0.166824
   6 H :    0.158630
   7 H :    0.149899
   8 H :    0.150301
   9 H :    0.155200
  10 H :    0.146989
  11 H :    0.150334
  12 C :   -0.003388
  13 H :    0.169828
  14 H :    0.123150
  15 O :   -0.522905
  16 C :    0.070413
  17 C :    0.067842
  18 C :   -0.291810
  19 C :   -0.021404
  20 O :   -0.522138
  21 H :    0.153911
  22 O :   -0.602777
  23 H :    0.146072
  24 H :    0.151149
  25 H :    0.161945
  26 H :    0.158979
  27 H :    0.138610
  28 H :    0.364733
Sum of atomic charges:   -0.0000000

LOEWDIN ATOMIC CHARGES
----------------------
   0 C :    0.176120
   1 C :   -0.232064
   2 C :   -0.225954
   3 C :   -0.034846
   4 O :   -0.317816
   5 H :    0.113671
   6 H :    0.123756
   7 H :    0.116968
   8 H :    0.118409
   9 H :    0.107574
  10 H :    0.102459
  11 H :    0.106548
  12 C :   -0.038964
  13 H :    0.121602
  14 H :    0.098638
  15 O :   -0.321407
  16 C :    0.009209
  17 C :    0.035168
  18 C :   -0.241620
  19 C :   -0.033299
  20 O :   -0.326890
  21 H :    0.115420
  22 O :   -0.415161
  23 H :    0.110124
  24 H :    0.120315
  25 H :    0.120009
  26 H :    0.111678
  27 H :    0.097172
  28 H :    0.283181

  Mayer bond orders larger than 0.100000
B(  0-C ,  1-C ) :   0.9122 B(  0-C ,  4-O ) :   0.9013 B(  0-C ,  5-H ) :   0.9356
B(  0-C , 15-O ) :   0.8925 B(  1-C ,  2-C ) :   0.9541 B(  1-C ,  6-H ) :   0.9328
B(  1-C ,  7-H ) :   0.9243 B(  2-C ,  3-C ) :   0.9425 B(  2-C ,  8-H ) :   0.9445
B(  2-C ,  9-H ) :   0.9343 B(  3-C ,  4-O ) :   0.8447 B(  3-C , 10-H ) :   0.9323
B(  3-C , 11-H ) :   0.9381 B( 12-C , 13-H ) :   0.9275 B( 12-C , 14-H ) :   0.9052
B( 12-C , 15-O ) :   0.8460 B( 12-C , 16-C ) :   0.8952 B( 16-C , 17-C ) :   0.9076
B( 16-C , 20-O ) :   0.8688 B( 16-C , 21-H ) :   0.9180 B( 17-C , 18-C ) :   0.9204
B( 17-C , 22-O ) :   0.8875 B( 17-C , 23-H ) :   0.9281 B( 18-C , 19-C ) :   0.9422
B( 18-C , 24-H ) :   0.9381 B( 18-C , 25-H ) :   0.9149 B( 19-C , 20-O ) :   0.8404
B( 19-C , 26-H ) :   0.9327 B( 19-C , 27-H ) :   0.9366 B( 22-O , 28-H ) :   0.7942

FINAL SINGLE POINT ENERGY      -652.852152354741

DIPOLE MOMENT
-------------
                                X             Y             Z
Electronic contribution:     -4.34893      -2.32375       1.03706
Nuclear contribution   :      5.26620       2.86879      -1.29171
                        -----------------------------------------
Total Dipole Moment    :      0.91727       0.54503      -0.25465
                        -----------------------------------------
Magnitude (a.u.)       :      1.09695
Magnitude (Debye)      :      2.78823

Rotational constants in cm-1:     0.049689     0.016433     0.015270
Rotational constants in MHz :  1489.638976   492.637077   457.772267

                             ****ORCA TERMINATED NORMALLY****
TOTAL RUN TIME: 0 days 0 hours 26 minutes 35 seconds 241 msec
