                         Program Version 4.2.0 -  RELEASE  -
|  1> # Test redundant internal optimization
|  2> #
|  3> ! RKS B3LYP  Opt TightSCF SmallPrint
|  4>
|  5> %basis
|  6>         Basis "6-31G"
|  7> end
|  8>
|  9> %geom
| 10> Constraints
| 11> { D 4  0  15  12  195.0   C } # D for Dihedral angle
| 12> { D 0  15  12  16  165.0   C } # D for Dihedral angle
| 13> { D 0  4  3  2   C } # D for Dihedral angle
| 14> { D 4  3  2  1   C } # D for Dihedral angle
| 15> { D 3  2  1  0   C } # D for Dihedral angle
| 16> { D 2  1  0  4   C } # D for Dihedral angle
| 17> { D 1  0  4  3   C } # D for Dihedral angle
| 18> { D 16  20  19  18   C } # D for Dihedral angle
| 19> { D 20  19  18  17   C } # D for Dihedral angle
| 20> { D 19  18  17  16   C } # D for Dihedral angle
| 21> { D 18  17  16  20   C } # D for Dihedral angle
| 22> { D 17  16  20  19   C } # D for Dihedral angle
| 23> { D 15  12  16  20   C } # D for Dihedral angle
| 24> end
| 25> end
| 26>
| 27>
| 28> #%pal
| 29> #nprocs 8
| 30> #end
| 31>
| 32> * xyz 0 1
| 33> C  -21.048   26.222   46.251
| 34> C  -20.361   27.558   45.944
| 35> C  -20.329   28.222   47.341
| 36> C  -20.110   27.022   48.296
| 37> O  -20.473   25.807   47.535
| 38> H  -20.833   25.428   45.533
| 39> H  -19.344   27.382   45.576
| 40> H  -20.898   28.157   45.201
| 41> H  -19.543   28.978   47.434
| 42> H  -21.289   28.710   47.548
| 43> H  -20.733   27.082   49.195
| 44> H  -19.064   26.913   48.597
| 45> C  -23.353   26.472   45.026
| 46> H  -23.182   27.455   44.569
| 47> H  -22.989   25.703   44.332
| 48> O  -22.586   26.394   46.375
| 49> C  -24.884   26.270   45.194
| 50> C  -25.593   26.238   43.835
| 51> C  -25.299   24.795   43.362
| 52> C  -25.326   23.981   44.680
| 53> O  -25.167   24.956   45.780
| 54> H  -25.270   27.020   45.887
| 55> O  -27.120   26.452   44.025
| 56> H  -25.222   26.997   43.138
| 57> H  -26.028   24.430   42.631
| 58> H  -24.307   24.745   42.898
| 59> H  -24.516   23.244   44.734
| 60> H  -26.281   23.470   44.836
| 61> H  -27.513   25.702   44.719
| 62> *
| 63>
| 64>                          ****END OF INPUT****
 Total Charge           Charge          ....    0
 Multiplicity           Mult            ....    1
 Number of Electrons    NEL             ....  102
FINAL SINGLE POINT ENERGY      -652.829552575716
FINAL SINGLE POINT ENERGY      -652.853328056812
FINAL SINGLE POINT ENERGY      -652.857231873376
FINAL SINGLE POINT ENERGY      -652.857947991739
FINAL SINGLE POINT ENERGY      -652.858046739005
FINAL SINGLE POINT ENERGY      -652.858056320841
                    ***********************HURRAY********************

CARTESIAN COORDINATES (ANGSTROEM)
---------------------------------
  C    -21.085553   26.225115   46.158946
  C    -20.396183   27.567585   45.925039
  C    -20.477778   28.219938   47.326999
  C    -20.318566   27.013466   48.275387
  O    -20.615535   25.813388   47.448415
  H    -20.832886   25.434409   45.442647
  H    -19.353427   27.394456   45.633430
  H    -20.873379   28.170089   45.146478
  H    -19.706550   28.980110   47.482373
  H    -21.458188   28.686942   47.459833
  H    -21.011261   27.032502   49.119926
  H    -19.295797   26.892746   48.644332
  C    -23.206830   26.447371   44.954589
  H    -23.062292   27.434796   44.486976
  H    -22.799474   25.686278   44.269138
  O    -22.531929   26.369621   46.231782
  C    -24.697636   26.217560   45.190814
  C    -25.540000   26.231140   43.906809
  C    -25.354542   24.779658   43.391668
  C    -25.284679   23.952369   44.699687
  O    -24.975717   24.911223   45.787862
  H    -25.053486   26.962966   45.908696
  O    -26.932849   26.521604   44.205728
  H    -25.237446   26.989042   43.182540
  H    -26.187275   24.491199   42.745161
  H    -24.425897   24.695766   42.815740
  H    -24.509007   23.180738   44.673669
  H    -26.239216   23.478395   44.948468
  H    -27.197622   26.024532   45.008866

 Multiplicity           Mult            ....    1
 Number of Electrons    NEL             ....  102
 Basis Dimension        Dim             ....  149

ORBITAL ENERGIES
----------------

  NO   OCC          E(Eh)            E(eV)
   0   2.0000     -19.140321      -520.8346
   1   2.0000     -19.140291      -520.8338
   2   2.0000     -19.139994      -520.8257
   3   2.0000     -19.138677      -520.7899
   4   2.0000     -10.278986      -279.7054
   5   2.0000     -10.244719      -278.7730
   6   2.0000     -10.236477      -278.5487
   7   2.0000     -10.235476      -278.5215
   8   2.0000     -10.229923      -278.3703
   9   2.0000     -10.223313      -278.1905
  10   2.0000     -10.191276      -277.3187
  11   2.0000     -10.187321      -277.2111
  12   2.0000     -10.186082      -277.1774
  13   2.0000      -1.054087       -28.6832
  14   2.0000      -1.036719       -28.2106
  15   2.0000      -1.007196       -27.4072
  16   2.0000      -0.994307       -27.0565
  17   2.0000      -0.788364       -21.4525
  18   2.0000      -0.783739       -21.3266
  19   2.0000      -0.768839       -20.9212
  20   2.0000      -0.730760       -19.8850
  21   2.0000      -0.676269       -18.4022
  22   2.0000      -0.605330       -16.4719
  23   2.0000      -0.600901       -16.3513
  24   2.0000      -0.590313       -16.0632
  25   2.0000      -0.585758       -15.9393
  26   2.0000      -0.526487       -14.3264
  27   2.0000      -0.511787       -13.9264
  28   2.0000      -0.495472       -13.4825
  29   2.0000      -0.490739       -13.3537
  30   2.0000      -0.476610       -12.9692
  31   2.0000      -0.461217       -12.5504
  32   2.0000      -0.453764       -12.3476
  33   2.0000      -0.444856       -12.1051
  34   2.0000      -0.424788       -11.5591
  35   2.0000      -0.410845       -11.1797
  36   2.0000      -0.399703       -10.8765
  37   2.0000      -0.394578       -10.7370
  38   2.0000      -0.374789       -10.1985
  39   2.0000      -0.372569       -10.1381
  40   2.0000      -0.361803        -9.8452
  41   2.0000      -0.357576        -9.7301
  42   2.0000      -0.352302        -9.5866
  43   2.0000      -0.333783        -9.0827
  44   2.0000      -0.312710        -8.5093
  45   2.0000      -0.307093        -8.3564
  46   2.0000      -0.304263        -8.2794
  47   2.0000      -0.272413        -7.4127
  48   2.0000      -0.259108        -7.0507
  49   2.0000      -0.251236        -6.8365
  50   2.0000      -0.244666        -6.6577
  51   0.0000       0.063606         1.7308
  52   0.0000       0.080252         2.1838
  53   0.0000       0.086538         2.3548
  54   0.0000       0.095690         2.6039
  55   0.0000       0.107276         2.9191

MULLIKEN ATOMIC CHARGES
-----------------------
   0 C :    0.305334
   1 C :   -0.275043
   2 C :   -0.297754
   3 C :   -0.001305
   4 O :   -0.501133
   5 H :    0.136075
   6 H :    0.145462
   7 H :    0.140738
   8 H :    0.141940
   9 H :    0.160030
  10 H :    0.157432
  11 H :    0.141016
  12 C :   -0.001552
  13 H :    0.122128
  14 H :    0.122387
  15 O :   -0.497149
  16 C :    0.066174
  17 C :    0.076318
  18 C :   -0.300673
  19 C :   -0.029607
  20 O :   -0.503117
  21 H :    0.172160
  22 O :   -0.602347
  23 H :    0.150481
  24 H :    0.165336
  25 H :    0.141885
  26 H :    0.151595
  27 H :    0.146152
  28 H :    0.367038
Sum of atomic charges:   -0.0000000

LOEWDIN ATOMIC CHARGES
----------------------
   0 C :    0.179882
   1 C :   -0.231602
   2 C :   -0.216633
   3 C :   -0.024651
   4 O :   -0.301432
   5 H :    0.094487
   6 H :    0.114249
   7 H :    0.112312
   8 H :    0.114295
   9 H :    0.118055
  10 H :    0.111088
  11 H :    0.102121
  12 C :   -0.043706
  13 H :    0.089510
  14 H :    0.090061
  15 O :   -0.319566
  16 C :    0.018229
  17 C :    0.034808
  18 C :   -0.242723
  19 C :   -0.038443
  20 O :   -0.315425
  21 H :    0.122100
  22 O :   -0.414334
  23 H :    0.114285
  24 H :    0.127457
  25 H :    0.111354
  26 H :    0.106628
  27 H :    0.102911
  28 H :    0.284684

  Mayer bond orders larger than 0.100000
B(  0-C ,  1-C ) :   0.9271 B(  0-C ,  4-O ) :   0.9410 B(  0-C ,  5-H ) :   0.9184
B(  0-C , 15-O ) :   0.8332 B(  1-C ,  2-C ) :   0.9536 B(  1-C ,  6-H ) :   0.9342
B(  1-C ,  7-H ) :   0.9355 B(  2-C ,  3-C ) :   0.9555 B(  2-C ,  8-H ) :   0.9451
B(  2-C ,  9-H ) :   0.9444 B(  3-C ,  4-O ) :   0.8357 B(  3-C , 10-H ) :   0.9339
B(  3-C , 11-H ) :   0.9397 B( 12-C , 13-H ) :   0.9051 B( 12-C , 14-H ) :   0.9116
B( 12-C , 15-O ) :   0.8509 B( 12-C , 16-C ) :   0.8980 B( 16-C , 17-C ) :   0.9007
B( 16-C , 20-O ) :   0.8742 B( 16-C , 21-H ) :   0.9225 B( 17-C , 18-C ) :   0.9108
B( 17-C , 22-O ) :   0.8949 B( 17-C , 23-H ) :   0.9323 B( 18-C , 19-C ) :   0.9403
B( 18-C , 24-H ) :   0.9369 B( 18-C , 25-H ) :   0.9341 B( 19-C , 20-O ) :   0.8516
B( 19-C , 26-H ) :   0.9335 B( 19-C , 27-H ) :   0.9380 B( 22-O , 28-H ) :   0.7926

FINAL SINGLE POINT ENERGY      -652.858058314330

DIPOLE MOMENT
-------------
                                X             Y             Z
Electronic contribution:     -3.21591      -2.22827       2.36194
Nuclear contribution   :      3.90460       2.68006      -3.32125
                        -----------------------------------------
Total Dipole Moment    :      0.68869       0.45179      -0.95931
                        -----------------------------------------
Magnitude (a.u.)       :      1.26439
Magnitude (Debye)      :      3.21383

Rotational constants in cm-1:     0.066216     0.011264     0.010767
Rotational constants in MHz :  1985.118486   337.677532   322.796133

                             ****ORCA TERMINATED NORMALLY****
TOTAL RUN TIME: 0 days 0 hours 56 minutes 33 seconds 918 msec
