                         Program Version 4.2.1 -  RELEASE  -
|  1> # Test redundant internal optimization
|  2> #
|  3> ! RKS B3LYP  Opt TightSCF SmallPrint
|  4>
|  5> %basis
|  6>         Basis "6-31G"
|  7> end
|  8>
|  9> %geom
| 10> Constraints
| 11> { D 4  0  19  14  300.0   C } # D for Dihedral angle
| 12> { D 0  19  14  12  255.0   C } # D for Dihedral angle
| 13> { D 0  4  3  2   C } # D for Dihedral angle
| 14> { D 4  3  2  1   C } # D for Dihedral angle
| 15> { D 3  2  1  0   C } # D for Dihedral angle
| 16> { D 2  1  0  4   C } # D for Dihedral angle
| 17> { D 1  0  4  3   C } # D for Dihedral angle
| 18> { D 14  15  16  17   C } # D for Dihedral angle
| 19> { D 15  16  17  12   C } # D for Dihedral angle
| 20> { D 16  17  12  14   C } # D for Dihedral angle
| 21> { D 17  12  14  15   C } # D for Dihedral angle
| 22> { D 12  14  15  16   C } # D for Dihedral angle
| 23> end
| 24> end
| 25>
| 26>
| 27> #%pal
| 28> #nprocs 8
| 29> #end
| 30>
| 31> * xyz 0 1
| 32> C  -21.048   26.222   46.251
| 33> C  -20.361   27.558   45.944
| 34> C  -20.329   28.222   47.341
| 35> C  -20.110   27.022   48.296
| 36> O  -20.473   25.807   47.535
| 37> H  -20.833   25.428   45.533
| 38> H  -19.344   27.382   45.576
| 39> H  -20.898   28.157   45.201
| 40> H  -19.543   28.978   47.434
| 41> H  -21.289   28.710   47.548
| 42> H  -20.733   27.082   49.195
| 43> H  -19.064   26.913   48.597
| 44> C  -23.898   24.585   45.550
| 45> H  -24.662   23.857   45.865
| 46> C  -23.171   25.189   46.758
| 47> C  -22.174   24.064   47.119
| 48> C  -21.791   23.475   45.738
| 49> O  -22.837   23.915   44.789
| 50> H  -24.355   25.318   44.884
| 51> O  -22.472   26.381   46.366
| 52> H  -23.846   25.440   47.584
| 53> H  -21.303   24.429   47.673
| 54> H  -22.669   23.305   47.738
| 55> H  -21.749   22.381   45.744
| 56> H  -20.837   23.864   45.368
| 57> *
| 58>
| 59>                          ****END OF INPUT****
 Total Charge           Charge          ....    0
 Multiplicity           Mult            ....    1
 Number of Electrons    NEL             ....   86
FINAL SINGLE POINT ENERGY      -538.403969252274
FINAL SINGLE POINT ENERGY      -538.431281094970
FINAL SINGLE POINT ENERGY      -538.433706214643
FINAL SINGLE POINT ENERGY      -538.434170692542
FINAL SINGLE POINT ENERGY      -538.434217439581
FINAL SINGLE POINT ENERGY      -538.434227123734
                    ***********************HURRAY********************

CARTESIAN COORDINATES (ANGSTROEM)
---------------------------------
  C    -20.867623   26.309504   46.198786
  C    -20.431805   27.758574   45.970304
  C    -20.412155   28.313136   47.413866
  C    -19.935762   27.103072   48.249784
  O    -20.153327   25.905433   47.396286
  H    -20.571453   25.602559   45.419683
  H    -19.429165   27.766621   45.528004
  H    -21.119321   28.291652   45.311207
  H    -19.750938   29.177803   47.524454
  H    -21.423631   28.608597   47.705682
  H    -20.494272   26.980659   49.181767
  H    -18.865381   27.135640   48.474000
  C    -23.812397   24.627682   45.468844
  H    -24.710042   24.056415   45.749278
  C    -23.079092   25.137821   46.712470
  C    -22.319358   23.875139   47.162972
  C    -21.946421   23.182458   45.831624
  O    -22.834932   23.762955   44.795743
  H    -24.080186   25.428063   44.778667
  O    -22.298475   26.329911   46.355130
  H    -23.772582   25.489376   47.482712
  H    -21.451603   24.107767   47.779905
  H    -23.014039   23.254591   47.741559
  H    -22.100835   22.097719   45.865515
  H    -20.914205   23.380853   45.528760

 Multiplicity           Mult            ....    1
 Number of Electrons    NEL             ....   86
 Basis Dimension        Dim             ....  127

ORBITAL ENERGIES
----------------

  NO   OCC          E(Eh)            E(eV)
   0   2.0000     -19.142990      -520.9072
   1   2.0000     -19.138983      -520.7982
   2   2.0000     -19.127663      -520.4902
   3   2.0000     -10.277394      -279.6621
   4   2.0000     -10.237459      -278.5754
   5   2.0000     -10.227026      -278.2915
   6   2.0000     -10.218948      -278.0717
   7   2.0000     -10.216686      -278.0102
   8   2.0000     -10.184812      -277.1428
   9   2.0000     -10.183445      -277.1056
  10   2.0000     -10.179173      -276.9894
  11   2.0000      -1.051302       -28.6074
  12   2.0000      -1.010973       -27.5100
  13   2.0000      -0.987050       -26.8590
  14   2.0000      -0.792248       -21.5582
  15   2.0000      -0.772877       -21.0311
  16   2.0000      -0.742418       -20.2022
  17   2.0000      -0.717336       -19.5197
  18   2.0000      -0.614350       -16.7173
  19   2.0000      -0.599508       -16.3134
  20   2.0000      -0.594185       -16.1686
  21   2.0000      -0.563414       -15.3313
  22   2.0000      -0.521165       -14.1816
  23   2.0000      -0.495293       -13.4776
  24   2.0000      -0.483977       -13.1697
  25   2.0000      -0.477699       -12.9988
  26   2.0000      -0.451334       -12.2814
  27   2.0000      -0.445160       -12.1134
  28   2.0000      -0.414249       -11.2723
  29   2.0000      -0.412090       -11.2135
  30   2.0000      -0.406446       -11.0600
  31   2.0000      -0.391081       -10.6418
  32   2.0000      -0.368873       -10.0375
  33   2.0000      -0.364047        -9.9062
  34   2.0000      -0.356527        -9.7016
  35   2.0000      -0.354918        -9.6578
  36   2.0000      -0.343904        -9.3581
  37   2.0000      -0.324554        -8.8316
  38   2.0000      -0.304485        -8.2855
  39   2.0000      -0.290631        -7.9085
  40   2.0000      -0.262717        -7.1489
  41   2.0000      -0.253646        -6.9021
  42   2.0000      -0.233461        -6.3528
  43   0.0000       0.077907         2.1200
  44   0.0000       0.100271         2.7285
  45   0.0000       0.105349         2.8667
  46   0.0000       0.110707         3.0125
  47   0.0000       0.116843         3.1795

MULLIKEN ATOMIC CHARGES
-----------------------
   0 C :    0.296213
   1 C :   -0.259781
   2 C :   -0.296829
   3 C :   -0.007581
   4 O :   -0.518208
   5 H :    0.158721
   6 H :    0.145071
   7 H :    0.161149
   8 H :    0.140279
   9 H :    0.161103
  10 H :    0.143769
  11 H :    0.145355
  12 C :   -0.001613
  13 H :    0.121709
  14 C :    0.089345
  15 C :   -0.338655
  16 C :   -0.014393
  17 O :   -0.526633
  18 H :    0.163977
  19 O :   -0.537898
  20 H :    0.141191
  21 H :    0.202204
  22 H :    0.142344
  23 H :    0.140156
  24 H :    0.149006
Sum of atomic charges:   -0.0000000

LOEWDIN ATOMIC CHARGES
----------------------
   0 C :    0.176780
   1 C :   -0.212023
   2 C :   -0.215498
   3 C :   -0.029814
   4 O :   -0.331712
   5 H :    0.101541
   6 H :    0.113843
   7 H :    0.126565
   8 H :    0.113350
   9 H :    0.118733
  10 H :    0.103212
  11 H :    0.103703
  12 C :   -0.042847
  13 H :    0.089773
  14 C :    0.044584
  15 C :   -0.248265
  16 C :   -0.034615
  17 O :   -0.337802
  18 H :    0.119852
  19 O :   -0.328229
  20 H :    0.107152
  21 H :    0.144090
  22 H :    0.115897
  23 H :    0.100091
  24 H :    0.101642

  Mayer bond orders larger than 0.100000
B(  0-C ,  1-C ) :   0.9459 B(  0-C ,  4-O ) :   0.8827 B(  0-C ,  5-H ) :   0.9125
B(  0-C , 19-O ) :   0.8601 B(  1-C ,  2-C ) :   0.9561 B(  1-C ,  6-H ) :   0.9406
B(  1-C ,  7-H ) :   0.9361 B(  2-C ,  3-C ) :   0.9560 B(  2-C ,  8-H ) :   0.9452
B(  2-C ,  9-H ) :   0.9442 B(  3-C ,  4-O ) :   0.8330 B(  3-C , 10-H ) :   0.9362
B(  3-C , 11-H ) :   0.9404 B( 12-C , 13-H ) :   0.9128 B( 12-C , 14-C ) :   0.9193
B( 12-C , 17-O ) :   0.8667 B( 12-C , 18-H ) :   0.9322 B( 14-C , 15-C ) :   0.9444
B( 14-C , 19-O ) :   0.8427 B( 14-C , 20-H ) :   0.9340 B( 15-C , 16-C ) :   0.9449
B( 15-C , 21-H ) :   0.9050 B( 15-C , 22-H ) :   0.9355 B( 16-C , 17-O ) :   0.8531
B( 16-C , 23-H ) :   0.9341 B( 16-C , 24-H ) :   0.9312

FINAL SINGLE POINT ENERGY      -538.434227884242

DIPOLE MOMENT
-------------
                                X             Y             Z
Electronic contribution:     -1.10655      -1.57915      -2.02919
Nuclear contribution   :      1.24609       2.09247       2.87005
                        -----------------------------------------
Total Dipole Moment    :      0.13954       0.51332       0.84086
                        -----------------------------------------
Magnitude (a.u.)       :      0.99500
Magnitude (Debye)      :      2.52909

Rotational constants in cm-1:     0.080491     0.023119     0.021517
Rotational constants in MHz :  2413.054436   693.076199   645.052817

                             ****ORCA TERMINATED NORMALLY****
TOTAL RUN TIME: 0 days 0 hours 7 minutes 46 seconds 7 msec
