                         Program Version 4.2.0 -  RELEASE  -
|  1> # Test redundant internal optimization
|  2> #
|  3> ! RKS B3LYP  Opt TightSCF SmallPrint
|  4>
|  5> %basis
|  6>         Basis "6-31G"
|  7> end
|  8>
|  9> %geom
| 10> Constraints
| 11> { D 4  0  15  12  285.0   C } # D for Dihedral angle
| 12> { D 0  15  12  16  195.0   C } # D for Dihedral angle
| 13> { D 0  4  3  2   C } # D for Dihedral angle
| 14> { D 4  3  2  1   C } # D for Dihedral angle
| 15> { D 3  2  1  0   C } # D for Dihedral angle
| 16> { D 2  1  0  4   C } # D for Dihedral angle
| 17> { D 1  0  4  3   C } # D for Dihedral angle
| 18> { D 16  20  19  18   C } # D for Dihedral angle
| 19> { D 20  19  18  17   C } # D for Dihedral angle
| 20> { D 19  18  17  16   C } # D for Dihedral angle
| 21> { D 18  17  16  20   C } # D for Dihedral angle
| 22> { D 17  16  20  19   C } # D for Dihedral angle
| 23> { D 15  12  16  20   C } # D for Dihedral angle
| 24> end
| 25> end
| 26>
| 27>
| 28> #%pal
| 29> #nprocs 8
| 30> #end
| 31>
| 32> * xyz 0 1
| 33> C  -21.048   26.222   46.251
| 34> C  -20.361   27.558   45.944
| 35> C  -20.329   28.222   47.341
| 36> C  -20.110   27.022   48.296
| 37> O  -20.473   25.807   47.535
| 38> H  -20.833   25.428   45.533
| 39> H  -19.344   27.382   45.576
| 40> H  -20.898   28.157   45.201
| 41> H  -19.543   28.978   47.434
| 42> H  -21.289   28.710   47.548
| 43> H  -20.733   27.082   49.195
| 44> H  -19.064   26.913   48.597
| 45> C  -23.396   25.070   46.435
| 46> H  -23.015   24.378   45.674
| 47> H  -23.282   24.595   47.418
| 48> O  -22.586   26.394   46.375
| 49> C  -24.915   25.283   46.186
| 50> C  -25.179   25.788   44.763
| 51> C  -25.070   24.482   43.941
| 52> C  -25.658   23.414   44.898
| 53> O  -25.629   24.004   46.254
| 54> H  -25.321   25.919   46.975
| 55> H  -26.191   26.205   44.694
| 56> O  -24.170   26.876   44.304
| 57> H  -25.611   24.533   42.990
| 58> H  -24.019   24.265   43.718
| 59> H  -25.076   22.487   44.898
| 60> H  -26.700   23.178   44.670
| 61> H  -23.150   26.480   44.365
| 62> *
| 63>
| 64>                          ****END OF INPUT****
 Total Charge           Charge          ....    0
 Multiplicity           Mult            ....    1
 Number of Electrons    NEL             ....  102
FINAL SINGLE POINT ENERGY      -652.831918568522
FINAL SINGLE POINT ENERGY      -652.858107142622
FINAL SINGLE POINT ENERGY      -652.864847093493
FINAL SINGLE POINT ENERGY      -652.867565120486
FINAL SINGLE POINT ENERGY      -652.869063418963
FINAL SINGLE POINT ENERGY      -652.870099697579
FINAL SINGLE POINT ENERGY      -652.870649522181
FINAL SINGLE POINT ENERGY      -652.870811700310
FINAL SINGLE POINT ENERGY      -652.870842073234
FINAL SINGLE POINT ENERGY      -652.870845811597
                    ***********************HURRAY********************

CARTESIAN COORDINATES (ANGSTROEM)
---------------------------------
  C    -21.061305   26.105561   46.248669
  C    -20.455143   27.466093   45.908854
  C    -20.479497   28.175979   47.281809
  C    -20.200769   27.027652   48.274951
  O    -20.488317   25.771968   47.528722
  H    -20.821553   25.281656   45.569583
  H    -19.427384   27.318170   45.559039
  H    -21.014518   27.997886   45.135914
  H    -19.736617   28.976109   47.353125
  H    -21.469414   28.607429   47.455939
  H    -20.836571   27.060488   49.162732
  H    -19.152436   26.971618   48.581067
  C    -23.270786   25.021169   46.452157
  H    -22.871405   24.283384   45.741809
  H    -23.168454   24.617943   47.463399
  O    -22.501948   26.270632   46.333432
  C    -24.741662   25.328776   46.153383
  C    -25.041362   25.826379   44.728806
  C    -25.027753   24.496382   43.919445
  C    -25.622563   23.477654   44.913674
  O    -25.508921   24.091062   46.270179
  H    -25.127303   26.013814   46.913798
  H    -26.053183   26.248837   44.715357
  O    -24.141638   26.824163   44.206287
  H    -25.607658   24.576596   42.996307
  H    -23.994414   24.258037   43.647089
  H    -25.097089   22.517762   44.918368
  H    -26.687457   23.295201   44.744157
  H    -23.385879   26.923601   44.830949

 Multiplicity           Mult            ....    1
 Number of Electrons    NEL             ....  102
 Basis Dimension        Dim             ....  149

ORBITAL ENERGIES
----------------

  NO   OCC          E(Eh)            E(eV)
   0   2.0000     -19.167894      -521.5849
   1   2.0000     -19.150439      -521.1099
   2   2.0000     -19.140797      -520.8476
   3   2.0000     -19.115300      -520.1538
   4   2.0000     -10.292318      -280.0682
   5   2.0000     -10.236905      -278.5604
   6   2.0000     -10.235228      -278.5147
   7   2.0000     -10.232808      -278.4489
   8   2.0000     -10.231652      -278.4174
   9   2.0000     -10.226925      -278.2888
  10   2.0000     -10.195555      -277.4351
  11   2.0000     -10.192689      -277.3572
  12   2.0000     -10.180121      -277.0152
  13   2.0000      -1.068428       -29.0734
  14   2.0000      -1.026441       -27.9309
  15   2.0000      -1.008541       -27.4438
  16   2.0000      -0.994592       -27.0642
  17   2.0000      -0.797903       -21.7120
  18   2.0000      -0.773388       -21.0450
  19   2.0000      -0.768357       -20.9081
  20   2.0000      -0.735942       -20.0260
  21   2.0000      -0.678400       -18.4602
  22   2.0000      -0.608188       -16.5496
  23   2.0000      -0.601515       -16.3681
  24   2.0000      -0.593829       -16.1589
  25   2.0000      -0.581820       -15.8321
  26   2.0000      -0.530255       -14.4290
  27   2.0000      -0.522023       -14.2050
  28   2.0000      -0.501610       -13.6495
  29   2.0000      -0.487203       -13.2575
  30   2.0000      -0.473875       -12.8948
  31   2.0000      -0.461419       -12.5559
  32   2.0000      -0.441162       -12.0046
  33   2.0000      -0.432328       -11.7642
  34   2.0000      -0.429235       -11.6801
  35   2.0000      -0.420458       -11.4412
  36   2.0000      -0.409385       -11.1399
  37   2.0000      -0.389028       -10.5860
  38   2.0000      -0.382052       -10.3962
  39   2.0000      -0.368939       -10.0393
  40   2.0000      -0.365610        -9.9487
  41   2.0000      -0.357434        -9.7263
  42   2.0000      -0.352848        -9.6015
  43   2.0000      -0.343488        -9.3468
  44   2.0000      -0.329016        -8.9530
  45   2.0000      -0.314977        -8.5710
  46   2.0000      -0.296874        -8.0784
  47   2.0000      -0.277918        -7.5625
  48   2.0000      -0.265917        -7.2360
  49   2.0000      -0.248859        -6.7718
  50   2.0000      -0.244373        -6.6497
  51   0.0000       0.056799         1.5456
  52   0.0000       0.079331         2.1587
  53   0.0000       0.089608         2.4383
  54   0.0000       0.096704         2.6315
  55   0.0000       0.108477         2.9518

MULLIKEN ATOMIC CHARGES
-----------------------
   0 C :    0.293668
   1 C :   -0.272299
   2 C :   -0.299232
   3 C :   -0.004769
   4 O :   -0.508512
   5 H :    0.150742
   6 H :    0.153550
   7 H :    0.160969
   8 H :    0.146717
   9 H :    0.165114
  10 H :    0.153235
  11 H :    0.147470
  12 C :   -0.009034
  13 H :    0.136276
  14 H :    0.176516
  15 O :   -0.552419
  16 C :    0.044713
  17 C :    0.112246
  18 C :   -0.296241
  19 C :   -0.021810
  20 O :   -0.520232
  21 H :    0.164248
  22 H :    0.147023
  23 O :   -0.643160
  24 H :    0.151743
  25 H :    0.141674
  26 H :    0.142396
  27 H :    0.150556
  28 H :    0.388849
Sum of atomic charges:   -0.0000000

LOEWDIN ATOMIC CHARGES
----------------------
   0 C :    0.173881
   1 C :   -0.216249
   2 C :   -0.215509
   3 C :   -0.026426
   4 O :   -0.322372
   5 H :    0.101120
   6 H :    0.118815
   7 H :    0.124187
   8 H :    0.116542
   9 H :    0.120453
  10 H :    0.108908
  11 H :    0.105547
  12 C :   -0.043636
  13 H :    0.097456
  14 H :    0.120391
  15 O :   -0.335368
  16 C :    0.017683
  17 C :    0.040539
  18 C :   -0.235329
  19 C :   -0.032857
  20 O :   -0.322426
  21 H :    0.116916
  22 H :    0.104352
  23 O :   -0.437779
  24 H :    0.121567
  25 H :    0.109717
  26 H :    0.102207
  27 H :    0.106655
  28 H :    0.281015

  Mayer bond orders larger than 0.100000
B(  0-C ,  1-C ) :   0.9498 B(  0-C ,  4-O ) :   0.9246 B(  0-C ,  5-H ) :   0.9186
B(  0-C , 15-O ) :   0.8149 B(  1-C ,  2-C ) :   0.9540 B(  1-C ,  6-H ) :   0.9386
B(  1-C ,  7-H ) :   0.9344 B(  2-C ,  3-C ) :   0.9546 B(  2-C ,  8-H ) :   0.9446
B(  2-C ,  9-H ) :   0.9440 B(  3-C ,  4-O ) :   0.8300 B(  3-C , 10-H ) :   0.9353
B(  3-C , 11-H ) :   0.9400 B( 12-C , 13-H ) :   0.9190 B( 12-C , 14-H ) :   0.9216
B( 12-C , 15-O ) :   0.7802 B( 12-C , 16-C ) :   0.9093 B( 16-C , 17-C ) :   0.9149
B( 16-C , 20-O ) :   0.8561 B( 16-C , 21-H ) :   0.9277 B( 17-C , 18-C ) :   0.9044
B( 17-C , 22-H ) :   0.9282 B( 17-C , 23-O ) :   0.9312 B( 18-C , 19-C ) :   0.9403
B( 18-C , 24-H ) :   0.9441 B( 18-C , 25-H ) :   0.9437 B( 19-C , 20-O ) :   0.8330
B( 19-C , 26-H ) :   0.9341 B( 19-C , 27-H ) :   0.9382 B( 23-O , 28-H ) :   0.7206

FINAL SINGLE POINT ENERGY      -652.870847224218

DIPOLE MOMENT
-------------
                                X             Y             Z
Electronic contribution:     -1.97248      -1.28197       1.33717
Nuclear contribution   :      2.79725       1.45112      -1.35374
                        -----------------------------------------
Total Dipole Moment    :      0.82478       0.16915      -0.01657
                        -----------------------------------------
Magnitude (a.u.)       :      0.84211
Magnitude (Debye)      :      2.14047

Rotational constants in cm-1:     0.060159     0.013245     0.011999
Rotational constants in MHz :  1803.519741   397.078603   359.710168

                             ****ORCA TERMINATED NORMALLY****
TOTAL RUN TIME: 0 days 0 hours 39 minutes 7 seconds 887 msec
