                         Program Version 4.2.0 -  RELEASE  -
|  1> # Test redundant internal optimization
|  2> #
|  3> ! RKS B3LYP  Opt TightSCF SmallPrint
|  4>
|  5> %basis
|  6>         Basis "6-31G"
|  7> end
|  8>
|  9> %geom
| 10> Constraints
| 11> { D 4  0  15  12  225.0   C } # D for Dihedral angle
| 12> { D 0  15  12  16  150.0   C } # D for Dihedral angle
| 13> { D 0  4  3  2   C } # D for Dihedral angle
| 14> { D 4  3  2  1   C } # D for Dihedral angle
| 15> { D 3  2  1  0   C } # D for Dihedral angle
| 16> { D 2  1  0  4   C } # D for Dihedral angle
| 17> { D 1  0  4  3   C } # D for Dihedral angle
| 18> { D 16  20  19  18   C } # D for Dihedral angle
| 19> { D 20  19  18  17   C } # D for Dihedral angle
| 20> { D 19  18  17  16   C } # D for Dihedral angle
| 21> { D 18  17  16  20   C } # D for Dihedral angle
| 22> { D 17  16  20  19   C } # D for Dihedral angle
| 23> { D 15  12  16  20   C } # D for Dihedral angle
| 24> end
| 25> end
| 26>
| 27>
| 28> #%pal
| 29> #nprocs 8
| 30> #end
| 31>
| 32> * xyz 0 1
| 33> C  -21.048   26.222   46.251
| 34> C  -20.361   27.558   45.944
| 35> C  -20.329   28.222   47.341
| 36> C  -20.110   27.022   48.296
| 37> O  -20.473   25.807   47.535
| 38> H  -20.833   25.428   45.533
| 39> H  -19.344   27.382   45.576
| 40> H  -20.898   28.157   45.201
| 41> H  -19.543   28.978   47.434
| 42> H  -21.289   28.710   47.548
| 43> H  -20.733   27.082   49.195
| 44> H  -19.064   26.913   48.597
| 45> C  -23.415   25.773   45.218
| 46> H  -23.543   26.519   44.423
| 47> H  -22.893   24.906   44.794
| 48> O  -22.586   26.394   46.375
| 49> C  -24.823   25.300   45.675
| 50> C  -25.688   26.482   46.127
| 51> C  -26.154   27.066   44.772
| 52> C  -26.321   25.806   43.885
| 53> O  -25.561   24.723   44.546
| 54> H  -24.711   24.510   46.420
| 55> O  -26.901   25.970   46.950
| 56> H  -25.140   27.208   46.737
| 57> H  -27.080   27.643   44.855
| 58> H  -25.382   27.728   44.363
| 59> H  -25.931   25.952   42.873
| 60> H  -27.361   25.477   43.820
| 61> H  -27.467   25.240   46.359
| 62> *
| 63>
| 64>                          ****END OF INPUT****
 Total Charge           Charge          ....    0
 Multiplicity           Mult            ....    1
 Number of Electrons    NEL             ....  102
FINAL SINGLE POINT ENERGY      -652.836486298094
FINAL SINGLE POINT ENERGY      -652.859333224207
FINAL SINGLE POINT ENERGY      -652.862876063857
FINAL SINGLE POINT ENERGY      -652.863487787010
FINAL SINGLE POINT ENERGY      -652.863566199750
FINAL SINGLE POINT ENERGY      -652.863577718446
FINAL SINGLE POINT ENERGY      -652.863579658115
                    ***********************HURRAY********************

CARTESIAN COORDINATES (ANGSTROEM)
---------------------------------
  C    -21.109062   26.167266   46.179757
  C    -20.426153   27.509875   45.926023
  C    -20.532749   28.190108   47.311713
  C    -20.378216   27.005945   48.290201
  O    -20.653631   25.784583   47.488218
  H    -20.837957   25.360400   45.491474
  H    -19.377586   27.340737   45.653371
  H    -20.908539   28.080252   45.128007
  H    -19.770638   28.960152   47.463393
  H    -21.518892   28.651767   47.419144
  H    -21.082799   27.040722   49.124715
  H    -19.360198   26.902739   48.677315
  C    -23.308667   25.748932   45.101244
  H    -23.395863   26.464405   44.270727
  H    -22.813812   24.845201   44.721138
  O    -22.553053   26.330604   46.198214
  C    -24.684394   25.366963   45.643735
  C    -25.533067   26.542932   46.147358
  C    -26.097355   27.112759   44.821011
  C    -26.308387   25.846898   43.953294
  O    -25.488670   24.772436   44.569884
  H    -24.565425   24.608484   46.421870
  O    -26.595117   26.076587   47.025470
  H    -24.959158   27.262180   46.729228
  H    -27.022932   27.665038   45.000909
  H    -25.373663   27.795405   44.361691
  H    -25.991193   25.983108   42.914785
  H    -27.347097   25.501748   43.958281
  H    -26.987725   25.259772   46.650827

 Multiplicity           Mult            ....    1
 Number of Electrons    NEL             ....  102
 Basis Dimension        Dim             ....  149

ORBITAL ENERGIES
----------------

  NO   OCC          E(Eh)            E(eV)
   0   2.0000     -19.145517      -520.9760
   1   2.0000     -19.144591      -520.9508
   2   2.0000     -19.140239      -520.8324
   3   2.0000     -19.133805      -520.6573
   4   2.0000     -10.282248      -279.7942
   5   2.0000     -10.234794      -278.5029
   6   2.0000     -10.234762      -278.5020
   7   2.0000     -10.232001      -278.4269
   8   2.0000     -10.231853      -278.4229
   9   2.0000     -10.224986      -278.2360
  10   2.0000     -10.187499      -277.2159
  11   2.0000     -10.187440      -277.2143
  12   2.0000     -10.186864      -277.1987
  13   2.0000      -1.054693       -28.6996
  14   2.0000      -1.035150       -28.1679
  15   2.0000      -1.003189       -27.2982
  16   2.0000      -0.997355       -27.1394
  17   2.0000      -0.789390       -21.4804
  18   2.0000      -0.778763       -21.1912
  19   2.0000      -0.767939       -20.8967
  20   2.0000      -0.730372       -19.8744
  21   2.0000      -0.675459       -18.3802
  22   2.0000      -0.603748       -16.4288
  23   2.0000      -0.600533       -16.3413
  24   2.0000      -0.591485       -16.0951
  25   2.0000      -0.583512       -15.8782
  26   2.0000      -0.522649       -14.2220
  27   2.0000      -0.519303       -14.1309
  28   2.0000      -0.498128       -13.5547
  29   2.0000      -0.488258       -13.2862
  30   2.0000      -0.469977       -12.7887
  31   2.0000      -0.455628       -12.3983
  32   2.0000      -0.451030       -12.2732
  33   2.0000      -0.444558       -12.0970
  34   2.0000      -0.426417       -11.6034
  35   2.0000      -0.414172       -11.2702
  36   2.0000      -0.400281       -10.8922
  37   2.0000      -0.391716       -10.6591
  38   2.0000      -0.374355       -10.1867
  39   2.0000      -0.366226        -9.9655
  40   2.0000      -0.360530        -9.8105
  41   2.0000      -0.355437        -9.6719
  42   2.0000      -0.353723        -9.6253
  43   2.0000      -0.331046        -9.0082
  44   2.0000      -0.315807        -8.5936
  45   2.0000      -0.313354        -8.5268
  46   2.0000      -0.302301        -8.2260
  47   2.0000      -0.274943        -7.4816
  48   2.0000      -0.263049        -7.1579
  49   2.0000      -0.251667        -6.8482
  50   2.0000      -0.245265        -6.6740
  51   0.0000       0.064653         1.7593
  52   0.0000       0.073199         1.9918
  53   0.0000       0.095893         2.6094
  54   0.0000       0.098155         2.6709
  55   0.0000       0.104517         2.8440

MULLIKEN ATOMIC CHARGES
-----------------------
   0 C :    0.293898
   1 C :   -0.257124
   2 C :   -0.300529
   3 C :   -0.003088
   4 O :   -0.501004
   5 H :    0.140877
   6 H :    0.144399
   7 H :    0.142793
   8 H :    0.142451
   9 H :    0.161291
  10 H :    0.155934
  11 H :    0.141991
  12 C :   -0.006868
  13 H :    0.126986
  14 H :    0.144958
  15 O :   -0.523690
  16 C :    0.057795
  17 C :    0.093763
  18 C :   -0.303472
  19 C :   -0.032325
  20 O :   -0.527042
  21 H :    0.171775
  22 O :   -0.603401
  23 H :    0.174097
  24 H :    0.163557
  25 H :    0.144979
  26 H :    0.146306
  27 H :    0.147462
  28 H :    0.363233
Sum of atomic charges:   -0.0000000

LOEWDIN ATOMIC CHARGES
----------------------
   0 C :    0.178936
   1 C :   -0.224354
   2 C :   -0.216735
   3 C :   -0.026178
   4 O :   -0.309956
   5 H :    0.098632
   6 H :    0.113428
   7 H :    0.115803
   8 H :    0.114531
   9 H :    0.118535
  10 H :    0.109998
  11 H :    0.102579
  12 C :   -0.037359
  13 H :    0.089769
  14 H :    0.104890
  15 O :   -0.337223
  16 C :    0.016392
  17 C :    0.039181
  18 C :   -0.243002
  19 C :   -0.038861
  20 O :   -0.331574
  21 H :    0.121761
  22 O :   -0.414767
  23 H :    0.126798
  24 H :    0.127283
  25 H :    0.113049
  26 H :    0.103668
  27 H :    0.102929
  28 H :    0.281846

  Mayer bond orders larger than 0.100000
B(  0-C ,  1-C ) :   0.9379 B(  0-C ,  4-O ) :   0.9372 B(  0-C ,  5-H ) :   0.9186
B(  0-C , 15-O ) :   0.8295 B(  1-C ,  2-C ) :   0.9560 B(  1-C ,  6-H ) :   0.9351
B(  1-C ,  7-H ) :   0.9392 B(  2-C ,  3-C ) :   0.9544 B(  2-C ,  8-H ) :   0.9451
B(  2-C ,  9-H ) :   0.9439 B(  3-C ,  4-O ) :   0.8361 B(  3-C , 10-H ) :   0.9342
B(  3-C , 11-H ) :   0.9397 B( 12-C , 13-H ) :   0.9215 B( 12-C , 14-H ) :   0.9145
B( 12-C , 15-O ) :   0.8314 B( 12-C , 16-C ) :   0.9018 B( 16-C , 17-C ) :   0.9163
B( 16-C , 20-O ) :   0.8420 B( 16-C , 21-H ) :   0.9240 B( 17-C , 18-C ) :   0.9114
B( 17-C , 22-O ) :   0.8913 B( 17-C , 23-H ) :   0.9247 B( 18-C , 19-C ) :   0.9415
B( 18-C , 24-H ) :   0.9374 B( 18-C , 25-H ) :   0.9348 B( 19-C , 20-O ) :   0.8432
B( 19-C , 26-H ) :   0.9354 B( 19-C , 27-H ) :   0.9379 B( 22-O , 28-H ) :   0.7956

FINAL SINGLE POINT ENERGY      -652.863579761978

DIPOLE MOMENT
-------------
                                X             Y             Z
Electronic contribution:     -2.16237      -5.10052       1.74151
Nuclear contribution   :      2.65027       6.08175      -2.74748
                        -----------------------------------------
Total Dipole Moment    :      0.48790       0.98124      -1.00596
                        -----------------------------------------
Magnitude (a.u.)       :      1.48756
Magnitude (Debye)      :      3.78107

Rotational constants in cm-1:     0.056908     0.011923     0.011478
Rotational constants in MHz :  1706.053783   357.452172   344.112400

                             ****ORCA TERMINATED NORMALLY****
TOTAL RUN TIME: 0 days 0 hours 21 minutes 50 seconds 828 msec
