                         Program Version 4.2.0 -  RELEASE  -
|  1> # Test redundant internal optimization
|  2> #
|  3> ! RKS B3LYP  Opt TightSCF SmallPrint
|  4>
|  5> %basis
|  6>         Basis "6-31G"
|  7> end
|  8>
|  9> %geom
| 10> Constraints
| 11> { D 4  0  15  12  75.0   C } # D for Dihedral angle
| 12> { D 0  15  12  16  135.0   C } # D for Dihedral angle
| 13> { D 0  4  3  2   C } # D for Dihedral angle
| 14> { D 4  3  2  1   C } # D for Dihedral angle
| 15> { D 3  2  1  0   C } # D for Dihedral angle
| 16> { D 2  1  0  4   C } # D for Dihedral angle
| 17> { D 1  0  4  3   C } # D for Dihedral angle
| 18> { D 16  20  19  18   C } # D for Dihedral angle
| 19> { D 20  19  18  17   C } # D for Dihedral angle
| 20> { D 19  18  17  16   C } # D for Dihedral angle
| 21> { D 18  17  16  20   C } # D for Dihedral angle
| 22> { D 17  16  20  19   C } # D for Dihedral angle
| 23> { D 15  12  16  20   C } # D for Dihedral angle
| 24> end
| 25> end
| 26>
| 27>
| 28> #%pal
| 29> #nprocs 8
| 30> #end
| 31>
| 32> * xyz 0 1
| 33> C  -21.048   26.222   46.251
| 34> C  -20.361   27.558   45.944
| 35> C  -20.329   28.222   47.341
| 36> C  -20.110   27.022   48.296
| 37> O  -20.473   25.807   47.535
| 38> H  -20.833   25.428   45.533
| 39> H  -19.344   27.382   45.576
| 40> H  -20.898   28.157   45.201
| 41> H  -19.543   28.978   47.434
| 42> H  -21.289   28.710   47.548
| 43> H  -20.733   27.082   49.195
| 44> H  -19.064   26.913   48.597
| 45> C  -23.049   27.675   47.122
| 46> H  -23.391   27.403   48.129
| 47> H  -22.217   28.383   47.222
| 48> O  -22.586   26.394   46.375
| 49> C  -24.210   28.408   46.394
| 50> C  -25.477   27.547   46.360
| 51> C  -26.036   27.755   47.788
| 52> C  -25.667   29.228   48.098
| 53> O  -24.607   29.607   47.140
| 54> H  -23.863   28.742   45.414
| 55> H  -26.176   27.937   45.611
| 56> O  -25.194   26.055   46.035
| 57> H  -27.113   27.573   47.853
| 58> H  -25.538   27.076   48.489
| 59> H  -25.293   29.360   49.119
| 60> H  -26.506   29.911   47.938
| 61> H  -24.496   25.644   46.773
| 62> *
| 63>
| 64>                          ****END OF INPUT****
 Total Charge           Charge          ....    0
 Multiplicity           Mult            ....    1
 Number of Electrons    NEL             ....  102
FINAL SINGLE POINT ENERGY      -652.782254065888
FINAL SINGLE POINT ENERGY      -652.827782392281
FINAL SINGLE POINT ENERGY      -652.849112821058
FINAL SINGLE POINT ENERGY      -652.855251105151
FINAL SINGLE POINT ENERGY      -652.857240954340
FINAL SINGLE POINT ENERGY      -652.858470587374
FINAL SINGLE POINT ENERGY      -652.859085043702
FINAL SINGLE POINT ENERGY      -652.859249698079
FINAL SINGLE POINT ENERGY      -652.859282875857
FINAL SINGLE POINT ENERGY      -652.859284773194
FINAL SINGLE POINT ENERGY      -652.859277834215
                    ***********************HURRAY********************

CARTESIAN COORDINATES (ANGSTROEM)
---------------------------------
  C    -21.228459   26.373945   46.468603
  C    -20.308933   27.482045   45.935337
  C    -19.839217   28.178582   47.248892
  C    -19.740401   26.989089   48.237067
  O    -20.538137   25.890249   47.637222
  H    -21.299036   25.519625   45.793973
  H    -19.463034   27.010778   45.425262
  H    -20.809912   28.156856   45.236232
  H    -18.872542   28.676828   47.124047
  H    -20.550452   28.935030   47.585746
  H    -20.138465   27.216052   49.230294
  H    -18.717636   26.615819   48.338318
  C    -23.161567   27.852303   47.372538
  H    -23.505449   27.534813   48.362003
  H    -22.414635   28.636381   47.499028
  O    -22.629122   26.677653   46.672607
  C    -24.309605   28.415617   46.524580
  C    -25.513189   27.473409   46.353661
  C    -26.254295   27.659507   47.710652
  C    -26.016876   29.147911   48.038150
  O    -24.862230   29.589591   47.196874
  H    -23.912009   28.754180   45.563469
  H    -26.142877   27.855856   45.542027
  O    -25.206523   26.102096   46.041501
  H    -27.314445   27.405361   47.631663
  H    -25.804111   26.993972   48.455164
  H    -25.771829   29.328785   49.089699
  H    -26.862989   29.782669   47.759410
  H    -24.256027   25.923996   46.236982

 Multiplicity           Mult            ....    1
 Number of Electrons    NEL             ....  102
 Basis Dimension        Dim             ....  149

ORBITAL ENERGIES
----------------

  NO   OCC          E(Eh)            E(eV)
   0   2.0000     -19.164321      -521.4877
   1   2.0000     -19.151520      -521.1393
   2   2.0000     -19.141607      -520.8696
   3   2.0000     -19.111544      -520.0515
   4   2.0000     -10.293039      -280.0878
   5   2.0000     -10.240457      -278.6570
   6   2.0000     -10.237824      -278.5853
   7   2.0000     -10.235061      -278.5102
   8   2.0000     -10.229871      -278.3689
   9   2.0000     -10.227402      -278.3017
  10   2.0000     -10.202267      -277.6178
  11   2.0000     -10.202050      -277.6119
  12   2.0000     -10.178690      -276.9762
  13   2.0000      -1.063596       -28.9419
  14   2.0000      -1.026450       -27.9311
  15   2.0000      -1.009577       -27.4720
  16   2.0000      -0.991126       -26.9699
  17   2.0000      -0.798164       -21.7192
  18   2.0000      -0.780305       -21.2332
  19   2.0000      -0.768498       -20.9119
  20   2.0000      -0.738881       -20.1060
  21   2.0000      -0.685223       -18.6459
  22   2.0000      -0.614733       -16.7277
  23   2.0000      -0.602505       -16.3950
  24   2.0000      -0.596394       -16.2287
  25   2.0000      -0.577503       -15.7146
  26   2.0000      -0.536224       -14.5914
  27   2.0000      -0.512198       -13.9376
  28   2.0000      -0.510478       -13.8908
  29   2.0000      -0.487892       -13.2762
  30   2.0000      -0.476617       -12.9694
  31   2.0000      -0.463162       -12.6033
  32   2.0000      -0.443091       -12.0571
  33   2.0000      -0.436231       -11.8704
  34   2.0000      -0.427097       -11.6219
  35   2.0000      -0.424402       -11.5486
  36   2.0000      -0.411746       -11.2042
  37   2.0000      -0.393864       -10.7176
  38   2.0000      -0.388453       -10.5704
  39   2.0000      -0.371450       -10.1077
  40   2.0000      -0.368255       -10.0207
  41   2.0000      -0.359395        -9.7796
  42   2.0000      -0.348259        -9.4766
  43   2.0000      -0.340280        -9.2595
  44   2.0000      -0.324955        -8.8425
  45   2.0000      -0.317400        -8.6369
  46   2.0000      -0.290423        -7.9028
  47   2.0000      -0.275951        -7.5090
  48   2.0000      -0.270288        -7.3549
  49   2.0000      -0.248758        -6.7690
  50   2.0000      -0.240028        -6.5315
  51   0.0000       0.053612         1.4589
  52   0.0000       0.069541         1.8923
  53   0.0000       0.088710         2.4139
  54   0.0000       0.095292         2.5930
  55   0.0000       0.103669         2.8210

MULLIKEN ATOMIC CHARGES
-----------------------
   0 C :    0.317304
   1 C :   -0.284345
   2 C :   -0.321066
   3 C :   -0.011738
   4 O :   -0.499369
   5 H :    0.171609
   6 H :    0.163645
   7 H :    0.154714
   8 H :    0.150595
   9 H :    0.157509
  10 H :    0.149812
  11 H :    0.153411
  12 C :   -0.029279
  13 H :    0.156404
  14 H :    0.155432
  15 O :   -0.566704
  16 C :    0.063874
  17 C :    0.120796
  18 C :   -0.305484
  19 C :   -0.023309
  20 O :   -0.523314
  21 H :    0.149347
  22 H :    0.147278
  23 O :   -0.640127
  24 H :    0.153152
  25 H :    0.148995
  26 H :    0.141196
  27 H :    0.151363
  28 H :    0.398300
Sum of atomic charges:    0.0000000

LOEWDIN ATOMIC CHARGES
----------------------
   0 C :    0.179475
   1 C :   -0.227599
   2 C :   -0.223822
   3 C :   -0.032346
   4 O :   -0.315852
   5 H :    0.116202
   6 H :    0.126515
   7 H :    0.121060
   8 H :    0.118420
   9 H :    0.110967
  10 H :    0.105880
  11 H :    0.107894
  12 C :   -0.047506
  13 H :    0.108833
  14 H :    0.110146
  15 O :   -0.333196
  16 C :    0.016587
  17 C :    0.042020
  18 C :   -0.238361
  19 C :   -0.033125
  20 O :   -0.326971
  21 H :    0.110793
  22 H :    0.105320
  23 O :   -0.433805
  24 H :    0.122170
  25 H :    0.112808
  26 H :    0.101293
  27 H :    0.106792
  28 H :    0.289408

  Mayer bond orders larger than 0.100000
B(  0-C ,  1-C ) :   0.9250 B(  0-C ,  4-O ) :   0.9224 B(  0-C ,  5-H ) :   0.9347
B(  0-C , 15-O ) :   0.8501 B(  1-C ,  2-C ) :   0.9540 B(  1-C ,  6-H ) :   0.9336
B(  1-C ,  7-H ) :   0.9351 B(  2-C ,  3-C ) :   0.9462 B(  2-C ,  8-H ) :   0.9437
B(  2-C ,  9-H ) :   0.9337 B(  3-C ,  4-O ) :   0.8405 B(  3-C , 10-H ) :   0.9341
B(  3-C , 11-H ) :   0.9384 B( 12-C , 13-H ) :   0.9286 B( 12-C , 14-H ) :   0.9083
B( 12-C , 15-O ) :   0.7767 B( 12-C , 16-C ) :   0.8984 B( 16-C , 17-C ) :   0.9150
B( 16-C , 20-O ) :   0.8563 B( 16-C , 21-H ) :   0.9304 B( 17-C , 18-C ) :   0.9007
B( 17-C , 22-H ) :   0.9305 B( 17-C , 23-O ) :   0.9384 B( 18-C , 19-C ) :   0.9385
B( 18-C , 24-H ) :   0.9441 B( 18-C , 25-H ) :   0.9425 B( 19-C , 20-O ) :   0.8297
B( 19-C , 26-H ) :   0.9346 B( 19-C , 27-H ) :   0.9382 B( 23-O , 28-H ) :   0.7222

FINAL SINGLE POINT ENERGY      -652.859276270992

DIPOLE MOMENT
-------------
                                X             Y             Z
Electronic contribution:     -1.72788      -3.00810      -1.82500
Nuclear contribution   :      2.81763       3.93813       2.18046
                        -----------------------------------------
Total Dipole Moment    :      1.08975       0.93003       0.35546
                        -----------------------------------------
Magnitude (a.u.)       :      1.47610
Magnitude (Debye)      :      3.75194

Rotational constants in cm-1:     0.052800     0.013926     0.012632
Rotational constants in MHz :  1582.889951   417.498357   378.706510

                             ****ORCA TERMINATED NORMALLY****
TOTAL RUN TIME: 0 days 1 hours 32 minutes 22 seconds 776 msec
