                         Program Version 4.2.0 -  RELEASE  -
|  1> # Test redundant internal optimization
|  2> #
|  3> ! RKS B3LYP  Opt TightSCF SmallPrint
|  4>
|  5> %basis
|  6>         Basis "6-31G"
|  7> end
|  8>
|  9> %geom
| 10> Constraints
| 11> { D 4  0  15  12  135.0   C } # D for Dihedral angle
| 12> { D 0  15  12  16  75.0   C } # D for Dihedral angle
| 13> { D 0  4  3  2   C } # D for Dihedral angle
| 14> { D 4  3  2  1   C } # D for Dihedral angle
| 15> { D 3  2  1  0   C } # D for Dihedral angle
| 16> { D 2  1  0  4   C } # D for Dihedral angle
| 17> { D 1  0  4  3   C } # D for Dihedral angle
| 18> { D 16  20  19  18   C } # D for Dihedral angle
| 19> { D 20  19  18  17   C } # D for Dihedral angle
| 20> { D 19  18  17  16   C } # D for Dihedral angle
| 21> { D 18  17  16  20   C } # D for Dihedral angle
| 22> { D 17  16  20  19   C } # D for Dihedral angle
| 23> { D 15  12  16  20   C } # D for Dihedral angle
| 24> end
| 25> end
| 26>
| 27>
| 28> #%pal
| 29> #nprocs 8
| 30> #end
| 31>
| 32> * xyz 0 1
| 33> C  -21.048   26.222   46.251
| 34> C  -20.361   27.558   45.944
| 35> C  -20.329   28.222   47.341
| 36> C  -20.110   27.022   48.296
| 37> O  -20.473   25.807   47.535
| 38> H  -20.833   25.428   45.533
| 39> H  -19.344   27.382   45.576
| 40> H  -20.898   28.157   45.201
| 41> H  -19.543   28.978   47.434
| 42> H  -21.289   28.710   47.548
| 43> H  -20.733   27.082   49.195
| 44> H  -19.064   26.913   48.597
| 45> C  -23.162   27.680   45.721
| 46> H  -24.180   27.850   46.092
| 47> H  -22.550   28.552   45.985
| 48> O  -22.586   26.394   46.375
| 49> C  -23.215   27.592   44.170
| 50> C  -23.678   28.917   43.553
| 51> C  -22.383   29.761   43.615
| 52> C  -21.269   28.714   43.360
| 53> O  -21.870   27.389   43.621
| 54> H  -23.813   26.725   43.881
| 55> O  -24.118   28.694   42.081
| 56> H  -24.511   29.376   44.097
| 57> H  -22.369   30.572   42.879
| 58> H  -22.272   30.209   44.609
| 59> H  -20.405   28.852   44.021
| 60> H  -20.925   28.714   42.322
| 61> H  -23.299   28.234   41.517
| 62> *
| 63>
| 64>                          ****END OF INPUT****
 Total Charge           Charge          ....    0
 Multiplicity           Mult            ....    1
 Number of Electrons    NEL             ....  102
FINAL SINGLE POINT ENERGY      -652.803026670188
FINAL SINGLE POINT ENERGY      -652.834332985915
FINAL SINGLE POINT ENERGY      -652.849234520630
FINAL SINGLE POINT ENERGY      -652.851735025795
FINAL SINGLE POINT ENERGY      -652.852181794363
FINAL SINGLE POINT ENERGY      -652.852245931246
FINAL SINGLE POINT ENERGY      -652.852254924694
                    ***********************HURRAY********************

CARTESIAN COORDINATES (ANGSTROEM)
---------------------------------
  C    -21.016946   26.230817   46.316867
  C    -20.065879   27.412076   46.113761
  C    -20.120122   28.116775   47.496982
  C    -20.264299   26.923337   48.469223
  O    -20.722845   25.782573   47.650956
  H    -20.852365   25.383615   45.651887
  H    -19.062389   27.012978   45.927532
  H    -20.335165   28.047917   45.276468
  H    -19.223987   28.711724   47.698754
  H    -20.988184   28.782018   47.561744
  H    -20.991819   27.103614   49.265589
  H    -19.309419   26.629205   48.915708
  C    -23.051755   27.711651   45.676814
  H    -24.082170   27.696406   46.045427
  H    -22.576610   28.636682   46.039117
  O    -22.445576   26.540776   46.270001
  C    -23.089498   27.689605   44.141678
  C    -23.759938   28.908291   43.487609
  C    -22.572107   29.899642   43.380091
  C    -21.364385   28.975370   43.089738
  O    -21.779643   27.602691   43.487069
  H    -23.613008   26.772394   43.849071
  O    -24.301638   28.572056   42.182512
  H    -24.602085   29.306941   44.055264
  H    -22.750077   30.632320   42.589003
  H    -22.441341   30.438022   44.325924
  H    -20.468906   29.262125   43.649198
  H    -21.109120   28.932704   42.027010
  H    -23.668725   27.991673   41.709005

 Multiplicity           Mult            ....    1
 Number of Electrons    NEL             ....  102
 Basis Dimension        Dim             ....  149

ORBITAL ENERGIES
----------------

  NO   OCC          E(Eh)            E(eV)
   0   2.0000     -19.156486      -521.2745
   1   2.0000     -19.144879      -520.9586
   2   2.0000     -19.133382      -520.6458
   3   2.0000     -19.132930      -520.6335
   4   2.0000     -10.274001      -279.5698
   5   2.0000     -10.250388      -278.9273
   6   2.0000     -10.241755      -278.6923
   7   2.0000     -10.239180      -278.6223
   8   2.0000     -10.238911      -278.6149
   9   2.0000     -10.222504      -278.1685
  10   2.0000     -10.198625      -277.5187
  11   2.0000     -10.189044      -277.2580
  12   2.0000     -10.183277      -277.1011
  13   2.0000      -1.049252       -28.5516
  14   2.0000      -1.042109       -28.3572
  15   2.0000      -1.014522       -27.6065
  16   2.0000      -0.987221       -26.8637
  17   2.0000      -0.792280       -21.5590
  18   2.0000      -0.783985       -21.3333
  19   2.0000      -0.774791       -21.0831
  20   2.0000      -0.733201       -19.9514
  21   2.0000      -0.682920       -18.5832
  22   2.0000      -0.612776       -16.6745
  23   2.0000      -0.607060       -16.5189
  24   2.0000      -0.598653       -16.2902
  25   2.0000      -0.570558       -15.5257
  26   2.0000      -0.530725       -14.4418
  27   2.0000      -0.516855       -14.0643
  28   2.0000      -0.503542       -13.7021
  29   2.0000      -0.486445       -13.2368
  30   2.0000      -0.478812       -13.0291
  31   2.0000      -0.462635       -12.5889
  32   2.0000      -0.453565       -12.3421
  33   2.0000      -0.441526       -12.0145
  34   2.0000      -0.433079       -11.7847
  35   2.0000      -0.412919       -11.2361
  36   2.0000      -0.408444       -11.1143
  37   2.0000      -0.398657       -10.8480
  38   2.0000      -0.381217       -10.3734
  39   2.0000      -0.376293       -10.2395
  40   2.0000      -0.363880        -9.9017
  41   2.0000      -0.356428        -9.6989
  42   2.0000      -0.351732        -9.5711
  43   2.0000      -0.340755        -9.2724
  44   2.0000      -0.317926        -8.6512
  45   2.0000      -0.307829        -8.3765
  46   2.0000      -0.286759        -7.8031
  47   2.0000      -0.280668        -7.6374
  48   2.0000      -0.271519        -7.3884
  49   2.0000      -0.253621        -6.9014
  50   2.0000      -0.239112        -6.5066
  51   0.0000       0.053481         1.4553
  52   0.0000       0.074206         2.0192
  53   0.0000       0.085834         2.3357
  54   0.0000       0.090852         2.4722
  55   0.0000       0.098947         2.6925

MULLIKEN ATOMIC CHARGES
-----------------------
   0 C :    0.326932
   1 C :   -0.297844
   2 C :   -0.310784
   3 C :    0.002471
   4 O :   -0.496283
   5 H :    0.161390
   6 H :    0.149168
   7 H :    0.161504
   8 H :    0.141128
   9 H :    0.145705
  10 H :    0.148040
  11 H :    0.141897
  12 C :   -0.005853
  13 H :    0.159979
  14 H :    0.111864
  15 O :   -0.530234
  16 C :    0.064443
  17 C :    0.076515
  18 C :   -0.290902
  19 C :   -0.037395
  20 O :   -0.520565
  21 H :    0.171133
  22 O :   -0.599414
  23 H :    0.155481
  24 H :    0.167854
  25 H :    0.143315
  26 H :    0.141124
  27 H :    0.153165
  28 H :    0.366167
Sum of atomic charges:   -0.0000000

LOEWDIN ATOMIC CHARGES
----------------------
   0 C :    0.191960
   1 C :   -0.231863
   2 C :   -0.222112
   3 C :   -0.028286
   4 O :   -0.308316
   5 H :    0.109806
   6 H :    0.120335
   7 H :    0.122034
   8 H :    0.113665
   9 H :    0.106394
  10 H :    0.105359
  11 H :    0.102270
  12 C :   -0.037491
  13 H :    0.121604
  14 H :    0.084356
  15 O :   -0.333995
  16 C :    0.001969
  17 C :    0.035932
  18 C :   -0.239929
  19 C :   -0.041384
  20 O :   -0.329379
  21 H :    0.119493
  22 O :   -0.411834
  23 H :    0.117183
  24 H :    0.129548
  25 H :    0.112724
  26 H :    0.099514
  27 H :    0.106371
  28 H :    0.284073

  Mayer bond orders larger than 0.100000
B(  0-C ,  1-C ) :   0.9362 B(  0-C ,  4-O ) :   0.9212 B(  0-C ,  5-H ) :   0.9288
B(  0-C , 15-O ) :   0.8321 B(  1-C ,  2-C ) :   0.9472 B(  1-C ,  6-H ) :   0.9369
B(  1-C ,  7-H ) :   0.9094 B(  2-C ,  3-C ) :   0.9507 B(  2-C ,  8-H ) :   0.9458
B(  2-C ,  9-H ) :   0.9421 B(  3-C ,  4-O ) :   0.8443 B(  3-C , 10-H ) :   0.9349
B(  3-C , 11-H ) :   0.9395 B( 12-C , 13-H ) :   0.9274 B( 12-C , 14-H ) :   0.9099
B( 12-C , 15-O ) :   0.8732 B( 12-C , 16-C ) :   0.8821 B( 16-C , 17-C ) :   0.8921
B( 16-C , 20-O ) :   0.8531 B( 16-C , 21-H ) :   0.9229 B( 17-C , 18-C ) :   0.9106
B( 17-C , 22-O ) :   0.8939 B( 17-C , 23-H ) :   0.9335 B( 18-C , 19-C ) :   0.9424
B( 18-C , 24-H ) :   0.9360 B( 18-C , 25-H ) :   0.9337 B( 19-C , 20-O ) :   0.8434
B( 19-C , 26-H ) :   0.9238 B( 19-C , 27-H ) :   0.9388 B( 22-O , 28-H ) :   0.7940

FINAL SINGLE POINT ENERGY      -652.852255038679

DIPOLE MOMENT
-------------
                                X             Y             Z
Electronic contribution:     -3.30208      -5.81445      -1.59005
Nuclear contribution   :      4.07080       7.42558       1.40031
                        -----------------------------------------
Total Dipole Moment    :      0.76872       1.61113      -0.18974
                        -----------------------------------------
Magnitude (a.u.)       :      1.79518
Magnitude (Debye)      :      4.56298

Rotational constants in cm-1:     0.061586     0.014044     0.013114
Rotational constants in MHz :  1846.298299   421.037359   393.136808

                             ****ORCA TERMINATED NORMALLY****
TOTAL RUN TIME: 0 days 0 hours 28 minutes 2 seconds 10 msec
