                         Program Version 4.2.0 -  RELEASE  -
|  1> # Test redundant internal optimization
|  2> #
|  3> ! RKS B3LYP  Opt TightSCF SmallPrint
|  4>
|  5> %basis
|  6>         Basis "6-31G"
|  7> end
|  8>
|  9> %geom
| 10> Constraints
| 11> { D 4  0  15  12  120.0   C } # D for Dihedral angle
| 12> { D 0  15  12  16  165.0   C } # D for Dihedral angle
| 13> { D 0  4  3  2   C } # D for Dihedral angle
| 14> { D 4  3  2  1   C } # D for Dihedral angle
| 15> { D 3  2  1  0   C } # D for Dihedral angle
| 16> { D 2  1  0  4   C } # D for Dihedral angle
| 17> { D 1  0  4  3   C } # D for Dihedral angle
| 18> { D 16  20  19  18   C } # D for Dihedral angle
| 19> { D 20  19  18  17   C } # D for Dihedral angle
| 20> { D 19  18  17  16   C } # D for Dihedral angle
| 21> { D 18  17  16  20   C } # D for Dihedral angle
| 22> { D 17  16  20  19   C } # D for Dihedral angle
| 23> { D 15  12  16  20   C } # D for Dihedral angle
| 24> end
| 25> end
| 26>
| 27>
| 28> #%pal
| 29> #nprocs 8
| 30> #end
| 31>
| 32> * xyz 0 1
| 33> C  -21.048   26.222   46.251
| 34> C  -20.361   27.558   45.944
| 35> C  -20.329   28.222   47.341
| 36> C  -20.110   27.022   48.296
| 37> O  -20.473   25.807   47.535
| 38> H  -20.833   25.428   45.533
| 39> H  -19.344   27.382   45.576
| 40> H  -20.898   28.157   45.201
| 41> H  -19.543   28.978   47.434
| 42> H  -21.289   28.710   47.548
| 43> H  -20.733   27.082   49.195
| 44> H  -19.064   26.913   48.597
| 45> C  -23.119   27.818   46.058
| 46> H  -22.879   28.489   46.892
| 47> H  -22.642   28.214   45.152
| 48> O  -22.586   26.394   46.375
| 49> C  -24.656   27.848   45.833
| 50> C  -25.413   27.470   47.112
| 51> C  -25.349   28.791   47.916
| 52> C  -25.444   29.877   46.815
| 53> O  -25.105   29.213   45.539
| 54> H  -24.903   27.235   44.964
| 55> H  -26.451   27.213   46.872
| 56> O  -24.774   26.273   47.868
| 57> H  -26.150   28.876   48.656
| 58> H  -24.393   28.861   48.448
| 59> H  -24.750   30.707   46.984
| 60> H  -26.456   30.278   46.711
| 61> H  -23.734   26.509   48.118
| 62> *
| 63>
| 64>                          ****END OF INPUT****
 Total Charge           Charge          ....    0
 Multiplicity           Mult            ....    1
 Number of Electrons    NEL             ....  102
FINAL SINGLE POINT ENERGY      -652.816424455514
FINAL SINGLE POINT ENERGY      -652.842498575442
FINAL SINGLE POINT ENERGY      -652.852665498988
FINAL SINGLE POINT ENERGY      -652.856262381992
FINAL SINGLE POINT ENERGY      -652.858162652152
FINAL SINGLE POINT ENERGY      -652.859289208885
FINAL SINGLE POINT ENERGY      -652.859884000023
FINAL SINGLE POINT ENERGY      -652.860036000796
FINAL SINGLE POINT ENERGY      -652.860062800790
FINAL SINGLE POINT ENERGY      -652.860066957544
                    ***********************HURRAY********************

CARTESIAN COORDINATES (ANGSTROEM)
---------------------------------
  C    -21.175115   26.343993   46.326000
  C    -20.195027   27.452177   45.933243
  C    -19.998155   28.202347   47.278326
  C    -20.065639   27.058411   48.316339
  O    -20.714807   25.918091   47.619067
  H    -21.145498   25.458888   45.689597
  H    -19.259954   26.979194   45.615718
  H    -20.540481   28.095939   45.120819
  H    -19.044649   28.737404   47.315728
  H    -20.795595   28.934041   47.439498
  H    -20.654152   27.311209   49.201993
  H    -19.076663   26.711831   48.627382
  C    -23.110843   28.039282   46.069227
  H    -22.882609   28.753019   46.870197
  H    -22.692354   28.418130   45.131266
  O    -22.587795   26.711213   46.391506
  C    -24.626111   27.876002   45.902107
  C    -25.380270   27.427936   47.166760
  C    -25.485715   28.763613   47.960409
  C    -25.662382   29.818469   46.849242
  O    -25.208395   29.176449   45.578369
  H    -24.820578   27.216244   45.052518
  H    -26.385253   27.106132   46.869452
  O    -24.788786   26.359508   47.925331
  H    -26.318595   28.748137   48.668743
  H    -24.562513   28.910240   48.531586
  H    -25.073174   30.726322   47.011422
  H    -26.707929   30.099887   46.697046
  H    -23.869966   26.192892   47.605108

 Multiplicity           Mult            ....    1
 Number of Electrons    NEL             ....  102
 Basis Dimension        Dim             ....  149

ORBITAL ENERGIES
----------------

  NO   OCC          E(Eh)            E(eV)
   0   2.0000     -19.162622      -521.4415
   1   2.0000     -19.151391      -521.1358
   2   2.0000     -19.140699      -520.8449
   3   2.0000     -19.106931      -519.9260
   4   2.0000     -10.294308      -280.1223
   5   2.0000     -10.242918      -278.7240
   6   2.0000     -10.236775      -278.5568
   7   2.0000     -10.234163      -278.4857
   8   2.0000     -10.227762      -278.3116
   9   2.0000     -10.226445      -278.2757
  10   2.0000     -10.205388      -277.7027
  11   2.0000     -10.203347      -277.6472
  12   2.0000     -10.178095      -276.9601
  13   2.0000      -1.064954       -28.9789
  14   2.0000      -1.025652       -27.9094
  15   2.0000      -1.008221       -27.4351
  16   2.0000      -0.987603       -26.8740
  17   2.0000      -0.801468       -21.8090
  18   2.0000      -0.778506       -21.1842
  19   2.0000      -0.767466       -20.8838
  20   2.0000      -0.739264       -20.1164
  21   2.0000      -0.684541       -18.6273
  22   2.0000      -0.615553       -16.7501
  23   2.0000      -0.600568       -16.3423
  24   2.0000      -0.595913       -16.2156
  25   2.0000      -0.577309       -15.7094
  26   2.0000      -0.526595       -14.3294
  27   2.0000      -0.522530       -14.2188
  28   2.0000      -0.512882       -13.9562
  29   2.0000      -0.486933       -13.2501
  30   2.0000      -0.477802       -13.0016
  31   2.0000      -0.462315       -12.5802
  32   2.0000      -0.442308       -12.0358
  33   2.0000      -0.436542       -11.8789
  34   2.0000      -0.431336       -11.7373
  35   2.0000      -0.423646       -11.5280
  36   2.0000      -0.411499       -11.1975
  37   2.0000      -0.392417       -10.6782
  38   2.0000      -0.386366       -10.5136
  39   2.0000      -0.373663       -10.1679
  40   2.0000      -0.367920       -10.0116
  41   2.0000      -0.362183        -9.8555
  42   2.0000      -0.348807        -9.4915
  43   2.0000      -0.340563        -9.2672
  44   2.0000      -0.322775        -8.7831
  45   2.0000      -0.311748        -8.4831
  46   2.0000      -0.291155        -7.9227
  47   2.0000      -0.274918        -7.4809
  48   2.0000      -0.267464        -7.2781
  49   2.0000      -0.248204        -6.7540
  50   2.0000      -0.238234        -6.4827
  51   0.0000       0.054582         1.4852
  52   0.0000       0.067119         1.8264
  53   0.0000       0.087778         2.3886
  54   0.0000       0.094717         2.5774
  55   0.0000       0.103275         2.8103

MULLIKEN ATOMIC CHARGES
-----------------------
   0 C :    0.325973
   1 C :   -0.300189
   2 C :   -0.311527
   3 C :   -0.008429
   4 O :   -0.494543
   5 H :    0.168801
   6 H :    0.162993
   7 H :    0.152856
   8 H :    0.151408
   9 H :    0.153589
  10 H :    0.156040
  11 H :    0.151563
  12 C :   -0.008701
  13 H :    0.141787
  14 H :    0.150919
  15 O :   -0.572742
  16 C :    0.053015
  17 C :    0.124400
  18 C :   -0.301814
  19 C :   -0.019737
  20 O :   -0.523360
  21 H :    0.161196
  22 H :    0.145085
  23 O :   -0.641861
  24 H :    0.153870
  25 H :    0.140891
  26 H :    0.138315
  27 H :    0.148793
  28 H :    0.401410
Sum of atomic charges:   -0.0000000

LOEWDIN ATOMIC CHARGES
----------------------
   0 C :    0.183692
   1 C :   -0.229567
   2 C :   -0.220036
   3 C :   -0.029683
   4 O :   -0.309702
   5 H :    0.112676
   6 H :    0.126502
   7 H :    0.118954
   8 H :    0.119430
   9 H :    0.111149
  10 H :    0.109715
  11 H :    0.107696
  12 C :   -0.041837
  13 H :    0.095231
  14 H :    0.107023
  15 O :   -0.342035
  16 C :    0.019794
  17 C :    0.043326
  18 C :   -0.237489
  19 C :   -0.032832
  20 O :   -0.325613
  21 H :    0.116345
  22 H :    0.104144
  23 O :   -0.435613
  24 H :    0.122239
  25 H :    0.108874
  26 H :    0.099966
  27 H :    0.106263
  28 H :    0.291386

  Mayer bond orders larger than 0.100000
B(  0-C ,  1-C ) :   0.9388 B(  0-C ,  4-O ) :   0.9320 B(  0-C ,  5-H ) :   0.9302
B(  0-C , 15-O ) :   0.8160 B(  1-C ,  2-C ) :   0.9484 B(  1-C ,  6-H ) :   0.9328
B(  1-C ,  7-H ) :   0.9280 B(  2-C ,  3-C ) :   0.9494 B(  2-C ,  8-H ) :   0.9447
B(  2-C ,  9-H ) :   0.9400 B(  3-C ,  4-O ) :   0.8362 B(  3-C , 10-H ) :   0.9340
B(  3-C , 11-H ) :   0.9389 B( 12-C , 13-H ) :   0.9112 B( 12-C , 14-H ) :   0.9187
B( 12-C , 15-O ) :   0.7893 B( 12-C , 16-C ) :   0.8994 B( 16-C , 17-C ) :   0.9141
B( 16-C , 20-O ) :   0.8549 B( 16-C , 21-H ) :   0.9291 B( 17-C , 18-C ) :   0.8994
B( 17-C , 22-H ) :   0.9288 B( 17-C , 23-O ) :   0.9426 B( 18-C , 19-C ) :   0.9402
B( 18-C , 24-H ) :   0.9445 B( 18-C , 25-H ) :   0.9436 B( 19-C , 20-O ) :   0.8321
B( 19-C , 26-H ) :   0.9347 B( 19-C , 27-H ) :   0.9388 B( 23-O , 28-H ) :   0.7170

FINAL SINGLE POINT ENERGY      -652.860067894637

DIPOLE MOMENT
-------------
                                X             Y             Z
Electronic contribution:     -2.62624      -4.92655      -1.58072
Nuclear contribution   :      3.97056       6.17672       1.29414
                        -----------------------------------------
Total Dipole Moment    :      1.34432       1.25017      -0.28658
                        -----------------------------------------
Magnitude (a.u.)       :      1.85802
Magnitude (Debye)      :      4.72271

Rotational constants in cm-1:     0.049642     0.014708     0.013750
Rotational constants in MHz :  1488.216201   440.934005   412.211063

                             ****ORCA TERMINATED NORMALLY****
TOTAL RUN TIME: 0 days 0 hours 29 minutes 42 seconds 881 msec
