                         Program Version 4.2.0 -  RELEASE  -
|  1> # Test redundant internal optimization
|  2> #
|  3> ! RKS B3LYP  Opt TightSCF SmallPrint
|  4>
|  5> %basis
|  6>         Basis "6-31G"
|  7> end
|  8>
|  9> %geom
| 10> Constraints
| 11> { D 4  0  15  12  135.0   C } # D for Dihedral angle
| 12> { D 0  15  12  16  195.0   C } # D for Dihedral angle
| 13> { D 0  4  3  2   C } # D for Dihedral angle
| 14> { D 4  3  2  1   C } # D for Dihedral angle
| 15> { D 3  2  1  0   C } # D for Dihedral angle
| 16> { D 2  1  0  4   C } # D for Dihedral angle
| 17> { D 1  0  4  3   C } # D for Dihedral angle
| 18> { D 16  20  19  18   C } # D for Dihedral angle
| 19> { D 20  19  18  17   C } # D for Dihedral angle
| 20> { D 19  18  17  16   C } # D for Dihedral angle
| 21> { D 18  17  16  20   C } # D for Dihedral angle
| 22> { D 17  16  20  19   C } # D for Dihedral angle
| 23> { D 15  12  16  20   C } # D for Dihedral angle
| 24> end
| 25> end
| 26>
| 27>
| 28> #%pal
| 29> #nprocs 8
| 30> #end
| 31>
| 32> * xyz 0 1
| 33> C  -21.048   26.222   46.251
| 34> C  -20.361   27.558   45.944
| 35> C  -20.329   28.222   47.341
| 36> C  -20.110   27.022   48.296
| 37> O  -20.473   25.807   47.535
| 38> H  -20.833   25.428   45.533
| 39> H  -19.344   27.382   45.576
| 40> H  -20.898   28.157   45.201
| 41> H  -19.543   28.978   47.434
| 42> H  -21.289   28.710   47.548
| 43> H  -20.733   27.082   49.195
| 44> H  -19.064   26.913   48.597
| 45> C  -23.162   27.680   45.721
| 46> H  -22.525   28.535   45.981
| 47> H  -23.173   27.582   44.627
| 48> O  -22.586   26.394   46.375
| 49> C  -24.612   27.991   46.183
| 50> C  -25.544   26.800   45.931
| 51> C  -25.199   25.875   47.123
| 52> C  -24.911   26.874   48.272
| 53> O  -24.657   28.185   47.636
| 54> H  -24.940   28.926   45.725
| 55> H  -26.590   27.124   45.984
| 56> O  -25.310   26.121   44.555
| 57> H  -26.007   25.179   47.368
| 58> H  -24.305   25.283   46.893
| 59> H  -24.038   26.588   48.868
| 60> H  -25.769   27.001   48.939
| 61> H  -24.269   25.789   44.480
| 62> *
| 63>
| 64>                          ****END OF INPUT****
 Total Charge           Charge          ....    0
 Multiplicity           Mult            ....    1
 Number of Electrons    NEL             ....  102
FINAL SINGLE POINT ENERGY      -652.825604790921
FINAL SINGLE POINT ENERGY      -652.849463113868
FINAL SINGLE POINT ENERGY      -652.854907240916
FINAL SINGLE POINT ENERGY      -652.857088303163
FINAL SINGLE POINT ENERGY      -652.857331704631
FINAL SINGLE POINT ENERGY      -652.857379625460
FINAL SINGLE POINT ENERGY      -652.857380769837
                    ***********************HURRAY********************

CARTESIAN COORDINATES (ANGSTROEM)
---------------------------------
  C    -21.107781   26.337234   46.235277
  C    -20.230854   27.554732   45.935832
  C    -20.189087   28.270285   47.312526
  C    -20.192078   27.088479   48.306957
  O    -20.676704   25.913968   47.539004
  H    -20.952854   25.485529   45.569018
  H    -19.233394   27.195532   45.660514
  H    -20.594636   28.187818   45.122896
  H    -19.304707   28.904796   47.423095
  H    -21.076555   28.895324   47.453066
  H    -20.855301   27.248433   49.160374
  H    -19.190966   26.834542   48.666557
  C    -23.153278   27.768383   45.688774
  H    -22.596040   28.674284   45.950146
  H    -23.187978   27.682876   44.592902
  O    -22.545976   26.587328   46.284423
  C    -24.575746   27.930189   46.218772
  C    -25.529241   26.756772   45.933161
  C    -25.213681   25.790785   47.116778
  C    -24.922980   26.763480   48.279254
  O    -24.636856   28.087891   47.663813
  H    -24.964179   28.862271   45.789970
  H    -26.564445   27.102610   45.964261
  O    -25.365981   26.166844   44.619358
  H    -26.050102   25.118167   47.330041
  H    -24.325084   25.204989   46.873344
  H    -24.054717   26.459894   48.870075
  H    -25.785171   26.904258   48.939101
  H    -24.545626   25.630306   44.612711

 Multiplicity           Mult            ....    1
 Number of Electrons    NEL             ....  102
 Basis Dimension        Dim             ....  149

ORBITAL ENERGIES
----------------

  NO   OCC          E(Eh)            E(eV)
   0   2.0000     -19.147331      -521.0254
   1   2.0000     -19.143939      -520.9331
   2   2.0000     -19.136980      -520.7437
   3   2.0000     -19.130964      -520.5800
   4   2.0000     -10.286849      -279.9194
   5   2.0000     -10.234010      -278.4816
   6   2.0000     -10.233089      -278.4565
   7   2.0000     -10.229356      -278.3549
   8   2.0000     -10.229081      -278.3475
   9   2.0000     -10.217028      -278.0195
  10   2.0000     -10.197579      -277.4902
  11   2.0000     -10.194436      -277.4047
  12   2.0000     -10.173534      -276.8359
  13   2.0000      -1.056538       -28.7499
  14   2.0000      -1.024421       -27.8759
  15   2.0000      -1.006703       -27.3938
  16   2.0000      -0.995410       -27.0865
  17   2.0000      -0.793604       -21.5951
  18   2.0000      -0.773546       -21.0493
  19   2.0000      -0.762526       -20.7494
  20   2.0000      -0.734949       -19.9990
  21   2.0000      -0.680111       -18.5068
  22   2.0000      -0.608396       -16.5553
  23   2.0000      -0.598954       -16.2984
  24   2.0000      -0.596643       -16.2355
  25   2.0000      -0.562131       -15.2964
  26   2.0000      -0.530961       -14.4482
  27   2.0000      -0.508515       -13.8374
  28   2.0000      -0.501806       -13.6548
  29   2.0000      -0.488240       -13.2857
  30   2.0000      -0.471040       -12.8177
  31   2.0000      -0.457517       -12.4497
  32   2.0000      -0.448381       -12.2011
  33   2.0000      -0.427036       -11.6202
  34   2.0000      -0.419485       -11.4148
  35   2.0000      -0.417511       -11.3610
  36   2.0000      -0.399535       -10.8719
  37   2.0000      -0.397483       -10.8161
  38   2.0000      -0.387877       -10.5547
  39   2.0000      -0.366011        -9.9597
  40   2.0000      -0.365011        -9.9325
  41   2.0000      -0.357730        -9.7343
  42   2.0000      -0.348834        -9.4923
  43   2.0000      -0.323624        -8.8063
  44   2.0000      -0.315306        -8.5799
  45   2.0000      -0.305785        -8.3208
  46   2.0000      -0.297085        -8.0841
  47   2.0000      -0.273913        -7.4536
  48   2.0000      -0.258624        -7.0375
  49   2.0000      -0.255812        -6.9610
  50   2.0000      -0.236673        -6.4402
  51   0.0000       0.064791         1.7630
  52   0.0000       0.083643         2.2760
  53   0.0000       0.094856         2.5812
  54   0.0000       0.096218         2.6182
  55   0.0000       0.104727         2.8498

MULLIKEN ATOMIC CHARGES
-----------------------
   0 C :    0.325086
   1 C :   -0.305939
   2 C :   -0.307646
   3 C :   -0.003532
   4 O :   -0.498412
   5 H :    0.150718
   6 H :    0.156219
   7 H :    0.149866
   8 H :    0.146884
   9 H :    0.168138
  10 H :    0.157314
  11 H :    0.144692
  12 C :   -0.017800
  13 H :    0.140405
  14 H :    0.135925
  15 O :   -0.545421
  16 C :    0.094723
  17 C :    0.087714
  18 C :   -0.311359
  19 C :   -0.008038
  20 O :   -0.525149
  21 H :    0.144360
  22 H :    0.158552
  23 O :   -0.609585
  24 H :    0.140985
  25 H :    0.175725
  26 H :    0.153794
  27 H :    0.138842
  28 H :    0.362940
Sum of atomic charges:   -0.0000000

LOEWDIN ATOMIC CHARGES
----------------------
   0 C :    0.183917
   1 C :   -0.232914
   2 C :   -0.219164
   3 C :   -0.027101
   4 O :   -0.310163
   5 H :    0.102185
   6 H :    0.122362
   7 H :    0.116782
   8 H :    0.116945
   9 H :    0.117837
  10 H :    0.110332
  11 H :    0.104102
  12 C :   -0.048235
  13 H :    0.101192
  14 H :    0.096629
  15 O :   -0.343099
  16 C :    0.020601
  17 C :    0.038113
  18 C :   -0.243007
  19 C :   -0.025412
  20 O :   -0.325686
  21 H :    0.111872
  22 H :    0.114880
  23 O :   -0.413607
  24 H :    0.113528
  25 H :    0.127140
  26 H :    0.108815
  27 H :    0.099427
  28 H :    0.281731

  Mayer bond orders larger than 0.100000
B(  0-C ,  1-C ) :   0.9356 B(  0-C ,  4-O ) :   0.9336 B(  0-C ,  5-H ) :   0.9293
B(  0-C , 15-O ) :   0.8351 B(  1-C ,  2-C ) :   0.9499 B(  1-C ,  6-H ) :   0.9336
B(  1-C ,  7-H ) :   0.9283 B(  2-C ,  3-C ) :   0.9519 B(  2-C ,  8-H ) :   0.9450
B(  2-C ,  9-H ) :   0.9357 B(  3-C ,  4-O ) :   0.8358 B(  3-C , 10-H ) :   0.9333
B(  3-C , 11-H ) :   0.9396 B( 12-C , 13-H ) :   0.9073 B( 12-C , 14-H ) :   0.9046
B( 12-C , 15-O ) :   0.8337 B( 12-C , 16-C ) :   0.9047 B( 16-C , 17-C ) :   0.8870
B( 16-C , 20-O ) :   0.8854 B( 16-C , 21-H ) :   0.9296 B( 17-C , 18-C ) :   0.9358
B( 17-C , 22-H ) :   0.9367 B( 17-C , 23-O ) :   0.8982 B( 18-C , 19-C ) :   0.9487
B( 18-C , 24-H ) :   0.9409 B( 18-C , 25-H ) :   0.9230 B( 19-C , 20-O ) :   0.8323
B( 19-C , 26-H ) :   0.9308 B( 19-C , 27-H ) :   0.9377 B( 23-O , 28-H ) :   0.7934

FINAL SINGLE POINT ENERGY      -652.857379378823

DIPOLE MOMENT
-------------
                                X             Y             Z
Electronic contribution:     -2.75606      -1.99148      -1.01229
Nuclear contribution   :      3.78448       2.41381       0.84569
                        -----------------------------------------
Total Dipole Moment    :      1.02842       0.42233      -0.16660
                        -----------------------------------------
Magnitude (a.u.)       :      1.12418
Magnitude (Debye)      :      2.85743

Rotational constants in cm-1:     0.047574     0.016542     0.015370
Rotational constants in MHz :  1426.244173   495.918885   460.794941

                             ****ORCA TERMINATED NORMALLY****
TOTAL RUN TIME: 0 days 0 hours 37 minutes 2 seconds 324 msec
