                         Program Version 4.2.0 -  RELEASE  -
|  1> # Test redundant internal optimization
|  2> #
|  3> ! RKS B3LYP  Opt TightSCF SmallPrint
|  4>
|  5> %basis
|  6>         Basis "6-31G"
|  7> end
|  8>
|  9> %geom
| 10> Constraints
| 11> { D 4  0  15  12  345.0   C } # D for Dihedral angle
| 12> { D 0  15  12  16  120.0   C } # D for Dihedral angle
| 13> { D 0  4  3  2   C } # D for Dihedral angle
| 14> { D 4  3  2  1   C } # D for Dihedral angle
| 15> { D 3  2  1  0   C } # D for Dihedral angle
| 16> { D 2  1  0  4   C } # D for Dihedral angle
| 17> { D 1  0  4  3   C } # D for Dihedral angle
| 18> { D 16  20  19  18   C } # D for Dihedral angle
| 19> { D 20  19  18  17   C } # D for Dihedral angle
| 20> { D 19  18  17  16   C } # D for Dihedral angle
| 21> { D 18  17  16  20   C } # D for Dihedral angle
| 22> { D 17  16  20  19   C } # D for Dihedral angle
| 23> { D 15  12  16  20   C } # D for Dihedral angle
| 24> end
| 25> end
| 26>
| 27>
| 28> #%pal
| 29> #nprocs 8
| 30> #end
| 31>
| 32> * xyz 0 1
| 33> C  -21.048   26.222   46.251
| 34> C  -20.361   27.558   45.944
| 35> C  -20.329   28.222   47.341
| 36> C  -20.110   27.022   48.296
| 37> O  -20.473   25.807   47.535
| 38> H  -20.833   25.428   45.533
| 39> H  -19.344   27.382   45.576
| 40> H  -20.898   28.157   45.201
| 41> H  -19.543   28.978   47.434
| 42> H  -21.289   28.710   47.548
| 43> H  -20.733   27.082   49.195
| 44> H  -19.064   26.913   48.597
| 45> C  -23.221   25.764   47.645
| 46> H  -23.951   25.003   47.345
| 47> H  -22.451   25.278   48.258
| 48> O  -22.586   26.394   46.375
| 49> C  -23.944   26.811   48.537
| 50> C  -25.149   27.422   47.812
| 51> C  -26.214   26.312   47.983
| 52> C  -25.900   25.738   49.388
| 53> O  -24.524   26.164   49.719
| 54> H  -23.215   27.540   48.896
| 55> O  -25.596   28.726   48.528
| 56> H  -24.946   27.658   46.762
| 57> H  -27.237   26.691   47.906
| 58> H  -26.082   25.543   47.213
| 59> H  -25.954   24.645   49.416
| 60> H  -26.558   26.144   50.161
| 61> H  -25.806   28.514   49.583
| 62> *
| 63>
| 64>                          ****END OF INPUT****
 Total Charge           Charge          ....    0
 Multiplicity           Mult            ....    1
 Number of Electrons    NEL             ....  102
FINAL SINGLE POINT ENERGY      -652.838478502083
FINAL SINGLE POINT ENERGY      -652.860545628038
FINAL SINGLE POINT ENERGY      -652.863986704164
FINAL SINGLE POINT ENERGY      -652.864495774758
FINAL SINGLE POINT ENERGY      -652.864578274160
FINAL SINGLE POINT ENERGY      -652.864592415015
                    ***********************HURRAY********************

CARTESIAN COORDINATES (ANGSTROEM)
---------------------------------
  C    -21.112141   26.212073   46.344423
  C    -20.576336   27.604543   46.011996
  C    -20.446652   28.236866   47.416977
  C    -20.028350   27.045186   48.304787
  O    -20.382711   25.821330   47.525284
  H    -20.904018   25.443792   45.594957
  H    -19.597691   27.506657   45.528410
  H    -21.248580   28.156565   45.351704
  H    -19.712694   29.048128   47.444926
  H    -21.412355   28.643378   47.731382
  H    -20.547552   27.010998   49.266013
  H    -18.949484   26.996998   48.475988
  C    -23.171496   25.654241   47.693359
  H    -23.867689   24.884340   47.339101
  H    -22.411562   25.178751   48.317693
  O    -22.560785   26.277318   46.523192
  C    -23.905289   26.725057   48.500989
  C    -25.067264   27.409291   47.767700
  C    -26.200755   26.367711   47.938249
  C    -25.932762   25.777423   49.345991
  O    -24.527922   26.118497   49.684110
  H    -23.190117   27.468497   48.865805
  O    -25.398318   28.682206   48.392152
  H    -24.834165   27.641583   46.730083
  H    -27.180816   26.844317   47.855635
  H    -26.127871   25.597397   47.162913
  H    -26.053133   24.690227   49.382210
  H    -26.567599   26.224261   50.117622
  H    -25.442893   28.560371   49.364350

 Multiplicity           Mult            ....    1
 Number of Electrons    NEL             ....  102
 Basis Dimension        Dim             ....  149

ORBITAL ENERGIES
----------------

  NO   OCC          E(Eh)            E(eV)
   0   2.0000     -19.152511      -521.1663
   1   2.0000     -19.142926      -520.9055
   2   2.0000     -19.140507      -520.8397
   3   2.0000     -19.134041      -520.6637
   4   2.0000     -10.280917      -279.7580
   5   2.0000     -10.233481      -278.4672
   6   2.0000     -10.232903      -278.4514
   7   2.0000     -10.230684      -278.3911
   8   2.0000     -10.229760      -278.3659
   9   2.0000     -10.223665      -278.2001
  10   2.0000     -10.190324      -277.2928
  11   2.0000     -10.186958      -277.2012
  12   2.0000     -10.186264      -277.1823
  13   2.0000      -1.056090       -28.7377
  14   2.0000      -1.033956       -28.1354
  15   2.0000      -1.002758       -27.2864
  16   2.0000      -0.993165       -27.0254
  17   2.0000      -0.792420       -21.5628
  18   2.0000      -0.778170       -21.1751
  19   2.0000      -0.766854       -20.8672
  20   2.0000      -0.732665       -19.9368
  21   2.0000      -0.671584       -18.2747
  22   2.0000      -0.604244       -16.4423
  23   2.0000      -0.602031       -16.3821
  24   2.0000      -0.594920       -16.1886
  25   2.0000      -0.574573       -15.6349
  26   2.0000      -0.524221       -14.2648
  27   2.0000      -0.508879       -13.8473
  28   2.0000      -0.499230       -13.5847
  29   2.0000      -0.491900       -13.3853
  30   2.0000      -0.473901       -12.8955
  31   2.0000      -0.455547       -12.3961
  32   2.0000      -0.453436       -12.3386
  33   2.0000      -0.433782       -11.8038
  34   2.0000      -0.421441       -11.4680
  35   2.0000      -0.415069       -11.2946
  36   2.0000      -0.400112       -10.8876
  37   2.0000      -0.390157       -10.6167
  38   2.0000      -0.375161       -10.2087
  39   2.0000      -0.365294        -9.9402
  40   2.0000      -0.361437        -9.8352
  41   2.0000      -0.357448        -9.7266
  42   2.0000      -0.350989        -9.5509
  43   2.0000      -0.339576        -9.2403
  44   2.0000      -0.325085        -8.8460
  45   2.0000      -0.309423        -8.4198
  46   2.0000      -0.297702        -8.1009
  47   2.0000      -0.273039        -7.4298
  48   2.0000      -0.267019        -7.2660
  49   2.0000      -0.259085        -7.0501
  50   2.0000      -0.238597        -6.4925
  51   0.0000       0.066246         1.8026
  52   0.0000       0.072222         1.9653
  53   0.0000       0.092937         2.5289
  54   0.0000       0.096701         2.6314
  55   0.0000       0.101461         2.7609

MULLIKEN ATOMIC CHARGES
-----------------------
   0 C :    0.304728
   1 C :   -0.259782
   2 C :   -0.311816
   3 C :   -0.021081
   4 O :   -0.511875
   5 H :    0.153699
   6 H :    0.145894
   7 H :    0.162621
   8 H :    0.148271
   9 H :    0.164944
  10 H :    0.152515
  11 H :    0.153131
  12 C :   -0.026315
  13 H :    0.135001
  14 H :    0.181195
  15 O :   -0.543933
  16 C :    0.059287
  17 C :    0.088895
  18 C :   -0.300189
  19 C :   -0.035490
  20 O :   -0.527465
  21 H :    0.153059
  22 O :   -0.604524
  23 H :    0.174953
  24 H :    0.159000
  25 H :    0.150638
  26 H :    0.148446
  27 H :    0.146190
  28 H :    0.360004
Sum of atomic charges:   -0.0000000

LOEWDIN ATOMIC CHARGES
----------------------
   0 C :    0.183464
   1 C :   -0.218095
   2 C :   -0.219753
   3 C :   -0.032290
   4 O :   -0.318116
   5 H :    0.101547
   6 H :    0.114561
   7 H :    0.126864
   8 H :    0.117885
   9 H :    0.117026
  10 H :    0.106310
  11 H :    0.108415
  12 C :   -0.045238
  13 H :    0.098786
  14 H :    0.124143
  15 O :   -0.346817
  16 C :    0.010443
  17 C :    0.036620
  18 C :   -0.241394
  19 C :   -0.039730
  20 O :   -0.332099
  21 H :    0.108526
  22 O :   -0.416576
  23 H :    0.127095
  24 H :    0.125373
  25 H :    0.116340
  26 H :    0.104696
  27 H :    0.102020
  28 H :    0.279995

  Mayer bond orders larger than 0.100000
B(  0-C ,  1-C ) :   0.9374 B(  0-C ,  4-O ) :   0.9126 B(  0-C ,  5-H ) :   0.9272
B(  0-C , 15-O ) :   0.8375 B(  1-C ,  2-C ) :   0.9523 B(  1-C ,  6-H ) :   0.9362
B(  1-C ,  7-H ) :   0.9352 B(  2-C ,  3-C ) :   0.9545 B(  2-C ,  8-H ) :   0.9439
B(  2-C ,  9-H ) :   0.9383 B(  3-C ,  4-O ) :   0.8250 B(  3-C , 10-H ) :   0.9324
B(  3-C , 11-H ) :   0.9400 B( 12-C , 13-H ) :   0.9328 B( 12-C , 14-H ) :   0.9045
B( 12-C , 15-O ) :   0.8240 B( 12-C , 16-C ) :   0.8929 B( 16-C , 17-C ) :   0.9115
B( 16-C , 20-O ) :   0.8390 B( 16-C , 21-H ) :   0.9240 B( 17-C , 18-C ) :   0.9137
B( 17-C , 22-O ) :   0.8872 B( 17-C , 23-H ) :   0.9247 B( 18-C , 19-C ) :   0.9433
B( 18-C , 24-H ) :   0.9382 B( 18-C , 25-H ) :   0.9339 B( 19-C , 20-O ) :   0.8455
B( 19-C , 26-H ) :   0.9349 B( 19-C , 27-H ) :   0.9376 B( 22-O , 28-H ) :   0.7978

FINAL SINGLE POINT ENERGY      -652.864593582447

DIPOLE MOMENT
-------------
                                X             Y             Z
Electronic contribution:     -0.38636      -1.46148       0.50497
Nuclear contribution   :      0.52236       1.48186      -0.56147
                        -----------------------------------------
Total Dipole Moment    :      0.13601       0.02038      -0.05649
                        -----------------------------------------
Magnitude (a.u.)       :      0.14867
Magnitude (Debye)      :      0.37790

Rotational constants in cm-1:     0.051546     0.014465     0.013855
Rotational constants in MHz :  1545.304326   433.655071   415.377134

                             ****ORCA TERMINATED NORMALLY****
TOTAL RUN TIME: 0 days 0 hours 21 minutes 2 seconds 194 msec
