                         Program Version 4.2.0 -  RELEASE  -
|  1> # Test redundant internal optimization
|  2> #
|  3> ! RKS B3LYP  Opt TightSCF SmallPrint
|  4>
|  5> %basis
|  6>         Basis "6-31G"
|  7> end
|  8>
|  9> %geom
| 10> Constraints
| 11> { D 4  0  15  12  150.0   C } # D for Dihedral angle
| 12> { D 0  15  12  16  105.0   C } # D for Dihedral angle
| 13> { D 0  4  3  2   C } # D for Dihedral angle
| 14> { D 4  3  2  1   C } # D for Dihedral angle
| 15> { D 3  2  1  0   C } # D for Dihedral angle
| 16> { D 2  1  0  4   C } # D for Dihedral angle
| 17> { D 1  0  4  3   C } # D for Dihedral angle
| 18> { D 16  20  19  18   C } # D for Dihedral angle
| 19> { D 20  19  18  17   C } # D for Dihedral angle
| 20> { D 19  18  17  16   C } # D for Dihedral angle
| 21> { D 18  17  16  20   C } # D for Dihedral angle
| 22> { D 17  16  20  19   C } # D for Dihedral angle
| 23> { D 15  12  16  20   C } # D for Dihedral angle
| 24> end
| 25> end
| 26>
| 27>
| 28> #%pal
| 29> #nprocs 8
| 30> #end
| 31>
| 32> * xyz 0 1
| 33> C  -21.048   26.222   46.251
| 34> C  -20.361   27.558   45.944
| 35> C  -20.329   28.222   47.341
| 36> C  -20.110   27.022   48.296
| 37> O  -20.473   25.807   47.535
| 38> H  -20.833   25.428   45.533
| 39> H  -19.344   27.382   45.576
| 40> H  -20.898   28.157   45.201
| 41> H  -19.543   28.978   47.434
| 42> H  -21.289   28.710   47.548
| 43> H  -20.733   27.082   49.195
| 44> H  -19.064   26.913   48.597
| 45> C  -23.210   27.459   45.431
| 46> H  -23.913   28.079   46.001
| 47> H  -22.429   28.113   45.022
| 48> O  -22.586   26.394   46.375
| 49> C  -23.973   26.827   44.235
| 50> C  -23.074   25.872   43.442
| 51> C  -23.104   24.604   44.329
| 52> C  -24.546   24.605   44.895
| 53> O  -25.068   25.977   44.716
| 54> H  -24.424   27.622   43.638
| 55> O  -23.700   25.582   42.051
| 56> H  -22.061   26.260   43.290
| 57> H  -22.874   23.690   43.772
| 58> H  -22.371   24.695   45.140
| 59> H  -24.580   24.343   45.958
| 60> H  -25.211   23.933   44.343
| 61> H  -24.716   25.191   42.178
| 62> *
| 63>
| 64>                          ****END OF INPUT****
 Total Charge           Charge          ....    0
 Multiplicity           Mult            ....    1
 Number of Electrons    NEL             ....  102
FINAL SINGLE POINT ENERGY      -652.816985857150
FINAL SINGLE POINT ENERGY      -652.842542375822
FINAL SINGLE POINT ENERGY      -652.850004244502
FINAL SINGLE POINT ENERGY      -652.852189573847
FINAL SINGLE POINT ENERGY      -652.852530569310
FINAL SINGLE POINT ENERGY      -652.852587037805
                    ***********************HURRAY********************

CARTESIAN COORDINATES (ANGSTROEM)
---------------------------------
  C    -21.027920   26.277783   46.339474
  C    -20.190643   27.508073   45.989355
  C    -20.232061   28.315859   47.313096
  C    -20.226313   27.205314   48.384954
  O    -20.632285   25.963270   47.681852
  H    -20.815056   25.393343   45.735528
  H    -19.169809   27.170860   45.776195
  H    -20.533824   28.076396   45.122300
  H    -19.380671   28.995920   47.411807
  H    -21.151231   28.907943   47.368330
  H    -20.929350   27.390215   49.200748
  H    -19.230646   27.019452   48.797974
  C    -23.165633   27.403622   45.469793
  H    -23.883333   27.940294   46.098392
  H    -22.485350   28.140860   45.024876
  O    -22.477766   26.496692   46.377304
  C    -23.962126   26.730334   44.347254
  C    -23.195337   25.845616   43.353928
  C    -23.152522   24.486020   44.103672
  C    -24.516389   24.457576   44.840785
  O    -25.008989   25.852806   44.866971
  H    -24.473057   27.536053   43.804122
  O    -23.909888   25.750654   42.090111
  H    -22.207696   26.229053   43.091816
  H    -23.030293   23.660775   43.396920
  H    -22.331744   24.464666   44.820428
  H    -24.424077   24.099695   45.869021
  H    -25.269046   23.858731   44.317112
  H    -24.851941   25.549127   42.272883

 Multiplicity           Mult            ....    1
 Number of Electrons    NEL             ....  102
 Basis Dimension        Dim             ....  149

ORBITAL ENERGIES
----------------

  NO   OCC          E(Eh)            E(eV)
   0   2.0000     -19.144378      -520.9450
   1   2.0000     -19.143547      -520.9224
   2   2.0000     -19.138176      -520.7762
   3   2.0000     -19.137734      -520.7642
   4   2.0000     -10.286733      -279.9162
   5   2.0000     -10.241507      -278.6856
   6   2.0000     -10.235292      -278.5165
   7   2.0000     -10.233951      -278.4800
   8   2.0000     -10.229588      -278.3612
   9   2.0000     -10.223191      -278.1872
  10   2.0000     -10.198029      -277.5025
  11   2.0000     -10.195417      -277.4314
  12   2.0000     -10.182859      -277.0897
  13   2.0000      -1.055689       -28.7268
  14   2.0000      -1.034842       -28.1595
  15   2.0000      -1.005537       -27.3621
  16   2.0000      -0.993125       -27.0243
  17   2.0000      -0.794218       -21.6118
  18   2.0000      -0.778614       -21.1872
  19   2.0000      -0.769104       -20.9284
  20   2.0000      -0.738706       -20.1012
  21   2.0000      -0.680748       -18.5241
  22   2.0000      -0.610294       -16.6069
  23   2.0000      -0.603072       -16.4104
  24   2.0000      -0.600247       -16.3336
  25   2.0000      -0.570704       -15.5296
  26   2.0000      -0.525524       -14.3002
  27   2.0000      -0.514155       -13.9909
  28   2.0000      -0.508715       -13.8428
  29   2.0000      -0.490436       -13.3454
  30   2.0000      -0.473210       -12.8767
  31   2.0000      -0.459027       -12.4908
  32   2.0000      -0.452498       -12.3131
  33   2.0000      -0.440533       -11.9875
  34   2.0000      -0.424859       -11.5610
  35   2.0000      -0.420585       -11.4447
  36   2.0000      -0.403934       -10.9916
  37   2.0000      -0.390372       -10.6226
  38   2.0000      -0.385154       -10.4806
  39   2.0000      -0.368007       -10.0140
  40   2.0000      -0.364400        -9.9158
  41   2.0000      -0.363943        -9.9034
  42   2.0000      -0.354292        -9.6408
  43   2.0000      -0.329087        -8.9549
  44   2.0000      -0.318538        -8.6679
  45   2.0000      -0.304673        -8.2906
  46   2.0000      -0.298490        -8.1223
  47   2.0000      -0.272557        -7.4167
  48   2.0000      -0.268589        -7.3087
  49   2.0000      -0.260453        -7.0873
  50   2.0000      -0.235932        -6.4200
  51   0.0000       0.063464         1.7269
  52   0.0000       0.074194         2.0189
  53   0.0000       0.092294         2.5115
  54   0.0000       0.096721         2.6319
  55   0.0000       0.104320         2.8387

MULLIKEN ATOMIC CHARGES
-----------------------
   0 C :    0.314536
   1 C :   -0.302875
   2 C :   -0.297768
   3 C :   -0.000777
   4 O :   -0.495811
   5 H :    0.145499
   6 H :    0.156848
   7 H :    0.145303
   8 H :    0.146315
   9 H :    0.156427
  10 H :    0.155966
  11 H :    0.144873
  12 C :   -0.015555
  13 H :    0.166644
  14 H :    0.117679
  15 O :   -0.521359
  16 C :    0.079906
  17 C :    0.069365
  18 C :   -0.296267
  19 C :   -0.020954
  20 O :   -0.522856
  21 H :    0.151196
  22 O :   -0.599836
  23 H :    0.140283
  24 H :    0.153937
  25 H :    0.163270
  26 H :    0.163861
  27 H :    0.137914
  28 H :    0.364236
Sum of atomic charges:    0.0000000

LOEWDIN ATOMIC CHARGES
----------------------
   0 C :    0.181199
   1 C :   -0.234305
   2 C :   -0.216463
   3 C :   -0.025834
   4 O :   -0.303580
   5 H :    0.094581
   6 H :    0.121815
   7 H :    0.113141
   8 H :    0.116484
   9 H :    0.114429
  10 H :    0.110389
  11 H :    0.104139
  12 C :   -0.042033
  13 H :    0.119984
  14 H :    0.093287
  15 O :   -0.334338
  16 C :    0.005951
  17 C :    0.035070
  18 C :   -0.240342
  19 C :   -0.033133
  20 O :   -0.327941
  21 H :    0.114446
  22 O :   -0.414798
  23 H :    0.109786
  24 H :    0.121587
  25 H :    0.122309
  26 H :    0.114254
  27 H :    0.096914
  28 H :    0.283003

  Mayer bond orders larger than 0.100000
B(  0-C ,  1-C ) :   0.9321 B(  0-C ,  4-O ) :   0.9338 B(  0-C ,  5-H ) :   0.9087
B(  0-C , 15-O ) :   0.8396 B(  1-C ,  2-C ) :   0.9493 B(  1-C ,  6-H ) :   0.9326
B(  1-C ,  7-H ) :   0.9257 B(  2-C ,  3-C ) :   0.9535 B(  2-C ,  8-H ) :   0.9451
B(  2-C ,  9-H ) :   0.9455 B(  3-C ,  4-O ) :   0.8355 B(  3-C , 10-H ) :   0.9341
B(  3-C , 11-H ) :   0.9395 B( 12-C , 13-H ) :   0.9294 B( 12-C , 14-H ) :   0.9005
B( 12-C , 15-O ) :   0.8715 B( 12-C , 16-C ) :   0.8833 B( 16-C , 17-C ) :   0.9081
B( 16-C , 20-O ) :   0.8741 B( 16-C , 21-H ) :   0.9166 B( 17-C , 18-C ) :   0.9218
B( 17-C , 22-O ) :   0.8951 B( 17-C , 23-H ) :   0.9362 B( 18-C , 19-C ) :   0.9444
B( 18-C , 24-H ) :   0.9373 B( 18-C , 25-H ) :   0.9160 B( 19-C , 20-O ) :   0.8385
B( 19-C , 26-H ) :   0.9317 B( 19-C , 27-H ) :   0.9366 B( 22-O , 28-H ) :   0.7945

FINAL SINGLE POINT ENERGY      -652.852588533850

DIPOLE MOMENT
-------------
                                X             Y             Z
Electronic contribution:     -3.97730      -2.30813      -0.76477
Nuclear contribution   :      4.84798       3.08309       0.72092
                        -----------------------------------------
Total Dipole Moment    :      0.87068       0.77497      -0.04385
                        -----------------------------------------
Magnitude (a.u.)       :      1.16644
Magnitude (Debye)      :      2.96484

Rotational constants in cm-1:     0.057817     0.013849     0.013363
Rotational constants in MHz :  1733.316761   415.187570   400.617489

                             ****ORCA TERMINATED NORMALLY****
TOTAL RUN TIME: 0 days 0 hours 17 minutes 10 seconds 692 msec
