                         Program Version 4.2.0 -  RELEASE  -
|  1> # Test redundant internal optimization
|  2> #
|  3> ! RKS B3LYP  Opt TightSCF SmallPrint
|  4>
|  5> %basis
|  6>         Basis "6-31G"
|  7> end
|  8>
|  9> %geom
| 10> Constraints
| 11> { D 4  0  15  12  285.0   C } # D for Dihedral angle
| 12> { D 0  15  12  16  225.0   C } # D for Dihedral angle
| 13> { D 0  4  3  2   C } # D for Dihedral angle
| 14> { D 4  3  2  1   C } # D for Dihedral angle
| 15> { D 3  2  1  0   C } # D for Dihedral angle
| 16> { D 2  1  0  4   C } # D for Dihedral angle
| 17> { D 1  0  4  3   C } # D for Dihedral angle
| 18> { D 16  20  19  18   C } # D for Dihedral angle
| 19> { D 20  19  18  17   C } # D for Dihedral angle
| 20> { D 19  18  17  16   C } # D for Dihedral angle
| 21> { D 18  17  16  20   C } # D for Dihedral angle
| 22> { D 17  16  20  19   C } # D for Dihedral angle
| 23> { D 15  12  16  20   C } # D for Dihedral angle
| 24> end
| 25> end
| 26>
| 27>
| 28> #%pal
| 29> #nprocs 8
| 30> #end
| 31>
| 32> * xyz 0 1
| 33> C  -21.048   26.222   46.251
| 34> C  -20.361   27.558   45.944
| 35> C  -20.329   28.222   47.341
| 36> C  -20.110   27.022   48.296
| 37> O  -20.473   25.807   47.535
| 38> H  -20.833   25.428   45.533
| 39> H  -19.344   27.382   45.576
| 40> H  -20.898   28.157   45.201
| 41> H  -19.543   28.978   47.434
| 42> H  -21.289   28.710   47.548
| 43> H  -20.733   27.082   49.195
| 44> H  -19.064   26.913   48.597
| 45> C  -23.396   25.070   46.435
| 46> H  -22.753   24.238   46.121
| 47> H  -23.734   24.873   47.461
| 48> O  -22.586   26.394   46.375
| 49> C  -24.651   25.091   45.519
| 50> C  -25.556   26.286   45.843
| 51> C  -24.820   27.441   45.121
| 52> C  -24.246   26.756   43.856
| 53> O  -24.262   25.300   44.121
| 54> H  -25.148   24.121   45.571
| 55> H  -26.550   26.132   45.410
| 56> O  -25.717   26.535   47.367
| 57> H  -25.480   28.279   44.878
| 58> H  -24.010   27.824   45.753
| 59> H  -23.220   27.070   43.636
| 60> H  -24.866   26.928   42.970
| 61> H  -24.733   26.692   47.821
| 62> *
| 63>
| 64>                          ****END OF INPUT****
 Total Charge           Charge          ....    0
 Multiplicity           Mult            ....    1
 Number of Electrons    NEL             ....  102
FINAL SINGLE POINT ENERGY      -652.838043023780
FINAL SINGLE POINT ENERGY      -652.861939556297
FINAL SINGLE POINT ENERGY      -652.866519196696
FINAL SINGLE POINT ENERGY      -652.867969909403
FINAL SINGLE POINT ENERGY      -652.868084637505
FINAL SINGLE POINT ENERGY      -652.868105720661
FINAL SINGLE POINT ENERGY      -652.868105951344
                    ***********************HURRAY********************

CARTESIAN COORDINATES (ANGSTROEM)
---------------------------------
  C    -21.054301   26.148618   46.265010
  C    -20.434097   27.512898   45.962056
  C    -20.397997   28.163775   47.364665
  C    -20.106717   26.965988   48.297023
  O    -20.441526   25.750262   47.512858
  H    -20.839762   25.351749   45.547050
  H    -19.421104   27.365493   45.571293
  H    -21.015381   28.081754   45.233552
  H    -19.638501   28.947384   47.446262
  H    -21.373223   28.604231   47.593080
  H    -20.708188   26.975393   49.209571
  H    -19.049091   26.884029   48.564304
  C    -23.272938   25.099882   46.468654
  H    -22.655703   24.248282   46.157919
  H    -23.583112   24.934634   47.507159
  O    -22.480781   26.326835   46.387294
  C    -24.501369   25.167392   45.567616
  C    -25.491634   26.305362   45.872798
  C    -24.868166   27.494881   45.079595
  C    -24.282452   26.799474   43.832180
  O    -24.175780   25.353519   44.159468
  H    -24.997081   24.191573   45.641547
  H    -26.482181   26.049679   45.491577
  O    -25.688254   26.565004   47.283708
  H    -25.611953   28.256793   44.829031
  H    -24.076217   27.943513   45.683941
  H    -23.289854   27.173822   43.566447
  H    -24.939870   26.877830   42.960623
  H    -24.875769   26.970952   47.652721

 Multiplicity           Mult            ....    1
 Number of Electrons    NEL             ....  102
 Basis Dimension        Dim             ....  149

ORBITAL ENERGIES
----------------

  NO   OCC          E(Eh)            E(eV)
   0   2.0000     -19.152405      -521.1634
   1   2.0000     -19.143327      -520.9164
   2   2.0000     -19.139153      -520.8028
   3   2.0000     -19.134885      -520.6867
   4   2.0000     -10.283570      -279.8302
   5   2.0000     -10.236284      -278.5434
   6   2.0000     -10.229825      -278.3677
   7   2.0000     -10.229579      -278.3610
   8   2.0000     -10.229337      -278.3544
   9   2.0000     -10.223311      -278.1904
  10   2.0000     -10.190896      -277.3084
  11   2.0000     -10.190753      -277.3045
  12   2.0000     -10.179962      -277.0109
  13   2.0000      -1.059413       -28.8281
  14   2.0000      -1.026860       -27.9423
  15   2.0000      -1.009541       -27.4710
  16   2.0000      -0.997464       -27.1424
  17   2.0000      -0.793269       -21.5860
  18   2.0000      -0.772309       -21.0156
  19   2.0000      -0.765967       -20.8430
  20   2.0000      -0.733200       -19.9514
  21   2.0000      -0.677576       -18.4378
  22   2.0000      -0.604039       -16.4367
  23   2.0000      -0.601797       -16.3757
  24   2.0000      -0.596885       -16.2421
  25   2.0000      -0.572835       -15.5876
  26   2.0000      -0.527598       -14.3567
  27   2.0000      -0.509834       -13.8733
  28   2.0000      -0.496969       -13.5232
  29   2.0000      -0.491990       -13.3877
  30   2.0000      -0.465059       -12.6549
  31   2.0000      -0.463173       -12.6036
  32   2.0000      -0.445379       -12.1194
  33   2.0000      -0.428696       -11.6654
  34   2.0000      -0.421345       -11.4654
  35   2.0000      -0.416324       -11.3287
  36   2.0000      -0.405091       -11.0231
  37   2.0000      -0.396809       -10.7977
  38   2.0000      -0.385167       -10.4809
  39   2.0000      -0.363337        -9.8869
  40   2.0000      -0.362203        -9.8560
  41   2.0000      -0.354566        -9.6482
  42   2.0000      -0.347919        -9.4673
  43   2.0000      -0.333771        -9.0824
  44   2.0000      -0.322356        -8.7717
  45   2.0000      -0.308779        -8.4023
  46   2.0000      -0.303501        -8.2587
  47   2.0000      -0.278711        -7.5841
  48   2.0000      -0.261827        -7.1247
  49   2.0000      -0.257378        -7.0036
  50   2.0000      -0.238433        -6.4881
  51   0.0000       0.062788         1.7085
  52   0.0000       0.077861         2.1187
  53   0.0000       0.087809         2.3894
  54   0.0000       0.099274         2.7014
  55   0.0000       0.103939         2.8283

MULLIKEN ATOMIC CHARGES
-----------------------
   0 C :    0.289101
   1 C :   -0.266310
   2 C :   -0.299585
   3 C :   -0.003331
   4 O :   -0.510194
   5 H :    0.156343
   6 H :    0.150337
   7 H :    0.153992
   8 H :    0.144388
   9 H :    0.154205
  10 H :    0.146600
  11 H :    0.145495
  12 C :   -0.017962
  13 H :    0.152249
  14 H :    0.149391
  15 O :   -0.539470
  16 C :    0.094954
  17 C :    0.085919
  18 C :   -0.313838
  19 C :   -0.002879
  20 O :   -0.525199
  21 H :    0.147655
  22 H :    0.161962
  23 O :   -0.606390
  24 H :    0.144356
  25 H :    0.164189
  26 H :    0.138515
  27 H :    0.141458
  28 H :    0.364051
Sum of atomic charges:    0.0000000

LOEWDIN ATOMIC CHARGES
----------------------
   0 C :    0.173984
   1 C :   -0.215556
   2 C :   -0.216342
   3 C :   -0.027925
   4 O :   -0.328496
   5 H :    0.103095
   6 H :    0.117051
   7 H :    0.121051
   8 H :    0.114870
   9 H :    0.114519
  10 H :    0.105138
  11 H :    0.104200
  12 C :   -0.044463
  13 H :    0.112013
  14 H :    0.108249
  15 O :   -0.337373
  16 C :    0.015193
  17 C :    0.037851
  18 C :   -0.244109
  19 C :   -0.025006
  20 O :   -0.326377
  21 H :    0.114212
  22 H :    0.116257
  23 O :   -0.411121
  24 H :    0.115110
  25 H :    0.120465
  26 H :    0.100159
  27 H :    0.100969
  28 H :    0.282379

  Mayer bond orders larger than 0.100000
B(  0-C ,  1-C ) :   0.9499 B(  0-C ,  4-O ) :   0.9076 B(  0-C ,  5-H ) :   0.9166
B(  0-C , 15-O ) :   0.8511 B(  1-C ,  2-C ) :   0.9557 B(  1-C ,  6-H ) :   0.9393
B(  1-C ,  7-H ) :   0.9360 B(  2-C ,  3-C ) :   0.9543 B(  2-C ,  8-H ) :   0.9450
B(  2-C ,  9-H ) :   0.9459 B(  3-C ,  4-O ) :   0.8386 B(  3-C , 10-H ) :   0.9357
B(  3-C , 11-H ) :   0.9401 B( 12-C , 13-H ) :   0.9215 B( 12-C , 14-H ) :   0.9128
B( 12-C , 15-O ) :   0.8236 B( 12-C , 16-C ) :   0.9068 B( 16-C , 17-C ) :   0.8875
B( 16-C , 20-O ) :   0.8745 B( 16-C , 21-H ) :   0.9267 B( 17-C , 18-C ) :   0.9338
B( 17-C , 22-H ) :   0.9360 B( 17-C , 23-O ) :   0.9016 B( 18-C , 19-C ) :   0.9459
B( 18-C , 24-H ) :   0.9408 B( 18-C , 25-H ) :   0.9265 B( 19-C , 20-O ) :   0.8387
B( 19-C , 26-H ) :   0.9325 B( 19-C , 27-H ) :   0.9378 B( 23-O , 28-H ) :   0.7925

FINAL SINGLE POINT ENERGY      -652.868104120554

DIPOLE MOMENT
-------------
                                X             Y             Z
Electronic contribution:     -2.45238      -4.59682       0.04819
Nuclear contribution   :      3.17186       5.58885      -0.10575
                        -----------------------------------------
Total Dipole Moment    :      0.71948       0.99203      -0.05756
                        -----------------------------------------
Magnitude (a.u.)       :      1.22682
Magnitude (Debye)      :      3.11832

Rotational constants in cm-1:     0.046937     0.015480     0.014827
Rotational constants in MHz :  1407.123494   464.080673   444.512580

                             ****ORCA TERMINATED NORMALLY****
TOTAL RUN TIME: 0 days 0 hours 27 minutes 27 seconds 458 msec
