                         Program Version 4.2.0 -  RELEASE  -
|  1> # Test redundant internal optimization
|  2> #
|  3> ! RKS B3LYP  Opt TightSCF SmallPrint
|  4>
|  5> %basis
|  6>         Basis "6-31G"
|  7> end
|  8>
|  9> %geom
| 10> Constraints
| 11> { D 4  0  15  12  300.0   C } # D for Dihedral angle
| 12> { D 0  15  12  16  285.0   C } # D for Dihedral angle
| 13> { D 0  4  3  2   C } # D for Dihedral angle
| 14> { D 4  3  2  1   C } # D for Dihedral angle
| 15> { D 3  2  1  0   C } # D for Dihedral angle
| 16> { D 2  1  0  4   C } # D for Dihedral angle
| 17> { D 1  0  4  3   C } # D for Dihedral angle
| 18> { D 16  20  19  18   C } # D for Dihedral angle
| 19> { D 20  19  18  17   C } # D for Dihedral angle
| 20> { D 19  18  17  16   C } # D for Dihedral angle
| 21> { D 18  17  16  20   C } # D for Dihedral angle
| 22> { D 17  16  20  19   C } # D for Dihedral angle
| 23> { D 15  12  16  20   C } # D for Dihedral angle
| 24> end
| 25> end
| 26>
| 27>
| 28> #%pal
| 29> #nprocs 8
| 30> #end
| 31>
| 32> * xyz 0 1
| 33> C  -21.048   26.222   46.251
| 34> C  -20.361   27.558   45.944
| 35> C  -20.329   28.222   47.341
| 36> C  -20.110   27.022   48.296
| 37> O  -20.473   25.807   47.535
| 38> H  -20.833   25.428   45.533
| 39> H  -19.344   27.382   45.576
| 40> H  -20.898   28.157   45.201
| 41> H  -19.543   28.978   47.434
| 42> H  -21.289   28.710   47.548
| 43> H  -20.733   27.082   49.195
| 44> H  -19.064   26.913   48.597
| 45> C  -23.362   25.116   46.798
| 46> H  -22.840   24.637   47.635
| 47> H  -24.376   25.374   47.128
| 48> O  -22.586   26.394   46.375
| 49> C  -23.489   24.082   45.645
| 50> C  -22.117   23.536   45.233
| 51> C  -21.847   22.494   46.345
| 52> C  -23.257   21.925   46.642
| 53> O  -24.227   22.899   46.098
| 54> H  -24.063   24.525   44.829
| 55> O  -22.214   22.845   43.845
| 56> H  -21.344   24.310   45.179
| 57> H  -21.140   21.718   46.036
| 58> H  -21.435   22.990   47.232
| 59> H  -23.440   21.798   47.714
| 60> H  -23.438   20.972   46.137
| 61> H  -22.983   22.064   43.875
| 62> *
| 63>
| 64>                          ****END OF INPUT****
 Total Charge           Charge          ....    0
 Multiplicity           Mult            ....    1
 Number of Electrons    NEL             ....  102
FINAL SINGLE POINT ENERGY      -652.823691338431
FINAL SINGLE POINT ENERGY      -652.848497449073
FINAL SINGLE POINT ENERGY      -652.861811580460
FINAL SINGLE POINT ENERGY      -652.863656914978
FINAL SINGLE POINT ENERGY      -652.864090124994
FINAL SINGLE POINT ENERGY      -652.864131106501
FINAL SINGLE POINT ENERGY      -652.864135876684
                    ***********************HURRAY********************

CARTESIAN COORDINATES (ANGSTROEM)
---------------------------------
  C    -20.936415   26.248908   46.239234
  C    -20.402843   27.666222   46.024322
  C    -20.483055   28.253064   47.452373
  C    -20.151732   27.040725   48.350955
  O    -20.357414   25.836397   47.502785
  H    -20.613271   25.515392   45.502654
  H    -19.365663   27.612747   45.674847
  H    -20.998454   28.220371   45.296389
  H    -19.787026   29.083255   47.605301
  H    -21.498559   28.609863   47.644442
  H    -20.797325   26.968201   49.229931
  H    -19.105309   27.020117   48.669247
  C    -23.158183   25.178378   46.658700
  H    -22.736508   24.728182   47.565487
  H    -24.145977   25.572340   46.902513
  O    -22.371254   26.358572   46.311716
  C    -23.348538   24.080375   45.591971
  C    -22.120489   23.307356   45.081736
  C    -21.846189   22.333907   46.262577
  C    -23.270526   22.002998   46.775154
  O    -24.170145   23.054549   46.248975
  H    -23.925049   24.468195   44.747146
  O    -22.462503   22.588142   43.861080
  H    -21.265166   23.916738   44.810639
  H    -21.301119   21.451962   45.918275
  H    -21.248491   22.838106   47.030358
  H    -23.336366   21.994905   47.867654
  H    -23.639381   21.044673   46.396881
  H    -23.340050   22.165359   43.973659

 Multiplicity           Mult            ....    1
 Number of Electrons    NEL             ....  102
 Basis Dimension        Dim             ....  149

ORBITAL ENERGIES
----------------

  NO   OCC          E(Eh)            E(eV)
   0   2.0000     -19.146400      -521.0000
   1   2.0000     -19.145617      -520.9787
   2   2.0000     -19.144781      -520.9560
   3   2.0000     -19.137413      -520.7555
   4   2.0000     -10.280069      -279.7349
   5   2.0000     -10.241446      -278.6839
   6   2.0000     -10.234595      -278.4975
   7   2.0000     -10.231761      -278.4204
   8   2.0000     -10.228107      -278.3209
   9   2.0000     -10.226153      -278.2678
  10   2.0000     -10.186918      -277.2001
  11   2.0000     -10.185949      -277.1738
  12   2.0000     -10.185738      -277.1680
  13   2.0000      -1.055871       -28.7317
  14   2.0000      -1.038470       -28.2582
  15   2.0000      -1.006151       -27.3788
  16   2.0000      -0.994155       -27.0523
  17   2.0000      -0.790175       -21.5018
  18   2.0000      -0.777083       -21.1455
  19   2.0000      -0.765369       -20.8268
  20   2.0000      -0.735625       -20.0174
  21   2.0000      -0.674608       -18.3570
  22   2.0000      -0.603519       -16.4226
  23   2.0000      -0.602287       -16.3891
  24   2.0000      -0.596681       -16.2365
  25   2.0000      -0.579684       -15.7740
  26   2.0000      -0.522002       -14.2044
  27   2.0000      -0.520556       -14.1650
  28   2.0000      -0.500314       -13.6142
  29   2.0000      -0.482755       -13.1364
  30   2.0000      -0.470623       -12.8063
  31   2.0000      -0.459644       -12.5076
  32   2.0000      -0.451618       -12.2892
  33   2.0000      -0.430641       -11.7183
  34   2.0000      -0.421113       -11.4591
  35   2.0000      -0.419135       -11.4052
  36   2.0000      -0.402977       -10.9656
  37   2.0000      -0.392558       -10.6820
  38   2.0000      -0.376455       -10.2439
  39   2.0000      -0.368885       -10.0379
  40   2.0000      -0.360004        -9.7962
  41   2.0000      -0.355740        -9.6802
  42   2.0000      -0.348573        -9.4852
  43   2.0000      -0.332552        -9.0492
  44   2.0000      -0.327878        -8.9220
  45   2.0000      -0.309188        -8.4134
  46   2.0000      -0.298659        -8.1269
  47   2.0000      -0.278206        -7.5704
  48   2.0000      -0.269892        -7.3441
  49   2.0000      -0.258049        -7.0219
  50   2.0000      -0.242201        -6.5906
  51   0.0000       0.067057         1.8247
  52   0.0000       0.076908         2.0928
  53   0.0000       0.091679         2.4947
  54   0.0000       0.101275         2.7558
  55   0.0000       0.106034         2.8853

MULLIKEN ATOMIC CHARGES
-----------------------
   0 C :    0.282079
   1 C :   -0.258842
   2 C :   -0.295698
   3 C :   -0.005956
   4 O :   -0.519690
   5 H :    0.145796
   6 H :    0.144421
   7 H :    0.160330
   8 H :    0.140938
   9 H :    0.164200
  10 H :    0.147905
  11 H :    0.144115
  12 C :   -0.005226
  13 H :    0.145898
  14 H :    0.165142
  15 O :   -0.525862
  16 C :    0.037404
  17 C :    0.084561
  18 C :   -0.308274
  19 C :   -0.029398
  20 O :   -0.523556
  21 H :    0.162698
  22 O :   -0.605960
  23 H :    0.159710
  24 H :    0.162859
  25 H :    0.170491
  26 H :    0.150958
  27 H :    0.143928
  28 H :    0.365029
Sum of atomic charges:   -0.0000000

LOEWDIN ATOMIC CHARGES
----------------------
   0 C :    0.170006
   1 C :   -0.213428
   2 C :   -0.215194
   3 C :   -0.027696
   4 O :   -0.334701
   5 H :    0.093705
   6 H :    0.113401
   7 H :    0.126230
   8 H :    0.113710
   9 H :    0.120271
  10 H :    0.105451
  11 H :    0.103449
  12 C :   -0.044825
  13 H :    0.103468
  14 H :    0.123210
  15 O :   -0.326377
  16 C :    0.006931
  17 C :    0.035355
  18 C :   -0.243435
  19 C :   -0.038614
  20 O :   -0.328315
  21 H :    0.115626
  22 O :   -0.417052
  23 H :    0.116192
  24 H :    0.126772
  25 H :    0.125528
  26 H :    0.105835
  27 H :    0.101711
  28 H :    0.282787

  Mayer bond orders larger than 0.100000
B(  0-C ,  1-C ) :   0.9480 B(  0-C ,  4-O ) :   0.8997 B(  0-C ,  5-H ) :   0.8988
B(  0-C , 15-O ) :   0.8671 B(  1-C ,  2-C ) :   0.9559 B(  1-C ,  6-H ) :   0.9406
B(  1-C ,  7-H ) :   0.9353 B(  2-C ,  3-C ) :   0.9559 B(  2-C ,  8-H ) :   0.9452
B(  2-C ,  9-H ) :   0.9436 B(  3-C ,  4-O ) :   0.8317 B(  3-C , 10-H ) :   0.9359
B(  3-C , 11-H ) :   0.9405 B( 12-C , 13-H ) :   0.9210 B( 12-C , 14-H ) :   0.9358
B( 12-C , 15-O ) :   0.8397 B( 12-C , 16-C ) :   0.8786 B( 16-C , 17-C ) :   0.9131
B( 16-C , 20-O ) :   0.8294 B( 16-C , 21-H ) :   0.9255 B( 17-C , 18-C ) :   0.9143
B( 17-C , 22-O ) :   0.8835 B( 17-C , 23-H ) :   0.9180 B( 18-C , 19-C ) :   0.9415
B( 18-C , 24-H ) :   0.9374 B( 18-C , 25-H ) :   0.9261 B( 19-C , 20-O ) :   0.8372
B( 19-C , 26-H ) :   0.9348 B( 19-C , 27-H ) :   0.9387 B( 22-O , 28-H ) :   0.7934

FINAL SINGLE POINT ENERGY      -652.864134686756

DIPOLE MOMENT
-------------
                                X             Y             Z
Electronic contribution:     -3.23899      -2.39192      -2.78514
Nuclear contribution   :      3.72755       2.70647       3.40476
                        -----------------------------------------
Total Dipole Moment    :      0.48856       0.31454       0.61962
                        -----------------------------------------
Magnitude (a.u.)       :      0.84944
Magnitude (Debye)      :      2.15911

Rotational constants in cm-1:     0.055395     0.013616     0.013308
Rotational constants in MHz :  1660.709765   408.187488   398.960177

                             ****ORCA TERMINATED NORMALLY****
TOTAL RUN TIME: 0 days 0 hours 30 minutes 33 seconds 968 msec
