                         Program Version 4.2.0 -  RELEASE  -
|  1> # Test redundant internal optimization
|  2> #
|  3> ! RKS B3LYP  Opt TightSCF SmallPrint
|  4>
|  5> %basis
|  6>         Basis "6-31G"
|  7> end
|  8>
|  9> %geom
| 10> Constraints
| 11> { D 4  0  15  12  315.0   C } # D for Dihedral angle
| 12> { D 0  15  12  16  240.0   C } # D for Dihedral angle
| 13> { D 0  4  3  2   C } # D for Dihedral angle
| 14> { D 4  3  2  1   C } # D for Dihedral angle
| 15> { D 3  2  1  0   C } # D for Dihedral angle
| 16> { D 2  1  0  4   C } # D for Dihedral angle
| 17> { D 1  0  4  3   C } # D for Dihedral angle
| 18> { D 16  20  19  18   C } # D for Dihedral angle
| 19> { D 20  19  18  17   C } # D for Dihedral angle
| 20> { D 19  18  17  16   C } # D for Dihedral angle
| 21> { D 18  17  16  20   C } # D for Dihedral angle
| 22> { D 17  16  20  19   C } # D for Dihedral angle
| 23> { D 15  12  16  20   C } # D for Dihedral angle
| 24> end
| 25> end
| 26>
| 27>
| 28> #%pal
| 29> #nprocs 8
| 30> #end
| 31>
| 32> * xyz 0 1
| 33> C  -21.048   26.222   46.251
| 34> C  -20.361   27.558   45.944
| 35> C  -20.329   28.222   47.341
| 36> C  -20.110   27.022   48.296
| 37> O  -20.473   25.807   47.535
| 38> H  -20.833   25.428   45.533
| 39> H  -19.344   27.382   45.576
| 40> H  -20.898   28.157   45.201
| 41> H  -19.543   28.978   47.434
| 42> H  -21.289   28.710   47.548
| 43> H  -20.733   27.082   49.195
| 44> H  -19.064   26.913   48.597
| 45> C  -23.319   25.255   47.135
| 46> H  -22.584   24.510   47.466
| 47> H  -23.829   25.651   48.022
| 48> O  -22.586   26.394   46.375
| 49> C  -24.382   24.536   46.259
| 50> C  -23.730   23.805   45.080
| 51> C  -23.200   22.521   45.762
| 52> C  -24.278   22.220   46.833
| 53> O  -25.042   23.472   47.024
| 54> H  -25.155   25.252   45.976
| 55> H  -24.487   23.557   44.327
| 56> O  -22.608   24.631   44.395
| 57> H  -23.066   21.692   45.060
| 58> H  -22.230   22.720   46.235
| 59> H  -23.844   21.915   47.791
| 60> H  -24.988   21.456   46.507
| 61> H  -21.839   24.889   45.131
| 62> *
| 63>
| 64>                          ****END OF INPUT****
 Total Charge           Charge          ....    0
 Multiplicity           Mult            ....    1
 Number of Electrons    NEL             ....  102
FINAL SINGLE POINT ENERGY      -652.812103875433
FINAL SINGLE POINT ENERGY      -652.844012628565
FINAL SINGLE POINT ENERGY      -652.855994429231
FINAL SINGLE POINT ENERGY      -652.858643070089
FINAL SINGLE POINT ENERGY      -652.859502720364
FINAL SINGLE POINT ENERGY      -652.860132224787
FINAL SINGLE POINT ENERGY      -652.860770615081
FINAL SINGLE POINT ENERGY      -652.858143471495
FINAL SINGLE POINT ENERGY      -652.861453367406
FINAL SINGLE POINT ENERGY      -652.861737837204
FINAL SINGLE POINT ENERGY      -652.862100258077
FINAL SINGLE POINT ENERGY      -652.863693731837
FINAL SINGLE POINT ENERGY      -652.865104151058
FINAL SINGLE POINT ENERGY      -652.866190222699
FINAL SINGLE POINT ENERGY      -652.866676706978
FINAL SINGLE POINT ENERGY      -652.866806779954
FINAL SINGLE POINT ENERGY      -652.866816087310
                    ***********************HURRAY********************

CARTESIAN COORDINATES (ANGSTROEM)
---------------------------------
  C    -20.994745   26.129864   46.326562
  C    -20.377178   27.486218   45.992382
  C    -20.405758   28.192429   47.365469
  C    -20.141607   27.042953   48.361268
  O    -20.433097   25.787919   47.610656
  H    -20.761673   25.299368   45.657705
  H    -19.350225   27.334986   45.641634
  H    -20.939078   28.022364   45.224223
  H    -19.658684   28.988188   47.444912
  H    -21.394948   28.628320   47.531646
  H    -20.781664   27.080153   49.246351
  H    -19.095673   26.978612   48.673775
  C    -23.193907   25.292531   47.134757
  H    -22.490883   24.588825   47.589497
  H    -23.731551   25.802117   47.939020
  O    -22.446684   26.314751   46.380960
  C    -24.213614   24.571911   46.243037
  C    -23.653869   23.768099   45.060167
  C    -23.185012   22.462427   45.761238
  C    -24.238752   22.264094   46.871949
  O    -24.912889   23.577335   47.055387
  H    -24.972269   25.290456   45.914830
  H    -24.478092   23.544248   44.369873
  O    -22.573329   24.394148   44.326394
  H    -23.132991   21.616549   45.070181
  H    -22.182993   22.630643   46.168467
  H    -23.801393   21.953301   47.825696
  H    -25.017275   21.548530   46.590963
  H    -22.632168   25.365659   44.450001

 Multiplicity           Mult            ....    1
 Number of Electrons    NEL             ....  102
 Basis Dimension        Dim             ....  149

ORBITAL ENERGIES
----------------

  NO   OCC          E(Eh)            E(eV)
   0   2.0000     -19.150555      -521.1131
   1   2.0000     -19.148946      -521.0693
   2   2.0000     -19.140330      -520.8349
   3   2.0000     -19.135169      -520.6944
   4   2.0000     -10.278761      -279.6993
   5   2.0000     -10.237327      -278.5718
   6   2.0000     -10.232398      -278.4377
   7   2.0000     -10.230388      -278.3830
   8   2.0000     -10.227144      -278.2947
   9   2.0000     -10.224812      -278.2313
  10   2.0000     -10.188741      -277.2497
  11   2.0000     -10.188622      -277.2465
  12   2.0000     -10.183065      -277.0953
  13   2.0000      -1.057449       -28.7746
  14   2.0000      -1.028475       -27.9862
  15   2.0000      -1.009796       -27.4779
  16   2.0000      -0.993824       -27.0433
  17   2.0000      -0.792627       -21.5685
  18   2.0000      -0.775132       -21.0924
  19   2.0000      -0.764615       -20.8062
  20   2.0000      -0.732228       -19.9249
  21   2.0000      -0.674183       -18.3454
  22   2.0000      -0.604397       -16.4465
  23   2.0000      -0.597663       -16.2632
  24   2.0000      -0.595124       -16.1941
  25   2.0000      -0.572743       -15.5851
  26   2.0000      -0.520688       -14.1686
  27   2.0000      -0.516948       -14.0669
  28   2.0000      -0.499333       -13.5875
  29   2.0000      -0.493870       -13.4389
  30   2.0000      -0.466677       -12.6989
  31   2.0000      -0.453196       -12.3321
  32   2.0000      -0.444313       -12.0904
  33   2.0000      -0.438443       -11.9307
  34   2.0000      -0.423529       -11.5248
  35   2.0000      -0.411007       -11.1841
  36   2.0000      -0.406234       -11.0542
  37   2.0000      -0.386655       -10.5214
  38   2.0000      -0.379853       -10.3363
  39   2.0000      -0.365854        -9.9554
  40   2.0000      -0.361021        -9.8239
  41   2.0000      -0.354484        -9.6460
  42   2.0000      -0.351035        -9.5521
  43   2.0000      -0.337832        -9.1929
  44   2.0000      -0.334167        -9.0932
  45   2.0000      -0.302667        -8.2360
  46   2.0000      -0.294119        -8.0034
  47   2.0000      -0.275776        -7.5043
  48   2.0000      -0.267206        -7.2710
  49   2.0000      -0.260721        -7.0946
  50   2.0000      -0.240087        -6.5331
  51   0.0000       0.057233         1.5574
  52   0.0000       0.080746         2.1972
  53   0.0000       0.094861         2.5813
  54   0.0000       0.100806         2.7431
  55   0.0000       0.111777         3.0416

MULLIKEN ATOMIC CHARGES
-----------------------
   0 C :    0.267661
   1 C :   -0.261167
   2 C :   -0.299006
   3 C :   -0.009573
   4 O :   -0.515200
   5 H :    0.175185
   6 H :    0.149515
   7 H :    0.154942
   8 H :    0.143842
   9 H :    0.162721
  10 H :    0.148962
  11 H :    0.147532
  12 C :   -0.014332
  13 H :    0.167784
  14 H :    0.155874
  15 O :   -0.553499
  16 C :    0.046193
  17 C :    0.108966
  18 C :   -0.303632
  19 C :   -0.017042
  20 O :   -0.518887
  21 H :    0.153312
  22 H :    0.144315
  23 O :   -0.620964
  24 H :    0.153066
  25 H :    0.162195
  26 H :    0.145188
  27 H :    0.148961
  28 H :    0.377090
Sum of atomic charges:   -0.0000000

LOEWDIN ATOMIC CHARGES
----------------------
   0 C :    0.163902
   1 C :   -0.214852
   2 C :   -0.216203
   3 C :   -0.028728
   4 O :   -0.322230
   5 H :    0.108710
   6 H :    0.116443
   7 H :    0.122986
   8 H :    0.115147
   9 H :    0.119453
  10 H :    0.106247
  11 H :    0.105598
  12 C :   -0.047865
  13 H :    0.116637
  14 H :    0.113808
  15 O :   -0.350385
  16 C :    0.010562
  17 C :    0.036318
  18 C :   -0.228415
  19 C :   -0.030581
  20 O :   -0.321517
  21 H :    0.110343
  22 H :    0.100030
  23 O :   -0.419961
  24 H :    0.121541
  25 H :    0.119583
  26 H :    0.103773
  27 H :    0.105432
  28 H :    0.284226

  Mayer bond orders larger than 0.100000
B(  0-C ,  1-C ) :   0.9470 B(  0-C ,  4-O ) :   0.9041 B(  0-C ,  5-H ) :   0.8993
B(  0-C , 15-O ) :   0.8165 B(  1-C ,  2-C ) :   0.9533 B(  1-C ,  6-H ) :   0.9383
B(  1-C ,  7-H ) :   0.9366 B(  2-C ,  3-C ) :   0.9571 B(  2-C ,  8-H ) :   0.9447
B(  2-C ,  9-H ) :   0.9441 B(  3-C ,  4-O ) :   0.8294 B(  3-C , 10-H ) :   0.9356
B(  3-C , 11-H ) :   0.9406 B( 12-C , 13-H ) :   0.9159 B( 12-C , 14-H ) :   0.9350
B( 12-C , 15-O ) :   0.8019 B( 12-C , 16-C ) :   0.8982 B( 16-C , 17-C ) :   0.9132
B( 16-C , 20-O ) :   0.8530 B( 16-C , 21-H ) :   0.9295 B( 17-C , 18-C ) :   0.9263
B( 17-C , 22-H ) :   0.9217 B( 17-C , 23-O ) :   0.8984 B( 18-C , 19-C ) :   0.9410
B( 18-C , 24-H ) :   0.9439 B( 18-C , 25-H ) :   0.9387 B( 19-C , 20-O ) :   0.8355
B( 19-C , 26-H ) :   0.9337 B( 19-C , 27-H ) :   0.9380 B( 23-O , 28-H ) :   0.7601

FINAL SINGLE POINT ENERGY      -652.866820119379

DIPOLE MOMENT
-------------
                                X             Y             Z
Electronic contribution:     -2.78360      -1.25576      -1.17588
Nuclear contribution   :      3.23156       1.78673       1.34816
                        -----------------------------------------
Total Dipole Moment    :      0.44797       0.53096       0.17228
                        -----------------------------------------
Magnitude (a.u.)       :      0.71574
Magnitude (Debye)      :      1.81926

Rotational constants in cm-1:     0.056103     0.014444     0.013455
Rotational constants in MHz :  1681.936127   433.010562   403.368615

                             ****ORCA TERMINATED NORMALLY****
TOTAL RUN TIME: 0 days 1 hours 6 minutes 50 seconds 779 msec
