                         Program Version 4.2.0 -  RELEASE  -
|  1> # Test redundant internal optimization
|  2> #
|  3> ! RKS B3LYP  Opt TightSCF SmallPrint
|  4>
|  5> %basis
|  6>         Basis "6-31G"
|  7> end
|  8>
|  9> %geom
| 10> Constraints
| 11> { D 4  0  15  12  90.0   C } # D for Dihedral angle
| 12> { D 0  15  12  16  255.0   C } # D for Dihedral angle
| 13> { D 0  4  3  2   C } # D for Dihedral angle
| 14> { D 4  3  2  1   C } # D for Dihedral angle
| 15> { D 3  2  1  0   C } # D for Dihedral angle
| 16> { D 2  1  0  4   C } # D for Dihedral angle
| 17> { D 1  0  4  3   C } # D for Dihedral angle
| 18> { D 16  20  19  18   C } # D for Dihedral angle
| 19> { D 20  19  18  17   C } # D for Dihedral angle
| 20> { D 19  18  17  16   C } # D for Dihedral angle
| 21> { D 18  17  16  20   C } # D for Dihedral angle
| 22> { D 17  16  20  19   C } # D for Dihedral angle
| 23> { D 15  12  16  20   C } # D for Dihedral angle
| 24> end
| 25> end
| 26>
| 27>
| 28> #%pal
| 29> #nprocs 8
| 30> #end
| 31>
| 32> * xyz 0 1
| 33> C  -21.048   26.222   46.251
| 34> C  -20.361   27.558   45.944
| 35> C  -20.329   28.222   47.341
| 36> C  -20.110   27.022   48.296
| 37> O  -20.473   25.807   47.535
| 38> H  -20.833   25.428   45.533
| 39> H  -19.344   27.382   45.576
| 40> H  -20.898   28.157   45.201
| 41> H  -19.543   28.978   47.434
| 42> H  -21.289   28.710   47.548
| 43> H  -20.733   27.082   49.195
| 44> H  -19.064   26.913   48.597
| 45> C  -23.061   27.816   46.783
| 46> H  -22.236   28.526   46.647
| 47> H  -23.898   28.137   46.151
| 48> O  -22.586   26.394   46.375
| 49> C  -23.530   27.890   48.263
| 50> C  -24.098   29.274   48.597
| 51> C  -25.519   29.184   47.990
| 52> C  -25.910   27.705   48.229
| 53> O  -24.652   26.974   48.491
| 54> H  -22.715   27.567   48.913
| 55> H  -24.150   29.408   49.683
| 56> O  -23.261   30.438   48.000
| 57> H  -26.223   29.883   48.454
| 58> H  -25.484   29.406   46.917
| 59> H  -26.410   27.258   47.361
| 60> H  -26.547   27.578   49.109
| 61> H  -23.196   30.326   46.913
| 62> *
| 63>
| 64>                          ****END OF INPUT****
 Total Charge           Charge          ....    0
 Multiplicity           Mult            ....    1
 Number of Electrons    NEL             ....  102
FINAL SINGLE POINT ENERGY      -652.793505825157
FINAL SINGLE POINT ENERGY      -652.825233132962
FINAL SINGLE POINT ENERGY      -652.842351360302
FINAL SINGLE POINT ENERGY      -652.846073392145
FINAL SINGLE POINT ENERGY      -652.846786498164
FINAL SINGLE POINT ENERGY      -652.846980423068
FINAL SINGLE POINT ENERGY      -652.847004517198
FINAL SINGLE POINT ENERGY      -652.846998001691
FINAL SINGLE POINT ENERGY      -652.846995260760
                    ***********************HURRAY********************

CARTESIAN COORDINATES (ANGSTROEM)
---------------------------------
  C    -21.141469   26.323422   46.380999
  C    -20.194012   27.442185   45.918208
  C    -19.870860   28.175106   47.258326
  C    -19.848788   27.002629   48.274505
  O    -20.557762   25.877486   47.626788
  H    -21.120589   25.446106   45.732959
  H    -19.290021   26.981942   45.508145
  H    -20.629548   28.092896   45.154466
  H    -18.906996   28.692734   47.219527
  H    -20.629757   28.917094   47.517459
  H    -20.346067   27.246226   49.218447
  H    -18.833003   26.657887   48.488866
  C    -23.097826   27.909431   46.777744
  H    -22.364552   28.709965   46.649764
  H    -23.906703   28.070773   46.055025
  O    -22.556735   26.603338   46.443807
  C    -23.658359   27.938815   48.202074
  C    -24.286024   29.287656   48.589879
  C    -25.716049   29.159703   47.985548
  C    -26.033426   27.659996   48.176399
  O    -24.735941   26.976256   48.404198
  H    -22.867226   27.641029   48.896906
  H    -24.336083   29.367691   49.678113
  O    -23.534622   30.455571   48.165847
  H    -26.437394   29.814520   48.481635
  H    -25.689298   29.431185   46.921163
  H    -26.524891   27.213848   47.306183
  H    -26.651173   27.477749   49.061349
  H    -23.735826   30.671762   47.232668

 Multiplicity           Mult            ....    1
 Number of Electrons    NEL             ....  102
 Basis Dimension        Dim             ....  149

ORBITAL ENERGIES
----------------

  NO   OCC          E(Eh)            E(eV)
   0   2.0000     -19.155229      -521.2403
   1   2.0000     -19.138190      -520.7766
   2   2.0000     -19.135435      -520.7017
   3   2.0000     -19.134659      -520.6805
   4   2.0000     -10.274569      -279.5852
   5   2.0000     -10.247757      -278.8557
   6   2.0000     -10.230447      -278.3846
   7   2.0000     -10.230413      -278.3837
   8   2.0000     -10.229557      -278.3604
   9   2.0000     -10.224621      -278.2261
  10   2.0000     -10.199106      -277.5318
  11   2.0000     -10.191609      -277.3278
  12   2.0000     -10.190886      -277.3081
  13   2.0000      -1.046121       -28.4664
  14   2.0000      -1.035845       -28.1868
  15   2.0000      -1.016064       -27.6485
  16   2.0000      -0.991507       -26.9803
  17   2.0000      -0.785632       -21.3781
  18   2.0000      -0.785200       -21.3664
  19   2.0000      -0.770754       -20.9733
  20   2.0000      -0.731380       -19.9019
  21   2.0000      -0.684804       -18.6345
  22   2.0000      -0.614129       -16.7113
  23   2.0000      -0.604442       -16.4477
  24   2.0000      -0.597567       -16.2606
  25   2.0000      -0.566349       -15.4111
  26   2.0000      -0.523632       -14.2488
  27   2.0000      -0.516554       -14.0562
  28   2.0000      -0.503693       -13.7062
  29   2.0000      -0.495413       -13.4809
  30   2.0000      -0.464304       -12.6344
  31   2.0000      -0.454434       -12.3658
  32   2.0000      -0.442650       -12.0451
  33   2.0000      -0.432540       -11.7700
  34   2.0000      -0.430729       -11.7207
  35   2.0000      -0.423127       -11.5139
  36   2.0000      -0.414206       -11.2711
  37   2.0000      -0.399568       -10.8728
  38   2.0000      -0.379635       -10.3304
  39   2.0000      -0.379292       -10.3211
  40   2.0000      -0.361236        -9.8297
  41   2.0000      -0.357344        -9.7238
  42   2.0000      -0.344356        -9.3704
  43   2.0000      -0.330629        -8.9969
  44   2.0000      -0.319796        -8.7021
  45   2.0000      -0.309739        -8.4284
  46   2.0000      -0.291422        -7.9300
  47   2.0000      -0.274343        -7.4653
  48   2.0000      -0.267727        -7.2852
  49   2.0000      -0.250744        -6.8231
  50   2.0000      -0.234294        -6.3755
  51   0.0000       0.045837         1.2473
  52   0.0000       0.075069         2.0427
  53   0.0000       0.080347         2.1864
  54   0.0000       0.087849         2.3905
  55   0.0000       0.100051         2.7225

MULLIKEN ATOMIC CHARGES
-----------------------
   0 C :    0.305763
   1 C :   -0.293206
   2 C :   -0.323406
   3 C :   -0.008101
   4 O :   -0.497772
   5 H :    0.165330
   6 H :    0.158363
   7 H :    0.143878
   8 H :    0.145070
   9 H :    0.164561
  10 H :    0.144917
  11 H :    0.145742
  12 C :   -0.027583
  13 H :    0.129672
  14 H :    0.137705
  15 O :   -0.505658
  16 C :    0.092307
  17 C :    0.077239
  18 C :   -0.327138
  19 C :   -0.011385
  20 O :   -0.497383
  21 H :    0.166032
  22 H :    0.171098
  23 O :   -0.602881
  24 H :    0.159311
  25 H :    0.131275
  26 H :    0.149024
  27 H :    0.151008
  28 H :    0.356215
Sum of atomic charges:   -0.0000000

LOEWDIN ATOMIC CHARGES
----------------------
   0 C :    0.175121
   1 C :   -0.232174
   2 C :   -0.227148
   3 C :   -0.033279
   4 O :   -0.318471
   5 H :    0.112394
   6 H :    0.124235
   7 H :    0.114482
   8 H :    0.115602
   9 H :    0.113361
  10 H :    0.101351
  11 H :    0.103830
  12 C :   -0.053569
  13 H :    0.099517
  14 H :    0.102211
  15 O :   -0.305723
  16 C :    0.014526
  17 C :    0.031560
  18 C :   -0.241416
  19 C :   -0.030117
  20 O :   -0.308185
  21 H :    0.117959
  22 H :    0.120187
  23 O :   -0.411835
  24 H :    0.122969
  25 H :    0.102805
  26 H :    0.105323
  27 H :    0.106597
  28 H :    0.277886

  Mayer bond orders larger than 0.100000
B(  0-C ,  1-C ) :   0.9227 B(  0-C ,  4-O ) :   0.9007 B(  0-C ,  5-H ) :   0.9362
B(  0-C , 15-O ) :   0.9068 B(  1-C ,  2-C ) :   0.9518 B(  1-C ,  6-H ) :   0.9349
B(  1-C ,  7-H ) :   0.9345 B(  2-C ,  3-C ) :   0.9444 B(  2-C ,  8-H ) :   0.9459
B(  2-C ,  9-H ) :   0.9335 B(  3-C ,  4-O ) :   0.8511 B(  3-C , 10-H ) :   0.9304
B(  3-C , 11-H ) :   0.9393 B( 12-C , 13-H ) :   0.8945 B( 12-C , 14-H ) :   0.9367
B( 12-C , 15-O ) :   0.8616 B( 12-C , 16-C ) :   0.8896 B( 16-C , 17-C ) :   0.8666
B( 16-C , 20-O ) :   0.8753 B( 16-C , 21-H ) :   0.9278 B( 17-C , 18-C ) :   0.9282
B( 17-C , 22-H ) :   0.9312 B( 17-C , 23-O ) :   0.8903 B( 18-C , 19-C ) :   0.9378
B( 18-C , 24-H ) :   0.9407 B( 18-C , 25-H ) :   0.9406 B( 19-C , 20-O ) :   0.8524
B( 19-C , 26-H ) :   0.9307 B( 19-C , 27-H ) :   0.9369 B( 23-O , 28-H ) :   0.7991

FINAL SINGLE POINT ENERGY      -652.846996367378

DIPOLE MOMENT
-------------
                                X             Y             Z
Electronic contribution:     -1.21066      -4.19578       0.92088
Nuclear contribution   :      1.10317       5.78833      -1.62467
                        -----------------------------------------
Total Dipole Moment    :     -0.10749       1.59256      -0.70380
                        -----------------------------------------
Magnitude (a.u.)       :      1.74445
Magnitude (Debye)      :      4.43405

Rotational constants in cm-1:     0.048210     0.015490     0.013816
Rotational constants in MHz :  1445.310980   464.374321   414.204090

                             ****ORCA TERMINATED NORMALLY****
TOTAL RUN TIME: 0 days 2 hours 44 minutes 3 seconds 932 msec
