                         Program Version 4.2.0 -  RELEASE  -
|  1> # Test redundant internal optimization
|  2> #
|  3> ! RKS B3LYP  Opt TightSCF SmallPrint
|  4>
|  5> %basis
|  6>         Basis "6-31G"
|  7> end
|  8>
|  9> %geom
| 10> Constraints
| 11> { D 4  0  15  12  330.0   C } # D for Dihedral angle
| 12> { D 0  15  12  16  270.0   C } # D for Dihedral angle
| 13> { D 0  4  3  2   C } # D for Dihedral angle
| 14> { D 4  3  2  1   C } # D for Dihedral angle
| 15> { D 3  2  1  0   C } # D for Dihedral angle
| 16> { D 2  1  0  4   C } # D for Dihedral angle
| 17> { D 1  0  4  3   C } # D for Dihedral angle
| 18> { D 16  20  19  18   C } # D for Dihedral angle
| 19> { D 20  19  18  17   C } # D for Dihedral angle
| 20> { D 19  18  17  16   C } # D for Dihedral angle
| 21> { D 18  17  16  20   C } # D for Dihedral angle
| 22> { D 17  16  20  19   C } # D for Dihedral angle
| 23> { D 15  12  16  20   C } # D for Dihedral angle
| 24> end
| 25> end
| 26>
| 27>
| 28> #%pal
| 29> #nprocs 8
| 30> #end
| 31>
| 32> * xyz 0 1
| 33> C  -21.048   26.222   46.251
| 34> C  -20.361   27.558   45.944
| 35> C  -20.329   28.222   47.341
| 36> C  -20.110   27.022   48.296
| 37> O  -20.473   25.807   47.535
| 38> H  -20.833   25.428   45.533
| 39> H  -19.344   27.382   45.576
| 40> H  -20.898   28.157   45.201
| 41> H  -19.543   28.978   47.434
| 42> H  -21.289   28.710   47.548
| 43> H  -20.733   27.082   49.195
| 44> H  -19.064   26.913   48.597
| 45> C  -23.271   25.476   47.424
| 46> H  -22.568   25.273   48.241
| 47> H  -24.155   25.969   47.847
| 48> O  -22.586   26.394   46.375
| 49> C  -23.729   24.117   46.825
| 50> C  -24.648   24.324   45.615
| 51> C  -23.626   24.647   44.498
| 52> C  -22.409   23.762   44.867
| 53> O  -22.581   23.381   46.286
| 54> H  -24.158   23.503   47.618
| 55> O  -25.410   23.009   45.295
| 56> H  -25.382   25.122   45.763
| 57> H  -24.010   24.432   43.496
| 58> H  -23.355   25.709   44.532
| 59> H  -21.456   24.288   44.748
| 60> H  -22.376   22.835   44.287
| 61> H  -24.694   22.195   45.143
| 62> *
| 63>
| 64>                          ****END OF INPUT****
 Total Charge           Charge          ....    0
 Multiplicity           Mult            ....    1
 Number of Electrons    NEL             ....  102
FINAL SINGLE POINT ENERGY      -652.828542839779
FINAL SINGLE POINT ENERGY      -652.852730216816
FINAL SINGLE POINT ENERGY      -652.860576459347
FINAL SINGLE POINT ENERGY      -652.863491530828
FINAL SINGLE POINT ENERGY      -652.863893799879
FINAL SINGLE POINT ENERGY      -652.863952055516
FINAL SINGLE POINT ENERGY      -652.863957917764
                    ***********************HURRAY********************

CARTESIAN COORDINATES (ANGSTROEM)
---------------------------------
  C    -20.976270   26.295469   46.295959
  C    -20.389972   27.689131   46.075369
  C    -20.370501   28.254200   47.513445
  C    -20.050981   27.016046   48.376758
  O    -20.357508   25.836224   47.515805
  H    -20.728700   25.551428   45.538179
  H    -19.375510   27.593595   45.671657
  H    -20.993784   28.285518   45.387959
  H    -19.631402   29.050723   47.642297
  H    -21.357031   28.656279   47.762512
  H    -20.654552   26.953436   49.286127
  H    -18.992566   26.937405   48.639711
  C    -23.146276   25.554103   47.306392
  H    -22.499314   25.329770   48.159540
  H    -24.011784   26.132183   47.647452
  O    -22.427772   26.437013   46.392848
  C    -23.632307   24.229007   46.709510
  C    -24.640888   24.313691   45.554209
  C    -23.702749   24.442334   44.325235
  C    -22.490555   23.561921   44.717898
  O    -22.559499   23.380493   46.186851
  H    -24.084466   23.669665   47.539430
  O    -25.463788   23.114229   45.494970
  H    -25.345714   25.140144   45.646191
  H    -24.200855   24.101012   43.414140
  H    -23.403644   25.486943   44.208312
  H    -21.532534   24.016822   44.451774
  H    -22.530534   22.562801   44.271507
  H    -24.887542   22.325413   45.578963

 Multiplicity           Mult            ....    1
 Number of Electrons    NEL             ....  102
 Basis Dimension        Dim             ....  149

ORBITAL ENERGIES
----------------

  NO   OCC          E(Eh)            E(eV)
   0   2.0000     -19.148191      -521.0488
   1   2.0000     -19.144244      -520.9414
   2   2.0000     -19.139774      -520.8197
   3   2.0000     -19.133016      -520.6358
   4   2.0000     -10.279340      -279.7151
   5   2.0000     -10.234402      -278.4922
   6   2.0000     -10.230500      -278.3861
   7   2.0000     -10.229456      -278.3576
   8   2.0000     -10.226165      -278.2681
   9   2.0000     -10.226094      -278.2662
  10   2.0000     -10.189011      -277.2571
  11   2.0000     -10.187036      -277.2033
  12   2.0000     -10.178550      -276.9724
  13   2.0000      -1.055609       -28.7246
  14   2.0000      -1.031903       -28.0795
  15   2.0000      -1.001990       -27.2655
  16   2.0000      -0.991707       -26.9857
  17   2.0000      -0.792290       -21.5593
  18   2.0000      -0.774388       -21.0722
  19   2.0000      -0.765039       -20.8178
  20   2.0000      -0.733694       -19.9648
  21   2.0000      -0.672302       -18.2943
  22   2.0000      -0.605158       -16.4672
  23   2.0000      -0.599659       -16.3176
  24   2.0000      -0.597545       -16.2600
  25   2.0000      -0.566436       -15.4135
  26   2.0000      -0.525163       -14.2904
  27   2.0000      -0.507431       -13.8079
  28   2.0000      -0.494332       -13.4515
  29   2.0000      -0.487666       -13.2701
  30   2.0000      -0.469986       -12.7890
  31   2.0000      -0.461547       -12.5593
  32   2.0000      -0.447864       -12.1870
  33   2.0000      -0.439392       -11.9565
  34   2.0000      -0.414643       -11.2830
  35   2.0000      -0.414148       -11.2695
  36   2.0000      -0.396787       -10.7971
  37   2.0000      -0.388175       -10.5628
  38   2.0000      -0.373701       -10.1689
  39   2.0000      -0.367788       -10.0080
  40   2.0000      -0.361325        -9.8321
  41   2.0000      -0.359561        -9.7842
  42   2.0000      -0.347308        -9.4507
  43   2.0000      -0.334029        -9.0894
  44   2.0000      -0.326618        -8.8877
  45   2.0000      -0.305518        -8.3136
  46   2.0000      -0.294909        -8.0249
  47   2.0000      -0.270787        -7.3685
  48   2.0000      -0.264621        -7.2007
  49   2.0000      -0.261990        -7.1291
  50   2.0000      -0.236766        -6.4427
  51   0.0000       0.066738         1.8160
  52   0.0000       0.082869         2.2550
  53   0.0000       0.099337         2.7031
  54   0.0000       0.103728         2.8226
  55   0.0000       0.106951         2.9103

MULLIKEN ATOMIC CHARGES
-----------------------
   0 C :    0.298285
   1 C :   -0.260939
   2 C :   -0.299156
   3 C :   -0.015109
   4 O :   -0.503702
   5 H :    0.155159
   6 H :    0.144889
   7 H :    0.158161
   8 H :    0.144379
   9 H :    0.158827
  10 H :    0.145645
  11 H :    0.149743
  12 C :   -0.024439
  13 H :    0.171259
  14 H :    0.140139
  15 O :   -0.537615
  16 C :    0.072224
  17 C :    0.082197
  18 C :   -0.287764
  19 C :   -0.026200
  20 O :   -0.521584
  21 H :    0.150992
  22 O :   -0.606023
  23 H :    0.152134
  24 H :    0.149596
  25 H :    0.166361
  26 H :    0.138221
  27 H :    0.141440
  28 H :    0.362878
Sum of atomic charges:   -0.0000000

LOEWDIN ATOMIC CHARGES
----------------------
   0 C :    0.179738
   1 C :   -0.217070
   2 C :   -0.216926
   3 C :   -0.030953
   4 O :   -0.313559
   5 H :    0.099746
   6 H :    0.113777
   7 H :    0.124852
   8 H :    0.115520
   9 H :    0.117411
  10 H :    0.103602
  11 H :    0.106711
  12 C :   -0.046209
  13 H :    0.118079
  14 H :    0.109841
  15 O :   -0.340980
  16 C :    0.005456
  17 C :    0.038005
  18 C :   -0.240952
  19 C :   -0.035197
  20 O :   -0.326900
  21 H :    0.114315
  22 O :   -0.418324
  23 H :    0.116375
  24 H :    0.119947
  25 H :    0.125614
  26 H :    0.097123
  27 H :    0.099133
  28 H :    0.281822

  Mayer bond orders larger than 0.100000
B(  0-C ,  1-C ) :   0.9415 B(  0-C ,  4-O ) :   0.9131 B(  0-C ,  5-H ) :   0.9092
B(  0-C , 15-O ) :   0.8320 B(  1-C ,  2-C ) :   0.9543 B(  1-C ,  6-H ) :   0.9378
B(  1-C ,  7-H ) :   0.9354 B(  2-C ,  3-C ) :   0.9542 B(  2-C ,  8-H ) :   0.9449
B(  2-C ,  9-H ) :   0.9448 B(  3-C ,  4-O ) :   0.8316 B(  3-C , 10-H ) :   0.9347
B(  3-C , 11-H ) :   0.9405 B( 12-C , 13-H ) :   0.9076 B( 12-C , 14-H ) :   0.9290
B( 12-C , 15-O ) :   0.8650 B( 12-C , 16-C ) :   0.8877 B( 16-C , 17-C ) :   0.9091
B( 16-C , 20-O ) :   0.8686 B( 16-C , 21-H ) :   0.9168 B( 17-C , 18-C ) :   0.9221
B( 17-C , 22-O ) :   0.8897 B( 17-C , 23-H ) :   0.9355 B( 18-C , 19-C ) :   0.9428
B( 18-C , 24-H ) :   0.9379 B( 18-C , 25-H ) :   0.9234 B( 19-C , 20-O ) :   0.8455
B( 19-C , 26-H ) :   0.9239 B( 19-C , 27-H ) :   0.9379 B( 22-O , 28-H ) :   0.7962

FINAL SINGLE POINT ENERGY      -652.863957562169

DIPOLE MOMENT
-------------
                                X             Y             Z
Electronic contribution:     -2.34408      -4.58644       0.59094
Nuclear contribution   :      2.99080       5.56006      -0.62325
                        -----------------------------------------
Total Dipole Moment    :      0.64672       0.97362      -0.03231
                        -----------------------------------------
Magnitude (a.u.)       :      1.16928
Magnitude (Debye)      :      2.97208

Rotational constants in cm-1:     0.064139     0.013999     0.013788
Rotational constants in MHz :  1922.826099   419.689549   413.364339

                             ****ORCA TERMINATED NORMALLY****
TOTAL RUN TIME: 0 days 1 hours 4 minutes 19 seconds 659 msec
