                         Program Version 4.2.0 -  RELEASE  -
|  1> # Test redundant internal optimization
|  2> #
|  3> ! RKS B3LYP  Opt TightSCF SmallPrint
|  4>
|  5> %basis
|  6>         Basis "6-31G"
|  7> end
|  8>
|  9> %geom
| 10> Constraints
| 11> { D 4  0  15  12  330.0   C } # D for Dihedral angle
| 12> { D 0  15  12  16  300.0   C } # D for Dihedral angle
| 13> { D 0  4  3  2   C } # D for Dihedral angle
| 14> { D 4  3  2  1   C } # D for Dihedral angle
| 15> { D 3  2  1  0   C } # D for Dihedral angle
| 16> { D 2  1  0  4   C } # D for Dihedral angle
| 17> { D 1  0  4  3   C } # D for Dihedral angle
| 18> { D 16  20  19  18   C } # D for Dihedral angle
| 19> { D 20  19  18  17   C } # D for Dihedral angle
| 20> { D 19  18  17  16   C } # D for Dihedral angle
| 21> { D 18  17  16  20   C } # D for Dihedral angle
| 22> { D 17  16  20  19   C } # D for Dihedral angle
| 23> { D 15  12  16  20   C } # D for Dihedral angle
| 24> end
| 25> end
| 26>
| 27>
| 28> #%pal
| 29> #nprocs 8
| 30> #end
| 31>
| 32> * xyz 0 1
| 33> C  -21.048   26.222   46.251
| 34> C  -20.361   27.558   45.944
| 35> C  -20.329   28.222   47.341
| 36> C  -20.110   27.022   48.296
| 37> O  -20.473   25.807   47.535
| 38> H  -20.833   25.428   45.533
| 39> H  -19.344   27.382   45.576
| 40> H  -20.898   28.157   45.201
| 41> H  -19.543   28.978   47.434
| 42> H  -21.289   28.710   47.548
| 43> H  -20.733   27.082   49.195
| 44> H  -19.064   26.913   48.597
| 45> C  -23.271   25.476   47.424
| 46> H  -22.856   25.689   48.417
| 47> H  -24.351   25.667   47.455
| 48> O  -22.586   26.394   46.375
| 49> C  -23.067   23.965   47.124
| 50> C  -23.850   23.091   48.109
| 51> C  -25.283   23.171   47.530
| 52> C  -25.041   23.225   46.001
| 53> O  -23.629   23.623   45.813
| 54> H  -21.997   23.750   47.080
| 55> O  -23.321   21.631   48.064
| 56> H  -23.790   23.448   49.143
| 57> H  -25.908   22.321   47.823
| 58> H  -25.778   24.086   47.875
| 59> H  -25.688   23.954   45.499
| 60> H  -25.168   22.250   45.523
| 61> H  -23.373   21.252   47.038
| 62> *
| 63>
| 64>                          ****END OF INPUT****
 Total Charge           Charge          ....    0
 Multiplicity           Mult            ....    1
 Number of Electrons    NEL             ....  102
FINAL SINGLE POINT ENERGY      -652.835661696382
FINAL SINGLE POINT ENERGY      -652.858640276171
FINAL SINGLE POINT ENERGY      -652.862968529995
FINAL SINGLE POINT ENERGY      -652.863756551858
FINAL SINGLE POINT ENERGY      -652.863867859763
FINAL SINGLE POINT ENERGY      -652.863881533057
                    ***********************HURRAY********************

CARTESIAN COORDINATES (ANGSTROEM)
---------------------------------
  C    -21.077133   26.172636   46.270257
  C    -20.462057   27.540479   45.974329
  C    -20.386224   28.162707   47.385900
  C    -20.072665   26.951707   48.292577
  O    -20.432361   25.745782   47.494995
  H    -20.872717   25.392328   45.532639
  H    -19.463207   27.401553   45.545404
  H    -21.072443   28.120975   45.279498
  H    -19.623565   28.943884   47.462036
  H    -21.354702   28.600207   47.646281
  H    -20.650318   26.945751   49.221109
  H    -19.009047   26.859970   48.530227
  C    -23.202329   25.501767   47.371026
  H    -22.834706   25.709956   48.384459
  H    -24.243280   25.826289   47.296000
  O    -22.512054   26.341069   46.404781
  C    -23.072247   23.999625   47.102785
  C    -23.862337   23.138195   48.098202
  C    -25.294142   23.195903   47.500780
  C    -25.031992   23.220772   45.973495
  O    -23.618401   23.625967   45.794052
  H    -22.016050   23.718175   47.099674
  O    -23.351986   21.776351   48.128705
  H    -23.809368   23.488961   49.129665
  H    -25.880451   22.330832   47.820521
  H    -25.809972   24.103876   47.834078
  H    -25.676282   23.929495   45.444397
  H    -25.146941   22.234462   45.512987
  H    -23.143021   21.494326   47.213139

 Multiplicity           Mult            ....    1
 Number of Electrons    NEL             ....  102
 Basis Dimension        Dim             ....  149

ORBITAL ENERGIES
----------------

  NO   OCC          E(Eh)            E(eV)
   0   2.0000     -19.146896      -521.0135
   1   2.0000     -19.138142      -520.7753
   2   2.0000     -19.137837      -520.7670
   3   2.0000     -19.135808      -520.7118
   4   2.0000     -10.275050      -279.5983
   5   2.0000     -10.239981      -278.6440
   6   2.0000     -10.229859      -278.3686
   7   2.0000     -10.227976      -278.3174
   8   2.0000     -10.227859      -278.3142
   9   2.0000     -10.227737      -278.3109
  10   2.0000     -10.187774      -277.2234
  11   2.0000     -10.187319      -277.2110
  12   2.0000     -10.184035      -277.1217
  13   2.0000      -1.054293       -28.6888
  14   2.0000      -1.032857       -28.1055
  15   2.0000      -1.003111       -27.2960
  16   2.0000      -0.990021       -26.9398
  17   2.0000      -0.790922       -21.5221
  18   2.0000      -0.779651       -21.2154
  19   2.0000      -0.762646       -20.7527
  20   2.0000      -0.733891       -19.9702
  21   2.0000      -0.670949       -18.2575
  22   2.0000      -0.603258       -16.4155
  23   2.0000      -0.600616       -16.3436
  24   2.0000      -0.600111       -16.3299
  25   2.0000      -0.566892       -15.4259
  26   2.0000      -0.522369       -14.2144
  27   2.0000      -0.510845       -13.9008
  28   2.0000      -0.495410       -13.4808
  29   2.0000      -0.488396       -13.2899
  30   2.0000      -0.472408       -12.8549
  31   2.0000      -0.458956       -12.4888
  32   2.0000      -0.447940       -12.1891
  33   2.0000      -0.440190       -11.9782
  34   2.0000      -0.418692       -11.3932
  35   2.0000      -0.408069       -11.1041
  36   2.0000      -0.398271       -10.8375
  37   2.0000      -0.390439       -10.6244
  38   2.0000      -0.375935       -10.2297
  39   2.0000      -0.366739        -9.9795
  40   2.0000      -0.359178        -9.7737
  41   2.0000      -0.357742        -9.7347
  42   2.0000      -0.349888        -9.5209
  43   2.0000      -0.333181        -9.0663
  44   2.0000      -0.326749        -8.8913
  45   2.0000      -0.308317        -8.3897
  46   2.0000      -0.297286        -8.0896
  47   2.0000      -0.269203        -7.3254
  48   2.0000      -0.264070        -7.1857
  49   2.0000      -0.258410        -7.0317
  50   2.0000      -0.234609        -6.3840
  51   0.0000       0.068131         1.8539
  52   0.0000       0.080530         2.1913
  53   0.0000       0.089610         2.4384
  54   0.0000       0.098630         2.6839
  55   0.0000       0.106506         2.8982

MULLIKEN ATOMIC CHARGES
-----------------------
   0 C :    0.288739
   1 C :   -0.258599
   2 C :   -0.301295
   3 C :   -0.012194
   4 O :   -0.520627
   5 H :    0.162674
   6 H :    0.144607
   7 H :    0.162997
   8 H :    0.144083
   9 H :    0.158368
  10 H :    0.143240
  11 H :    0.148880
  12 C :    0.006504
  13 H :    0.131893
  14 H :    0.147167
  15 O :   -0.522901
  16 C :    0.041281
  17 C :    0.076456
  18 C :   -0.295692
  19 C :   -0.026439
  20 O :   -0.518507
  21 H :    0.187613
  22 O :   -0.602660
  23 H :    0.151145
  24 H :    0.163414
  25 H :    0.140264
  26 H :    0.149847
  27 H :    0.144338
  28 H :    0.365402
Sum of atomic charges:   -0.0000000

LOEWDIN ATOMIC CHARGES
----------------------
   0 C :    0.174903
   1 C :   -0.213490
   2 C :   -0.217438
   3 C :   -0.030299
   4 O :   -0.329367
   5 H :    0.104532
   6 H :    0.113742
   7 H :    0.127403
   8 H :    0.115279
   9 H :    0.117125
  10 H :    0.101737
  11 H :    0.105913
  12 C :   -0.040135
  13 H :    0.098225
  14 H :    0.111197
  15 O :   -0.324561
  16 C :    0.000773
  17 C :    0.037171
  18 C :   -0.241076
  19 C :   -0.037492
  20 O :   -0.328435
  21 H :    0.125827
  22 O :   -0.415063
  23 H :    0.114903
  24 H :    0.126669
  25 H :    0.110900
  26 H :    0.105747
  27 H :    0.101861
  28 H :    0.283451

  Mayer bond orders larger than 0.100000
B(  0-C ,  1-C ) :   0.9455 B(  0-C ,  4-O ) :   0.8868 B(  0-C ,  5-H ) :   0.9198
B(  0-C , 15-O ) :   0.8506 B(  1-C ,  2-C ) :   0.9525 B(  1-C ,  6-H ) :   0.9383
B(  1-C ,  7-H ) :   0.9355 B(  2-C ,  3-C ) :   0.9549 B(  2-C ,  8-H ) :   0.9449
B(  2-C ,  9-H ) :   0.9450 B(  3-C ,  4-O ) :   0.8315 B(  3-C , 10-H ) :   0.9340
B(  3-C , 11-H ) :   0.9406 B( 12-C , 13-H ) :   0.9105 B( 12-C , 14-H ) :   0.9394
B( 12-C , 15-O ) :   0.8560 B( 12-C , 16-C ) :   0.8800 B( 16-C , 17-C ) :   0.9000
B( 16-C , 20-O ) :   0.8519 B( 16-C , 21-H ) :   0.9127 B( 17-C , 18-C ) :   0.9103
B( 17-C , 22-O ) :   0.8917 B( 17-C , 23-H ) :   0.9333 B( 18-C , 19-C ) :   0.9404
B( 18-C , 24-H ) :   0.9376 B( 18-C , 25-H ) :   0.9349 B( 19-C , 20-O ) :   0.8510
B( 19-C , 26-H ) :   0.9338 B( 19-C , 27-H ) :   0.9381 B( 22-O , 28-H ) :   0.7937

FINAL SINGLE POINT ENERGY      -652.863883817042

DIPOLE MOMENT
-------------
                                X             Y             Z
Electronic contribution:      0.45279      -3.93260      -1.59354
Nuclear contribution   :     -0.66495       4.77991       1.82387
                        -----------------------------------------
Total Dipole Moment    :     -0.21216       0.84731       0.23033
                        -----------------------------------------
Magnitude (a.u.)       :      0.90332
Magnitude (Debye)      :      2.29607

Rotational constants in cm-1:     0.061051     0.013347     0.012320
Rotational constants in MHz :  1830.262190   400.132096   369.357251

                             ****ORCA TERMINATED NORMALLY****
TOTAL RUN TIME: 0 days 1 hours 22 minutes 33 seconds 501 msec
