                         Program Version 4.2.0 -  RELEASE  -
|  1> # Test redundant internal optimization
|  2> #
|  3> ! RKS B3LYP  Opt TightSCF SmallPrint
|  4>
|  5> %basis
|  6>         Basis "6-31G"
|  7> end
|  8>
|  9> %geom
| 10> Constraints
| 11> { D 4  0  15  12  240.0   C } # D for Dihedral angle
| 12> { D 0  15  12  16  270.0   C } # D for Dihedral angle
| 13> { D 0  4  3  2   C } # D for Dihedral angle
| 14> { D 4  3  2  1   C } # D for Dihedral angle
| 15> { D 3  2  1  0   C } # D for Dihedral angle
| 16> { D 2  1  0  4   C } # D for Dihedral angle
| 17> { D 1  0  4  3   C } # D for Dihedral angle
| 18> { D 16  20  19  18   C } # D for Dihedral angle
| 19> { D 20  19  18  17   C } # D for Dihedral angle
| 20> { D 19  18  17  16   C } # D for Dihedral angle
| 21> { D 18  17  16  20   C } # D for Dihedral angle
| 22> { D 17  16  20  19   C } # D for Dihedral angle
| 23> { D 15  12  16  20   C } # D for Dihedral angle
| 24> end
| 25> end
| 26>
| 27>
| 28> #%pal
| 29> #nprocs 8
| 30> #end
| 31>
| 32> * xyz 0 1
| 33> C  -21.048   26.222   46.251
| 34> C  -20.361   27.558   45.944
| 35> C  -20.329   28.222   47.341
| 36> C  -20.110   27.022   48.296
| 37> O  -20.473   25.807   47.535
| 38> H  -20.833   25.428   45.533
| 39> H  -19.344   27.382   45.576
| 40> H  -20.898   28.157   45.201
| 41> H  -19.543   28.978   47.434
| 42> H  -21.289   28.710   47.548
| 43> H  -20.733   27.082   49.195
| 44> H  -19.064   26.913   48.597
| 45> C  -23.430   25.483   45.442
| 46> H  -22.889   24.544   45.267
| 47> H  -24.393   25.241   45.910
| 48> O  -22.586   26.394   46.375
| 49> C  -23.725   26.141   44.066
| 50> C  -24.654   25.265   43.218
| 51> C  -26.035   25.581   43.838
| 52> C  -25.916   27.078   44.219
| 53> O  -24.471   27.391   44.245
| 54> H  -22.780   26.399   43.583
| 55> H  -24.619   25.583   42.170
| 56> O  -24.295   23.755   43.282
| 57> H  -26.864   25.390   43.149
| 58> H  -26.196   24.966   44.732
| 59> H  -26.348   27.296   45.203
| 60> H  -26.376   27.735   43.476
| 61> H  -24.325   23.413   44.322
| 62> *
| 63>
| 64>                          ****END OF INPUT****
 Total Charge           Charge          ....    0
 Multiplicity           Mult            ....    1
 Number of Electrons    NEL             ....  102
FINAL SINGLE POINT ENERGY      -652.827508082741
FINAL SINGLE POINT ENERGY      -652.850858476872
FINAL SINGLE POINT ENERGY      -652.855398712412
FINAL SINGLE POINT ENERGY      -652.856263774133
FINAL SINGLE POINT ENERGY      -652.856412847241
FINAL SINGLE POINT ENERGY      -652.856437408367
FINAL SINGLE POINT ENERGY      -652.856441496125
                    ***********************HURRAY********************

CARTESIAN COORDINATES (ANGSTROEM)
---------------------------------
  C    -21.053916   26.182991   46.204636
  C    -20.441312   27.550241   45.902791
  C    -20.446205   28.216930   47.298863
  C    -20.165175   27.032315   48.249183
  O    -20.468704   25.806166   47.467958
  H    -20.814323   25.387078   45.492084
  H    -19.415810   27.418738   45.536643
  H    -21.019220   28.105395   45.160955
  H    -19.699976   29.011996   47.389631
  H    -21.434835   28.642063   47.495313
  H    -20.792696   27.041162   49.143750
  H    -19.113648   26.963175   48.544261
  C    -23.329375   25.470976   45.520953
  H    -22.838533   24.500864   45.350761
  H    -24.236618   25.305839   46.112053
  O    -22.491264   26.324251   46.340371
  C    -23.666103   26.109106   44.170418
  C    -24.598264   25.251566   43.296656
  C    -26.000448   25.613710   43.872695
  C    -25.840410   27.104950   44.242469
  O    -24.381378   27.373238   44.312439
  H    -22.733603   26.349829   43.648905
  H    -24.519292   25.575922   42.256535
  O    -24.292401   23.836564   43.260418
  H    -26.801804   25.436359   43.150528
  H    -26.202759   24.998836   44.759959
  H    -26.295478   27.357720   45.205260
  H    -26.250298   27.768275   43.474844
  H    -24.583151   23.399744   44.086666

 Multiplicity           Mult            ....    1
 Number of Electrons    NEL             ....  102
 Basis Dimension        Dim             ....  149

ORBITAL ENERGIES
----------------

  NO   OCC          E(Eh)            E(eV)
   0   2.0000     -19.152834      -521.1751
   1   2.0000     -19.139198      -520.8041
   2   2.0000     -19.136908      -520.7417
   3   2.0000     -19.132605      -520.6247
   4   2.0000     -10.274404      -279.5808
   5   2.0000     -10.248305      -278.8706
   6   2.0000     -10.232852      -278.4501
   7   2.0000     -10.232673      -278.4452
   8   2.0000     -10.231997      -278.4268
   9   2.0000     -10.218295      -278.0539
  10   2.0000     -10.198930      -277.5270
  11   2.0000     -10.178098      -276.9601
  12   2.0000     -10.177676      -276.9487
  13   2.0000      -1.047721       -28.5099
  14   2.0000      -1.035913       -28.1886
  15   2.0000      -1.017999       -27.7011
  16   2.0000      -0.989464       -26.9247
  17   2.0000      -0.785905       -21.3856
  18   2.0000      -0.779735       -21.2177
  19   2.0000      -0.766167       -20.8485
  20   2.0000      -0.728839       -19.8327
  21   2.0000      -0.680007       -18.5039
  22   2.0000      -0.614560       -16.7230
  23   2.0000      -0.597006       -16.2453
  24   2.0000      -0.591142       -16.0858
  25   2.0000      -0.572800       -15.5867
  26   2.0000      -0.530838       -14.4448
  27   2.0000      -0.513018       -13.9599
  28   2.0000      -0.495014       -13.4700
  29   2.0000      -0.488523       -13.2934
  30   2.0000      -0.465605       -12.6697
  31   2.0000      -0.451171       -12.2770
  32   2.0000      -0.443582       -12.0705
  33   2.0000      -0.438350       -11.9281
  34   2.0000      -0.429974       -11.7002
  35   2.0000      -0.418853       -11.3976
  36   2.0000      -0.409770       -11.1504
  37   2.0000      -0.395469       -10.7613
  38   2.0000      -0.380378       -10.3506
  39   2.0000      -0.363017        -9.8782
  40   2.0000      -0.357951        -9.7404
  41   2.0000      -0.349645        -9.5143
  42   2.0000      -0.344398        -9.3715
  43   2.0000      -0.332459        -9.0467
  44   2.0000      -0.319253        -8.6873
  45   2.0000      -0.310174        -8.4403
  46   2.0000      -0.300305        -8.1717
  47   2.0000      -0.274417        -7.4673
  48   2.0000      -0.265829        -7.2336
  49   2.0000      -0.249859        -6.7990
  50   2.0000      -0.233138        -6.3440
  51   0.0000       0.049238         1.3398
  52   0.0000       0.076401         2.0790
  53   0.0000       0.086103         2.3430
  54   0.0000       0.090860         2.4724
  55   0.0000       0.103688         2.8215

MULLIKEN ATOMIC CHARGES
-----------------------
   0 C :    0.275938
   1 C :   -0.254582
   2 C :   -0.301319
   3 C :   -0.000469
   4 O :   -0.504711
   5 H :    0.139028
   6 H :    0.138893
   7 H :    0.160740
   8 H :    0.138708
   9 H :    0.168040
  10 H :    0.149132
  11 H :    0.138447
  12 C :   -0.032084
  13 H :    0.134949
  14 H :    0.144281
  15 O :   -0.498916
  16 C :    0.093397
  17 C :    0.084903
  18 C :   -0.330649
  19 C :   -0.009058
  20 O :   -0.506467
  21 H :    0.150612
  22 H :    0.168855
  23 O :   -0.600526
  24 H :    0.160283
  25 H :    0.135927
  26 H :    0.147074
  27 H :    0.151797
  28 H :    0.357774
Sum of atomic charges:   -0.0000000

LOEWDIN ATOMIC CHARGES
----------------------
   0 C :    0.173492
   1 C :   -0.221490
   2 C :   -0.216469
   3 C :   -0.026647
   4 O :   -0.318501
   5 H :    0.096969
   6 H :    0.110535
   7 H :    0.124162
   8 H :    0.112683
   9 H :    0.122139
  10 H :    0.106606
  11 H :    0.100531
  12 C :   -0.049146
  13 H :    0.099669
  14 H :    0.106925
  15 O :   -0.317471
  16 C :    0.008405
  17 C :    0.033852
  18 C :   -0.242557
  19 C :   -0.029188
  20 O :   -0.316158
  21 H :    0.110644
  22 H :    0.119657
  23 O :   -0.407762
  24 H :    0.123694
  25 H :    0.105032
  26 H :    0.104731
  27 H :    0.106844
  28 H :    0.278820

  Mayer bond orders larger than 0.100000
B(  0-C ,  1-C ) :   0.9414 B(  0-C ,  4-O ) :   0.9280 B(  0-C ,  5-H ) :   0.9167
B(  0-C , 15-O ) :   0.8455 B(  1-C ,  2-C ) :   0.9573 B(  1-C ,  6-H ) :   0.9373
B(  1-C ,  7-H ) :   0.9344 B(  2-C ,  3-C ) :   0.9546 B(  2-C ,  8-H ) :   0.9454
B(  2-C ,  9-H ) :   0.9426 B(  3-C ,  4-O ) :   0.8385 B(  3-C , 10-H ) :   0.9353
B(  3-C , 11-H ) :   0.9400 B( 12-C , 13-H ) :   0.9037 B( 12-C , 14-H ) :   0.9383
B( 12-C , 15-O ) :   0.8722 B( 12-C , 16-C ) :   0.8814 B( 16-C , 17-C ) :   0.8710
B( 16-C , 20-O ) :   0.8700 B( 16-C , 21-H ) :   0.9324 B( 17-C , 18-C ) :   0.9244
B( 17-C , 22-H ) :   0.9319 B( 17-C , 23-O ) :   0.8969 B( 18-C , 19-C ) :   0.9390
B( 18-C , 24-H ) :   0.9412 B( 18-C , 25-H ) :   0.9409 B( 19-C , 20-O ) :   0.8477
B( 19-C , 26-H ) :   0.9316 B( 19-C , 27-H ) :   0.9371 B( 23-O , 28-H ) :   0.7977

FINAL SINGLE POINT ENERGY      -652.856442013191

DIPOLE MOMENT
-------------
                                X             Y             Z
Electronic contribution:      0.15234      -2.57418      -0.64085
Nuclear contribution   :     -0.79650       2.70422       0.47445
                        -----------------------------------------
Total Dipole Moment    :     -0.64417       0.13004      -0.16640
                        -----------------------------------------
Magnitude (a.u.)       :      0.67790
Magnitude (Debye)      :      1.72309

Rotational constants in cm-1:     0.058536     0.012380     0.011282
Rotational constants in MHz :  1754.861520   371.141676   338.238753

                             ****ORCA TERMINATED NORMALLY****
TOTAL RUN TIME: 0 days 1 hours 14 minutes 46 seconds 291 msec
