                         Program Version 4.2.0 -  RELEASE  -
|  1> # Test redundant internal optimization
|  2> #
|  3> ! RKS B3LYP  Opt TightSCF SmallPrint
|  4>
|  5> %basis
|  6>         Basis "6-31G"
|  7> end
|  8>
|  9> %geom
| 10> Constraints
| 11> { D 4  0  15  12  165.0   C } # D for Dihedral angle
| 12> { D 0  15  12  16  270.0   C } # D for Dihedral angle
| 13> { D 0  4  3  2   C } # D for Dihedral angle
| 14> { D 4  3  2  1   C } # D for Dihedral angle
| 15> { D 3  2  1  0   C } # D for Dihedral angle
| 16> { D 2  1  0  4   C } # D for Dihedral angle
| 17> { D 1  0  4  3   C } # D for Dihedral angle
| 18> { D 16  20  19  18   C } # D for Dihedral angle
| 19> { D 20  19  18  17   C } # D for Dihedral angle
| 20> { D 19  18  17  16   C } # D for Dihedral angle
| 21> { D 18  17  16  20   C } # D for Dihedral angle
| 22> { D 17  16  20  19   C } # D for Dihedral angle
| 23> { D 15  12  16  20   C } # D for Dihedral angle
| 24> end
| 25> end
| 26>
| 27>
| 28> #%pal
| 29> #nprocs 8
| 30> #end
| 31>
| 32> * xyz 0 1
| 33> C  -21.048   26.222   46.251
| 34> C  -20.361   27.558   45.944
| 35> C  -20.329   28.222   47.341
| 36> C  -20.110   27.022   48.296
| 37> O  -20.473   25.807   47.535
| 38> H  -20.833   25.428   45.533
| 39> H  -19.344   27.382   45.576
| 40> H  -20.898   28.157   45.201
| 41> H  -19.543   28.978   47.434
| 42> H  -21.289   28.710   47.548
| 43> H  -20.733   27.082   49.195
| 44> H  -19.064   26.913   48.597
| 45> C  -23.260   27.170   45.210
| 46> H  -22.693   27.000   44.286
| 47> H  -24.286   26.813   45.054
| 48> O  -22.586   26.394   46.375
| 49> C  -23.326   28.701   45.468
| 50> C  -24.097   29.420   44.356
| 51> C  -25.564   29.133   44.756
| 52> C  -25.516   29.154   46.304
| 53> O  -24.097   28.984   46.683
| 54> H  -22.315   29.080   45.634
| 55> H  -23.891   30.495   44.387
| 56> O  -23.748   28.897   42.935
| 57> H  -26.266   29.869   44.351
| 58> H  -25.868   28.145   44.392
| 59> H  -26.106   28.346   46.753
| 60> H  -25.849   30.109   46.720
| 61> H  -23.948   27.821   42.878
| 62> *
| 63>
| 64>                          ****END OF INPUT****
 Total Charge           Charge          ....    0
 Multiplicity           Mult            ....    1
 Number of Electrons    NEL             ....  102
FINAL SINGLE POINT ENERGY      -652.817822022961
FINAL SINGLE POINT ENERGY      -652.841649859913
FINAL SINGLE POINT ENERGY      -652.846571739052
FINAL SINGLE POINT ENERGY      -652.848485474931
FINAL SINGLE POINT ENERGY      -652.848772904445
FINAL SINGLE POINT ENERGY      -652.848845139595
FINAL SINGLE POINT ENERGY      -652.848850926614
FINAL SINGLE POINT ENERGY      -652.848851764613
                    ***********************HURRAY********************

CARTESIAN COORDINATES (ANGSTROEM)
---------------------------------
  C    -21.029477   26.265621   46.206610
  C    -20.222732   27.539235   45.953998
  C    -20.275203   28.237853   47.339008
  C    -20.238057   27.044762   48.316551
  O    -20.619694   25.855140   47.515353
  H    -20.805805   25.442576   45.519903
  H    -19.193729   27.246103   45.713755
  H    -20.589515   28.155106   45.129777
  H    -19.438087   28.926522   47.488304
  H    -21.209119   28.795831   47.453655
  H    -20.943912   27.147152   49.144126
  H    -19.237110   26.846846   48.711312
  C    -23.183455   27.158424   45.218272
  H    -22.702656   26.991982   44.241189
  H    -24.173354   26.690184   45.195124
  O    -22.480347   26.441930   46.267151
  C    -23.327615   28.669423   45.439697
  C    -24.141328   29.360742   44.331273
  C    -25.607745   29.081792   44.787452
  C    -25.498035   29.145702   46.327740
  O    -24.060511   28.985720   46.661397
  H    -22.348373   29.133440   45.554811
  H    -23.936977   30.433609   44.350664
  O    -23.825189   28.953331   42.977661
  H    -26.313175   29.810173   44.379549
  H    -25.914437   28.084131   44.447148
  H    -26.068687   28.358573   46.829681
  H    -25.811917   30.116013   46.723745
  H    -24.244758   28.094084   42.768094

 Multiplicity           Mult            ....    1
 Number of Electrons    NEL             ....  102
 Basis Dimension        Dim             ....  149

ORBITAL ENERGIES
----------------

  NO   OCC          E(Eh)            E(eV)
   0   2.0000     -19.155376      -521.2443
   1   2.0000     -19.140765      -520.8467
   2   2.0000     -19.134445      -520.6747
   3   2.0000     -19.133165      -520.6399
   4   2.0000     -10.275725      -279.6167
   5   2.0000     -10.249950      -278.9153
   6   2.0000     -10.233435      -278.4659
   7   2.0000     -10.233154      -278.4583
   8   2.0000     -10.232278      -278.4344
   9   2.0000     -10.219272      -278.0805
  10   2.0000     -10.199946      -277.5546
  11   2.0000     -10.186456      -277.1876
  12   2.0000     -10.182332      -277.0753
  13   2.0000      -1.047532       -28.5048
  14   2.0000      -1.037828       -28.2407
  15   2.0000      -1.019626       -27.7454
  16   2.0000      -0.986677       -26.8488
  17   2.0000      -0.786720       -21.4077
  18   2.0000      -0.782692       -21.2981
  19   2.0000      -0.769137       -20.9293
  20   2.0000      -0.732077       -19.9208
  21   2.0000      -0.683212       -18.5911
  22   2.0000      -0.616131       -16.7658
  23   2.0000      -0.599844       -16.3226
  24   2.0000      -0.592800       -16.1309
  25   2.0000      -0.574553       -15.6344
  26   2.0000      -0.526387       -14.3237
  27   2.0000      -0.510578       -13.8935
  28   2.0000      -0.500469       -13.6184
  29   2.0000      -0.495517       -13.4837
  30   2.0000      -0.465205       -12.6589
  31   2.0000      -0.453706       -12.3460
  32   2.0000      -0.444898       -12.1063
  33   2.0000      -0.438486       -11.9318
  34   2.0000      -0.431484       -11.7413
  35   2.0000      -0.422957       -11.5093
  36   2.0000      -0.407746       -11.0953
  37   2.0000      -0.403247       -10.9729
  38   2.0000      -0.379033       -10.3140
  39   2.0000      -0.375974       -10.2308
  40   2.0000      -0.357053        -9.7159
  41   2.0000      -0.355062        -9.6617
  42   2.0000      -0.349559        -9.5120
  43   2.0000      -0.332523        -9.0484
  44   2.0000      -0.321012        -8.7352
  45   2.0000      -0.305506        -8.3133
  46   2.0000      -0.290445        -7.9034
  47   2.0000      -0.276303        -7.5186
  48   2.0000      -0.264239        -7.1903
  49   2.0000      -0.252038        -6.8583
  50   2.0000      -0.234068        -6.3693
  51   0.0000       0.047790         1.3004
  52   0.0000       0.076256         2.0750
  53   0.0000       0.081650         2.2218
  54   0.0000       0.092338         2.5127
  55   0.0000       0.098046         2.6680

MULLIKEN ATOMIC CHARGES
-----------------------
   0 C :    0.313287
   1 C :   -0.296640
   2 C :   -0.312832
   3 C :    0.000001
   4 O :   -0.498674
   5 H :    0.141335
   6 H :    0.149300
   7 H :    0.144103
   8 H :    0.140548
   9 H :    0.182839
  10 H :    0.159081
  11 H :    0.139412
  12 C :   -0.027235
  13 H :    0.122733
  14 H :    0.147233
  15 O :   -0.503625
  16 C :    0.088846
  17 C :    0.078890
  18 C :   -0.322591
  19 C :   -0.007442
  20 O :   -0.511906
  21 H :    0.155164
  22 H :    0.168383
  23 O :   -0.600571
  24 H :    0.159875
  25 H :    0.132181
  26 H :    0.152381
  27 H :    0.147940
  28 H :    0.357982
Sum of atomic charges:   -0.0000000

LOEWDIN ATOMIC CHARGES
----------------------
   0 C :    0.185217
   1 C :   -0.236122
   2 C :   -0.221451
   3 C :   -0.023989
   4 O :   -0.301843
   5 H :    0.096430
   6 H :    0.117950
   7 H :    0.112188
   8 H :    0.113743
   9 H :    0.124729
  10 H :    0.111913
  11 H :    0.101021
  12 C :   -0.051770
  13 H :    0.093367
  14 H :    0.109266
  15 O :   -0.325964
  16 C :    0.006789
  17 C :    0.033713
  18 C :   -0.240272
  19 C :   -0.028329
  20 O :   -0.317839
  21 H :    0.111806
  22 H :    0.119096
  23 O :   -0.408804
  24 H :    0.123530
  25 H :    0.103881
  26 H :    0.107033
  27 H :    0.105781
  28 H :    0.278928

  Mayer bond orders larger than 0.100000
B(  0-C ,  1-C ) :   0.9277 B(  0-C ,  4-O ) :   0.9406 B(  0-C ,  5-H ) :   0.9230
B(  0-C , 15-O ) :   0.8412 B(  1-C ,  2-C ) :   0.9494 B(  1-C ,  6-H ) :   0.9321
B(  1-C ,  7-H ) :   0.9260 B(  2-C ,  3-C ) :   0.9527 B(  2-C ,  8-H ) :   0.9451
B(  2-C ,  9-H ) :   0.9306 B(  3-C ,  4-O ) :   0.8336 B(  3-C , 10-H ) :   0.9338
B(  3-C , 11-H ) :   0.9403 B( 12-C , 13-H ) :   0.9050 B( 12-C , 14-H ) :   0.9362
B( 12-C , 15-O ) :   0.8753 B( 12-C , 16-C ) :   0.8777 B( 16-C , 17-C ) :   0.8687
B( 16-C , 20-O ) :   0.8607 B( 16-C , 21-H ) :   0.9219 B( 17-C , 18-C ) :   0.9246
B( 17-C , 22-H ) :   0.9322 B( 17-C , 23-O ) :   0.8985 B( 18-C , 19-C ) :   0.9381
B( 18-C , 24-H ) :   0.9411 B( 18-C , 25-H ) :   0.9409 B( 19-C , 20-O ) :   0.8459
B( 19-C , 26-H ) :   0.9307 B( 19-C , 27-H ) :   0.9380 B( 23-O , 28-H ) :   0.7971

FINAL SINGLE POINT ENERGY      -652.848851807918

DIPOLE MOMENT
-------------
                                X             Y             Z
Electronic contribution:     -0.17294      -2.99386       0.40311
Nuclear contribution   :     -0.28127       3.69757      -1.20559
                        -----------------------------------------
Total Dipole Moment    :     -0.45421       0.70371      -0.80248
                        -----------------------------------------
Magnitude (a.u.)       :      1.15995
Magnitude (Debye)      :      2.94836

Rotational constants in cm-1:     0.051618     0.014483     0.013490
Rotational constants in MHz :  1547.455751   434.181439   404.430336

                             ****ORCA TERMINATED NORMALLY****
TOTAL RUN TIME: 0 days 0 hours 27 minutes 58 seconds 420 msec
