                         Program Version 4.2.0 -  RELEASE  -
|  1> # Test redundant internal optimization
|  2> #
|  3> ! RKS B3LYP  Opt TightSCF SmallPrint
|  4>
|  5> %basis
|  6>         Basis "6-31G"
|  7> end
|  8>
|  9> %geom
| 10> Constraints
| 11> { D 4  0  15  12  195.0   C } # D for Dihedral angle
| 12> { D 0  15  12  16  255.0   C } # D for Dihedral angle
| 13> { D 0  4  3  2   C } # D for Dihedral angle
| 14> { D 4  3  2  1   C } # D for Dihedral angle
| 15> { D 3  2  1  0   C } # D for Dihedral angle
| 16> { D 2  1  0  4   C } # D for Dihedral angle
| 17> { D 1  0  4  3   C } # D for Dihedral angle
| 18> { D 16  20  19  18   C } # D for Dihedral angle
| 19> { D 20  19  18  17   C } # D for Dihedral angle
| 20> { D 19  18  17  16   C } # D for Dihedral angle
| 21> { D 18  17  16  20   C } # D for Dihedral angle
| 22> { D 17  16  20  19   C } # D for Dihedral angle
| 23> { D 15  12  16  20   C } # D for Dihedral angle
| 24> end
| 25> end
| 26>
| 27>
| 28> #%pal
| 29> #nprocs 8
| 30> #end
| 31>
| 32> * xyz 0 1
| 33> C  -21.048   26.222   46.251
| 34> C  -20.361   27.558   45.944
| 35> C  -20.329   28.222   47.341
| 36> C  -20.110   27.022   48.296
| 37> O  -20.473   25.807   47.535
| 38> H  -20.833   25.428   45.533
| 39> H  -19.344   27.382   45.576
| 40> H  -20.898   28.157   45.201
| 41> H  -19.543   28.978   47.434
| 42> H  -21.289   28.710   47.548
| 43> H  -20.733   27.082   49.195
| 44> H  -19.064   26.913   48.597
| 45> C  -23.353   26.472   45.026
| 46> H  -22.701   26.117   44.218
| 47> H  -24.245   25.833   45.054
| 48> O  -22.586   26.394   46.375
| 49> C  -23.816   27.915   44.681
| 50> C  -24.666   27.936   43.407
| 51> C  -26.039   27.457   43.937
| 52> C  -26.101   28.072   45.357
| 53> O  -24.713   28.428   45.722
| 54> H  -22.945   28.573   44.656
| 55> H  -24.737   28.959   43.018
| 56> O  -24.104   27.024   42.282
| 57> H  -26.874   27.779   43.306
| 58> H  -26.061   26.362   43.989
| 59> H  -26.499   27.372   46.101
| 60> H  -26.689   28.994   45.388
| 61> H  -24.024   25.994   42.647
| 62> *
| 63>
| 64>                          ****END OF INPUT****
 Total Charge           Charge          ....    0
 Multiplicity           Mult            ....    1
 Number of Electrons    NEL             ....  102
FINAL SINGLE POINT ENERGY      -652.824289789103
FINAL SINGLE POINT ENERGY      -652.847359416573
FINAL SINGLE POINT ENERGY      -652.851808124297
FINAL SINGLE POINT ENERGY      -652.852666876394
FINAL SINGLE POINT ENERGY      -652.852851816744
FINAL SINGLE POINT ENERGY      -652.852888847319
FINAL SINGLE POINT ENERGY      -652.852898929964
FINAL SINGLE POINT ENERGY      -652.852900853367
                    ***********************HURRAY********************

CARTESIAN COORDINATES (ANGSTROEM)
---------------------------------
  C    -21.048812   26.230395   46.190762
  C    -20.357101   27.562665   45.910291
  C    -20.414729   28.253586   47.295222
  C    -20.246686   27.072540   48.272643
  O    -20.561292   25.852199   47.483300
  H    -20.808916   25.423307   45.489285
  H    -19.318239   27.368152   45.615947
  H    -20.830804   28.145481   45.117416
  H    -19.637418   29.013685   47.417571
  H    -21.391997   28.726649   47.428484
  H    -20.928002   27.117780   49.125343
  H    -19.219424   26.955957   48.630493
  C    -23.255835   26.411304   45.066416
  H    -22.652494   26.034168   44.226655
  H    -24.106403   25.734593   45.212259
  O    -22.497961   26.363786   46.305110
  C    -23.750479   27.821335   44.731436
  C    -24.603786   27.885116   43.453832
  C    -26.007943   27.458654   43.982892
  C    -26.034390   28.070409   45.401263
  O    -24.625302   28.364516   45.765866
  H    -22.896941   28.502286   44.678359
  H    -24.632751   28.914326   43.088902
  O    -24.105352   27.113172   42.333461
  H    -26.817609   27.823514   43.345220
  H    -26.070785   26.362560   44.017215
  H    -26.461671   27.395656   46.149547
  H    -26.576909   29.019777   45.431891
  H    -24.317972   26.164433   42.447918

 Multiplicity           Mult            ....    1
 Number of Electrons    NEL             ....  102
 Basis Dimension        Dim             ....  149

ORBITAL ENERGIES
----------------

  NO   OCC          E(Eh)            E(eV)
   0   2.0000     -19.153869      -521.2033
   1   2.0000     -19.138997      -520.7986
   2   2.0000     -19.135869      -520.7135
   3   2.0000     -19.135181      -520.6948
   4   2.0000     -10.276305      -279.6325
   5   2.0000     -10.248939      -278.8878
   6   2.0000     -10.232949      -278.4527
   7   2.0000     -10.232456      -278.4393
   8   2.0000     -10.231939      -278.4252
   9   2.0000     -10.219650      -278.0908
  10   2.0000     -10.199695      -277.5478
  11   2.0000     -10.183062      -277.0952
  12   2.0000     -10.180374      -277.0221
  13   2.0000      -1.049316       -28.5533
  14   2.0000      -1.036802       -28.2128
  15   2.0000      -1.018251       -27.7080
  16   2.0000      -0.989059       -26.9137
  17   2.0000      -0.785871       -21.3846
  18   2.0000      -0.781313       -21.2606
  19   2.0000      -0.768043       -20.8995
  20   2.0000      -0.730491       -19.8777
  21   2.0000      -0.681680       -18.5495
  22   2.0000      -0.615061       -16.7367
  23   2.0000      -0.595512       -16.2047
  24   2.0000      -0.592418       -16.1205
  25   2.0000      -0.577641       -15.7184
  26   2.0000      -0.526655       -14.3310
  27   2.0000      -0.512343       -13.9416
  28   2.0000      -0.499327       -13.5874
  29   2.0000      -0.491916       -13.3857
  30   2.0000      -0.465640       -12.6707
  31   2.0000      -0.454251       -12.3608
  32   2.0000      -0.446399       -12.1471
  33   2.0000      -0.437951       -11.9173
  34   2.0000      -0.429540       -11.6884
  35   2.0000      -0.421093       -11.4585
  36   2.0000      -0.408350       -11.1118
  37   2.0000      -0.399935       -10.8828
  38   2.0000      -0.377762       -10.2794
  39   2.0000      -0.372798       -10.1444
  40   2.0000      -0.357607        -9.7310
  41   2.0000      -0.352906        -9.6031
  42   2.0000      -0.348363        -9.4795
  43   2.0000      -0.331510        -9.0208
  44   2.0000      -0.320113        -8.7107
  45   2.0000      -0.307210        -8.3596
  46   2.0000      -0.298146        -8.1130
  47   2.0000      -0.274909        -7.4807
  48   2.0000      -0.260583        -7.0908
  49   2.0000      -0.254154        -6.9159
  50   2.0000      -0.234163        -6.3719
  51   0.0000       0.048188         1.3113
  52   0.0000       0.078029         2.1233
  53   0.0000       0.080742         2.1971
  54   0.0000       0.090282         2.4567
  55   0.0000       0.100002         2.7212

MULLIKEN ATOMIC CHARGES
-----------------------
   0 C :    0.293951
   1 C :   -0.273871
   2 C :   -0.303341
   3 C :   -0.000065
   4 O :   -0.502604
   5 H :    0.136684
   6 H :    0.143570
   7 H :    0.143218
   8 H :    0.139722
   9 H :    0.175602
  10 H :    0.156639
  11 H :    0.139225
  12 C :   -0.031306
  13 H :    0.125140
  14 H :    0.142478
  15 O :   -0.491947
  16 C :    0.092044
  17 C :    0.082538
  18 C :   -0.331064
  19 C :   -0.010524
  20 O :   -0.504652
  21 H :    0.155775
  22 H :    0.168517
  23 O :   -0.599958
  24 H :    0.159237
  25 H :    0.137036
  26 H :    0.150723
  27 H :    0.150642
  28 H :    0.356591
Sum of atomic charges:   -0.0000000

LOEWDIN ATOMIC CHARGES
----------------------
   0 C :    0.180475
   1 C :   -0.231415
   2 C :   -0.218085
   3 C :   -0.024005
   4 O :   -0.303298
   5 H :    0.094150
   6 H :    0.113374
   7 H :    0.112086
   8 H :    0.113459
   9 H :    0.125056
  10 H :    0.110829
  11 H :    0.100994
  12 C :   -0.052392
  13 H :    0.096445
  14 H :    0.105136
  15 O :   -0.321720
  16 C :    0.011224
  17 C :    0.033301
  18 C :   -0.242714
  19 C :   -0.029596
  20 O :   -0.315007
  21 H :    0.111121
  22 H :    0.119301
  23 O :   -0.408179
  24 H :    0.123280
  25 H :    0.105184
  26 H :    0.106190
  27 H :    0.106549
  28 H :    0.278258

  Mayer bond orders larger than 0.100000
B(  0-C ,  1-C ) :   0.9278 B(  0-C ,  4-O ) :   0.9405 B(  0-C ,  5-H ) :   0.9186
B(  0-C , 15-O ) :   0.8401 B(  1-C ,  2-C ) :   0.9529 B(  1-C ,  6-H ) :   0.9330
B(  1-C ,  7-H ) :   0.9291 B(  2-C ,  3-C ) :   0.9556 B(  2-C ,  8-H ) :   0.9451
B(  2-C ,  9-H ) :   0.9395 B(  3-C ,  4-O ) :   0.8332 B(  3-C , 10-H ) :   0.9344
B(  3-C , 11-H ) :   0.9400 B( 12-C , 13-H ) :   0.9040 B( 12-C , 14-H ) :   0.9337
B( 12-C , 15-O ) :   0.8680 B( 12-C , 16-C ) :   0.8863 B( 16-C , 17-C ) :   0.8692
B( 16-C , 20-O ) :   0.8725 B( 16-C , 21-H ) :   0.9245 B( 17-C , 18-C ) :   0.9257
B( 17-C , 22-H ) :   0.9321 B( 17-C , 23-O ) :   0.8948 B( 18-C , 19-C ) :   0.9391
B( 18-C , 24-H ) :   0.9411 B( 18-C , 25-H ) :   0.9407 B( 19-C , 20-O ) :   0.8479
B( 19-C , 26-H ) :   0.9308 B( 19-C , 27-H ) :   0.9374 B( 23-O , 28-H ) :   0.7986

FINAL SINGLE POINT ENERGY      -652.852901150247

DIPOLE MOMENT
-------------
                                X             Y             Z
Electronic contribution:     -0.09742      -2.28971       0.37997
Nuclear contribution   :     -0.35530       2.51332      -1.12694
                        -----------------------------------------
Total Dipole Moment    :     -0.45272       0.22360      -0.74697
                        -----------------------------------------
Magnitude (a.u.)       :      0.90162
Magnitude (Debye)      :      2.29173

Rotational constants in cm-1:     0.055075     0.013118     0.012240
Rotational constants in MHz :  1651.100445   393.258503   366.953642

                             ****ORCA TERMINATED NORMALLY****
TOTAL RUN TIME: 0 days 0 hours 56 minutes 15 seconds 464 msec
