                         Program Version 4.2.0 -  RELEASE  -
|  1> # Test redundant internal optimization
|  2> #
|  3> ! RKS B3LYP  Opt TightSCF SmallPrint
|  4>
|  5> %basis
|  6>         Basis "6-31G"
|  7> end
|  8>
|  9> %geom
| 10> Constraints
| 11> { D 4  0  15  12  135.0   C } # D for Dihedral angle
| 12> { D 0  15  12  16  240.0   C } # D for Dihedral angle
| 13> { D 0  4  3  2   C } # D for Dihedral angle
| 14> { D 4  3  2  1   C } # D for Dihedral angle
| 15> { D 3  2  1  0   C } # D for Dihedral angle
| 16> { D 2  1  0  4   C } # D for Dihedral angle
| 17> { D 1  0  4  3   C } # D for Dihedral angle
| 18> { D 16  20  19  18   C } # D for Dihedral angle
| 19> { D 20  19  18  17   C } # D for Dihedral angle
| 20> { D 19  18  17  16   C } # D for Dihedral angle
| 21> { D 18  17  16  20   C } # D for Dihedral angle
| 22> { D 17  16  20  19   C } # D for Dihedral angle
| 23> { D 15  12  16  20   C } # D for Dihedral angle
| 24> end
| 25> end
| 26>
| 27>
| 28> #%pal
| 29> #nprocs 8
| 30> #end
| 31>
| 32> * xyz 0 1
| 33> C  -21.048   26.222   46.251
| 34> C  -20.361   27.558   45.944
| 35> C  -20.329   28.222   47.341
| 36> C  -20.110   27.022   48.296
| 37> O  -20.473   25.807   47.535
| 38> H  -20.833   25.428   45.533
| 39> H  -19.344   27.382   45.576
| 40> H  -20.898   28.157   45.201
| 41> H  -19.543   28.978   47.434
| 42> H  -21.289   28.710   47.548
| 43> H  -20.733   27.082   49.195
| 44> H  -19.064   26.913   48.597
| 45> C  -23.162   27.680   45.721
| 46> H  -22.344   28.251   45.264
| 47> H  -23.881   27.421   44.933
| 48> O  -22.586   26.394   46.375
| 49> C  -23.889   28.599   46.741
| 50> C  -24.543   29.797   46.043
| 51> C  -25.829   29.160   45.465
| 52> C  -26.220   28.118   46.543
| 53> O  -25.011   27.887   47.363
| 54> H  -23.195   28.865   47.541
| 55> H  -24.791   30.571   46.777
| 56> O  -23.642   30.431   44.948
| 57> H  -26.623   29.893   45.287
| 58> H  -25.609   28.665   44.512
| 59> H  -26.545   27.166   46.108
| 60> H  -27.000   28.485   47.216
| 61> H  -23.381   29.675   44.200
| 62> *
| 63>
| 64>                          ****END OF INPUT****
 Total Charge           Charge          ....    0
 Multiplicity           Mult            ....    1
 Number of Electrons    NEL             ....  102
FINAL SINGLE POINT ENERGY      -652.807605632381
FINAL SINGLE POINT ENERGY      -652.831525189350
FINAL SINGLE POINT ENERGY      -652.842043850491
FINAL SINGLE POINT ENERGY      -652.844169558790
FINAL SINGLE POINT ENERGY      -652.844691439890
FINAL SINGLE POINT ENERGY      -652.844814672553
FINAL SINGLE POINT ENERGY      -652.844837523670
FINAL SINGLE POINT ENERGY      -652.844844811920
FINAL SINGLE POINT ENERGY      -652.844846035711
                    ***********************HURRAY********************

CARTESIAN COORDINATES (ANGSTROEM)
---------------------------------
  C    -21.082095   26.291632   46.272230
  C    -20.143585   27.461327   45.967917
  C    -20.119394   28.219246   47.322701
  C    -20.208300   27.069139   48.351284
  O    -20.714674   25.893761   47.604132
  H    -20.922894   25.412696   45.643347
  H    -19.154852   27.045133   45.745745
  H    -20.434570   28.087076   45.121034
  H    -19.212275   28.818645   47.445580
  H    -20.978327   28.893121   47.403203
  H    -20.892168   27.283368   49.176851
  H    -19.230858   26.789346   48.755043
  C    -23.121648   27.712422   45.618176
  H    -22.381727   28.359821   45.133808
  H    -23.800258   27.330069   44.843349
  O    -22.516997   26.558253   46.251534
  C    -23.892590   28.549113   46.643078
  C    -24.601534   29.770488   46.033765
  C    -25.923597   29.141317   45.499547
  C    -26.231705   28.056016   46.555130
  O    -24.967587   27.807152   47.292401
  H    -23.206900   28.833045   47.446878
  H    -24.815888   30.496544   46.820989
  O    -23.829519   30.507264   45.050968
  H    -26.723818   29.879516   45.398077
  H    -25.743506   28.698186   44.510550
  H    -26.577097   27.116842   46.112583
  H    -26.969837   28.391344   47.290119
  H    -23.877798   30.067117   44.177982

 Multiplicity           Mult            ....    1
 Number of Electrons    NEL             ....  102
 Basis Dimension        Dim             ....  149

ORBITAL ENERGIES
----------------

  NO   OCC          E(Eh)            E(eV)
   0   2.0000     -19.154212      -521.2126
   1   2.0000     -19.136130      -520.7206
   2   2.0000     -19.133858      -520.6587
   3   2.0000     -19.132275      -520.6157
   4   2.0000     -10.277020      -279.6519
   5   2.0000     -10.247819      -278.8573
   6   2.0000     -10.232034      -278.4278
   7   2.0000     -10.230867      -278.3960
   8   2.0000     -10.230261      -278.3796
   9   2.0000     -10.222540      -278.1695
  10   2.0000     -10.198820      -277.5240
  11   2.0000     -10.192002      -277.3385
  12   2.0000     -10.190256      -277.2910
  13   2.0000      -1.045902       -28.4604
  14   2.0000      -1.035735       -28.1838
  15   2.0000      -1.016321       -27.6555
  16   2.0000      -0.986955       -26.8564
  17   2.0000      -0.787551       -21.4303
  18   2.0000      -0.784820       -21.3560
  19   2.0000      -0.769589       -20.9416
  20   2.0000      -0.731816       -19.9137
  21   2.0000      -0.684317       -18.6212
  22   2.0000      -0.613976       -16.7071
  23   2.0000      -0.604394       -16.4464
  24   2.0000      -0.593138       -16.1401
  25   2.0000      -0.569415       -15.4946
  26   2.0000      -0.524179       -14.2636
  27   2.0000      -0.514463       -13.9992
  28   2.0000      -0.502629       -13.6772
  29   2.0000      -0.499138       -13.5822
  30   2.0000      -0.465235       -12.6597
  31   2.0000      -0.451787       -12.2938
  32   2.0000      -0.448931       -12.2160
  33   2.0000      -0.433668       -11.8007
  34   2.0000      -0.430451       -11.7132
  35   2.0000      -0.424817       -11.5598
  36   2.0000      -0.410096       -11.1593
  37   2.0000      -0.398731       -10.8500
  38   2.0000      -0.379690       -10.3319
  39   2.0000      -0.376370       -10.2416
  40   2.0000      -0.359780        -9.7901
  41   2.0000      -0.355212        -9.6658
  42   2.0000      -0.352223        -9.5845
  43   2.0000      -0.331005        -9.0071
  44   2.0000      -0.319250        -8.6872
  45   2.0000      -0.307962        -8.3801
  46   2.0000      -0.286451        -7.7947
  47   2.0000      -0.274358        -7.4657
  48   2.0000      -0.265319        -7.2197
  49   2.0000      -0.248542        -6.7632
  50   2.0000      -0.232753        -6.3335
  51   0.0000       0.046292         1.2597
  52   0.0000       0.073767         2.0073
  53   0.0000       0.079933         2.1751
  54   0.0000       0.087787         2.3888
  55   0.0000       0.100533         2.7357

MULLIKEN ATOMIC CHARGES
-----------------------
   0 C :    0.318757
   1 C :   -0.304440
   2 C :   -0.307940
   3 C :   -0.001412
   4 O :   -0.492266
   5 H :    0.151535
   6 H :    0.155260
   7 H :    0.145392
   8 H :    0.145353
   9 H :    0.155218
  10 H :    0.154425
  11 H :    0.142656
  12 C :   -0.017509
  13 H :    0.126719
  14 H :    0.132875
  15 O :   -0.514866
  16 C :    0.097040
  17 C :    0.078921
  18 C :   -0.330364
  19 C :   -0.008596
  20 O :   -0.500035
  21 H :    0.157820
  22 H :    0.169351
  23 O :   -0.602246
  24 H :    0.160105
  25 H :    0.132575
  26 H :    0.148892
  27 H :    0.150192
  28 H :    0.356588
Sum of atomic charges:   -0.0000000

LOEWDIN ATOMIC CHARGES
----------------------
   0 C :    0.184989
   1 C :   -0.233645
   2 C :   -0.219260
   3 C :   -0.028585
   4 O :   -0.306917
   5 H :    0.102156
   6 H :    0.122018
   7 H :    0.113514
   8 H :    0.116168
   9 H :    0.110833
  10 H :    0.109035
  11 H :    0.103101
  12 C :   -0.049336
  13 H :    0.097519
  14 H :    0.097403
  15 O :   -0.322726
  16 C :    0.015559
  17 C :    0.031998
  18 C :   -0.242589
  19 C :   -0.029218
  20 O :   -0.309529
  21 H :    0.112084
  22 H :    0.119803
  23 O :   -0.411062
  24 H :    0.123226
  25 H :    0.103372
  26 H :    0.105672
  27 H :    0.106375
  28 H :    0.278044

  Mayer bond orders larger than 0.100000
B(  0-C ,  1-C ) :   0.9298 B(  0-C ,  4-O ) :   0.9247 B(  0-C ,  5-H ) :   0.9294
B(  0-C , 15-O ) :   0.8618 B(  1-C ,  2-C ) :   0.9509 B(  1-C ,  6-H ) :   0.9331
B(  1-C ,  7-H ) :   0.9257 B(  2-C ,  3-C ) :   0.9517 B(  2-C ,  8-H ) :   0.9456
B(  2-C ,  9-H ) :   0.9366 B(  3-C ,  4-O ) :   0.8426 B(  3-C , 10-H ) :   0.9331
B(  3-C , 11-H ) :   0.9393 B( 12-C , 13-H ) :   0.8910 B( 12-C , 14-H ) :   0.9294
B( 12-C , 15-O ) :   0.8602 B( 12-C , 16-C ) :   0.8948 B( 16-C , 17-C ) :   0.8683
B( 16-C , 20-O ) :   0.8728 B( 16-C , 21-H ) :   0.9241 B( 17-C , 18-C ) :   0.9291
B( 17-C , 22-H ) :   0.9313 B( 17-C , 23-O ) :   0.8903 B( 18-C , 19-C ) :   0.9378
B( 18-C , 24-H ) :   0.9408 B( 18-C , 25-H ) :   0.9398 B( 19-C , 20-O ) :   0.8525
B( 19-C , 26-H ) :   0.9309 B( 19-C , 27-H ) :   0.9369 B( 23-O , 28-H ) :   0.7988

FINAL SINGLE POINT ENERGY      -652.844846328223

DIPOLE MOMENT
-------------
                                X             Y             Z
Electronic contribution:     -1.05559      -3.25972       1.38890
Nuclear contribution   :      1.06377       4.30433      -2.57575
                        -----------------------------------------
Total Dipole Moment    :      0.00818       1.04461      -1.18685
                        -----------------------------------------
Magnitude (a.u.)       :      1.58111
Magnitude (Debye)      :      4.01885

Rotational constants in cm-1:     0.050094     0.014458     0.013064
Rotational constants in MHz :  1501.789780   433.433406   391.655555

                             ****ORCA TERMINATED NORMALLY****
TOTAL RUN TIME: 0 days 0 hours 28 minutes 17 seconds 429 msec
