                         Program Version 4.2.0 -  RELEASE  -
|  1> # Test redundant internal optimization
|  2> #
|  3> ! RKS B3LYP  Opt TightSCF SmallPrint
|  4>
|  5> %basis
|  6>         Basis "6-31G"
|  7> end
|  8>
|  9> %geom
| 10> Constraints
| 11> { D 4  0  15  12  270.0   C } # D for Dihedral angle
| 12> { D 0  15  12  16  105.0   C } # D for Dihedral angle
| 13> { D 0  4  3  2   C } # D for Dihedral angle
| 14> { D 4  3  2  1   C } # D for Dihedral angle
| 15> { D 3  2  1  0   C } # D for Dihedral angle
| 16> { D 2  1  0  4   C } # D for Dihedral angle
| 17> { D 1  0  4  3   C } # D for Dihedral angle
| 18> { D 16  20  19  18   C } # D for Dihedral angle
| 19> { D 20  19  18  17   C } # D for Dihedral angle
| 20> { D 19  18  17  16   C } # D for Dihedral angle
| 21> { D 18  17  16  20   C } # D for Dihedral angle
| 22> { D 17  16  20  19   C } # D for Dihedral angle
| 23> { D 15  12  16  20   C } # D for Dihedral angle
| 24> end
| 25> end
| 26>
| 27>
| 28> #%pal
| 29> #nprocs 8
| 30> #end
| 31>
| 32> * xyz 0 1
| 33> C  -21.048   26.222   46.251
| 34> C  -20.361   27.558   45.944
| 35> C  -20.329   28.222   47.341
| 36> C  -20.110   27.022   48.296
| 37> O  -20.473   25.807   47.535
| 38> H  -20.833   25.428   45.533
| 39> H  -19.344   27.382   45.576
| 40> H  -20.898   28.157   45.201
| 41> H  -19.543   28.978   47.434
| 42> H  -21.289   28.710   47.548
| 43> H  -20.733   27.082   49.195
| 44> H  -19.064   26.913   48.597
| 45> C  -23.420   25.119   46.072
| 46> H  -24.261   25.383   45.420
| 47> H  -22.805   24.372   45.553
| 48> O  -22.586   26.394   46.375
| 49> C  -23.987   24.453   47.357
| 50> C  -24.995   25.370   48.059
| 51> C  -26.265   25.155   47.201
| 52> C  -26.170   23.661   46.800
| 53> O  -24.764   23.257   47.014
| 54> H  -23.158   24.126   47.986
| 55> H  -25.161   25.028   49.087
| 56> O  -24.542   26.855   48.104
| 57> H  -27.188   25.384   47.744
| 58> H  -26.231   25.797   46.313
| 59> H  -26.437   23.491   45.752
| 60> H  -26.790   23.020   47.432
| 61> H  -24.370   27.218   47.085
| 62> *
| 63>
| 64>                          ****END OF INPUT****
 Total Charge           Charge          ....    0
 Multiplicity           Mult            ....    1
 Number of Electrons    NEL             ....  102
FINAL SINGLE POINT ENERGY      -652.835142075820
FINAL SINGLE POINT ENERGY      -652.860176680082
FINAL SINGLE POINT ENERGY      -652.866479602901
FINAL SINGLE POINT ENERGY      -652.868627113979
FINAL SINGLE POINT ENERGY      -652.869802847690
FINAL SINGLE POINT ENERGY      -652.870458945107
FINAL SINGLE POINT ENERGY      -652.870657422880
FINAL SINGLE POINT ENERGY      -652.870703249113
FINAL SINGLE POINT ENERGY      -652.870707113657
                    ***********************HURRAY********************

CARTESIAN COORDINATES (ANGSTROEM)
---------------------------------
  C    -21.074773   26.131465   46.225791
  C    -20.483335   27.514475   45.952983
  C    -20.567385   28.177036   47.348452
  C    -20.299946   26.998979   48.311086
  O    -20.538220   25.764910   47.513448
  H    -20.799099   25.338930   45.525081
  H    -19.440889   27.401331   45.634795
  H    -21.034596   28.055081   45.181219
  H    -19.841550   28.986193   47.472158
  H    -21.567860   28.590391   47.508295
  H    -20.970181   26.989528   49.173785
  H    -19.262428   26.952733   48.653042
  C    -23.327764   25.069291   45.981365
  H    -24.111858   25.384001   45.286280
  H    -22.716006   24.298503   45.498425
  O    -22.517637   26.261277   46.267641
  C    -23.913321   24.520726   47.288421
  C    -24.882095   25.472493   48.010518
  C    -26.195032   25.259453   47.201514
  C    -26.139939   23.762816   46.831464
  O    -24.718782   23.335347   47.002389
  H    -23.090930   24.201763   47.934727
  H    -25.024995   25.114907   49.036024
  O    -24.465741   26.851003   48.095163
  H    -27.079928   25.519305   47.789112
  H    -26.179551   25.905922   46.317220
  H    -26.446515   23.558207   45.800827
  H    -26.734724   23.139738   47.505331
  H    -23.729919   27.008197   47.458445

 Multiplicity           Mult            ....    1
 Number of Electrons    NEL             ....  102
 Basis Dimension        Dim             ....  149

ORBITAL ENERGIES
----------------

  NO   OCC          E(Eh)            E(eV)
   0   2.0000     -19.164941      -521.5045
   1   2.0000     -19.148261      -521.0507
   2   2.0000     -19.137843      -520.7672
   3   2.0000     -19.113903      -520.1157
   4   2.0000     -10.292175      -280.0643
   5   2.0000     -10.238983      -278.6169
   6   2.0000     -10.230420      -278.3839
   7   2.0000     -10.229153      -278.3494
   8   2.0000     -10.228941      -278.3436
   9   2.0000     -10.224833      -278.2319
  10   2.0000     -10.193556      -277.3807
  11   2.0000     -10.191938      -277.3367
  12   2.0000     -10.178195      -276.9628
  13   2.0000      -1.066109       -29.0103
  14   2.0000      -1.023047       -27.8385
  15   2.0000      -1.006567       -27.3901
  16   2.0000      -0.992175       -26.9985
  17   2.0000      -0.796019       -21.6608
  18   2.0000      -0.771091       -20.9825
  19   2.0000      -0.765938       -20.8422
  20   2.0000      -0.735024       -20.0010
  21   2.0000      -0.678740       -18.4695
  22   2.0000      -0.605702       -16.4820
  23   2.0000      -0.600541       -16.3415
  24   2.0000      -0.594181       -16.1685
  25   2.0000      -0.582514       -15.8510
  26   2.0000      -0.526154       -14.3174
  27   2.0000      -0.522744       -14.2246
  28   2.0000      -0.496762       -13.5176
  29   2.0000      -0.486783       -13.2460
  30   2.0000      -0.471639       -12.8339
  31   2.0000      -0.456993       -12.4354
  32   2.0000      -0.442853       -12.0506
  33   2.0000      -0.438822       -11.9409
  34   2.0000      -0.423956       -11.5364
  35   2.0000      -0.413635       -11.2556
  36   2.0000      -0.406955       -11.0738
  37   2.0000      -0.387671       -10.5491
  38   2.0000      -0.381331       -10.3765
  39   2.0000      -0.364953        -9.9309
  40   2.0000      -0.362960        -9.8766
  41   2.0000      -0.356321        -9.6960
  42   2.0000      -0.348090        -9.4720
  43   2.0000      -0.343072        -9.3355
  44   2.0000      -0.330300        -8.9879
  45   2.0000      -0.315904        -8.5962
  46   2.0000      -0.291978        -7.9451
  47   2.0000      -0.281429        -7.6581
  48   2.0000      -0.262385        -7.1399
  49   2.0000      -0.246995        -6.7211
  50   2.0000      -0.238699        -6.4953
  51   0.0000       0.055663         1.5147
  52   0.0000       0.084322         2.2945
  53   0.0000       0.092503         2.5171
  54   0.0000       0.097590         2.6555
  55   0.0000       0.104182         2.8349

MULLIKEN ATOMIC CHARGES
-----------------------
   0 C :    0.290057
   1 C :   -0.258472
   2 C :   -0.306362
   3 C :   -0.010358
   4 O :   -0.504392
   5 H :    0.151143
   6 H :    0.150811
   7 H :    0.156413
   8 H :    0.147232
   9 H :    0.165537
  10 H :    0.162238
  11 H :    0.146835
  12 C :   -0.036886
  13 H :    0.155498
  14 H :    0.157239
  15 O :   -0.552296
  16 C :    0.057156
  17 C :    0.113962
  18 C :   -0.302185
  19 C :   -0.017413
  20 O :   -0.521914
  21 H :    0.173819
  22 H :    0.149926
  23 O :   -0.645701
  24 H :    0.149300
  25 H :    0.144810
  26 H :    0.137365
  27 H :    0.150504
  28 H :    0.396135
Sum of atomic charges:   -0.0000000

LOEWDIN ATOMIC CHARGES
----------------------
   0 C :    0.175407
   1 C :   -0.216286
   2 C :   -0.216620
   3 C :   -0.028875
   4 O :   -0.323997
   5 H :    0.103609
   6 H :    0.117263
   7 H :    0.123738
   8 H :    0.117000
   9 H :    0.119192
  10 H :    0.112650
  11 H :    0.105529
  12 C :   -0.043737
  13 H :    0.109881
  14 H :    0.112940
  15 O :   -0.335585
  16 C :    0.009086
  17 C :    0.041385
  18 C :   -0.237809
  19 C :   -0.032175
  20 O :   -0.325635
  21 H :    0.121746
  22 H :    0.106508
  23 O :   -0.436843
  24 H :    0.120453
  25 H :    0.110850
  26 H :    0.100119
  27 H :    0.106374
  28 H :    0.283830

  Mayer bond orders larger than 0.100000
B(  0-C ,  1-C ) :   0.9495 B(  0-C ,  4-O ) :   0.9314 B(  0-C ,  5-H ) :   0.9187
B(  0-C , 15-O ) :   0.8154 B(  1-C ,  2-C ) :   0.9551 B(  1-C ,  6-H ) :   0.9381
B(  1-C ,  7-H ) :   0.9362 B(  2-C ,  3-C ) :   0.9525 B(  2-C ,  8-H ) :   0.9449
B(  2-C ,  9-H ) :   0.9429 B(  3-C ,  4-O ) :   0.8289 B(  3-C , 10-H ) :   0.9327
B(  3-C , 11-H ) :   0.9398 B( 12-C , 13-H ) :   0.9351 B( 12-C , 14-H ) :   0.9254
B( 12-C , 15-O ) :   0.7934 B( 12-C , 16-C ) :   0.8921 B( 16-C , 17-C ) :   0.9152
B( 16-C , 20-O ) :   0.8499 B( 16-C , 21-H ) :   0.9239 B( 17-C , 18-C ) :   0.9029
B( 17-C , 22-H ) :   0.9307 B( 17-C , 23-O ) :   0.9314 B( 18-C , 19-C ) :   0.9398
B( 18-C , 24-H ) :   0.9452 B( 18-C , 25-H ) :   0.9432 B( 19-C , 20-O ) :   0.8341
B( 19-C , 26-H ) :   0.9351 B( 19-C , 27-H ) :   0.9383 B( 23-O , 28-H ) :   0.7200

FINAL SINGLE POINT ENERGY      -652.870708285305

DIPOLE MOMENT
-------------
                                X             Y             Z
Electronic contribution:      0.28958      -3.15868       0.65262
Nuclear contribution   :      0.16581       3.69591      -1.45141
                        -----------------------------------------
Total Dipole Moment    :      0.45539       0.53723      -0.79880
                        -----------------------------------------
Magnitude (a.u.)       :      1.06493
Magnitude (Debye)      :      2.70683

Rotational constants in cm-1:     0.058539     0.014276     0.013378
Rotational constants in MHz :  1754.957670   427.979401   401.064458

                             ****ORCA TERMINATED NORMALLY****
TOTAL RUN TIME: 0 days 0 hours 29 minutes 18 seconds 944 msec
