                         Program Version 4.2.0 -  RELEASE  -
|  1> # Test redundant internal optimization
|  2> #
|  3> ! RKS B3LYP  Opt TightSCF SmallPrint
|  4>
|  5> %basis
|  6>         Basis "6-31G"
|  7> end
|  8>
|  9> %geom
| 10> Constraints
| 11> { D 4  0  15  12  255.0   C } # D for Dihedral angle
| 12> { D 0  15  12  16  180.0   C } # D for Dihedral angle
| 13> { D 0  4  3  2   C } # D for Dihedral angle
| 14> { D 4  3  2  1   C } # D for Dihedral angle
| 15> { D 3  2  1  0   C } # D for Dihedral angle
| 16> { D 2  1  0  4   C } # D for Dihedral angle
| 17> { D 1  0  4  3   C } # D for Dihedral angle
| 18> { D 16  20  19  18   C } # D for Dihedral angle
| 19> { D 20  19  18  17   C } # D for Dihedral angle
| 20> { D 19  18  17  16   C } # D for Dihedral angle
| 21> { D 18  17  16  20   C } # D for Dihedral angle
| 22> { D 17  16  20  19   C } # D for Dihedral angle
| 23> { D 15  12  16  20   C } # D for Dihedral angle
| 24> end
| 25> end
| 26>
| 27>
| 28> #%pal
| 29> #nprocs 8
| 30> #end
| 31>
| 32> * xyz 0 1
| 33> C  -21.048   26.222   46.251
| 34> C  -20.361   27.558   45.944
| 35> C  -20.329   28.222   47.341
| 36> C  -20.110   27.022   48.296
| 37> O  -20.473   25.807   47.535
| 38> H  -20.833   25.428   45.533
| 39> H  -19.344   27.382   45.576
| 40> H  -20.898   28.157   45.201
| 41> H  -19.543   28.978   47.434
| 42> H  -21.289   28.710   47.548
| 43> H  -20.733   27.082   49.195
| 44> H  -19.064   26.913   48.597
| 45> C  -23.431   25.260   45.734
| 46> H  -23.200   25.197   44.663
| 47> H  -23.189   24.293   46.194
| 48> O  -22.586   26.394   46.375
| 49> C  -24.960   25.488   45.890
| 50> C  -25.417   26.736   45.127
| 51> C  -25.489   26.208   43.675
| 52> C  -25.967   24.745   43.856
| 53> O  -25.709   24.391   45.268
| 54> H  -25.215   25.488   46.951
| 55> O  -26.823   27.177   45.620
| 56> H  -24.732   27.584   45.238
| 57> H  -26.165   26.792   43.043
| 58> H  -24.493   26.235   43.215
| 59> H  -25.431   24.045   43.207
| 60> H  -27.041   24.633   43.687
| 61> H  -27.527   26.343   45.518
| 62> *
| 63>
| 64>                          ****END OF INPUT****
 Total Charge           Charge          ....    0
 Multiplicity           Mult            ....    1
 Number of Electrons    NEL             ....  102
FINAL SINGLE POINT ENERGY      -652.837891175587
FINAL SINGLE POINT ENERGY      -652.861485441284
FINAL SINGLE POINT ENERGY      -652.865190834109
FINAL SINGLE POINT ENERGY      -652.865854799213
FINAL SINGLE POINT ENERGY      -652.865941826521
FINAL SINGLE POINT ENERGY      -652.865951617006
                    ***********************HURRAY********************

CARTESIAN COORDINATES (ANGSTROEM)
---------------------------------
  C    -21.095267   26.131386   46.207234
  C    -20.510664   27.511733   45.907461
  C    -20.585755   28.197537   47.292607
  C    -20.306448   27.034267   48.269838
  O    -20.546009   25.789278   47.497309
  H    -20.809931   25.332989   45.516704
  H    -19.469515   27.402693   45.581633
  H    -21.071701   28.038699   45.132817
  H    -19.865397   29.014084   47.398587
  H    -21.591327   28.598916   47.449151
  H    -20.965788   27.038520   49.141308
  H    -19.265069   26.999315   48.603612
  C    -23.308545   25.164031   45.690887
  H    -23.059726   25.042201   44.626557
  H    -23.096684   24.219569   46.206571
  O    -22.537551   26.256614   46.267244
  C    -24.783007   25.514240   45.868826
  C    -25.244908   26.779935   45.132585
  C    -25.434517   26.251643   43.687733
  C    -25.952885   24.807638   43.904303
  O    -25.612315   24.443771   45.303035
  H    -25.015000   25.576688   46.935431
  O    -26.493723   27.275238   45.690920
  H    -24.535492   27.601657   45.213423
  H    -26.139094   26.879326   43.136387
  H    -24.478673   26.256022   43.152817
  H    -25.492216   24.082480   43.226551
  H    -27.040553   24.732443   43.808899
  H    -27.092240   26.517087   45.861570

 Multiplicity           Mult            ....    1
 Number of Electrons    NEL             ....  102
 Basis Dimension        Dim             ....  149

ORBITAL ENERGIES
----------------

  NO   OCC          E(Eh)            E(eV)
   0   2.0000     -19.146581      -521.0050
   1   2.0000     -19.145333      -520.9710
   2   2.0000     -19.138592      -520.7876
   3   2.0000     -19.134966      -520.6889
   4   2.0000     -10.281138      -279.7640
   5   2.0000     -10.236134      -278.5394
   6   2.0000     -10.233481      -278.4672
   7   2.0000     -10.232774      -278.4479
   8   2.0000     -10.232723      -278.4466
   9   2.0000     -10.223973      -278.2084
  10   2.0000     -10.188674      -277.2479
  11   2.0000     -10.186316      -277.1838
  12   2.0000     -10.185041      -277.1490
  13   2.0000      -1.054233       -28.6871
  14   2.0000      -1.036086       -28.1933
  15   2.0000      -1.004230       -27.3265
  16   2.0000      -0.996678       -27.1210
  17   2.0000      -0.789753       -21.4903
  18   2.0000      -0.778947       -21.1962
  19   2.0000      -0.768166       -20.9029
  20   2.0000      -0.729473       -19.8500
  21   2.0000      -0.674629       -18.3576
  22   2.0000      -0.604590       -16.4517
  23   2.0000      -0.598309       -16.2808
  24   2.0000      -0.589217       -16.0334
  25   2.0000      -0.586561       -15.9611
  26   2.0000      -0.521927       -14.2023
  27   2.0000      -0.520841       -14.1728
  28   2.0000      -0.496653       -13.5146
  29   2.0000      -0.488453       -13.2915
  30   2.0000      -0.469678       -12.7806
  31   2.0000      -0.456702       -12.4275
  32   2.0000      -0.451949       -12.2982
  33   2.0000      -0.439032       -11.9467
  34   2.0000      -0.426528       -11.6064
  35   2.0000      -0.412932       -11.2364
  36   2.0000      -0.401654       -10.9296
  37   2.0000      -0.392509       -10.6807
  38   2.0000      -0.375184       -10.2093
  39   2.0000      -0.367664       -10.0046
  40   2.0000      -0.360216        -9.8020
  41   2.0000      -0.356137        -9.6910
  42   2.0000      -0.350122        -9.5273
  43   2.0000      -0.331574        -9.0226
  44   2.0000      -0.320842        -8.7306
  45   2.0000      -0.309338        -8.4175
  46   2.0000      -0.304358        -8.2820
  47   2.0000      -0.273281        -7.4364
  48   2.0000      -0.265598        -7.2273
  49   2.0000      -0.251722        -6.8497
  50   2.0000      -0.245889        -6.6910
  51   0.0000       0.063836         1.7371
  52   0.0000       0.075310         2.0493
  53   0.0000       0.094698         2.5769
  54   0.0000       0.096638         2.6296
  55   0.0000       0.105417         2.8685

MULLIKEN ATOMIC CHARGES
-----------------------
   0 C :    0.286829
   1 C :   -0.253795
   2 C :   -0.300264
   3 C :   -0.001091
   4 O :   -0.503852
   5 H :    0.142062
   6 H :    0.144134
   7 H :    0.146401
   8 H :    0.141473
   9 H :    0.165119
  10 H :    0.151968
  11 H :    0.141323
  12 C :   -0.003088
  13 H :    0.124171
  14 H :    0.159540
  15 O :   -0.527673
  16 C :    0.052711
  17 C :    0.088961
  18 C :   -0.304735
  19 C :   -0.032811
  20 O :   -0.526466
  21 H :    0.172179
  22 O :   -0.602909
  23 H :    0.172455
  24 H :    0.164704
  25 H :    0.143900
  26 H :    0.146617
  27 H :    0.149041
  28 H :    0.363096
Sum of atomic charges:    0.0000000

LOEWDIN ATOMIC CHARGES
----------------------
   0 C :    0.175238
   1 C :   -0.218318
   2 C :   -0.216183
   3 C :   -0.026524
   4 O :   -0.321028
   5 H :    0.099880
   6 H :    0.113142
   7 H :    0.118459
   8 H :    0.113986
   9 H :    0.120444
  10 H :    0.108037
  11 H :    0.102172
  12 C :   -0.037692
  13 H :    0.089001
  14 H :    0.110891
  15 O :   -0.336312
  16 C :    0.018138
  17 C :    0.037793
  18 C :   -0.243641
  19 C :   -0.039169
  20 O :   -0.330097
  21 H :    0.121485
  22 O :   -0.414666
  23 H :    0.125308
  24 H :    0.127480
  25 H :    0.112718
  26 H :    0.103939
  27 H :    0.103706
  28 H :    0.281814

  Mayer bond orders larger than 0.100000
B(  0-C ,  1-C ) :   0.9450 B(  0-C ,  4-O ) :   0.9287 B(  0-C ,  5-H ) :   0.9206
B(  0-C , 15-O ) :   0.8404 B(  1-C ,  2-C ) :   0.9576 B(  1-C ,  6-H ) :   0.9383
B(  1-C ,  7-H ) :   0.9382 B(  2-C ,  3-C ) :   0.9542 B(  2-C ,  8-H ) :   0.9452
B(  2-C ,  9-H ) :   0.9434 B(  3-C ,  4-O ) :   0.8367 B(  3-C , 10-H ) :   0.9349
B(  3-C , 11-H ) :   0.9400 B( 12-C , 13-H ) :   0.9191 B( 12-C , 14-H ) :   0.9150
B( 12-C , 15-O ) :   0.8262 B( 12-C , 16-C ) :   0.9097 B( 16-C , 17-C ) :   0.9130
B( 16-C , 20-O ) :   0.8429 B( 16-C , 21-H ) :   0.9240 B( 17-C , 18-C ) :   0.9124
B( 17-C , 22-O ) :   0.8899 B( 17-C , 23-H ) :   0.9242 B( 18-C , 19-C ) :   0.9439
B( 18-C , 24-H ) :   0.9368 B( 18-C , 25-H ) :   0.9344 B( 19-C , 20-O ) :   0.8442
B( 19-C , 26-H ) :   0.9351 B( 19-C , 27-H ) :   0.9378 B( 22-O , 28-H ) :   0.7955

FINAL SINGLE POINT ENERGY      -652.865953659622

DIPOLE MOMENT
-------------
                                X             Y             Z
Electronic contribution:     -2.84195      -3.03576       2.35194
Nuclear contribution   :      3.40451       3.32292      -3.29424
                        -----------------------------------------
Total Dipole Moment    :      0.56256       0.28716      -0.94230
                        -----------------------------------------
Magnitude (a.u.)       :      1.13440
Magnitude (Debye)      :      2.88341

Rotational constants in cm-1:     0.058094     0.011998     0.011401
Rotational constants in MHz :  1741.619481   359.682155   341.807483

                             ****ORCA TERMINATED NORMALLY****
TOTAL RUN TIME: 0 days 0 hours 42 minutes 36 seconds 342 msec
