                         Program Version 4.2.1 -  RELEASE  -
|  1> # Test redundant internal optimization
|  2> #
|  3> ! RKS B3LYP  Opt TightSCF SmallPrint
|  4>
|  5> %basis
|  6>         Basis "6-31G"
|  7> end
|  8>
|  9> %geom
| 10> Constraints
| 11> { D 4  0  19  14  315.0   C } # D for Dihedral angle
| 12> { D 0  19  14  12  285.0   C } # D for Dihedral angle
| 13> { D 0  4  3  2   C } # D for Dihedral angle
| 14> { D 4  3  2  1   C } # D for Dihedral angle
| 15> { D 3  2  1  0   C } # D for Dihedral angle
| 16> { D 2  1  0  4   C } # D for Dihedral angle
| 17> { D 1  0  4  3   C } # D for Dihedral angle
| 18> { D 14  15  16  17   C } # D for Dihedral angle
| 19> { D 15  16  17  12   C } # D for Dihedral angle
| 20> { D 16  17  12  14   C } # D for Dihedral angle
| 21> { D 17  12  14  15   C } # D for Dihedral angle
| 22> { D 12  14  15  16   C } # D for Dihedral angle
| 23> end
| 24> end
| 25>
| 26>
| 27> #%pal
| 28> #nprocs 8
| 29> #end
| 30>
| 31> * xyz 0 1
| 32> C  -21.048   26.222   46.251
| 33> C  -20.361   27.558   45.944
| 34> C  -20.329   28.222   47.341
| 35> C  -20.110   27.022   48.296
| 36> O  -20.473   25.807   47.535
| 37> H  -20.833   25.428   45.533
| 38> H  -19.344   27.382   45.576
| 39> H  -20.898   28.157   45.201
| 40> H  -19.543   28.978   47.434
| 41> H  -21.289   28.710   47.548
| 42> H  -20.733   27.082   49.195
| 43> H  -19.064   26.913   48.597
| 44> C  -23.218   24.072   46.183
| 45> H  -23.957   23.353   46.571
| 46> C  -23.132   25.318   47.072
| 47> C  -22.254   24.810   48.239
| 48> C  -21.269   23.838   47.543
| 49> O  -21.869   23.497   46.235
| 50> H  -23.437   24.278   45.134
| 51> O  -22.472   26.381   46.366
| 52> H  -24.112   25.678   47.402
| 53> H  -21.739   25.619   48.767
| 54> H  -22.872   24.274   48.971
| 55> H  -21.111   22.918   48.116
| 56> H  -20.298   24.301   47.341
| 57> *
| 58>
| 59>                          ****END OF INPUT****
 Total Charge           Charge          ....    0
 Multiplicity           Mult            ....    1
 Number of Electrons    NEL             ....   86
FINAL SINGLE POINT ENERGY      -538.342692543820
FINAL SINGLE POINT ENERGY      -538.426888789125
FINAL SINGLE POINT ENERGY      -538.431039734890
FINAL SINGLE POINT ENERGY      -538.432077038006
FINAL SINGLE POINT ENERGY      -538.432232234376
FINAL SINGLE POINT ENERGY      -538.432269721047
FINAL SINGLE POINT ENERGY      -538.432280040963
FINAL SINGLE POINT ENERGY      -538.432285439817
                    ***********************HURRAY********************

CARTESIAN COORDINATES (ANGSTROEM)
---------------------------------
  C    -20.849587   26.355338   46.165017
  C    -20.463085   27.813141   45.911684
  C    -20.349483   28.363453   47.351572
  C    -19.787687   27.163704   48.146230
  O    -20.043353   25.963133   47.302310
  H    -20.585336   25.646724   45.375321
  H    -19.496428   27.843143   45.396330
  H    -21.208593   28.334991   45.308724
  H    -19.702112   29.242957   47.418385
  H    -21.343456   28.635795   47.717264
  H    -20.272785   27.026556   49.117257
  H    -18.704573   27.215039   48.290923
  C    -23.159562   24.011441   46.145749
  H    -24.069871   23.449335   46.405317
  C    -23.013013   25.244909   47.040640
  C    -22.444232   24.621815   48.329639
  C    -21.535017   23.478648   47.819869
  O    -21.959768   23.210648   46.414669
  H    -23.171436   24.256051   45.082384
  O    -22.280450   26.327707   46.380376
  H    -23.981049   25.719709   47.225739
  H    -21.909314   25.340744   48.951142
  H    -23.288390   24.225384   48.906918
  H    -21.658692   22.556137   48.398940
  H    -20.487726   23.771498   47.788603

 Multiplicity           Mult            ....    1
 Number of Electrons    NEL             ....   86
 Basis Dimension        Dim             ....  127

ORBITAL ENERGIES
----------------

  NO   OCC          E(Eh)            E(eV)
   0   2.0000     -19.146463      -521.0017
   1   2.0000     -19.138477      -520.7844
   2   2.0000     -19.123663      -520.3813
   3   2.0000     -10.276902      -279.6487
   4   2.0000     -10.237777      -278.5841
   5   2.0000     -10.230173      -278.3772
   6   2.0000     -10.215487      -277.9775
   7   2.0000     -10.207214      -277.7524
   8   2.0000     -10.187116      -277.2055
   9   2.0000     -10.184313      -277.1293
  10   2.0000     -10.181006      -277.0392
  11   2.0000      -1.051100       -28.6019
  12   2.0000      -1.005992       -27.3744
  13   2.0000      -0.986592       -26.8465
  14   2.0000      -0.793085       -21.5810
  15   2.0000      -0.774787       -21.0830
  16   2.0000      -0.737623       -20.0717
  17   2.0000      -0.717453       -19.5229
  18   2.0000      -0.618335       -16.8258
  19   2.0000      -0.599532       -16.3141
  20   2.0000      -0.591429       -16.0936
  21   2.0000      -0.561005       -15.2657
  22   2.0000      -0.514884       -14.0107
  23   2.0000      -0.497728       -13.5439
  24   2.0000      -0.484022       -13.1709
  25   2.0000      -0.482497       -13.1294
  26   2.0000      -0.446179       -12.1411
  27   2.0000      -0.443372       -12.0648
  28   2.0000      -0.414690       -11.2843
  29   2.0000      -0.413106       -11.2412
  30   2.0000      -0.399344       -10.8667
  31   2.0000      -0.388085       -10.5603
  32   2.0000      -0.371850       -10.1185
  33   2.0000      -0.365164        -9.9366
  34   2.0000      -0.359184        -9.7739
  35   2.0000      -0.351782        -9.5725
  36   2.0000      -0.338449        -9.2097
  37   2.0000      -0.325310        -8.8521
  38   2.0000      -0.301543        -8.2054
  39   2.0000      -0.295160        -8.0317
  40   2.0000      -0.260124        -7.0783
  41   2.0000      -0.259166        -7.0523
  42   2.0000      -0.225778        -6.1437
  43   0.0000       0.075201         2.0463
  44   0.0000       0.091526         2.4905
  45   0.0000       0.103103         2.8056
  46   0.0000       0.111872         3.0442
  47   0.0000       0.118665         3.2290

MULLIKEN ATOMIC CHARGES
-----------------------
   0 C :    0.305453
   1 C :   -0.259942
   2 C :   -0.299584
   3 C :   -0.014630
   4 O :   -0.516245
   5 H :    0.162893
   6 H :    0.146185
   7 H :    0.160706
   8 H :    0.142092
   9 H :    0.159757
  10 H :    0.139777
  11 H :    0.150496
  12 C :   -0.014426
  13 H :    0.122487
  14 C :    0.090071
  15 C :   -0.299504
  16 C :   -0.016641
  17 O :   -0.529312
  18 H :    0.158755
  19 O :   -0.541376
  20 H :    0.144861
  21 H :    0.154124
  22 H :    0.140058
  23 H :    0.126749
  24 H :    0.187196
Sum of atomic charges:   -0.0000000

LOEWDIN ATOMIC CHARGES
----------------------
   0 C :    0.180588
   1 C :   -0.214317
   2 C :   -0.216382
   3 C :   -0.032388
   4 O :   -0.320754
   5 H :    0.104480
   6 H :    0.114354
   7 H :    0.126446
   8 H :    0.114480
   9 H :    0.117962
  10 H :    0.099067
  11 H :    0.105986
  12 C :   -0.049655
  13 H :    0.091213
  14 C :    0.045412
  15 C :   -0.233318
  16 C :   -0.039124
  17 O :   -0.339689
  18 H :    0.116174
  19 O :   -0.334202
  20 H :    0.111261
  21 H :    0.123413
  22 H :    0.113158
  23 H :    0.093262
  24 H :    0.122572

  Mayer bond orders larger than 0.100000
B(  0-C ,  1-C ) :   0.9412 B(  0-C ,  4-O ) :   0.8852 B(  0-C ,  5-H ) :   0.9194
B(  0-C , 19-O ) :   0.8496 B(  1-C ,  2-C ) :   0.9555 B(  1-C ,  6-H ) :   0.9394
B(  1-C ,  7-H ) :   0.9361 B(  2-C ,  3-C ) :   0.9565 B(  2-C ,  8-H ) :   0.9448
B(  2-C ,  9-H ) :   0.9442 B(  3-C ,  4-O ) :   0.8333 B(  3-C , 10-H ) :   0.9302
B(  3-C , 11-H ) :   0.9398 B( 12-C , 13-H ) :   0.9121 B( 12-C , 14-C ) :   0.9142
B( 12-C , 17-O ) :   0.8738 B( 12-C , 18-H ) :   0.9331 B( 14-C , 15-C ) :   0.9407
B( 14-C , 19-O ) :   0.8640 B( 14-C , 20-H ) :   0.9371 B( 15-C , 16-C ) :   0.9473
B( 15-C , 21-H ) :   0.9316 B( 15-C , 22-H ) :   0.9339 B( 16-C , 17-O ) :   0.8430
B( 16-C , 23-H ) :   0.9334 B( 16-C , 24-H ) :   0.9160

FINAL SINGLE POINT ENERGY      -538.432287653526

DIPOLE MOMENT
-------------
                                X             Y             Z
Electronic contribution:     -0.40658      -2.61914      -2.51885
Nuclear contribution   :      0.27308       3.61259       3.16876
                        -----------------------------------------
Total Dipole Moment    :     -0.13350       0.99345       0.64991
                        -----------------------------------------
Magnitude (a.u.)       :      1.19463
Magnitude (Debye)      :      3.03651

Rotational constants in cm-1:     0.073582     0.026170     0.023757
Rotational constants in MHz :  2205.921730   784.558253   712.229643

                             ****ORCA TERMINATED NORMALLY****
TOTAL RUN TIME: 0 days 0 hours 11 minutes 4 seconds 416 msec
