                         Program Version 4.2.0 -  RELEASE  -
|  1> # Test redundant internal optimization
|  2> #
|  3> ! RKS B3LYP  Opt TightSCF SmallPrint
|  4>
|  5> %basis
|  6>         Basis "6-31G"
|  7> end
|  8>
|  9> %geom
| 10> Constraints
| 11> { D 4  0  15  12  165.0   C } # D for Dihedral angle
| 12> { D 0  15  12  16  60.0   C } # D for Dihedral angle
| 13> { D 0  4  3  2   C } # D for Dihedral angle
| 14> { D 4  3  2  1   C } # D for Dihedral angle
| 15> { D 3  2  1  0   C } # D for Dihedral angle
| 16> { D 2  1  0  4   C } # D for Dihedral angle
| 17> { D 1  0  4  3   C } # D for Dihedral angle
| 18> { D 16  20  19  18   C } # D for Dihedral angle
| 19> { D 20  19  18  17   C } # D for Dihedral angle
| 20> { D 19  18  17  16   C } # D for Dihedral angle
| 21> { D 18  17  16  20   C } # D for Dihedral angle
| 22> { D 17  16  20  19   C } # D for Dihedral angle
| 23> { D 15  12  16  20   C } # D for Dihedral angle
| 24> end
| 25> end
| 26>
| 27>
| 28> #%pal
| 29> #nprocs 8
| 30> #end
| 31>
| 32> * xyz 0 1
| 33> C  -21.048   26.222   46.251
| 34> C  -20.361   27.558   45.944
| 35> C  -20.329   28.222   47.341
| 36> C  -20.110   27.022   48.296
| 37> O  -20.473   25.807   47.535
| 38> H  -20.833   25.428   45.533
| 39> H  -19.344   27.382   45.576
| 40> H  -20.898   28.157   45.201
| 41> H  -19.543   28.978   47.434
| 42> H  -21.289   28.710   47.548
| 43> H  -20.733   27.082   49.195
| 44> H  -19.064   26.913   48.597
| 45> C  -23.260   27.170   45.210
| 46> H  -24.338   27.242   45.400
| 47> H  -22.855   28.188   45.142
| 48> O  -22.586   26.394   46.375
| 49> C  -23.051   26.485   43.832
| 50> C  -23.738   25.115   43.781
| 51> C  -25.212   25.514   43.532
| 52> C  -25.091   26.762   42.622
| 53> O  -23.706   27.257   42.771
| 54> H  -21.984   26.464   43.600
| 55> O  -23.185   24.286   42.590
| 56> H  -23.604   24.532   44.698
| 57> H  -25.796   24.713   43.067
| 58> H  -25.697   25.773   44.481
| 59> H  -25.789   27.556   42.905
| 60> H  -25.236   26.523   41.565
| 61> H  -23.310   24.851   41.658
| 62> *
| 63>
| 64>                          ****END OF INPUT****
 Total Charge           Charge          ....    0
 Multiplicity           Mult            ....    1
 Number of Electrons    NEL             ....  102
FINAL SINGLE POINT ENERGY      -652.832332033674
FINAL SINGLE POINT ENERGY      -652.854427586781
FINAL SINGLE POINT ENERGY      -652.858204732143
FINAL SINGLE POINT ENERGY      -652.858789354572
FINAL SINGLE POINT ENERGY      -652.858882393536
FINAL SINGLE POINT ENERGY      -652.858894312289
                    ***********************HURRAY********************

CARTESIAN COORDINATES (ANGSTROEM)
---------------------------------
  C    -21.075256   26.240814   46.187717
  C    -20.281001   27.516185   45.910039
  C    -20.314731   28.224243   47.288325
  C    -20.253922   27.042570   48.278078
  O    -20.641797   25.841373   47.494374
  H    -20.874754   25.405402   45.512165
  H    -19.255663   27.234883   45.643634
  H    -20.678954   28.132671   45.100135
  H    -19.481995   28.921890   47.418599
  H    -21.250433   28.780294   47.403397
  H    -20.943612   27.147400   49.119032
  H    -19.244583   26.855492   48.655729
  C    -23.200760   27.184852   45.217942
  H    -24.245017   27.219853   45.539905
  H    -22.841267   28.218679   45.136653
  O    -22.522068   26.460862   46.282826
  C    -23.072058   26.514306   43.845937
  C    -23.703021   25.117883   43.742922
  C    -25.199618   25.466865   43.547902
  C    -25.157850   26.761744   42.698476
  O    -23.784282   27.311403   42.839561
  H    -22.024018   26.487115   43.529463
  O    -23.157711   24.382781   42.612641
  H    -23.513657   24.496514   44.617684
  H    -25.725006   24.647644   43.050165
  H    -25.678418   25.638437   44.517716
  H    -25.878014   27.515245   43.032527
  H    -25.319518   26.573360   41.632637
  H    -23.144019   24.965240   41.823817

 Multiplicity           Mult            ....    1
 Number of Electrons    NEL             ....  102
 Basis Dimension        Dim             ....  149

ORBITAL ENERGIES
----------------

  NO   OCC          E(Eh)            E(eV)
   0   2.0000     -19.149462      -521.0833
   1   2.0000     -19.142906      -520.9050
   2   2.0000     -19.140575      -520.8415
   3   2.0000     -19.139946      -520.8244
   4   2.0000     -10.280810      -279.7551
   5   2.0000     -10.240286      -278.6523
   6   2.0000     -10.237378      -278.5732
   7   2.0000     -10.235807      -278.5305
   8   2.0000     -10.233159      -278.4584
   9   2.0000     -10.225848      -278.2595
  10   2.0000     -10.191167      -277.3157
  11   2.0000     -10.191056      -277.3127
  12   2.0000     -10.189979      -277.2834
  13   2.0000      -1.053592       -28.6697
  14   2.0000      -1.039561       -28.2879
  15   2.0000      -1.008591       -27.4452
  16   2.0000      -0.994127       -27.0516
  17   2.0000      -0.789029       -21.4706
  18   2.0000      -0.782730       -21.2992
  19   2.0000      -0.769225       -20.9317
  20   2.0000      -0.736714       -20.0470
  21   2.0000      -0.680099       -18.5064
  22   2.0000      -0.607817       -16.5395
  23   2.0000      -0.605850       -16.4860
  24   2.0000      -0.602104       -16.3841
  25   2.0000      -0.571546       -15.5525
  26   2.0000      -0.528703       -14.3867
  27   2.0000      -0.513749       -13.9798
  28   2.0000      -0.499883       -13.6025
  29   2.0000      -0.492500       -13.4016
  30   2.0000      -0.475653       -12.9432
  31   2.0000      -0.462299       -12.5798
  32   2.0000      -0.453101       -12.3295
  33   2.0000      -0.439984       -11.9726
  34   2.0000      -0.424728       -11.5574
  35   2.0000      -0.414750       -11.2859
  36   2.0000      -0.406097       -11.0505
  37   2.0000      -0.396026       -10.7764
  38   2.0000      -0.379809       -10.3351
  39   2.0000      -0.370767       -10.0891
  40   2.0000      -0.363905        -9.9024
  41   2.0000      -0.360389        -9.8067
  42   2.0000      -0.357027        -9.7152
  43   2.0000      -0.334887        -9.1127
  44   2.0000      -0.316590        -8.6148
  45   2.0000      -0.310546        -8.4504
  46   2.0000      -0.303725        -8.2648
  47   2.0000      -0.272980        -7.4282
  48   2.0000      -0.267839        -7.2883
  49   2.0000      -0.257825        -7.0158
  50   2.0000      -0.242333        -6.5942
  51   0.0000       0.060841         1.6556
  52   0.0000       0.071316         1.9406
  53   0.0000       0.088464         2.4072
  54   0.0000       0.095203         2.5906
  55   0.0000       0.102038         2.7766

MULLIKEN ATOMIC CHARGES
-----------------------
   0 C :    0.302419
   1 C :   -0.294866
   2 C :   -0.297951
   3 C :   -0.000375
   4 O :   -0.500854
   5 H :    0.155569
   6 H :    0.153304
   7 H :    0.148544
   8 H :    0.144553
   9 H :    0.157404
  10 H :    0.154492
  11 H :    0.143338
  12 C :   -0.022604
  13 H :    0.154279
  14 H :    0.141163
  15 O :   -0.511819
  16 C :    0.043679
  17 C :    0.085896
  18 C :   -0.305214
  19 C :   -0.035925
  20 O :   -0.527691
  21 H :    0.157490
  22 O :   -0.602641
  23 H :    0.177760
  24 H :    0.165298
  25 H :    0.153766
  26 H :    0.149458
  27 H :    0.149448
  28 H :    0.362077
Sum of atomic charges:    0.0000000

LOEWDIN ATOMIC CHARGES
----------------------
   0 C :    0.177874
   1 C :   -0.234570
   2 C :   -0.216370
   3 C :   -0.024992
   4 O :   -0.301589
   5 H :    0.102359
   6 H :    0.119676
   7 H :    0.115761
   8 H :    0.115546
   9 H :    0.115591
  10 H :    0.109684
  11 H :    0.103447
  12 C :   -0.046456
  13 H :    0.114034
  14 H :    0.099271
  15 O :   -0.332639
  16 C :   -0.000619
  17 C :    0.036306
  18 C :   -0.241626
  19 C :   -0.039584
  20 O :   -0.331004
  21 H :    0.109798
  22 O :   -0.414545
  23 H :    0.127676
  24 H :    0.128107
  25 H :    0.118012
  26 H :    0.105410
  27 H :    0.103845
  28 H :    0.281596

  Mayer bond orders larger than 0.100000
B(  0-C ,  1-C ) :   0.9283 B(  0-C ,  4-O ) :   0.9343 B(  0-C ,  5-H ) :   0.9197
B(  0-C , 15-O ) :   0.8288 B(  1-C ,  2-C ) :   0.9496 B(  1-C ,  6-H ) :   0.9339
B(  1-C ,  7-H ) :   0.9275 B(  2-C ,  3-C ) :   0.9553 B(  2-C ,  8-H ) :   0.9450
B(  2-C ,  9-H ) :   0.9451 B(  3-C ,  4-O ) :   0.8353 B(  3-C , 10-H ) :   0.9345
B(  3-C , 11-H ) :   0.9397 B( 12-C , 13-H ) :   0.9375 B( 12-C , 14-H ) :   0.9098
B( 12-C , 15-O ) :   0.8533 B( 12-C , 16-C ) :   0.8754 B( 16-C , 17-C ) :   0.9049
B( 16-C , 20-O ) :   0.8378 B( 16-C , 21-H ) :   0.9245 B( 17-C , 18-C ) :   0.9151
B( 17-C , 22-O ) :   0.8909 B( 17-C , 23-H ) :   0.9236 B( 18-C , 19-C ) :   0.9430
B( 18-C , 24-H ) :   0.9368 B( 18-C , 25-H ) :   0.9325 B( 19-C , 20-O ) :   0.8423
B( 19-C , 26-H ) :   0.9346 B( 19-C , 27-H ) :   0.9373 B( 22-O , 28-H ) :   0.7968

FINAL SINGLE POINT ENERGY      -652.858896934703

DIPOLE MOMENT
-------------
                                X             Y             Z
Electronic contribution:     -0.00613      -3.54845      -1.06100
Nuclear contribution   :     -0.18330       4.66336       0.81044
                        -----------------------------------------
Total Dipole Moment    :     -0.18944       1.11491      -0.25056
                        -----------------------------------------
Magnitude (a.u.)       :      1.15831
Magnitude (Debye)      :      2.94419

Rotational constants in cm-1:     0.061672     0.012714     0.012040
Rotational constants in MHz :  1848.866175   381.161504   360.948028

                             ****ORCA TERMINATED NORMALLY****
TOTAL RUN TIME: 0 days 0 hours 37 minutes 49 seconds 412 msec
