                         Program Version 4.2.0 -  RELEASE  -
|  1> # Test redundant internal optimization
|  2> #
|  3> ! RKS B3LYP  Opt TightSCF SmallPrint
|  4>
|  5> %basis
|  6>         Basis "6-31G"
|  7> end
|  8>
|  9> %geom
| 10> Constraints
| 11> { D 4  0  15  12  255.0   C } # D for Dihedral angle
| 12> { D 0  15  12  16  255.0   C } # D for Dihedral angle
| 13> { D 0  4  3  2   C } # D for Dihedral angle
| 14> { D 4  3  2  1   C } # D for Dihedral angle
| 15> { D 3  2  1  0   C } # D for Dihedral angle
| 16> { D 2  1  0  4   C } # D for Dihedral angle
| 17> { D 1  0  4  3   C } # D for Dihedral angle
| 18> { D 16  20  19  18   C } # D for Dihedral angle
| 19> { D 20  19  18  17   C } # D for Dihedral angle
| 20> { D 19  18  17  16   C } # D for Dihedral angle
| 21> { D 18  17  16  20   C } # D for Dihedral angle
| 22> { D 17  16  20  19   C } # D for Dihedral angle
| 23> { D 15  12  16  20   C } # D for Dihedral angle
| 24> end
| 25> end
| 26>
| 27>
| 28> #%pal
| 29> #nprocs 8
| 30> #end
| 31>
| 32> * xyz 0 1
| 33> C  -21.048   26.222   46.251
| 34> C  -20.361   27.558   45.944
| 35> C  -20.329   28.222   47.341
| 36> C  -20.110   27.022   48.296
| 37> O  -20.473   25.807   47.535
| 38> H  -20.833   25.428   45.533
| 39> H  -19.344   27.382   45.576
| 40> H  -20.898   28.157   45.201
| 41> H  -19.543   28.978   47.434
| 42> H  -21.289   28.710   47.548
| 43> H  -20.733   27.082   49.195
| 44> H  -19.064   26.913   48.597
| 45> C  -23.431   25.260   45.734
| 46> H  -22.787   24.392   45.542
| 47> H  -24.234   24.947   46.414
| 48> O  -22.586   26.394   46.375
| 49> C  -24.088   25.686   44.392
| 50> C  -23.030   25.978   43.322
| 51> C  -22.648   24.552   42.860
| 52> C  -23.989   23.781   42.955
| 53> O  -24.872   24.580   43.831
| 54> H  -24.782   26.507   44.578
| 55> O  -23.663   26.783   42.154
| 56> H  -22.175   26.545   43.706
| 57> H  -22.226   24.532   41.851
| 58> H  -21.906   24.122   43.543
| 59> H  -23.868   22.781   43.383
| 60> H  -24.489   23.693   41.987
| 61> H  -24.523   26.234   41.752
| 62> *
| 63>
| 64>                          ****END OF INPUT****
 Total Charge           Charge          ....    0
 Multiplicity           Mult            ....    1
 Number of Electrons    NEL             ....  102
FINAL SINGLE POINT ENERGY      -652.835994282521
FINAL SINGLE POINT ENERGY      -652.858528320723
FINAL SINGLE POINT ENERGY      -652.862519073895
FINAL SINGLE POINT ENERGY      -652.863166381264
FINAL SINGLE POINT ENERGY      -652.863247478273
FINAL SINGLE POINT ENERGY      -652.863258614735
                    ***********************HURRAY********************

CARTESIAN COORDINATES (ANGSTROEM)
---------------------------------
  C    -21.042022   26.152540   46.231973
  C    -20.410858   27.509611   45.919325
  C    -20.445287   28.204231   47.302377
  C    -20.197446   27.035003   48.281407
  O    -20.490923   25.796821   47.517286
  H    -20.788080   25.337263   45.547337
  H    -19.377493   27.360675   45.584303
  H    -20.958522   28.058099   45.150599
  H    -19.693858   28.993924   47.396011
  H    -21.433922   28.642584   47.466921
  H    -20.846342   27.066628   49.160088
  H    -19.154255   26.964055   48.603746
  C    -23.332682   25.281754   45.758770
  H    -22.768177   24.345560   45.642185
  H    -24.134181   25.100888   46.479087
  O    -22.476808   26.323147   46.308548
  C    -23.951800   25.709542   44.422150
  C    -22.967289   25.973802   43.272823
  C    -22.650027   24.533314   42.790735
  C    -23.997552   23.793980   42.989445
  O    -24.798362   24.618334   43.925904
  H    -24.598155   26.577665   44.579700
  O    -23.596067   26.765109   42.226398
  H    -22.086685   26.540146   43.569839
  H    -22.315497   24.538045   41.750641
  H    -21.857556   24.089625   43.404221
  H    -23.875253   22.792179   43.412471
  H    -24.571230   23.711832   42.061113
  H    -24.505672   26.431641   42.074594

 Multiplicity           Mult            ....    1
 Number of Electrons    NEL             ....  102
 Basis Dimension        Dim             ....  149

ORBITAL ENERGIES
----------------

  NO   OCC          E(Eh)            E(eV)
   0   2.0000     -19.148860      -521.0670
   1   2.0000     -19.145300      -520.9701
   2   2.0000     -19.141059      -520.8547
   3   2.0000     -19.138732      -520.7914
   4   2.0000     -10.282995      -279.8145
   5   2.0000     -10.243806      -278.7481
   6   2.0000     -10.235889      -278.5327
   7   2.0000     -10.235207      -278.5141
   8   2.0000     -10.233147      -278.4581
   9   2.0000     -10.224084      -278.2115
  10   2.0000     -10.193813      -277.3878
  11   2.0000     -10.186407      -277.1862
  12   2.0000     -10.185024      -277.1486
  13   2.0000      -1.054032       -28.6817
  14   2.0000      -1.040493       -28.3133
  15   2.0000      -1.009390       -27.4669
  16   2.0000      -0.996250       -27.1094
  17   2.0000      -0.788870       -21.4662
  18   2.0000      -0.782719       -21.2989
  19   2.0000      -0.769207       -20.9312
  20   2.0000      -0.733500       -19.9596
  21   2.0000      -0.677254       -18.4290
  22   2.0000      -0.608150       -16.5486
  23   2.0000      -0.598463       -16.2850
  24   2.0000      -0.596408       -16.2291
  25   2.0000      -0.587314       -15.9816
  26   2.0000      -0.525570       -14.3015
  27   2.0000      -0.520937       -14.1754
  28   2.0000      -0.500295       -13.6137
  29   2.0000      -0.489384       -13.3168
  30   2.0000      -0.473387       -12.8815
  31   2.0000      -0.459741       -12.5102
  32   2.0000      -0.447174       -12.1682
  33   2.0000      -0.441238       -12.0067
  34   2.0000      -0.427881       -11.6432
  35   2.0000      -0.419286       -11.4093
  36   2.0000      -0.403111       -10.9692
  37   2.0000      -0.396930       -10.8010
  38   2.0000      -0.377722       -10.2783
  39   2.0000      -0.373450       -10.1621
  40   2.0000      -0.357411        -9.7257
  41   2.0000      -0.355312        -9.6685
  42   2.0000      -0.351140        -9.5550
  43   2.0000      -0.336057        -9.1446
  44   2.0000      -0.321074        -8.7369
  45   2.0000      -0.310850        -8.4587
  46   2.0000      -0.305487        -8.3127
  47   2.0000      -0.277147        -7.5416
  48   2.0000      -0.271745        -7.3946
  49   2.0000      -0.257442        -7.0054
  50   2.0000      -0.240669        -6.5489
  51   0.0000       0.061057         1.6614
  52   0.0000       0.062892         1.7114
  53   0.0000       0.089749         2.4422
  54   0.0000       0.093087         2.5330
  55   0.0000       0.100680         2.7396

MULLIKEN ATOMIC CHARGES
-----------------------
   0 C :    0.285008
   1 C :   -0.262135
   2 C :   -0.301002
   3 C :   -0.000920
   4 O :   -0.506556
   5 H :    0.137055
   6 H :    0.143945
   7 H :    0.158470
   8 H :    0.141993
   9 H :    0.165925
  10 H :    0.151457
  11 H :    0.140770
  12 C :   -0.020924
  13 H :    0.132165
  14 H :    0.170100
  15 O :   -0.519330
  16 C :    0.062999
  17 C :    0.078642
  18 C :   -0.299493
  19 C :   -0.033091
  20 O :   -0.524148
  21 H :    0.167089
  22 O :   -0.602086
  23 H :    0.160419
  24 H :    0.164072
  25 H :    0.142473
  26 H :    0.150950
  27 H :    0.150471
  28 H :    0.365683
Sum of atomic charges:   -0.0000000

LOEWDIN ATOMIC CHARGES
----------------------
   0 C :    0.171624
   1 C :   -0.220671
   2 C :   -0.215711
   3 C :   -0.026301
   4 O :   -0.321120
   5 H :    0.094084
   6 H :    0.113363
   7 H :    0.121163
   8 H :    0.114124
   9 H :    0.120914
  10 H :    0.107802
  11 H :    0.101891
  12 C :   -0.036935
  13 H :    0.097854
  14 H :    0.121306
  15 O :   -0.330320
  16 C :    0.008692
  17 C :    0.034401
  18 C :   -0.242472
  19 C :   -0.038652
  20 O :   -0.329488
  21 H :    0.118678
  22 O :   -0.413991
  23 H :    0.117640
  24 H :    0.127869
  25 H :    0.110683
  26 H :    0.105925
  27 H :    0.104170
  28 H :    0.283477

  Mayer bond orders larger than 0.100000
B(  0-C ,  1-C ) :   0.9424 B(  0-C ,  4-O ) :   0.9261 B(  0-C ,  5-H ) :   0.9170
B(  0-C , 15-O ) :   0.8432 B(  1-C ,  2-C ) :   0.9558 B(  1-C ,  6-H ) :   0.9381
B(  1-C ,  7-H ) :   0.9326 B(  2-C ,  3-C ) :   0.9542 B(  2-C ,  8-H ) :   0.9451
B(  2-C ,  9-H ) :   0.9435 B(  3-C ,  4-O ) :   0.8368 B(  3-C , 10-H ) :   0.9350
B(  3-C , 11-H ) :   0.9400 B( 12-C , 13-H ) :   0.9245 B( 12-C , 14-H ) :   0.9302
B( 12-C , 15-O ) :   0.8399 B( 12-C , 16-C ) :   0.8858 B( 16-C , 17-C ) :   0.9114
B( 16-C , 20-O ) :   0.8381 B( 16-C , 21-H ) :   0.9252 B( 17-C , 18-C ) :   0.9123
B( 17-C , 22-O ) :   0.8959 B( 17-C , 23-H ) :   0.9235 B( 18-C , 19-C ) :   0.9402
B( 18-C , 24-H ) :   0.9378 B( 18-C , 25-H ) :   0.9324 B( 19-C , 20-O ) :   0.8417
B( 19-C , 26-H ) :   0.9342 B( 19-C , 27-H ) :   0.9374 B( 22-O , 28-H ) :   0.7934

FINAL SINGLE POINT ENERGY      -652.863260508547

DIPOLE MOMENT
-------------
                                X             Y             Z
Electronic contribution:     -3.83190      -1.04589      -0.04597
Nuclear contribution   :      4.38650       0.91472      -0.25132
                        -----------------------------------------
Total Dipole Moment    :      0.55460      -0.13117      -0.29729
                        -----------------------------------------
Magnitude (a.u.)       :      0.64278
Magnitude (Debye)      :      1.63382

Rotational constants in cm-1:     0.057776     0.013073     0.012174
Rotational constants in MHz :  1732.072772   391.924925   364.974180

                             ****ORCA TERMINATED NORMALLY****
TOTAL RUN TIME: 0 days 0 hours 23 minutes 41 seconds 227 msec
