                         Program Version 4.2.0 -  RELEASE  -
|  1> # Test redundant internal optimization
|  2> #
|  3> ! RKS B3LYP  Opt TightSCF SmallPrint
|  4>
|  5> %basis
|  6>         Basis "6-31G"
|  7> end
|  8>
|  9> %geom
| 10> Constraints
| 11> { D 4  0  15  12  225.0   C } # D for Dihedral angle
| 12> { D 0  15  12  16  0.0   C } # D for Dihedral angle
| 13> { D 0  4  3  2   C } # D for Dihedral angle
| 14> { D 4  3  2  1   C } # D for Dihedral angle
| 15> { D 3  2  1  0   C } # D for Dihedral angle
| 16> { D 2  1  0  4   C } # D for Dihedral angle
| 17> { D 1  0  4  3   C } # D for Dihedral angle
| 18> { D 16  20  19  18   C } # D for Dihedral angle
| 19> { D 20  19  18  17   C } # D for Dihedral angle
| 20> { D 19  18  17  16   C } # D for Dihedral angle
| 21> { D 18  17  16  20   C } # D for Dihedral angle
| 22> { D 17  16  20  19   C } # D for Dihedral angle
| 23> { D 15  12  16  20   C } # D for Dihedral angle
| 24> end
| 25> end
| 26>
| 27>
| 28> #%pal
| 29> #nprocs 8
| 30> #end
| 31>
| 32> * xyz 0 1
| 33> C  -21.048   26.222   46.251
| 34> C  -20.361   27.558   45.944
| 35> C  -20.329   28.222   47.341
| 36> C  -20.110   27.022   48.296
| 37> O  -20.473   25.807   47.535
| 38> H  -20.833   25.428   45.533
| 39> H  -19.344   27.382   45.576
| 40> H  -20.898   28.157   45.201
| 41> H  -19.543   28.978   47.434
| 42> H  -21.289   28.710   47.548
| 43> H  -20.733   27.082   49.195
| 44> H  -19.064   26.913   48.597
| 45> C  -23.415   25.773   45.218
| 46> H  -24.102   25.021   45.627
| 47> H  -24.012   26.545   44.716
| 48> O  -22.586   26.394   46.375
| 49> C  -22.527   25.088   44.142
| 50> C  -23.367   24.589   42.962
| 51> C  -23.594   25.896   42.164
| 52> C  -22.268   26.669   42.371
| 53> O  -21.605   26.060   43.545
| 54> H  -21.916   24.319   44.620
| 55> H  -22.793   23.869   42.368
| 56> O  -24.695   23.914   43.400
| 57> H  -23.811   25.715   41.106
| 58> H  -24.437   26.454   42.589
| 59> H  -22.430   27.735   42.565
| 60> H  -21.585   26.562   41.524
| 61> H  -25.288   24.616   43.996
| 62> *
| 63>
| 64>                          ****END OF INPUT****
 Total Charge           Charge          ....    0
 Multiplicity           Mult            ....    1
 Number of Electrons    NEL             ....  102
FINAL SINGLE POINT ENERGY      -652.820484972480
FINAL SINGLE POINT ENERGY      -652.843561275362
FINAL SINGLE POINT ENERGY      -652.849452281878
FINAL SINGLE POINT ENERGY      -652.851586235484
FINAL SINGLE POINT ENERGY      -652.851880823978
FINAL SINGLE POINT ENERGY      -652.851951335348
FINAL SINGLE POINT ENERGY      -652.851957507344
FINAL SINGLE POINT ENERGY      -652.851959257411
                    ***********************HURRAY********************

CARTESIAN COORDINATES (ANGSTROEM)
---------------------------------
  C    -20.876063   26.221697   46.238675
  C    -20.254963   27.602366   46.031906
  C    -20.415203   28.238371   47.433352
  C    -20.217995   27.034959   48.381699
  O    -20.420844   25.825307   47.547022
  H    -20.546917   25.461161   45.535474
  H    -19.195370   27.487968   45.772970
  H    -20.751315   28.158724   45.235277
  H    -19.693988   29.039735   47.620279
  H    -21.424792   28.646984   47.537508
  H    -20.934060   27.016147   49.207728
  H    -19.201436   26.972995   48.782936
  C    -23.192495   25.802628   45.235220
  H    -23.877997   25.095737   45.720501
  H    -23.781203   26.649637   44.857154
  O    -22.326984   26.340447   46.273883
  C    -22.518296   25.085119   44.065747
  C    -23.510489   24.607649   42.989699
  C    -23.724627   25.907986   42.151594
  C    -22.331849   26.575438   42.200411
  O    -21.598976   25.957289   43.336818
  H    -21.919809   24.248455   44.436939
  H    -23.030659   23.839171   42.379368
  O    -24.717539   23.981211   43.476785
  H    -24.056314   25.690430   41.133379
  H    -24.488226   26.532981   42.632233
  H    -22.381734   27.657493   42.357865
  H    -21.744395   26.376551   41.299311
  H    -25.321463   24.645366   43.867267

 Multiplicity           Mult            ....    1
 Number of Electrons    NEL             ....  102
 Basis Dimension        Dim             ....  149

ORBITAL ENERGIES
----------------

  NO   OCC          E(Eh)            E(eV)
   0   2.0000     -19.156415      -521.2726
   1   2.0000     -19.150864      -521.1215
   2   2.0000     -19.129307      -520.5349
   3   2.0000     -19.126584      -520.4608
   4   2.0000     -10.266133      -279.3557
   5   2.0000     -10.254174      -279.0303
   6   2.0000     -10.240906      -278.6692
   7   2.0000     -10.240714      -278.6640
   8   2.0000     -10.232940      -278.4525
   9   2.0000     -10.213850      -277.9330
  10   2.0000     -10.203215      -277.6436
  11   2.0000     -10.174150      -276.8527
  12   2.0000     -10.170256      -276.7467
  13   2.0000      -1.045402       -28.4468
  14   2.0000      -1.036691       -28.2098
  15   2.0000      -1.025059       -27.8933
  16   2.0000      -0.980908       -26.6919
  17   2.0000      -0.791396       -21.5350
  18   2.0000      -0.776365       -21.1260
  19   2.0000      -0.767869       -20.8948
  20   2.0000      -0.728210       -19.8156
  21   2.0000      -0.681209       -18.5366
  22   2.0000      -0.620761       -16.8918
  23   2.0000      -0.604559       -16.4509
  24   2.0000      -0.586339       -15.9551
  25   2.0000      -0.559413       -15.2224
  26   2.0000      -0.538984       -14.6665
  27   2.0000      -0.514650       -14.0043
  28   2.0000      -0.493496       -13.4287
  29   2.0000      -0.477369       -12.9899
  30   2.0000      -0.472376       -12.8540
  31   2.0000      -0.454564       -12.3693
  32   2.0000      -0.440913       -11.9979
  33   2.0000      -0.436446       -11.8763
  34   2.0000      -0.432887       -11.7795
  35   2.0000      -0.423508       -11.5242
  36   2.0000      -0.407831       -11.0976
  37   2.0000      -0.392617       -10.6837
  38   2.0000      -0.387618       -10.5476
  39   2.0000      -0.366781        -9.9806
  40   2.0000      -0.356907        -9.7119
  41   2.0000      -0.346695        -9.4341
  42   2.0000      -0.341083        -9.2813
  43   2.0000      -0.336649        -9.1607
  44   2.0000      -0.325043        -8.8449
  45   2.0000      -0.302368        -8.2278
  46   2.0000      -0.299579        -8.1520
  47   2.0000      -0.279728        -7.6118
  48   2.0000      -0.256090        -6.9686
  49   2.0000      -0.247839        -6.7440
  50   2.0000      -0.233499        -6.3538
  51   0.0000       0.045800         1.2463
  52   0.0000       0.067464         1.8358
  53   0.0000       0.083300         2.2667
  54   0.0000       0.095373         2.5952
  55   0.0000       0.101489         2.7617

MULLIKEN ATOMIC CHARGES
-----------------------
   0 C :    0.292246
   1 C :   -0.242322
   2 C :   -0.301394
   3 C :    0.000576
   4 O :   -0.507025
   5 H :    0.162641
   6 H :    0.138494
   7 H :    0.144963
   8 H :    0.134775
   9 H :    0.156963
  10 H :    0.147643
  11 H :    0.136354
  12 C :    0.031080
  13 H :    0.144884
  14 H :    0.122540
  15 O :   -0.540208
  16 C :    0.041636
  17 C :    0.083765
  18 C :   -0.320727
  19 C :   -0.016542
  20 O :   -0.522093
  21 H :    0.169710
  22 H :    0.171276
  23 O :   -0.594614
  24 H :    0.160778
  25 H :    0.137402
  26 H :    0.151841
  27 H :    0.155850
  28 H :    0.359507
Sum of atomic charges:   -0.0000000

LOEWDIN ATOMIC CHARGES
----------------------
   0 C :    0.181992
   1 C :   -0.218133
   2 C :   -0.219239
   3 C :   -0.026549
   4 O :   -0.314979
   5 H :    0.107532
   6 H :    0.111050
   7 H :    0.117491
   8 H :    0.110567
   9 H :    0.116519
  10 H :    0.105357
  11 H :    0.099269
  12 C :   -0.039669
  13 H :    0.107476
  14 H :    0.092432
  15 O :   -0.336697
  16 C :    0.001134
  17 C :    0.039579
  18 C :   -0.240699
  19 C :   -0.030336
  20 O :   -0.327159
  21 H :    0.118059
  22 H :    0.120736
  23 O :   -0.401979
  24 H :    0.124656
  25 H :    0.106069
  26 H :    0.105911
  27 H :    0.109123
  28 H :    0.280489

  Mayer bond orders larger than 0.100000
B(  0-C ,  1-C ) :   0.9407 B(  0-C ,  4-O ) :   0.9166 B(  0-C ,  5-H ) :   0.9084
B(  0-C , 15-O ) :   0.8278 B(  1-C ,  2-C ) :   0.9532 B(  1-C ,  6-H ) :   0.9378
B(  1-C ,  7-H ) :   0.9393 B(  2-C ,  3-C ) :   0.9541 B(  2-C ,  8-H ) :   0.9459
B(  2-C ,  9-H ) :   0.9445 B(  3-C ,  4-O ) :   0.8419 B(  3-C , 10-H ) :   0.9353
B(  3-C , 11-H ) :   0.9403 B( 12-C , 13-H ) :   0.9083 B( 12-C , 14-H ) :   0.9253
B( 12-C , 15-O ) :   0.8561 B( 12-C , 16-C ) :   0.9063 B( 16-C , 17-C ) :   0.8705
B( 16-C , 20-O ) :   0.8392 B( 16-C , 21-H ) :   0.9228 B( 17-C , 18-C ) :   0.9214
B( 17-C , 22-H ) :   0.9330 B( 17-C , 23-O ) :   0.9086 B( 18-C , 19-C ) :   0.9397
B( 18-C , 24-H ) :   0.9412 B( 18-C , 25-H ) :   0.9397 B( 19-C , 20-O ) :   0.8370
B( 19-C , 26-H ) :   0.9311 B( 19-C , 27-H ) :   0.9374 B( 23-O , 28-H ) :   0.7960

FINAL SINGLE POINT ENERGY      -652.851959264630

DIPOLE MOMENT
-------------
                                X             Y             Z
Electronic contribution:     -0.62260      -4.83559       0.86768
Nuclear contribution   :      0.12651       5.88985      -1.93448
                        -----------------------------------------
Total Dipole Moment    :     -0.49609       1.05427      -1.06680
                        -----------------------------------------
Magnitude (a.u.)       :      1.57976
Magnitude (Debye)      :      4.01543

Rotational constants in cm-1:     0.060032     0.013382     0.012031
Rotational constants in MHz :  1799.725951   401.184335   360.672125

                             ****ORCA TERMINATED NORMALLY****
TOTAL RUN TIME: 0 days 1 hours 9 minutes 20 seconds 348 msec
