                         Program Version 4.2.0 -  RELEASE  -
|  1> # Test redundant internal optimization
|  2> #
|  3> ! RKS B3LYP  Opt TightSCF SmallPrint
|  4>
|  5> %basis
|  6>         Basis "6-31G"
|  7> end
|  8>
|  9> %geom
| 10> Constraints
| 11> { D 4  0  15  12  90.0   C } # D for Dihedral angle
| 12> { D 0  15  12  16  285.0   C } # D for Dihedral angle
| 13> { D 0  4  3  2   C } # D for Dihedral angle
| 14> { D 4  3  2  1   C } # D for Dihedral angle
| 15> { D 3  2  1  0   C } # D for Dihedral angle
| 16> { D 2  1  0  4   C } # D for Dihedral angle
| 17> { D 1  0  4  3   C } # D for Dihedral angle
| 18> { D 16  20  19  18   C } # D for Dihedral angle
| 19> { D 20  19  18  17   C } # D for Dihedral angle
| 20> { D 19  18  17  16   C } # D for Dihedral angle
| 21> { D 18  17  16  20   C } # D for Dihedral angle
| 22> { D 17  16  20  19   C } # D for Dihedral angle
| 23> { D 15  12  16  20   C } # D for Dihedral angle
| 24> end
| 25> end
| 26>
| 27>
| 28> #%pal
| 29> #nprocs 8
| 30> #end
| 31>
| 32> * xyz 0 1
| 33> C  -21.048   26.222   46.251
| 34> C  -20.361   27.558   45.944
| 35> C  -20.329   28.222   47.341
| 36> C  -20.110   27.022   48.296
| 37> O  -20.473   25.807   47.535
| 38> H  -20.833   25.428   45.533
| 39> H  -19.344   27.382   45.576
| 40> H  -20.898   28.157   45.201
| 41> H  -19.543   28.978   47.434
| 42> H  -21.289   28.710   47.548
| 43> H  -20.733   27.082   49.195
| 44> H  -19.064   26.913   48.597
| 45> C  -23.061   27.816   46.783
| 46> H  -22.517   28.563   46.192
| 47> H  -24.134   27.934   46.583
| 48> O  -22.586   26.394   46.375
| 49> C  -22.824   28.118   48.289
| 50> C  -23.408   29.480   48.681
| 51> C  -24.912   29.147   48.825
| 52> C  -24.900   27.707   49.396
| 53> O  -23.553   27.159   49.125
| 54> H  -21.763   27.999   48.515
| 55> O  -22.816   29.943   50.040
| 56> H  -23.216   30.261   47.937
| 57> H  -25.442   29.850   49.477
| 58> H  -25.399   29.169   47.843
| 59> H  -25.651   27.063   48.925
| 60> H  -25.044   27.686   50.480
| 61> H  -22.997   29.176   50.801
| 62> *
| 63>
| 64>                          ****END OF INPUT****
 Total Charge           Charge          ....    0
 Multiplicity           Mult            ....    1
 Number of Electrons    NEL             ....  102
FINAL SINGLE POINT ENERGY      -652.761996421235
FINAL SINGLE POINT ENERGY      -652.820261512673
FINAL SINGLE POINT ENERGY      -652.842164287218
FINAL SINGLE POINT ENERGY      -652.847720086735
FINAL SINGLE POINT ENERGY      -652.848581426377
FINAL SINGLE POINT ENERGY      -652.848785271768
FINAL SINGLE POINT ENERGY      -652.848825431792
FINAL SINGLE POINT ENERGY      -652.848842393976
FINAL SINGLE POINT ENERGY      -652.848843375161
                    ***********************HURRAY********************

CARTESIAN COORDINATES (ANGSTROEM)
---------------------------------
  C    -21.133717   26.367389   46.341771
  C    -20.187792   27.481779   45.872729
  C    -19.766277   28.139934   47.218326
  C    -19.712181   26.925183   48.181936
  O    -20.490834   25.847625   47.526928
  H    -21.154292   25.521045   45.652475
  H    -19.326191   27.015981   45.384437
  H    -20.649067   28.180425   45.168661
  H    -18.796085   28.641818   47.147785
  H    -20.496422   28.888405   47.535348
  H    -20.143888   27.130374   49.166522
  H    -18.694173   26.547845   48.314107
  C    -23.120458   27.907447   46.883333
  H    -22.673768   28.741546   46.317716
  H    -24.167752   27.820108   46.582255
  O    -22.547237   26.642647   46.461963
  C    -23.029324   28.218429   48.382337
  C    -23.715283   29.539749   48.762663
  C    -25.203170   29.106799   48.865398
  C    -25.107044   27.667913   49.433363
  O    -23.716207   27.212613   49.195987
  H    -21.993120   28.216586   48.719307
  O    -23.206929   30.035208   50.032091
  H    -23.549682   30.351258   48.052227
  H    -25.756852   29.788971   49.515452
  H    -25.673077   29.117289   47.875888
  H    -25.796449   26.972391   48.945974
  H    -25.279192   27.630259   50.513623
  H    -23.161536   29.288984   50.667399

 Multiplicity           Mult            ....    1
 Number of Electrons    NEL             ....  102
 Basis Dimension        Dim             ....  149

ORBITAL ENERGIES
----------------

  NO   OCC          E(Eh)            E(eV)
   0   2.0000     -19.143527      -520.9218
   1   2.0000     -19.141690      -520.8719
   2   2.0000     -19.141493      -520.8665
   3   2.0000     -19.137363      -520.7541
   4   2.0000     -10.276170      -279.6288
   5   2.0000     -10.247541      -278.8498
   6   2.0000     -10.236918      -278.5607
   7   2.0000     -10.236184      -278.5407
   8   2.0000     -10.231486      -278.4129
   9   2.0000     -10.227214      -278.2966
  10   2.0000     -10.194081      -277.3951
  11   2.0000     -10.193262      -277.3728
  12   2.0000     -10.193179      -277.3705
  13   2.0000      -1.047783       -28.5116
  14   2.0000      -1.038105       -28.2483
  15   2.0000      -1.008967       -27.4554
  16   2.0000      -0.994343       -27.0575
  17   2.0000      -0.789110       -21.4728
  18   2.0000      -0.788965       -21.4688
  19   2.0000      -0.771864       -21.0035
  20   2.0000      -0.734368       -19.9832
  21   2.0000      -0.682101       -18.5609
  22   2.0000      -0.611924       -16.6513
  23   2.0000      -0.607020       -16.5178
  24   2.0000      -0.602154       -16.3855
  25   2.0000      -0.570582       -15.5263
  26   2.0000      -0.526472       -14.3260
  27   2.0000      -0.511518       -13.9191
  28   2.0000      -0.502936       -13.6856
  29   2.0000      -0.493945       -13.4409
  30   2.0000      -0.471985       -12.8434
  31   2.0000      -0.461909       -12.5692
  32   2.0000      -0.454963       -12.3802
  33   2.0000      -0.440514       -11.9870
  34   2.0000      -0.427498       -11.6328
  35   2.0000      -0.418917       -11.3993
  36   2.0000      -0.404965       -11.0197
  37   2.0000      -0.396473       -10.7886
  38   2.0000      -0.381362       -10.3774
  39   2.0000      -0.375331       -10.2133
  40   2.0000      -0.362383        -9.8609
  41   2.0000      -0.359720        -9.7885
  42   2.0000      -0.350042        -9.5251
  43   2.0000      -0.337809        -9.1922
  44   2.0000      -0.313462        -8.5297
  45   2.0000      -0.309427        -8.4199
  46   2.0000      -0.295528        -8.0417
  47   2.0000      -0.274975        -7.4825
  48   2.0000      -0.268338        -7.3018
  49   2.0000      -0.255647        -6.9565
  50   2.0000      -0.238985        -6.5031
  51   0.0000       0.060848         1.6558
  52   0.0000       0.075885         2.0649
  53   0.0000       0.084571         2.3013
  54   0.0000       0.086991         2.3671
  55   0.0000       0.095064         2.5868

MULLIKEN ATOMIC CHARGES
-----------------------
   0 C :    0.307992
   1 C :   -0.294630
   2 C :   -0.318413
   3 C :   -0.013430
   4 O :   -0.494279
   5 H :    0.167033
   6 H :    0.160249
   7 H :    0.147587
   8 H :    0.147391
   9 H :    0.149885
  10 H :    0.154249
  11 H :    0.147004
  12 C :   -0.004276
  13 H :    0.116827
  14 H :    0.157600
  15 O :   -0.510326
  16 C :    0.056187
  17 C :    0.068738
  18 C :   -0.301930
  19 C :   -0.030248
  20 O :   -0.506577
  21 H :    0.164543
  22 O :   -0.600201
  23 H :    0.151344
  24 H :    0.165727
  25 H :    0.145899
  26 H :    0.154144
  27 H :    0.146628
  28 H :    0.365285
Sum of atomic charges:    0.0000000

LOEWDIN ATOMIC CHARGES
----------------------
   0 C :    0.174694
   1 C :   -0.230987
   2 C :   -0.225083
   3 C :   -0.035455
   4 O :   -0.314158
   5 H :    0.112713
   6 H :    0.124542
   7 H :    0.116114
   8 H :    0.116756
   9 H :    0.107794
  10 H :    0.104215
  11 H :    0.105541
  12 C :   -0.040665
  13 H :    0.089405
  14 H :    0.116408
  15 O :   -0.308392
  16 C :    0.001423
  17 C :    0.032957
  18 C :   -0.242735
  19 C :   -0.038496
  20 O :   -0.317909
  21 H :    0.114899
  22 O :   -0.414023
  23 H :    0.114171
  24 H :    0.127758
  25 H :    0.113698
  26 H :    0.108299
  27 H :    0.102816
  28 H :    0.283699

  Mayer bond orders larger than 0.100000
B(  0-C ,  1-C ) :   0.9193 B(  0-C ,  4-O ) :   0.9048 B(  0-C ,  5-H ) :   0.9370
B(  0-C , 15-O ) :   0.9006 B(  1-C ,  2-C ) :   0.9536 B(  1-C ,  6-H ) :   0.9350
B(  1-C ,  7-H ) :   0.9343 B(  2-C ,  3-C ) :   0.9471 B(  2-C ,  8-H ) :   0.9449
B(  2-C ,  9-H ) :   0.9358 B(  3-C ,  4-O ) :   0.8497 B(  3-C , 10-H ) :   0.9234
B(  3-C , 11-H ) :   0.9370 B( 12-C , 13-H ) :   0.9071 B( 12-C , 14-H ) :   0.9379
B( 12-C , 15-O ) :   0.8708 B( 12-C , 16-C ) :   0.8735 B( 16-C , 17-C ) :   0.8920
B( 16-C , 20-O ) :   0.8625 B( 16-C , 21-H ) :   0.9072 B( 17-C , 18-C ) :   0.9139
B( 17-C , 22-O ) :   0.8927 B( 17-C , 23-H ) :   0.9322 B( 18-C , 19-C ) :   0.9404
B( 18-C , 24-H ) :   0.9367 B( 18-C , 25-H ) :   0.9330 B( 19-C , 20-O ) :   0.8516
B( 19-C , 26-H ) :   0.9329 B( 19-C , 27-H ) :   0.9375 B( 22-O , 28-H ) :   0.7937

FINAL SINGLE POINT ENERGY      -652.848842233034

DIPOLE MOMENT
-------------
                                X             Y             Z
Electronic contribution:     -0.81770      -3.96755       1.18872
Nuclear contribution   :      0.78987       5.07371      -1.65459
                        -----------------------------------------
Total Dipole Moment    :     -0.02783       1.10617      -0.46587
                        -----------------------------------------
Magnitude (a.u.)       :      1.20059
Magnitude (Debye)      :      3.05166

Rotational constants in cm-1:     0.048297     0.015955     0.014760
Rotational constants in MHz :  1447.919575   478.319199   442.479014

                             ****ORCA TERMINATED NORMALLY****
TOTAL RUN TIME: 0 days 1 hours 4 minutes 14 seconds 229 msec
