                         Program Version 4.2.1 -  RELEASE  -
|  1> # Test redundant internal optimization
|  2> #
|  3> ! RKS B3LYP  Opt TightSCF SmallPrint
|  4>
|  5> %basis
|  6>         Basis "6-31G"
|  7> end
|  8>
|  9> %geom
| 10> Constraints
| 11> { D 4  0  19  14  195.0   C } # D for Dihedral angle
| 12> { D 0  19  14  12  195.0   C } # D for Dihedral angle
| 13> { D 0  4  3  2   C } # D for Dihedral angle
| 14> { D 4  3  2  1   C } # D for Dihedral angle
| 15> { D 3  2  1  0   C } # D for Dihedral angle
| 16> { D 2  1  0  4   C } # D for Dihedral angle
| 17> { D 1  0  4  3   C } # D for Dihedral angle
| 18> { D 14  15  16  17   C } # D for Dihedral angle
| 19> { D 15  16  17  12   C } # D for Dihedral angle
| 20> { D 16  17  12  14   C } # D for Dihedral angle
| 21> { D 17  12  14  15   C } # D for Dihedral angle
| 22> { D 12  14  15  16   C } # D for Dihedral angle
| 23> end
| 24> end
| 25>
| 26>
| 27> #%pal
| 28> #nprocs 8
| 29> #end
| 30>
| 31> * xyz 0 1
| 32> C  -21.048   26.222   46.251
| 33> C  -20.361   27.558   45.944
| 34> C  -20.329   28.222   47.341
| 35> C  -20.110   27.022   48.296
| 36> O  -20.473   25.807   47.535
| 37> H  -20.833   25.428   45.533
| 38> H  -19.344   27.382   45.576
| 39> H  -20.898   28.157   45.201
| 40> H  -19.543   28.978   47.434
| 41> H  -21.289   28.710   47.548
| 42> H  -20.733   27.082   49.195
| 43> H  -19.064   26.913   48.597
| 44> C  -24.585   26.985   45.320
| 45> H  -25.224   26.781   44.447
| 46> C  -23.163   26.451   45.109
| 47> C  -22.547   27.546   44.207
| 48> C  -23.209   28.846   44.728
| 49> O  -24.405   28.431   45.494
| 50> H  -25.079   26.615   46.219
| 51> O  -22.472   26.381   46.366
| 52> H  -23.142   25.458   44.647
| 53> H  -21.455   27.580   44.266
| 54> H  -22.820   27.368   43.158
| 55> H  -23.516   29.516   43.918
| 56> H  -22.561   29.397   45.417
| 57> *
| 58>
| 59>                          ****END OF INPUT****
 Total Charge           Charge          ....    0
 Multiplicity           Mult            ....    1
 Number of Electrons    NEL             ....   86
FINAL SINGLE POINT ENERGY      -538.391073677653
FINAL SINGLE POINT ENERGY      -538.422106019385
FINAL SINGLE POINT ENERGY      -538.424333597063
FINAL SINGLE POINT ENERGY      -538.424669790099
FINAL SINGLE POINT ENERGY      -538.424747003732
FINAL SINGLE POINT ENERGY      -538.424764870476
                    ***********************HURRAY********************

CARTESIAN COORDINATES (ANGSTROEM)
---------------------------------
  C    -20.881436   26.227791   46.208189
  C    -20.143055   27.557407   46.042656
  C    -20.311003   28.201186   47.446787
  C    -20.250092   26.975296   48.382219
  O    -20.513905   25.795783   47.525115
  H    -20.594512   25.439816   45.503104
  H    -19.085252   27.347205   45.839634
  H    -20.523698   28.192964   45.245345
  H    -19.532450   28.937255   47.666271
  H    -21.288344   28.687958   47.512153
  H    -21.001004   27.002455   49.175891
  H    -19.259712   26.826789   48.823557
  C    -24.490659   27.021944   45.491988
  H    -25.283296   26.762880   44.775321
  C    -23.132537   26.501501   45.020312
  C    -22.739022   27.563449   43.978006
  C    -23.309581   28.876776   44.567529
  O    -24.316598   28.477017   45.573658
  H    -24.746425   26.660114   46.487290
  O    -22.330170   26.384370   46.236064
  H    -23.204493   25.506688   44.556128
  H    -21.672351   27.606241   43.754867
  H    -23.253505   27.309196   43.043764
  H    -23.787643   29.501208   43.804297
  H    -22.552258   29.472711   45.086854

 Multiplicity           Mult            ....    1
 Number of Electrons    NEL             ....   86
 Basis Dimension        Dim             ....  127

ORBITAL ENERGIES
----------------

  NO   OCC          E(Eh)            E(eV)
   0   2.0000     -19.137935      -520.7697
   1   2.0000     -19.136733      -520.7370
   2   2.0000     -19.131283      -520.5887
   3   2.0000     -10.280730      -279.7529
   4   2.0000     -10.243542      -278.7410
   5   2.0000     -10.227219      -278.2968
   6   2.0000     -10.222238      -278.1612
   7   2.0000     -10.221476      -278.1405
   8   2.0000     -10.194335      -277.4020
   9   2.0000     -10.186946      -277.2009
  10   2.0000     -10.184248      -277.1275
  11   2.0000      -1.051897       -28.6236
  12   2.0000      -1.016067       -27.6486
  13   2.0000      -0.986118       -26.8336
  14   2.0000      -0.788333       -21.4516
  15   2.0000      -0.783430       -21.3182
  16   2.0000      -0.747667       -20.3451
  17   2.0000      -0.720501       -19.6058
  18   2.0000      -0.614036       -16.7088
  19   2.0000      -0.604941       -16.4613
  20   2.0000      -0.594971       -16.1900
  21   2.0000      -0.573215       -15.5980
  22   2.0000      -0.516445       -14.0532
  23   2.0000      -0.505293       -13.7497
  24   2.0000      -0.489884       -13.3304
  25   2.0000      -0.485789       -13.2190
  26   2.0000      -0.455255       -12.3881
  27   2.0000      -0.447574       -12.1791
  28   2.0000      -0.419534       -11.4161
  29   2.0000      -0.418073       -11.3763
  30   2.0000      -0.408686       -11.1209
  31   2.0000      -0.390526       -10.6267
  32   2.0000      -0.378966       -10.3122
  33   2.0000      -0.370259       -10.0753
  34   2.0000      -0.364070        -9.9069
  35   2.0000      -0.350846        -9.5470
  36   2.0000      -0.347652        -9.4601
  37   2.0000      -0.312177        -8.4948
  38   2.0000      -0.307184        -8.3589
  39   2.0000      -0.294869        -8.0238
  40   2.0000      -0.259382        -7.0581
  41   2.0000      -0.249854        -6.7989
  42   2.0000      -0.237304        -6.4574
  43   0.0000       0.072947         1.9850
  44   0.0000       0.086664         2.3582
  45   0.0000       0.098999         2.6939
  46   0.0000       0.109609         2.9826
  47   0.0000       0.116374         3.1667

MULLIKEN ATOMIC CHARGES
-----------------------
   0 C :    0.304289
   1 C :   -0.274958
   2 C :   -0.306962
   3 C :    0.000685
   4 O :   -0.499964
   5 H :    0.135444
   6 H :    0.144540
   7 H :    0.140574
   8 H :    0.140482
   9 H :    0.174935
  10 H :    0.156752
  11 H :    0.139999
  12 C :    0.000966
  13 H :    0.123913
  14 C :    0.088030
  15 C :   -0.320846
  16 C :   -0.002212
  17 O :   -0.519602
  18 H :    0.176329
  19 O :   -0.515394
  20 H :    0.129265
  21 H :    0.148940
  22 H :    0.148269
  23 H :    0.139568
  24 H :    0.146959
Sum of atomic charges:   -0.0000000

LOEWDIN ATOMIC CHARGES
----------------------
   0 C :    0.184504
   1 C :   -0.232519
   2 C :   -0.218244
   3 C :   -0.024811
   4 O :   -0.302723
   5 H :    0.094782
   6 H :    0.113982
   7 H :    0.112313
   8 H :    0.113805
   9 H :    0.123620
  10 H :    0.110430
  11 H :    0.101217
  12 C :   -0.031377
  13 H :    0.090643
  14 C :    0.040873
  15 C :   -0.243755
  16 C :   -0.031115
  17 O :   -0.329024
  18 H :    0.127667
  19 O :   -0.331977
  20 H :    0.095189
  21 H :    0.116796
  22 H :    0.118529
  23 H :    0.099945
  24 H :    0.101248

  Mayer bond orders larger than 0.100000
B(  0-C ,  1-C ) :   0.9288 B(  0-C ,  4-O ) :   0.9386 B(  0-C ,  5-H ) :   0.9204
B(  0-C , 19-O ) :   0.8330 B(  1-C ,  2-C ) :   0.9513 B(  1-C ,  6-H ) :   0.9334
B(  1-C ,  7-H ) :   0.9235 B(  2-C ,  3-C ) :   0.9546 B(  2-C ,  8-H ) :   0.9444
B(  2-C ,  9-H ) :   0.9388 B(  3-C ,  4-O ) :   0.8323 B(  3-C , 10-H ) :   0.9344
B(  3-C , 11-H ) :   0.9398 B( 12-C , 13-H ) :   0.9168 B( 12-C , 14-C ) :   0.9310
B( 12-C , 17-O ) :   0.8646 B( 12-C , 18-H ) :   0.9290 B( 14-C , 15-C ) :   0.9266
B( 14-C , 19-O ) :   0.8500 B( 14-C , 20-H ) :   0.9217 B( 15-C , 16-C ) :   0.9436
B( 15-C , 21-H ) :   0.9295 B( 15-C , 22-H ) :   0.9334 B( 16-C , 17-O ) :   0.8638
B( 16-C , 23-H ) :   0.9314 B( 16-C , 24-H ) :   0.9307

FINAL SINGLE POINT ENERGY      -538.424766494161

DIPOLE MOMENT
-------------
                                X             Y             Z
Electronic contribution:     -2.01073      -3.36212       2.12984
Nuclear contribution   :      2.67886       3.72072      -3.22468
                        -----------------------------------------
Total Dipole Moment    :      0.66812       0.35859      -1.09485
                        -----------------------------------------
Magnitude (a.u.)       :      1.33179
Magnitude (Debye)      :      3.38514

Rotational constants in cm-1:     0.070302     0.023698     0.022534
Rotational constants in MHz :  2107.604755   710.451154   675.563781

                             ****ORCA TERMINATED NORMALLY****
TOTAL RUN TIME: 0 days 0 hours 7 minutes 27 seconds 777 msec
