                         Program Version 4.2.0 -  RELEASE  -
|  1> # Test redundant internal optimization
|  2> #
|  3> ! RKS B3LYP  Opt TightSCF SmallPrint
|  4>
|  5> %basis
|  6>         Basis "6-31G"
|  7> end
|  8>
|  9> %geom
| 10> Constraints
| 11> { D 4  0  15  12  135.0   C } # D for Dihedral angle
| 12> { D 0  15  12  16  285.0   C } # D for Dihedral angle
| 13> { D 0  4  3  2   C } # D for Dihedral angle
| 14> { D 4  3  2  1   C } # D for Dihedral angle
| 15> { D 3  2  1  0   C } # D for Dihedral angle
| 16> { D 2  1  0  4   C } # D for Dihedral angle
| 17> { D 1  0  4  3   C } # D for Dihedral angle
| 18> { D 16  20  19  18   C } # D for Dihedral angle
| 19> { D 20  19  18  17   C } # D for Dihedral angle
| 20> { D 19  18  17  16   C } # D for Dihedral angle
| 21> { D 18  17  16  20   C } # D for Dihedral angle
| 22> { D 17  16  20  19   C } # D for Dihedral angle
| 23> { D 15  12  16  20   C } # D for Dihedral angle
| 24> end
| 25> end
| 26>
| 27>
| 28> #%pal
| 29> #nprocs 8
| 30> #end
| 31>
| 32> * xyz 0 1
| 33> C  -21.048   26.222   46.251
| 34> C  -20.361   27.558   45.944
| 35> C  -20.329   28.222   47.341
| 36> C  -20.110   27.022   48.296
| 37> O  -20.473   25.807   47.535
| 38> H  -20.833   25.428   45.533
| 39> H  -19.344   27.382   45.576
| 40> H  -20.898   28.157   45.201
| 41> H  -19.543   28.978   47.434
| 42> H  -21.289   28.710   47.548
| 43> H  -20.733   27.082   49.195
| 44> H  -19.064   26.913   48.597
| 45> C  -23.162   27.680   45.721
| 46> H  -22.720   27.808   44.725
| 47> H  -24.250   27.597   45.605
| 48> O  -22.586   26.394   46.375
| 49> C  -22.870   28.959   46.553
| 50> C  -23.550   30.189   45.939
| 51> C  -25.008   30.017   46.427
| 52> C  -24.837   29.395   47.836
| 53> O  -23.464   28.848   47.889
| 54> H  -21.792   29.060   46.689
| 55> O  -22.927   31.487   46.520
| 56> H  -23.469   30.225   44.847
| 57> H  -25.561   30.961   46.452
| 58> H  -25.548   29.330   45.765
| 59> H  -25.552   28.587   48.027
| 60> H  -24.919   30.139   48.633
| 61> H  -22.997   31.473   47.613
| 62> *
| 63>
| 64>                          ****END OF INPUT****
 Total Charge           Charge          ....    0
 Multiplicity           Mult            ....    1
 Number of Electrons    NEL             ....  102
FINAL SINGLE POINT ENERGY      -652.765503517932
FINAL SINGLE POINT ENERGY      -652.818316399682
FINAL SINGLE POINT ENERGY      -652.838791312031
FINAL SINGLE POINT ENERGY      -652.843097618382
FINAL SINGLE POINT ENERGY      -652.843763165443
FINAL SINGLE POINT ENERGY      -652.843888617759
FINAL SINGLE POINT ENERGY      -652.843898019778
                    ***********************HURRAY********************

CARTESIAN COORDINATES (ANGSTROEM)
---------------------------------
  C    -21.067270   26.315664   46.249865
  C    -20.044411   27.426634   45.981063
  C    -19.867005   28.063434   47.394297
  C    -19.998752   26.830891   48.322057
  O    -20.653683   25.778432   47.513315
  H    -20.984585   25.482692   45.545885
  H    -19.110237   26.958724   45.655385
  H    -20.351141   28.144936   45.214054
  H    -18.894231   28.554519   47.499255
  H    -20.638589   28.795661   47.622448
  H    -20.611394   27.029108   49.205311
  H    -19.030025   26.429977   48.633708
  C    -23.126965   27.843710   45.763351
  H    -22.786579   28.054049   44.734965
  H    -24.176644   27.541307   45.705706
  O    -22.486162   26.642079   46.262088
  C    -23.018626   29.147036   46.559361
  C    -23.827265   30.281353   45.907464
  C    -25.262812   29.988664   46.428090
  C    -25.006650   29.445559   47.857413
  O    -23.582921   29.037428   47.904885
  H    -21.983105   29.461226   46.670623
  O    -23.343412   31.578751   46.350075
  H    -23.759220   30.308892   44.818918
  H    -25.867884   30.898798   46.418718
  H    -25.753994   29.241366   45.795836
  H    -25.631002   28.580949   48.100504
  H    -25.150377   30.208440   48.629139
  H    -23.222058   31.559721   47.323220

 Multiplicity           Mult            ....    1
 Number of Electrons    NEL             ....  102
 Basis Dimension        Dim             ....  149

ORBITAL ENERGIES
----------------

  NO   OCC          E(Eh)            E(eV)
   0   2.0000     -19.146211      -520.9949
   1   2.0000     -19.145541      -520.9767
   2   2.0000     -19.135047      -520.6911
   3   2.0000     -19.134475      -520.6755
   4   2.0000     -10.277490      -279.6647
   5   2.0000     -10.249072      -278.8914
   6   2.0000     -10.237957      -278.5890
   7   2.0000     -10.237807      -278.5849
   8   2.0000     -10.235266      -278.5157
   9   2.0000     -10.221220      -278.1335
  10   2.0000     -10.195232      -277.4264
  11   2.0000     -10.193009      -277.3659
  12   2.0000     -10.188224      -277.2357
  13   2.0000      -1.046562       -28.4784
  14   2.0000      -1.040730       -28.3197
  15   2.0000      -1.011906       -27.5354
  16   2.0000      -0.989406       -26.9231
  17   2.0000      -0.790855       -21.5203
  18   2.0000      -0.785798       -21.3826
  19   2.0000      -0.772478       -21.0202
  20   2.0000      -0.734901       -19.9977
  21   2.0000      -0.680736       -18.5238
  22   2.0000      -0.611595       -16.6424
  23   2.0000      -0.609953       -16.5977
  24   2.0000      -0.597207       -16.2508
  25   2.0000      -0.573913       -15.6170
  26   2.0000      -0.526848       -14.3363
  27   2.0000      -0.508916       -13.8483
  28   2.0000      -0.499421       -13.5899
  29   2.0000      -0.496416       -13.5082
  30   2.0000      -0.473650       -12.8887
  31   2.0000      -0.462492       -12.5851
  32   2.0000      -0.454217       -12.3599
  33   2.0000      -0.438723       -11.9383
  34   2.0000      -0.432294       -11.7633
  35   2.0000      -0.410913       -11.1815
  36   2.0000      -0.410346       -11.1661
  37   2.0000      -0.398970       -10.8565
  38   2.0000      -0.382038       -10.3958
  39   2.0000      -0.377305       -10.2670
  40   2.0000      -0.364624        -9.9219
  41   2.0000      -0.354575        -9.6485
  42   2.0000      -0.349927        -9.5220
  43   2.0000      -0.337980        -9.1969
  44   2.0000      -0.314036        -8.5454
  45   2.0000      -0.307210        -8.3596
  46   2.0000      -0.287872        -7.8334
  47   2.0000      -0.275950        -7.5090
  48   2.0000      -0.267875        -7.2892
  49   2.0000      -0.253840        -6.9073
  50   2.0000      -0.237356        -6.4588
  51   0.0000       0.059534         1.6200
  52   0.0000       0.079989         2.1766
  53   0.0000       0.081943         2.2298
  54   0.0000       0.087060         2.3690
  55   0.0000       0.094922         2.5830

MULLIKEN ATOMIC CHARGES
-----------------------
   0 C :    0.325797
   1 C :   -0.303627
   2 C :   -0.315013
   3 C :   -0.004507
   4 O :   -0.494910
   5 H :    0.152978
   6 H :    0.157022
   7 H :    0.140328
   8 H :    0.142469
   9 H :    0.170874
  10 H :    0.159981
  11 H :    0.141663
  12 C :    0.014273
  13 H :    0.114461
  14 H :    0.157705
  15 O :   -0.526973
  16 C :    0.045347
  17 C :    0.071145
  18 C :   -0.305144
  19 C :   -0.029755
  20 O :   -0.515412
  21 H :    0.160098
  22 O :   -0.598996
  23 H :    0.155465
  24 H :    0.165539
  25 H :    0.150720
  26 H :    0.156987
  27 H :    0.147431
  28 H :    0.364056
Sum of atomic charges:   -0.0000000

LOEWDIN ATOMIC CHARGES
----------------------
   0 C :    0.185722
   1 C :   -0.233281
   2 C :   -0.223392
   3 C :   -0.027915
   4 O :   -0.306259
   5 H :    0.101906
   6 H :    0.123798
   7 H :    0.111567
   8 H :    0.114712
   9 H :    0.117195
  10 H :    0.111469
  11 H :    0.101819
  12 C :   -0.034346
  13 H :    0.089173
  14 H :    0.116889
  15 O :   -0.329739
  16 C :   -0.002655
  17 C :    0.034533
  18 C :   -0.243557
  19 C :   -0.037024
  20 O :   -0.325455
  21 H :    0.112238
  22 O :   -0.412843
  23 H :    0.116235
  24 H :    0.127694
  25 H :    0.115712
  26 H :    0.109741
  27 H :    0.103029
  28 H :    0.283033

  Mayer bond orders larger than 0.100000
B(  0-C ,  1-C ) :   0.9274 B(  0-C ,  4-O ) :   0.9288 B(  0-C ,  5-H ) :   0.9312
B(  0-C , 15-O ) :   0.8589 B(  1-C ,  2-C ) :   0.9539 B(  1-C ,  6-H ) :   0.9328
B(  1-C ,  7-H ) :   0.9320 B(  2-C ,  3-C ) :   0.9489 B(  2-C ,  8-H ) :   0.9458
B(  2-C ,  9-H ) :   0.9229 B(  3-C ,  4-O ) :   0.8395 B(  3-C , 10-H ) :   0.9327
B(  3-C , 11-H ) :   0.9397 B( 12-C , 13-H ) :   0.9096 B( 12-C , 14-H ) :   0.9358
B( 12-C , 15-O ) :   0.8706 B( 12-C , 16-C ) :   0.8739 B( 16-C , 17-C ) :   0.8876
B( 16-C , 20-O ) :   0.8647 B( 16-C , 21-H ) :   0.9038 B( 17-C , 18-C ) :   0.9141
B( 17-C , 22-O ) :   0.8937 B( 17-C , 23-H ) :   0.9308 B( 18-C , 19-C ) :   0.9407
B( 18-C , 24-H ) :   0.9365 B( 18-C , 25-H ) :   0.9321 B( 19-C , 20-O ) :   0.8463
B( 19-C , 26-H ) :   0.9329 B( 19-C , 27-H ) :   0.9372 B( 22-O , 28-H ) :   0.7944

FINAL SINGLE POINT ENERGY      -652.843900523134

DIPOLE MOMENT
-------------
                                X             Y             Z
Electronic contribution:     -0.64657      -2.54476       0.93216
Nuclear contribution   :      0.60954       3.40455      -1.39414
                        -----------------------------------------
Total Dipole Moment    :     -0.03703       0.85979      -0.46198
                        -----------------------------------------
Magnitude (a.u.)       :      0.97675
Magnitude (Debye)      :      2.48269

Rotational constants in cm-1:     0.050604     0.014637     0.014096
Rotational constants in MHz :  1517.060921   438.817017   422.572967

                             ****ORCA TERMINATED NORMALLY****
TOTAL RUN TIME: 0 days 0 hours 20 minutes 14 seconds 106 msec
