                         Program Version 4.2.1 -  RELEASE  -
|  1> # Test redundant internal optimization
|  2> #
|  3> ! RKS B3LYP  Opt TightSCF SmallPrint
|  4>
|  5> %basis
|  6>         Basis "6-31G"
|  7> end
|  8>
|  9> %geom
| 10> Constraints
| 11> { D 4  0  19  14  300.0   C } # D for Dihedral angle
| 12> { D 0  19  14  12  315.0   C } # D for Dihedral angle
| 13> { D 0  4  3  2   C } # D for Dihedral angle
| 14> { D 4  3  2  1   C } # D for Dihedral angle
| 15> { D 3  2  1  0   C } # D for Dihedral angle
| 16> { D 2  1  0  4   C } # D for Dihedral angle
| 17> { D 1  0  4  3   C } # D for Dihedral angle
| 18> { D 14  15  16  17   C } # D for Dihedral angle
| 19> { D 15  16  17  12   C } # D for Dihedral angle
| 20> { D 16  17  12  14   C } # D for Dihedral angle
| 21> { D 17  12  14  15   C } # D for Dihedral angle
| 22> { D 12  14  15  16   C } # D for Dihedral angle
| 23> end
| 24> end
| 25>
| 26>
| 27> #%pal
| 28> #nprocs 8
| 29> #end
| 30>
| 31> * xyz 0 1
| 32> C  -21.048   26.222   46.251
| 33> C  -20.361   27.558   45.944
| 34> C  -20.329   28.222   47.341
| 35> C  -20.110   27.022   48.296
| 36> O  -20.473   25.807   47.535
| 37> H  -20.833   25.428   45.533
| 38> H  -19.344   27.382   45.576
| 39> H  -20.898   28.157   45.201
| 40> H  -19.543   28.978   47.434
| 41> H  -21.289   28.710   47.548
| 42> H  -20.733   27.082   49.195
| 43> H  -19.064   26.913   48.597
| 44> C  -22.652   23.988   45.958
| 45> H  -23.347   23.136   46.018
| 46> C  -23.171   25.189   46.758
| 47> C  -22.800   24.788   48.204
| 48> C  -21.459   24.033   48.027
| 49> O  -21.375   23.653   46.599
| 50> H  -22.437   24.201   44.910
| 51> O  -22.472   26.381   46.366
| 52> H  -24.246   25.360   46.627
| 53> H  -22.709   25.648   48.874
| 54> H  -23.566   24.121   48.620
| 55> H  -21.400   23.128   48.642
| 56> H  -20.591   24.664   48.242
| 57> *
| 58>
| 59>                          ****END OF INPUT****
 Total Charge           Charge          ....    0
 Multiplicity           Mult            ....    1
 Number of Electrons    NEL             ....   86
FINAL SINGLE POINT ENERGY      -538.347517546878
FINAL SINGLE POINT ENERGY      -538.386139467674
FINAL SINGLE POINT ENERGY      -538.406472909008
FINAL SINGLE POINT ENERGY      -538.418292129383
FINAL SINGLE POINT ENERGY      -538.425313283329
FINAL SINGLE POINT ENERGY      -538.429598290262
FINAL SINGLE POINT ENERGY      -538.432093032572
FINAL SINGLE POINT ENERGY      -538.433263503562
FINAL SINGLE POINT ENERGY      -538.433510310331
FINAL SINGLE POINT ENERGY      -538.433630801872
FINAL SINGLE POINT ENERGY      -538.433709115127
FINAL SINGLE POINT ENERGY      -538.433751214076
FINAL SINGLE POINT ENERGY      -538.433768019192
FINAL SINGLE POINT ENERGY      -538.433771714907
                    ***********************HURRAY********************

CARTESIAN COORDINATES (ANGSTROEM)
---------------------------------
  C    -20.826880   26.331400   46.185212
  C    -20.423170   27.782656   45.919890
  C    -20.371814   28.361882   47.352589
  C    -19.851344   27.176045   48.194517
  O    -20.073199   25.959905   47.366246
  H    -20.535160   25.605970   45.422011
  H    -19.433800   27.798486   45.448861
  H    -21.137335   28.295214   45.272658
  H    -19.724345   29.240547   47.430003
  H    -21.380058   28.645322   47.667259
  H    -20.380134   27.060788   49.144765
  H    -18.775721   27.229427   48.386983
  C    -22.669856   23.847962   46.007763
  H    -23.538728   23.172247   45.992829
  C    -23.024651   25.138937   46.747340
  C    -22.901081   24.695671   48.215670
  C    -21.727518   23.685410   48.201520
  O    -21.564490   23.270386   46.776553
  H    -22.321495   24.003010   44.984093
  O    -22.259037   26.325219   46.364586
  H    -24.046376   25.458266   46.520533
  H    -22.724677   25.546466   48.878880
  H    -23.837711   24.212659   48.516989
  H    -21.937107   22.791068   48.799031
  H    -20.784313   24.136059   48.499219

 Multiplicity           Mult            ....    1
 Number of Electrons    NEL             ....   86
 Basis Dimension        Dim             ....  127

ORBITAL ENERGIES
----------------

  NO   OCC          E(Eh)            E(eV)
   0   2.0000     -19.140410      -520.8370
   1   2.0000     -19.140022      -520.8265
   2   2.0000     -19.123003      -520.3634
   3   2.0000     -10.275218      -279.6029
   4   2.0000     -10.237665      -278.5810
   5   2.0000     -10.225587      -278.2524
   6   2.0000     -10.220003      -278.1004
   7   2.0000     -10.206631      -277.7365
   8   2.0000     -10.184321      -277.1295
   9   2.0000     -10.183056      -277.0950
  10   2.0000     -10.179968      -277.0110
  11   2.0000      -1.049718       -28.5643
  12   2.0000      -1.005194       -27.3527
  13   2.0000      -0.987056       -26.8592
  14   2.0000      -0.791325       -21.5330
  15   2.0000      -0.773868       -21.0580
  16   2.0000      -0.734746       -19.9935
  17   2.0000      -0.719145       -19.5689
  18   2.0000      -0.618182       -16.8216
  19   2.0000      -0.596879       -16.2419
  20   2.0000      -0.591603       -16.0983
  21   2.0000      -0.560640       -15.2558
  22   2.0000      -0.516337       -14.0502
  23   2.0000      -0.498443       -13.5633
  24   2.0000      -0.483062       -13.1448
  25   2.0000      -0.478076       -13.0091
  26   2.0000      -0.446104       -12.1391
  27   2.0000      -0.441470       -12.0130
  28   2.0000      -0.419012       -11.4019
  29   2.0000      -0.409815       -11.1516
  30   2.0000      -0.397797       -10.8246
  31   2.0000      -0.385612       -10.4930
  32   2.0000      -0.372186       -10.1277
  33   2.0000      -0.363763        -9.8985
  34   2.0000      -0.357030        -9.7153
  35   2.0000      -0.351967        -9.5775
  36   2.0000      -0.338312        -9.2059
  37   2.0000      -0.322734        -8.7820
  38   2.0000      -0.302383        -8.2283
  39   2.0000      -0.290357        -7.9010
  40   2.0000      -0.264720        -7.2034
  41   2.0000      -0.252337        -6.8664
  42   2.0000      -0.227034        -6.1779
  43   0.0000       0.076161         2.0724
  44   0.0000       0.092894         2.5278
  45   0.0000       0.103740         2.8229
  46   0.0000       0.112877         3.0715
  47   0.0000       0.116003         3.1566

MULLIKEN ATOMIC CHARGES
-----------------------
   0 C :    0.300965
   1 C :   -0.261701
   2 C :   -0.297402
   3 C :   -0.011111
   4 O :   -0.507589
   5 H :    0.158029
   6 H :    0.146482
   7 H :    0.158208
   8 H :    0.140245
   9 H :    0.159646
  10 H :    0.139779
  11 H :    0.147106
  12 C :   -0.036053
  13 H :    0.131454
  14 C :    0.105477
  15 C :   -0.300207
  16 C :   -0.005332
  17 O :   -0.524196
  18 H :    0.154859
  19 O :   -0.540304
  20 H :    0.143920
  21 H :    0.151672
  22 H :    0.138585
  23 H :    0.126194
  24 H :    0.181272
Sum of atomic charges:   -0.0000000

LOEWDIN ATOMIC CHARGES
----------------------
   0 C :    0.176846
   1 C :   -0.214035
   2 C :   -0.215873
   3 C :   -0.032233
   4 O :   -0.318343
   5 H :    0.103118
   6 H :    0.114412
   7 H :    0.125029
   8 H :    0.113273
   9 H :    0.117781
  10 H :    0.100235
  11 H :    0.104444
  12 C :   -0.053390
  13 H :    0.096207
  14 C :    0.044957
  15 C :   -0.233701
  16 C :   -0.037855
  17 O :   -0.334883
  18 H :    0.112955
  19 O :   -0.329205
  20 H :    0.111028
  21 H :    0.121879
  22 H :    0.112754
  23 H :    0.093016
  24 H :    0.121585

  Mayer bond orders larger than 0.100000
B(  0-C ,  1-C ) :   0.9422 B(  0-C ,  4-O ) :   0.8910 B(  0-C ,  5-H ) :   0.9179
B(  0-C , 19-O ) :   0.8537 B(  1-C ,  2-C ) :   0.9567 B(  1-C ,  6-H ) :   0.9405
B(  1-C ,  7-H ) :   0.9363 B(  2-C ,  3-C ) :   0.9560 B(  2-C ,  8-H ) :   0.9453
B(  2-C ,  9-H ) :   0.9444 B(  3-C ,  4-O ) :   0.8372 B(  3-C , 10-H ) :   0.9341
B(  3-C , 11-H ) :   0.9396 B( 12-C , 13-H ) :   0.9122 B( 12-C , 14-C ) :   0.9202
B( 12-C , 17-O ) :   0.8722 B( 12-C , 18-H ) :   0.9311 B( 14-C , 15-C ) :   0.9308
B( 14-C , 19-O ) :   0.8605 B( 14-C , 20-H ) :   0.9387 B( 15-C , 16-C ) :   0.9512
B( 15-C , 21-H ) :   0.9375 B( 15-C , 22-H ) :   0.9375 B( 16-C , 17-O ) :   0.8390
B( 16-C , 23-H ) :   0.9332 B( 16-C , 24-H ) :   0.9156

FINAL SINGLE POINT ENERGY      -538.433771976261

DIPOLE MOMENT
-------------
                                X             Y             Z
Electronic contribution:      0.20007      -2.64841      -2.06319
Nuclear contribution   :     -0.62049       3.51535       2.35625
                        -----------------------------------------
Total Dipole Moment    :     -0.42043       0.86694       0.29305
                        -----------------------------------------
Magnitude (a.u.)       :      1.00709
Magnitude (Debye)      :      2.55981

Rotational constants in cm-1:     0.071153     0.026745     0.024491
Rotational constants in MHz :  2133.120044   801.781610   734.217216

                             ****ORCA TERMINATED NORMALLY****
TOTAL RUN TIME: 0 days 0 hours 18 minutes 17 seconds 904 msec
