                         Program Version 4.2.0 -  RELEASE  -
|  1> # Test redundant internal optimization
|  2> #
|  3> ! RKS B3LYP  Opt TightSCF SmallPrint
|  4>
|  5> %basis
|  6>         Basis "6-31G"
|  7> end
|  8>
|  9> %geom
| 10> Constraints
| 11> { D 4  0  15  12  255.0   C } # D for Dihedral angle
| 12> { D 0  15  12  16  120.0   C } # D for Dihedral angle
| 13> { D 0  4  3  2   C } # D for Dihedral angle
| 14> { D 4  3  2  1   C } # D for Dihedral angle
| 15> { D 3  2  1  0   C } # D for Dihedral angle
| 16> { D 2  1  0  4   C } # D for Dihedral angle
| 17> { D 1  0  4  3   C } # D for Dihedral angle
| 18> { D 16  20  19  18   C } # D for Dihedral angle
| 19> { D 20  19  18  17   C } # D for Dihedral angle
| 20> { D 19  18  17  16   C } # D for Dihedral angle
| 21> { D 18  17  16  20   C } # D for Dihedral angle
| 22> { D 17  16  20  19   C } # D for Dihedral angle
| 23> { D 15  12  16  20   C } # D for Dihedral angle
| 24> end
| 25> end
| 26>
| 27>
| 28> #%pal
| 29> #nprocs 8
| 30> #end
| 31>
| 32> * xyz 0 1
| 33> C  -21.048   26.222   46.251
| 34> C  -20.361   27.558   45.944
| 35> C  -20.329   28.222   47.341
| 36> C  -20.110   27.022   48.296
| 37> O  -20.473   25.807   47.535
| 38> H  -20.833   25.428   45.533
| 39> H  -19.344   27.382   45.576
| 40> H  -20.898   28.157   45.201
| 41> H  -19.543   28.978   47.434
| 42> H  -21.289   28.710   47.548
| 43> H  -20.733   27.082   49.195
| 44> H  -19.064   26.913   48.597
| 45> C  -23.431   25.260   45.734
| 46> H  -24.069   25.683   44.947
| 47> H  -22.778   24.506   45.276
| 48> O  -22.586   26.394   46.375
| 49> C  -24.342   24.534   46.762
| 50> C  -25.405   25.481   47.330
| 51> C  -26.449   25.502   46.188
| 52> C  -26.391   24.056   45.634
| 53> O  -25.116   23.476   46.105
| 54> H  -23.717   24.052   47.516
| 55> O  -26.018   24.879   48.624
| 56> H  -25.013   26.477   47.566
| 57> H  -27.450   25.776   46.534
| 58> H  -26.150   26.224   45.419
| 59> H  -26.416   24.026   44.539
| 60> H  -27.196   23.427   46.024
| 61> H  -26.418   23.880   48.412
| 62> *
| 63>
| 64>                          ****END OF INPUT****
 Total Charge           Charge          ....    0
 Multiplicity           Mult            ....    1
 Number of Electrons    NEL             ....  102
FINAL SINGLE POINT ENERGY      -652.838875726667
FINAL SINGLE POINT ENERGY      -652.861601568450
FINAL SINGLE POINT ENERGY      -652.865206087969
FINAL SINGLE POINT ENERGY      -652.865830647327
FINAL SINGLE POINT ENERGY      -652.865922187717
FINAL SINGLE POINT ENERGY      -652.865935522934
FINAL SINGLE POINT ENERGY      -652.865937856804
                    ***********************HURRAY********************

CARTESIAN COORDINATES (ANGSTROEM)
---------------------------------
  C    -21.084460   26.121262   46.211251
  C    -20.481259   27.504414   45.965632
  C    -20.576108   28.147855   47.369929
  C    -20.326273   26.951740   48.315724
  O    -20.563065   25.733970   47.499888
  H    -20.793134   25.340410   45.502450
  H    -19.435123   27.394307   45.656770
  H    -21.022881   28.059499   45.197112
  H    -19.850081   28.953187   47.515313
  H    -21.580673   28.554474   47.519924
  H    -21.001511   26.934832   49.174770
  H    -19.291608   26.896710   48.667230
  C    -23.332694   25.209144   45.630783
  H    -23.920131   25.662596   44.823242
  H    -22.701202   24.423391   45.197274
  O    -22.524973   26.252350   46.245403
  C    -24.240576   24.590395   46.693845
  C    -25.257826   25.558340   47.315095
  C    -26.367062   25.583164   46.232852
  C    -26.362866   24.133076   45.687521
  O    -25.063966   23.535334   46.091092
  H    -23.623061   24.122989   47.466084
  O    -25.753978   25.047686   48.583295
  H    -24.833393   26.536562   47.534211
  H    -27.326447   25.870980   46.669636
  H    -26.117042   26.305421   45.448349
  H    -26.451720   24.086013   44.597542
  H    -27.151222   23.515877   46.128854
  H    -25.935666   24.088023   48.494929

 Multiplicity           Mult            ....    1
 Number of Electrons    NEL             ....  102
 Basis Dimension        Dim             ....  149

ORBITAL ENERGIES
----------------

  NO   OCC          E(Eh)            E(eV)
   0   2.0000     -19.146090      -520.9916
   1   2.0000     -19.143528      -520.9219
   2   2.0000     -19.137977      -520.7708
   3   2.0000     -19.132296      -520.6162
   4   2.0000     -10.281492      -279.7736
   5   2.0000     -10.233245      -278.4607
   6   2.0000     -10.233126      -278.4575
   7   2.0000     -10.230622      -278.3894
   8   2.0000     -10.229017      -278.3457
   9   2.0000     -10.223302      -278.1902
  10   2.0000     -10.185883      -277.1720
  11   2.0000     -10.185272      -277.1553
  12   2.0000     -10.184760      -277.1414
  13   2.0000      -1.053588       -28.6696
  14   2.0000      -1.033474       -28.1223
  15   2.0000      -1.001945       -27.2643
  16   2.0000      -0.995933       -27.1007
  17   2.0000      -0.788842       -21.4655
  18   2.0000      -0.776796       -21.1377
  19   2.0000      -0.765599       -20.8330
  20   2.0000      -0.729191       -19.8423
  21   2.0000      -0.674184       -18.3455
  22   2.0000      -0.602177       -16.3861
  23   2.0000      -0.598057       -16.2740
  24   2.0000      -0.593211       -16.1421
  25   2.0000      -0.581443       -15.8219
  26   2.0000      -0.520076       -14.1520
  27   2.0000      -0.519299       -14.1308
  28   2.0000      -0.495589       -13.4857
  29   2.0000      -0.486692       -13.2436
  30   2.0000      -0.467541       -12.7224
  31   2.0000      -0.457050       -12.4370
  32   2.0000      -0.448400       -12.2016
  33   2.0000      -0.440830       -11.9956
  34   2.0000      -0.424767       -11.5585
  35   2.0000      -0.412657       -11.2290
  36   2.0000      -0.399113       -10.8604
  37   2.0000      -0.390605       -10.6289
  38   2.0000      -0.372829       -10.1452
  39   2.0000      -0.364936        -9.9304
  40   2.0000      -0.357270        -9.7218
  41   2.0000      -0.353549        -9.6206
  42   2.0000      -0.349085        -9.4991
  43   2.0000      -0.329103        -8.9553
  44   2.0000      -0.321685        -8.7535
  45   2.0000      -0.309276        -8.4158
  46   2.0000      -0.300678        -8.1819
  47   2.0000      -0.279255        -7.5989
  48   2.0000      -0.263323        -7.1654
  49   2.0000      -0.251797        -6.8517
  50   2.0000      -0.240102        -6.5335
  51   0.0000       0.065097         1.7714
  52   0.0000       0.077447         2.1074
  53   0.0000       0.097467         2.6522
  54   0.0000       0.100917         2.7461
  55   0.0000       0.105946         2.8829

MULLIKEN ATOMIC CHARGES
-----------------------
   0 C :    0.283932
   1 C :   -0.253512
   2 C :   -0.300160
   3 C :   -0.003085
   4 O :   -0.503948
   5 H :    0.142738
   6 H :    0.144272
   7 H :    0.148686
   8 H :    0.141229
   9 H :    0.162466
  10 H :    0.154245
  11 H :    0.141417
  12 C :   -0.012043
  13 H :    0.135501
  14 H :    0.146352
  15 O :   -0.526041
  16 C :    0.063579
  17 C :    0.093521
  18 C :   -0.299261
  19 C :   -0.034030
  20 O :   -0.528147
  21 H :    0.172389
  22 O :   -0.603736
  23 H :    0.171843
  24 H :    0.160016
  25 H :    0.146179
  26 H :    0.145805
  27 H :    0.147496
  28 H :    0.362294
Sum of atomic charges:    0.0000000

LOEWDIN ATOMIC CHARGES
----------------------
   0 C :    0.175203
   1 C :   -0.218553
   2 C :   -0.216178
   3 C :   -0.027283
   4 O :   -0.322202
   5 H :    0.098932
   6 H :    0.113357
   7 H :    0.119828
   8 H :    0.113724
   9 H :    0.119031
  10 H :    0.108953
  11 H :    0.102245
  12 C :   -0.035301
  13 H :    0.098509
  14 H :    0.107046
  15 O :   -0.333455
  16 C :    0.011543
  17 C :    0.038553
  18 C :   -0.241750
  19 C :   -0.039601
  20 O :   -0.333119
  21 H :    0.121830
  22 O :   -0.414751
  23 H :    0.125921
  24 H :    0.125958
  25 H :    0.113785
  26 H :    0.103330
  27 H :    0.103037
  28 H :    0.281408

  Mayer bond orders larger than 0.100000
B(  0-C ,  1-C ) :   0.9460 B(  0-C ,  4-O ) :   0.9284 B(  0-C ,  5-H ) :   0.9183
B(  0-C , 15-O ) :   0.8453 B(  1-C ,  2-C ) :   0.9580 B(  1-C ,  6-H ) :   0.9381
B(  1-C ,  7-H ) :   0.9381 B(  2-C ,  3-C ) :   0.9540 B(  2-C ,  8-H ) :   0.9453
B(  2-C ,  9-H ) :   0.9440 B(  3-C ,  4-O ) :   0.8364 B(  3-C , 10-H ) :   0.9345
B(  3-C , 11-H ) :   0.9400 B( 12-C , 13-H ) :   0.9330 B( 12-C , 14-H ) :   0.9191
B( 12-C , 15-O ) :   0.8306 B( 12-C , 16-C ) :   0.8914 B( 16-C , 17-C ) :   0.9159
B( 16-C , 20-O ) :   0.8386 B( 16-C , 21-H ) :   0.9241 B( 17-C , 18-C ) :   0.9107
B( 17-C , 22-O ) :   0.8904 B( 17-C , 23-H ) :   0.9251 B( 18-C , 19-C ) :   0.9420
B( 18-C , 24-H ) :   0.9384 B( 18-C , 25-H ) :   0.9346 B( 19-C , 20-O ) :   0.8459
B( 19-C , 26-H ) :   0.9354 B( 19-C , 27-H ) :   0.9379 B( 22-O , 28-H ) :   0.7962

FINAL SINGLE POINT ENERGY      -652.865937851549

DIPOLE MOMENT
-------------
                                X             Y             Z
Electronic contribution:     -0.71844      -4.44658       1.63934
Nuclear contribution   :      0.80061       5.17574      -2.58442
                        -----------------------------------------
Total Dipole Moment    :      0.08217       0.72915      -0.94508
                        -----------------------------------------
Magnitude (a.u.)       :      1.19649
Magnitude (Debye)      :      3.04124

Rotational constants in cm-1:     0.056264     0.012569     0.011891
Rotational constants in MHz :  1686.747567   376.806223   356.474376

                             ****ORCA TERMINATED NORMALLY****
TOTAL RUN TIME: 0 days 0 hours 46 minutes 51 seconds 190 msec
