                         Program Version 4.2.0 -  RELEASE  -
|  1> # Test redundant internal optimization
|  2> #
|  3> ! RKS B3LYP  Opt TightSCF SmallPrint
|  4>
|  5> %basis
|  6>         Basis "6-31G"
|  7> end
|  8>
|  9> %geom
| 10> Constraints
| 11> { D 4  0  15  12  240.0   C } # D for Dihedral angle
| 12> { D 0  15  12  16  255.0   C } # D for Dihedral angle
| 13> { D 0  4  3  2   C } # D for Dihedral angle
| 14> { D 4  3  2  1   C } # D for Dihedral angle
| 15> { D 3  2  1  0   C } # D for Dihedral angle
| 16> { D 2  1  0  4   C } # D for Dihedral angle
| 17> { D 1  0  4  3   C } # D for Dihedral angle
| 18> { D 16  20  19  18   C } # D for Dihedral angle
| 19> { D 20  19  18  17   C } # D for Dihedral angle
| 20> { D 19  18  17  16   C } # D for Dihedral angle
| 21> { D 18  17  16  20   C } # D for Dihedral angle
| 22> { D 17  16  20  19   C } # D for Dihedral angle
| 23> { D 15  12  16  20   C } # D for Dihedral angle
| 24> end
| 25> end
| 26>
| 27>
| 28> #%pal
| 29> #nprocs 8
| 30> #end
| 31>
| 32> * xyz 0 1
| 33> C  -21.048   26.222   46.251
| 34> C  -20.361   27.558   45.944
| 35> C  -20.329   28.222   47.341
| 36> C  -20.110   27.022   48.296
| 37> O  -20.473   25.807   47.535
| 38> H  -20.833   25.428   45.533
| 39> H  -19.344   27.382   45.576
| 40> H  -20.898   28.157   45.201
| 41> H  -19.543   28.978   47.434
| 42> H  -21.289   28.710   47.548
| 43> H  -20.733   27.082   49.195
| 44> H  -19.064   26.913   48.597
| 45> C  -23.430   25.483   45.442
| 46> H  -22.795   24.678   45.051
| 47> H  -24.259   25.026   45.998
| 48> O  -22.586   26.394   46.375
| 49> C  -24.037   26.254   44.238
| 50> C  -24.869   27.454   44.707
| 51> C  -23.767   28.496   45.017
| 52> C  -22.695   28.206   43.938
| 53> O  -22.974   26.848   43.421
| 54> H  -24.577   25.553   43.599
| 55> H  -25.514   27.804   43.895
| 56> O  -25.759   27.135   45.939
| 57> H  -24.134   29.527   44.975
| 58> H  -23.360   28.326   46.021
| 59> H  -21.676   28.235   44.340
| 60> H  -22.760   28.893   43.089
| 61> H  -25.132   26.782   46.765
| 62> *
| 63>
| 64>                          ****END OF INPUT****
 Total Charge           Charge          ....    0
 Multiplicity           Mult            ....    1
 Number of Electrons    NEL             ....  102
FINAL SINGLE POINT ENERGY      -652.808948480045
FINAL SINGLE POINT ENERGY      -652.837766871487
FINAL SINGLE POINT ENERGY      -652.854941017980
FINAL SINGLE POINT ENERGY      -652.858936947913
FINAL SINGLE POINT ENERGY      -652.859384377365
FINAL SINGLE POINT ENERGY      -652.859433543577
FINAL SINGLE POINT ENERGY      -652.859441873670
                    ***********************HURRAY********************

CARTESIAN COORDINATES (ANGSTROEM)
---------------------------------
  C    -20.961154   26.160435   46.285814
  C    -20.262136   27.502825   46.068819
  C    -20.269493   28.106521   47.497095
  C    -20.084932   26.858454   48.389811
  O    -20.435032   25.697297   47.541589
  H    -20.746582   25.394592   45.535786
  H    -19.234859   27.317598   45.733026
  H    -20.761188   28.127417   45.331208
  H    -19.478744   28.847502   47.646462
  H    -21.234012   28.584736   47.694491
  H    -20.734126   26.859073   49.269056
  H    -19.047553   26.716338   48.707548
  C    -23.260163   25.554246   45.519048
  H    -22.683500   24.706092   45.124169
  H    -24.066315   25.146582   46.139651
  O    -22.403043   26.335753   46.403054
  C    -23.916843   26.278565   44.343398
  C    -24.902201   27.397405   44.725250
  C    -23.964370   28.641497   44.792523
  C    -22.946225   28.357535   43.668358
  O    -23.036772   26.905362   43.367596
  H    -24.444671   25.487025   43.794257
  H    -25.654376   27.514765   43.942514
  O    -25.658840   27.151444   45.932602
  H    -24.505364   29.580611   44.650429
  H    -23.473286   28.654435   45.771117
  H    -21.918726   28.611395   43.934716
  H    -23.200542   28.881447   42.741011
  H    -25.063952   27.198054   46.710603

 Multiplicity           Mult            ....    1
 Number of Electrons    NEL             ....  102
 Basis Dimension        Dim             ....  149

ORBITAL ENERGIES
----------------

  NO   OCC          E(Eh)            E(eV)
   0   2.0000     -19.148145      -521.0475
   1   2.0000     -19.143269      -520.9148
   2   2.0000     -19.142732      -520.9002
   3   2.0000     -19.140519      -520.8400
   4   2.0000     -10.283142      -279.8185
   5   2.0000     -10.240068      -278.6464
   6   2.0000     -10.233391      -278.4647
   7   2.0000     -10.233131      -278.4576
   8   2.0000     -10.230730      -278.3923
   9   2.0000     -10.226752      -278.2841
  10   2.0000     -10.189681      -277.2753
  11   2.0000     -10.188347      -277.2390
  12   2.0000     -10.187413      -277.2136
  13   2.0000      -1.055090       -28.7105
  14   2.0000      -1.032214       -28.0880
  15   2.0000      -1.014671       -27.6106
  16   2.0000      -0.996430       -27.1143
  17   2.0000      -0.789923       -21.4949
  18   2.0000      -0.777440       -21.1552
  19   2.0000      -0.770554       -20.9678
  20   2.0000      -0.734533       -19.9877
  21   2.0000      -0.682965       -18.5844
  22   2.0000      -0.608567       -16.5600
  23   2.0000      -0.602157       -16.3855
  24   2.0000      -0.598296       -16.2805
  25   2.0000      -0.576626       -15.6908
  26   2.0000      -0.527507       -14.3542
  27   2.0000      -0.510428       -13.8894
  28   2.0000      -0.502522       -13.6743
  29   2.0000      -0.490516       -13.3476
  30   2.0000      -0.467972       -12.7342
  31   2.0000      -0.463397       -12.6097
  32   2.0000      -0.448023       -12.1913
  33   2.0000      -0.436010       -11.8644
  34   2.0000      -0.425269       -11.5722
  35   2.0000      -0.420736       -11.4488
  36   2.0000      -0.409062       -11.1311
  37   2.0000      -0.394510       -10.7352
  38   2.0000      -0.386295       -10.5116
  39   2.0000      -0.366877        -9.9832
  40   2.0000      -0.359424        -9.7804
  41   2.0000      -0.355438        -9.6719
  42   2.0000      -0.351375        -9.5614
  43   2.0000      -0.332257        -9.0412
  44   2.0000      -0.318929        -8.6785
  45   2.0000      -0.313127        -8.5206
  46   2.0000      -0.308669        -8.3993
  47   2.0000      -0.276313        -7.5189
  48   2.0000      -0.266041        -7.2393
  49   2.0000      -0.256542        -6.9809
  50   2.0000      -0.238920        -6.5013
  51   0.0000       0.062032         1.6880
  52   0.0000       0.072583         1.9751
  53   0.0000       0.083771         2.2795
  54   0.0000       0.093951         2.5565
  55   0.0000       0.100383         2.7316

MULLIKEN ATOMIC CHARGES
-----------------------
   0 C :    0.292403
   1 C :   -0.266427
   2 C :   -0.305180
   3 C :    0.001353
   4 O :   -0.500041
   5 H :    0.152597
   6 H :    0.148568
   7 H :    0.151495
   8 H :    0.143514
   9 H :    0.156517
  10 H :    0.150210
  11 H :    0.142213
  12 C :   -0.040220
  13 H :    0.143640
  14 H :    0.158040
  15 O :   -0.533644
  16 C :    0.100599
  17 C :    0.089070
  18 C :   -0.314347
  19 C :   -0.015536
  20 O :   -0.525471
  21 H :    0.149628
  22 H :    0.164169
  23 O :   -0.605643
  24 H :    0.148166
  25 H :    0.157397
  26 H :    0.142167
  27 H :    0.146668
  28 H :    0.368097
Sum of atomic charges:    0.0000000

LOEWDIN ATOMIC CHARGES
----------------------
   0 C :    0.180766
   1 C :   -0.221481
   2 C :   -0.217827
   3 C :   -0.026420
   4 O :   -0.313426
   5 H :    0.104199
   6 H :    0.116509
   7 H :    0.116638
   8 H :    0.114716
   9 H :    0.114533
  10 H :    0.106991
  11 H :    0.102434
  12 C :   -0.047702
  13 H :    0.105111
  14 H :    0.116003
  15 O :   -0.345036
  16 C :    0.007276
  17 C :    0.036109
  18 C :   -0.240553
  19 C :   -0.027949
  20 O :   -0.324148
  21 H :    0.115638
  22 H :    0.116942
  23 O :   -0.408798
  24 H :    0.118285
  25 H :    0.115985
  26 H :    0.096803
  27 H :    0.103262
  28 H :    0.285142

  Mayer bond orders larger than 0.100000
B(  0-C ,  1-C ) :   0.9435 B(  0-C ,  4-O ) :   0.9294 B(  0-C ,  5-H ) :   0.9151
B(  0-C , 15-O ) :   0.8329 B(  1-C ,  2-C ) :   0.9549 B(  1-C ,  6-H ) :   0.9363
B(  1-C ,  7-H ) :   0.9193 B(  2-C ,  3-C ) :   0.9533 B(  2-C ,  8-H ) :   0.9449
B(  2-C ,  9-H ) :   0.9442 B(  3-C ,  4-O ) :   0.8387 B(  3-C , 10-H ) :   0.9349
B(  3-C , 11-H ) :   0.9396 B( 12-C , 13-H ) :   0.9240 B( 12-C , 14-H ) :   0.9152
B( 12-C , 15-O ) :   0.8562 B( 12-C , 16-C ) :   0.8931 B( 16-C , 17-C ) :   0.8858
B( 16-C , 20-O ) :   0.8720 B( 16-C , 21-H ) :   0.9202 B( 17-C , 18-C ) :   0.9268
B( 17-C , 22-H ) :   0.9361 B( 17-C , 23-O ) :   0.9056 B( 18-C , 19-C ) :   0.9449
B( 18-C , 24-H ) :   0.9416 B( 18-C , 25-H ) :   0.9303 B( 19-C , 20-O ) :   0.8437
B( 19-C , 26-H ) :   0.9117 B( 19-C , 27-H ) :   0.9367 B( 23-O , 28-H ) :   0.7903

FINAL SINGLE POINT ENERGY      -652.859441385947

DIPOLE MOMENT
-------------
                                X             Y             Z
Electronic contribution:     -2.68352      -4.50912      -0.72996
Nuclear contribution   :      3.30092       5.45785       0.75480
                        -----------------------------------------
Total Dipole Moment    :      0.61740       0.94874       0.02484
                        -----------------------------------------
Magnitude (a.u.)       :      1.13221
Magnitude (Debye)      :      2.87785

Rotational constants in cm-1:     0.045954     0.016068     0.015185
Rotational constants in MHz :  1377.676257   481.714883   455.241908

                             ****ORCA TERMINATED NORMALLY****
TOTAL RUN TIME: 0 days 0 hours 29 minutes 38 seconds 933 msec
