                         Program Version 4.2.0 -  RELEASE  -
|  1> # Test redundant internal optimization
|  2> #
|  3> ! RKS B3LYP  Opt TightSCF SmallPrint
|  4>
|  5> %basis
|  6>         Basis "6-31G"
|  7> end
|  8>
|  9> %geom
| 10> Constraints
| 11> { D 4  0  15  12  270.0   C } # D for Dihedral angle
| 12> { D 0  15  12  16  75.0   C } # D for Dihedral angle
| 13> { D 0  4  3  2   C } # D for Dihedral angle
| 14> { D 4  3  2  1   C } # D for Dihedral angle
| 15> { D 3  2  1  0   C } # D for Dihedral angle
| 16> { D 2  1  0  4   C } # D for Dihedral angle
| 17> { D 1  0  4  3   C } # D for Dihedral angle
| 18> { D 16  20  19  18   C } # D for Dihedral angle
| 19> { D 20  19  18  17   C } # D for Dihedral angle
| 20> { D 19  18  17  16   C } # D for Dihedral angle
| 21> { D 18  17  16  20   C } # D for Dihedral angle
| 22> { D 17  16  20  19   C } # D for Dihedral angle
| 23> { D 15  12  16  20   C } # D for Dihedral angle
| 24> end
| 25> end
| 26>
| 27>
| 28> #%pal
| 29> #nprocs 8
| 30> #end
| 31>
| 32> * xyz 0 1
| 33> C  -21.048   26.222   46.251
| 34> C  -20.361   27.558   45.944
| 35> C  -20.329   28.222   47.341
| 36> C  -20.110   27.022   48.296
| 37> O  -20.473   25.807   47.535
| 38> H  -20.833   25.428   45.533
| 39> H  -19.344   27.382   45.576
| 40> H  -20.898   28.157   45.201
| 41> H  -19.543   28.978   47.434
| 42> H  -21.289   28.710   47.548
| 43> H  -20.733   27.082   49.195
| 44> H  -19.064   26.913   48.597
| 45> C  -23.420   25.119   46.072
| 46> H  -24.468   25.401   45.914
| 47> H  -23.055   24.629   45.160
| 48> O  -22.586   26.394   46.375
| 49> C  -23.362   24.077   47.223
| 50> C  -24.098   22.787   46.844
| 51> C  -23.054   22.082   45.946
| 52> C  -21.706   22.472   46.602
| 53> O  -21.980   23.647   47.457
| 54> H  -23.714   24.543   48.146
| 55> O  -24.387   21.943   48.115
| 56> H  -25.047   22.970   46.328
| 57> H  -23.197   20.998   45.899
| 58> H  -23.112   22.472   44.923
| 59> H  -20.941   22.737   45.864
| 60> H  -21.314   21.685   47.252
| 61> H  -23.449   21.748   48.648
| 62> *
| 63>
| 64>                          ****END OF INPUT****
 Total Charge           Charge          ....    0
 Multiplicity           Mult            ....    1
 Number of Electrons    NEL             ....  102
FINAL SINGLE POINT ENERGY      -652.828405970678
FINAL SINGLE POINT ENERGY      -652.852793878360
FINAL SINGLE POINT ENERGY      -652.857797956609
FINAL SINGLE POINT ENERGY      -652.858989907587
FINAL SINGLE POINT ENERGY      -652.859132308218
FINAL SINGLE POINT ENERGY      -652.859154378631
                    ***********************HURRAY********************

CARTESIAN COORDINATES (ANGSTROEM)
---------------------------------
  C    -20.959236   26.230495   46.239465
  C    -20.478188   27.654701   45.961969
  C    -20.467278   28.270596   47.382010
  C    -20.040963   27.081288   48.269847
  O    -20.280837   25.862155   47.457927
  H    -20.685027   25.477509   45.493859
  H    -19.465006   27.617710   45.544566
  H    -21.132263   28.183065   45.265563
  H    -19.785471   29.122279   47.467326
  H    -21.475384   28.605832   47.642629
  H    -20.618226   27.007742   49.194929
  H    -18.973503   27.092417   48.511294
  C    -23.216681   25.124827   46.114300
  H    -24.232170   25.521692   46.013237
  H    -22.921986   24.689958   45.144704
  O    -22.399041   26.294554   46.367089
  C    -23.221953   24.033735   47.188494
  C    -24.089852   22.822098   46.817853
  C    -23.113043   21.987193   45.947204
  C    -21.741862   22.241407   46.621180
  O    -21.902317   23.459849   47.452880
  H    -23.550067   24.475157   48.135233
  O    -24.500690   22.096494   48.009037
  H    -25.017410   23.077274   46.302612
  H    -23.402581   20.933400   45.945984
  H    -23.123023   22.347604   44.912124
  H    -20.936108   22.405718   45.899336
  H    -21.446420   21.429676   47.292702
  H    -23.738411   22.038575   48.623646

 Multiplicity           Mult            ....    1
 Number of Electrons    NEL             ....  102
 Basis Dimension        Dim             ....  149

ORBITAL ENERGIES
----------------

  NO   OCC          E(Eh)            E(eV)
   0   2.0000     -19.139655      -520.8165
   1   2.0000     -19.138520      -520.7856
   2   2.0000     -19.138145      -520.7754
   3   2.0000     -19.127141      -520.4760
   4   2.0000     -10.272212      -279.5211
   5   2.0000     -10.242999      -278.7262
   6   2.0000     -10.233791      -278.4756
   7   2.0000     -10.231126      -278.4031
   8   2.0000     -10.228492      -278.3314
   9   2.0000     -10.215368      -277.9743
  10   2.0000     -10.189688      -277.2755
  11   2.0000     -10.178315      -276.9660
  12   2.0000     -10.177900      -276.9547
  13   2.0000      -1.045726       -28.4556
  14   2.0000      -1.033731       -28.1293
  15   2.0000      -1.004374       -27.3304
  16   2.0000      -0.988459       -26.8973
  17   2.0000      -0.786864       -21.4117
  18   2.0000      -0.778123       -21.1738
  19   2.0000      -0.763797       -20.7840
  20   2.0000      -0.726948       -19.7813
  21   2.0000      -0.672315       -18.2946
  22   2.0000      -0.603082       -16.4107
  23   2.0000      -0.596388       -16.2285
  24   2.0000      -0.590116       -16.0579
  25   2.0000      -0.575181       -15.6515
  26   2.0000      -0.522401       -14.2153
  27   2.0000      -0.510449       -13.8900
  28   2.0000      -0.492865       -13.4115
  29   2.0000      -0.480030       -13.0623
  30   2.0000      -0.471342       -12.8259
  31   2.0000      -0.455616       -12.3979
  32   2.0000      -0.449604       -12.2343
  33   2.0000      -0.435133       -11.8406
  34   2.0000      -0.419258       -11.4086
  35   2.0000      -0.409007       -11.1296
  36   2.0000      -0.393055       -10.6956
  37   2.0000      -0.392197       -10.6722
  38   2.0000      -0.373521       -10.1640
  39   2.0000      -0.367677       -10.0050
  40   2.0000      -0.354643        -9.6503
  41   2.0000      -0.349187        -9.5019
  42   2.0000      -0.341263        -9.2862
  43   2.0000      -0.334353        -9.0982
  44   2.0000      -0.317199        -8.6314
  45   2.0000      -0.301939        -8.2162
  46   2.0000      -0.289696        -7.8830
  47   2.0000      -0.270850        -7.3702
  48   2.0000      -0.266335        -7.2474
  49   2.0000      -0.250254        -6.8098
  50   2.0000      -0.230758        -6.2792
  51   0.0000       0.063341         1.7236
  52   0.0000       0.086844         2.3631
  53   0.0000       0.089036         2.4228
  54   0.0000       0.101412         2.7596
  55   0.0000       0.108710         2.9581

MULLIKEN ATOMIC CHARGES
-----------------------
   0 C :    0.303176
   1 C :   -0.260124
   2 C :   -0.297849
   3 C :   -0.003778
   4 O :   -0.485653
   5 H :    0.131717
   6 H :    0.141821
   7 H :    0.150027
   8 H :    0.136687
   9 H :    0.160108
  10 H :    0.146104
  11 H :    0.138445
  12 C :   -0.001434
  13 H :    0.150636
  14 H :    0.115056
  15 O :   -0.524287
  16 C :    0.068343
  17 C :    0.076687
  18 C :   -0.294239
  19 C :   -0.031809
  20 O :   -0.495592
  21 H :    0.164843
  22 O :   -0.602148
  23 H :    0.149162
  24 H :    0.163255
  25 H :    0.140084
  26 H :    0.147223
  27 H :    0.147470
  28 H :    0.366070
Sum of atomic charges:   -0.0000000

LOEWDIN ATOMIC CHARGES
----------------------
   0 C :    0.177878
   1 C :   -0.217623
   2 C :   -0.216772
   3 C :   -0.029255
   4 O :   -0.308545
   5 H :    0.093490
   6 H :    0.111938
   7 H :    0.120136
   8 H :    0.111256
   9 H :    0.118024
  10 H :    0.104881
  11 H :    0.100389
  12 C :   -0.037284
  13 H :    0.115710
  14 H :    0.086739
  15 O :   -0.326095
  16 C :    0.005030
  17 C :    0.035587
  18 C :   -0.241950
  19 C :   -0.039365
  20 O :   -0.311649
  21 H :    0.118165
  22 O :   -0.413846
  23 H :    0.114121
  24 H :    0.126774
  25 H :    0.110683
  26 H :    0.104086
  27 H :    0.103482
  28 H :    0.284017

  Mayer bond orders larger than 0.100000
B(  0-C ,  1-C ) :   0.9450 B(  0-C ,  4-O ) :   0.9270 B(  0-C ,  5-H ) :   0.9222
B(  0-C , 15-O ) :   0.8396 B(  1-C ,  2-C ) :   0.9592 B(  1-C ,  6-H ) :   0.9407
B(  1-C ,  7-H ) :   0.9374 B(  2-C ,  3-C ) :   0.9524 B(  2-C ,  8-H ) :   0.9456
B(  2-C ,  9-H ) :   0.9447 B(  3-C ,  4-O ) :   0.8463 B(  3-C , 10-H ) :   0.9352
B(  3-C , 11-H ) :   0.9399 B( 12-C , 13-H ) :   0.9311 B( 12-C , 14-H ) :   0.9232
B( 12-C , 15-O ) :   0.8721 B( 12-C , 16-C ) :   0.8783 B( 16-C , 17-C ) :   0.8923
B( 16-C , 20-O ) :   0.8687 B( 16-C , 21-H ) :   0.9245 B( 17-C , 18-C ) :   0.9121
B( 17-C , 22-O ) :   0.8911 B( 17-C , 23-H ) :   0.9336 B( 18-C , 19-C ) :   0.9384
B( 18-C , 24-H ) :   0.9372 B( 18-C , 25-H ) :   0.9329 B( 19-C , 20-O ) :   0.8528
B( 19-C , 26-H ) :   0.9333 B( 19-C , 27-H ) :   0.9377 B( 22-O , 28-H ) :   0.7932

FINAL SINGLE POINT ENERGY      -652.859156642055

DIPOLE MOMENT
-------------
                                X             Y             Z
Electronic contribution:     -1.72353      -2.28583       2.38494
Nuclear contribution   :      2.00948       2.48838      -3.21919
                        -----------------------------------------
Total Dipole Moment    :      0.28595       0.20255      -0.83426
                        -----------------------------------------
Magnitude (a.u.)       :      0.90486
Magnitude (Debye)      :      2.29998

Rotational constants in cm-1:     0.062059     0.013380     0.012961
Rotational constants in MHz :  1860.486741   401.119935   388.572603

                             ****ORCA TERMINATED NORMALLY****
TOTAL RUN TIME: 0 days 0 hours 23 minutes 11 seconds 452 msec
