                         Program Version 4.2.0 -  RELEASE  -
|  1> # Test redundant internal optimization
|  2> #
|  3> ! RKS B3LYP  Opt TightSCF SmallPrint
|  4>
|  5> %basis
|  6>         Basis "6-31G"
|  7> end
|  8>
|  9> %geom
| 10> Constraints
| 11> { D 4  0  15  12  345.0   C } # D for Dihedral angle
| 12> { D 0  15  12  16  285.0   C } # D for Dihedral angle
| 13> { D 0  4  3  2   C } # D for Dihedral angle
| 14> { D 4  3  2  1   C } # D for Dihedral angle
| 15> { D 3  2  1  0   C } # D for Dihedral angle
| 16> { D 2  1  0  4   C } # D for Dihedral angle
| 17> { D 1  0  4  3   C } # D for Dihedral angle
| 18> { D 16  20  19  18   C } # D for Dihedral angle
| 19> { D 20  19  18  17   C } # D for Dihedral angle
| 20> { D 19  18  17  16   C } # D for Dihedral angle
| 21> { D 18  17  16  20   C } # D for Dihedral angle
| 22> { D 17  16  20  19   C } # D for Dihedral angle
| 23> { D 15  12  16  20   C } # D for Dihedral angle
| 24> end
| 25> end
| 26>
| 27>
| 28> #%pal
| 29> #nprocs 8
| 30> #end
| 31>
| 32> * xyz 0 1
| 33> C  -21.048   26.222   46.251
| 34> C  -20.361   27.558   45.944
| 35> C  -20.329   28.222   47.341
| 36> C  -20.110   27.022   48.296
| 37> O  -20.473   25.807   47.535
| 38> H  -20.833   25.428   45.533
| 39> H  -19.344   27.382   45.576
| 40> H  -20.898   28.157   45.201
| 41> H  -19.543   28.978   47.434
| 42> H  -21.289   28.710   47.548
| 43> H  -20.733   27.082   49.195
| 44> H  -19.064   26.913   48.597
| 45> C  -23.221   25.764   47.645
| 46> H  -22.613   26.025   48.521
| 47> H  -24.234   26.155   47.802
| 48> O  -22.586   26.394   46.375
| 49> C  -23.319   24.216   47.563
| 50> C  -24.053   23.639   48.778
| 51> C  -25.532   23.907   48.408
| 52> C  -25.550   23.715   46.871
| 53> O  -24.146   23.815   46.419
| 54> H  -22.322   23.802   47.398
| 55> O  -23.784   22.114   48.890
| 56> H  -23.759   24.112   49.722
| 57> H  -26.227   23.234   48.921
| 58> H  -25.805   24.936   48.672
| 59> H  -26.146   24.479   46.360
| 60> H  -25.914   22.726   46.578
| 61> H  -24.072   21.620   47.955
| 62> *
| 63>
| 64>                          ****END OF INPUT****
 Total Charge           Charge          ....    0
 Multiplicity           Mult            ....    1
 Number of Electrons    NEL             ....  102
FINAL SINGLE POINT ENERGY      -652.833438061148
FINAL SINGLE POINT ENERGY      -652.855947994503
FINAL SINGLE POINT ENERGY      -652.860251009041
FINAL SINGLE POINT ENERGY      -652.861062154351
FINAL SINGLE POINT ENERGY      -652.861178545718
FINAL SINGLE POINT ENERGY      -652.861193760972
                    ***********************HURRAY********************

CARTESIAN COORDINATES (ANGSTROEM)
---------------------------------
  C    -21.092426   26.181917   46.311923
  C    -20.464766   27.535242   45.977457
  C    -20.345470   28.181397   47.376159
  C    -20.027742   26.981377   48.295603
  O    -20.425126   25.767774   47.526446
  H    -20.909855   25.391077   45.580289
  H    -19.477834   27.374533   45.528715
  H    -21.082875   28.112299   45.286695
  H    -19.569621   28.951919   47.420027
  H    -21.299524   28.641088   47.652977
  H    -20.581650   26.998451   49.238605
  H    -18.960168   26.876544   48.508213
  C    -23.188314   25.783849   47.622083
  H    -22.649276   26.049236   48.539652
  H    -24.166786   26.271483   47.629629
  O    -22.533733   26.345622   46.453365
  C    -23.338690   24.260803   47.558469
  C    -24.084843   23.673249   48.764355
  C    -25.566522   23.906675   48.364466
  C    -25.547811   23.705437   46.828329
  O    -24.135092   23.834861   46.403579
  H    -22.351072   23.804657   47.448251
  O    -23.792405   22.256851   48.920394
  H    -23.816802   24.129653   49.718571
  H    -26.221258   23.201473   48.881650
  H    -25.876078   24.923592   48.630281
  H    -26.150337   24.447752   46.295960
  H    -25.884975   22.706873   46.533036
  H    -23.766948   21.838316   48.033821

 Multiplicity           Mult            ....    1
 Number of Electrons    NEL             ....  102
 Basis Dimension        Dim             ....  149

ORBITAL ENERGIES
----------------

  NO   OCC          E(Eh)            E(eV)
   0   2.0000     -19.150601      -521.1143
   1   2.0000     -19.136875      -520.7408
   2   2.0000     -19.136140      -520.7208
   3   2.0000     -19.134760      -520.6833
   4   2.0000     -10.276855      -279.6474
   5   2.0000     -10.239079      -278.6195
   6   2.0000     -10.232859      -278.4503
   7   2.0000     -10.228325      -278.3269
   8   2.0000     -10.226580      -278.2794
   9   2.0000     -10.226416      -278.2749
  10   2.0000     -10.190256      -277.2910
  11   2.0000     -10.186400      -277.1860
  12   2.0000     -10.185207      -277.1536
  13   2.0000      -1.055024       -28.7087
  14   2.0000      -1.031940       -28.0805
  15   2.0000      -1.002318       -27.2745
  16   2.0000      -0.990206       -26.9449
  17   2.0000      -0.792000       -21.5514
  18   2.0000      -0.779492       -21.2110
  19   2.0000      -0.763469       -20.7750
  20   2.0000      -0.734650       -19.9909
  21   2.0000      -0.671077       -18.2609
  22   2.0000      -0.603591       -16.4246
  23   2.0000      -0.601598       -16.3703
  24   2.0000      -0.598985       -16.2992
  25   2.0000      -0.568574       -15.4717
  26   2.0000      -0.521385       -14.1876
  27   2.0000      -0.512013       -13.9326
  28   2.0000      -0.497528       -13.5384
  29   2.0000      -0.489611       -13.3230
  30   2.0000      -0.472234       -12.8502
  31   2.0000      -0.459646       -12.5076
  32   2.0000      -0.447795       -12.1851
  33   2.0000      -0.439472       -11.9586
  34   2.0000      -0.419423       -11.4131
  35   2.0000      -0.411380       -11.1942
  36   2.0000      -0.396679       -10.7942
  37   2.0000      -0.389556       -10.6003
  38   2.0000      -0.375187       -10.2094
  39   2.0000      -0.367890       -10.0108
  40   2.0000      -0.360785        -9.8175
  41   2.0000      -0.357092        -9.7170
  42   2.0000      -0.351511        -9.5651
  43   2.0000      -0.332915        -9.0591
  44   2.0000      -0.327118        -8.9013
  45   2.0000      -0.309184        -8.4133
  46   2.0000      -0.297874        -8.1056
  47   2.0000      -0.267247        -7.2722
  48   2.0000      -0.264055        -7.1853
  49   2.0000      -0.260684        -7.0936
  50   2.0000      -0.231773        -6.3069
  51   0.0000       0.068285         1.8581
  52   0.0000       0.078216         2.1284
  53   0.0000       0.089001         2.4218
  54   0.0000       0.097660         2.6575
  55   0.0000       0.106312         2.8929

MULLIKEN ATOMIC CHARGES
-----------------------
   0 C :    0.293139
   1 C :   -0.256121
   2 C :   -0.303612
   3 C :   -0.016803
   4 O :   -0.517716
   5 H :    0.161571
   6 H :    0.144406
   7 H :    0.163213
   8 H :    0.146500
   9 H :    0.155983
  10 H :    0.143242
  11 H :    0.151573
  12 C :   -0.002334
  13 H :    0.131698
  14 H :    0.146867
  15 O :   -0.522597
  16 C :    0.051930
  17 C :    0.079113
  18 C :   -0.293386
  19 C :   -0.024041
  20 O :   -0.515080
  21 H :    0.181049
  22 O :   -0.603719
  23 H :    0.148644
  24 H :    0.162766
  25 H :    0.137407
  26 H :    0.149030
  27 H :    0.141730
  28 H :    0.365547
Sum of atomic charges:    0.0000000

LOEWDIN ATOMIC CHARGES
----------------------
   0 C :    0.178788
   1 C :   -0.216052
   2 C :   -0.218542
   3 C :   -0.032016
   4 O :   -0.324746
   5 H :    0.105331
   6 H :    0.113663
   7 H :    0.127348
   8 H :    0.116767
   9 H :    0.115639
  10 H :    0.100722
  11 H :    0.107331
  12 C :   -0.040398
  13 H :    0.098526
  14 H :    0.110633
  15 O :   -0.327216
  16 C :    0.003571
  17 C :    0.036232
  18 C :   -0.240565
  19 C :   -0.037396
  20 O :   -0.325755
  21 H :    0.123785
  22 O :   -0.415443
  23 H :    0.113466
  24 H :    0.126582
  25 H :    0.109984
  26 H :    0.105276
  27 H :    0.100968
  28 H :    0.283520

  Mayer bond orders larger than 0.100000
B(  0-C ,  1-C ) :   0.9396 B(  0-C ,  4-O ) :   0.8951 B(  0-C ,  5-H ) :   0.9243
B(  0-C , 15-O ) :   0.8458 B(  1-C ,  2-C ) :   0.9523 B(  1-C ,  6-H ) :   0.9367
B(  1-C ,  7-H ) :   0.9356 B(  2-C ,  3-C ) :   0.9537 B(  2-C ,  8-H ) :   0.9448
B(  2-C ,  9-H ) :   0.9454 B(  3-C ,  4-O ) :   0.8303 B(  3-C , 10-H ) :   0.9317
B(  3-C , 11-H ) :   0.9405 B( 12-C , 13-H ) :   0.9084 B( 12-C , 14-H ) :   0.9387
B( 12-C , 15-O ) :   0.8612 B( 12-C , 16-C ) :   0.8772 B( 16-C , 17-C ) :   0.9013
B( 16-C , 20-O ) :   0.8559 B( 16-C , 21-H ) :   0.9180 B( 17-C , 18-C ) :   0.9099
B( 17-C , 22-O ) :   0.8914 B( 17-C , 23-H ) :   0.9339 B( 18-C , 19-C ) :   0.9406
B( 18-C , 24-H ) :   0.9376 B( 18-C , 25-H ) :   0.9356 B( 19-C , 20-O ) :   0.8516
B( 19-C , 26-H ) :   0.9339 B( 19-C , 27-H ) :   0.9386 B( 22-O , 28-H ) :   0.7938

FINAL SINGLE POINT ENERGY      -652.861196744116

DIPOLE MOMENT
-------------
                                X             Y             Z
Electronic contribution:      0.08340      -4.53720      -1.75672
Nuclear contribution   :     -0.13645       5.59617       2.06164
                        -----------------------------------------
Total Dipole Moment    :     -0.05305       1.05897       0.30491
                        -----------------------------------------
Magnitude (a.u.)       :      1.10327
Magnitude (Debye)      :      2.80429

Rotational constants in cm-1:     0.059947     0.013267     0.012260
Rotational constants in MHz :  1797.164123   397.723018   367.536751

                             ****ORCA TERMINATED NORMALLY****
TOTAL RUN TIME: 0 days 1 hours 49 minutes 40 seconds 461 msec
