                         Program Version 4.2.0 -  RELEASE  -
|  1> # Test redundant internal optimization
|  2> #
|  3> ! RKS B3LYP  Opt TightSCF SmallPrint
|  4>
|  5> %basis
|  6>         Basis "6-31G"
|  7> end
|  8>
|  9> %geom
| 10> Constraints
| 11> { D 4  0  15  12  180.0   C } # D for Dihedral angle
| 12> { D 0  15  12  16  255.0   C } # D for Dihedral angle
| 13> { D 0  4  3  2   C } # D for Dihedral angle
| 14> { D 4  3  2  1   C } # D for Dihedral angle
| 15> { D 3  2  1  0   C } # D for Dihedral angle
| 16> { D 2  1  0  4   C } # D for Dihedral angle
| 17> { D 1  0  4  3   C } # D for Dihedral angle
| 18> { D 16  20  19  18   C } # D for Dihedral angle
| 19> { D 20  19  18  17   C } # D for Dihedral angle
| 20> { D 19  18  17  16   C } # D for Dihedral angle
| 21> { D 18  17  16  20   C } # D for Dihedral angle
| 22> { D 17  16  20  19   C } # D for Dihedral angle
| 23> { D 15  12  16  20   C } # D for Dihedral angle
| 24> end
| 25> end
| 26>
| 27>
| 28> #%pal
| 29> #nprocs 8
| 30> #end
| 31>
| 32> * xyz 0 1
| 33> C  -21.048   26.222   46.251
| 34> C  -20.361   27.558   45.944
| 35> C  -20.329   28.222   47.341
| 36> C  -20.110   27.022   48.296
| 37> O  -20.473   25.807   47.535
| 38> H  -20.833   25.428   45.533
| 39> H  -19.344   27.382   45.576
| 40> H  -20.898   28.157   45.201
| 41> H  -19.543   28.978   47.434
| 42> H  -21.289   28.710   47.548
| 43> H  -20.733   27.082   49.195
| 44> H  -19.064   26.913   48.597
| 45> C  -23.309   26.834   45.072
| 46> H  -22.638   26.681   44.217
| 47> H  -24.212   26.230   44.912
| 48> O  -22.586   26.394   46.375
| 49> C  -23.736   28.327   45.097
| 50> C  -24.546   28.695   43.849
| 51> C  -25.942   28.130   44.203
| 52> C  -26.038   28.362   45.731
| 53> O  -24.657   28.578   46.211
| 54> H  -22.854   28.949   45.264
| 55> H  -24.587   29.784   43.734
| 56> O  -23.964   28.088   42.543
| 57> H  -26.751   28.623   43.654
| 58> H  -25.984   27.059   43.971
| 59> H  -26.471   27.505   46.259
| 60> H  -26.611   29.259   45.982
| 61> H  -23.913   26.998   42.633
| 62> *
| 63>
| 64>                          ****END OF INPUT****
 Total Charge           Charge          ....    0
 Multiplicity           Mult            ....    1
 Number of Electrons    NEL             ....  102
FINAL SINGLE POINT ENERGY      -652.823102241326
FINAL SINGLE POINT ENERGY      -652.845973848859
FINAL SINGLE POINT ENERGY      -652.850570073656
FINAL SINGLE POINT ENERGY      -652.851427210810
FINAL SINGLE POINT ENERGY      -652.851610752405
FINAL SINGLE POINT ENERGY      -652.851640131977
FINAL SINGLE POINT ENERGY      -652.851646366711
FINAL SINGLE POINT ENERGY      -652.851646981596
                    ***********************HURRAY********************

CARTESIAN COORDINATES (ANGSTROEM)
---------------------------------
  C    -21.046467   26.242826   46.195038
  C    -20.327883   27.562078   45.918456
  C    -20.393913   28.262152   47.299701
  C    -20.260352   27.082439   48.283930
  O    -20.584224   25.864451   47.495697
  H    -20.804287   25.429113   45.502762
  H    -19.288332   27.342968   45.645662
  H    -20.767888   28.149957   45.109316
  H    -19.602681   29.006860   47.428268
  H    -21.361903   28.756980   47.422376
  H    -20.953207   27.143619   49.126248
  H    -19.240509   26.949823   48.656927
  C    -23.218884   26.762842   45.091388
  H    -22.602304   26.602344   44.194502
  H    -24.084118   26.092238   45.038815
  O    -22.498369   26.380145   46.294342
  C    -23.678850   28.223364   45.120319
  C    -24.491973   28.634464   43.880335
  C    -25.919038   28.124604   44.248209
  C    -25.977169   28.354500   45.774785
  O    -24.574846   28.507575   46.236903
  H    -22.813393   28.874044   45.266844
  H    -24.489084   29.723132   43.789746
  O    -23.973895   28.159280   42.613162
  H    -26.701628   28.661628   43.706341
  H    -26.005979   27.058508   43.999161
  H    -26.441236   27.523257   46.314596
  H    -26.501904   29.279282   46.033623
  H    -24.219681   27.222525   42.470549

 Multiplicity           Mult            ....    1
 Number of Electrons    NEL             ....  102
 Basis Dimension        Dim             ....  149

ORBITAL ENERGIES
----------------

  NO   OCC          E(Eh)            E(eV)
   0   2.0000     -19.154433      -521.2186
   1   2.0000     -19.139082      -520.8009
   2   2.0000     -19.135816      -520.7120
   3   2.0000     -19.134301      -520.6708
   4   2.0000     -10.276184      -279.6292
   5   2.0000     -10.249256      -278.8964
   6   2.0000     -10.233022      -278.4547
   7   2.0000     -10.232672      -278.4452
   8   2.0000     -10.231406      -278.4107
   9   2.0000     -10.219971      -278.0996
  10   2.0000     -10.199647      -277.5465
  11   2.0000     -10.185037      -277.1489
  12   2.0000     -10.182063      -277.0680
  13   2.0000      -1.049030       -28.5456
  14   2.0000      -1.037053       -28.2196
  15   2.0000      -1.018440       -27.7132
  16   2.0000      -0.988208       -26.8905
  17   2.0000      -0.786012       -21.3885
  18   2.0000      -0.782370       -21.2894
  19   2.0000      -0.768443       -20.9104
  20   2.0000      -0.730977       -19.8909
  21   2.0000      -0.682370       -18.5682
  22   2.0000      -0.615377       -16.7453
  23   2.0000      -0.597515       -16.2592
  24   2.0000      -0.591791       -16.1035
  25   2.0000      -0.576667       -15.6919
  26   2.0000      -0.525842       -14.3089
  27   2.0000      -0.511436       -13.9169
  28   2.0000      -0.501535       -13.6475
  29   2.0000      -0.493656       -13.4331
  30   2.0000      -0.465220       -12.6593
  31   2.0000      -0.454207       -12.3596
  32   2.0000      -0.447105       -12.1663
  33   2.0000      -0.437214       -11.8972
  34   2.0000      -0.429749       -11.6941
  35   2.0000      -0.422542       -11.4980
  36   2.0000      -0.407099       -11.0777
  37   2.0000      -0.401699       -10.9308
  38   2.0000      -0.377959       -10.2848
  39   2.0000      -0.374729       -10.1969
  40   2.0000      -0.356702        -9.7064
  41   2.0000      -0.354597        -9.6491
  42   2.0000      -0.349694        -9.5157
  43   2.0000      -0.331694        -9.0259
  44   2.0000      -0.320500        -8.7212
  45   2.0000      -0.306880        -8.3506
  46   2.0000      -0.295643        -8.0448
  47   2.0000      -0.275349        -7.4926
  48   2.0000      -0.260999        -7.1021
  49   2.0000      -0.253645        -6.9020
  50   2.0000      -0.234247        -6.3742
  51   0.0000       0.047899         1.3034
  52   0.0000       0.077628         2.1124
  53   0.0000       0.081198         2.2095
  54   0.0000       0.091412         2.4874
  55   0.0000       0.098686         2.6854

MULLIKEN ATOMIC CHARGES
-----------------------
   0 C :    0.301203
   1 C :   -0.284794
   2 C :   -0.306192
   3 C :    0.000328
   4 O :   -0.501129
   5 H :    0.139191
   6 H :    0.146896
   7 H :    0.142657
   8 H :    0.140639
   9 H :    0.175739
  10 H :    0.158556
  11 H :    0.139635
  12 C :   -0.028098
  13 H :    0.125782
  14 H :    0.141365
  15 O :   -0.494587
  16 C :    0.089211
  17 C :    0.078242
  18 C :   -0.325156
  19 C :   -0.011081
  20 O :   -0.505333
  21 H :    0.155875
  22 H :    0.170701
  23 O :   -0.600493
  24 H :    0.159003
  25 H :    0.133736
  26 H :    0.151817
  27 H :    0.149550
  28 H :    0.356738
Sum of atomic charges:   -0.0000000

LOEWDIN ATOMIC CHARGES
----------------------
   0 C :    0.182092
   1 C :   -0.234604
   2 C :   -0.218982
   3 C :   -0.023605
   4 O :   -0.301584
   5 H :    0.095101
   6 H :    0.115674
   7 H :    0.111924
   8 H :    0.113775
   9 H :    0.123188
  10 H :    0.111850
  11 H :    0.101246
  12 C :   -0.052798
  13 H :    0.096474
  14 H :    0.105054
  15 O :   -0.323723
  16 C :    0.011121
  17 C :    0.032386
  18 C :   -0.241446
  19 C :   -0.029477
  20 O :   -0.314518
  21 H :    0.111333
  22 H :    0.119916
  23 O :   -0.409058
  24 H :    0.123352
  25 H :    0.104272
  26 H :    0.106645
  27 H :    0.106087
  28 H :    0.278306

  Mayer bond orders larger than 0.100000
B(  0-C ,  1-C ) :   0.9266 B(  0-C ,  4-O ) :   0.9419 B(  0-C ,  5-H ) :   0.9204
B(  0-C , 15-O ) :   0.8398 B(  1-C ,  2-C ) :   0.9509 B(  1-C ,  6-H ) :   0.9326
B(  1-C ,  7-H ) :   0.9284 B(  2-C ,  3-C ) :   0.9550 B(  2-C ,  8-H ) :   0.9449
B(  2-C ,  9-H ) :   0.9376 B(  3-C ,  4-O ) :   0.8329 B(  3-C , 10-H ) :   0.9340
B(  3-C , 11-H ) :   0.9401 B( 12-C , 13-H ) :   0.9051 B( 12-C , 14-H ) :   0.9337
B( 12-C , 15-O ) :   0.8670 B( 12-C , 16-C ) :   0.8863 B( 16-C , 17-C ) :   0.8681
B( 16-C , 20-O ) :   0.8707 B( 16-C , 21-H ) :   0.9256 B( 17-C , 18-C ) :   0.9276
B( 17-C , 22-H ) :   0.9314 B( 17-C , 23-O ) :   0.8949 B( 18-C , 19-C ) :   0.9384
B( 18-C , 24-H ) :   0.9411 B( 18-C , 25-H ) :   0.9405 B( 19-C , 20-O ) :   0.8476
B( 19-C , 26-H ) :   0.9305 B( 19-C , 27-H ) :   0.9377 B( 23-O , 28-H ) :   0.7983

FINAL SINGLE POINT ENERGY      -652.851647033761

DIPOLE MOMENT
-------------
                                X             Y             Z
Electronic contribution:     -0.15148      -2.55382       0.67312
Nuclear contribution   :     -0.26819       2.96844      -1.57136
                        -----------------------------------------
Total Dipole Moment    :     -0.41968       0.41462      -0.89823
                        -----------------------------------------
Magnitude (a.u.)       :      1.07464
Magnitude (Debye)      :      2.73153

Rotational constants in cm-1:     0.053449     0.013675     0.012753
Rotational constants in MHz :  1602.373272   409.969719   382.313669

                             ****ORCA TERMINATED NORMALLY****
TOTAL RUN TIME: 0 days 1 hours 42 minutes 53 seconds 912 msec
