                         Program Version 4.2.0 -  RELEASE  -
|  1> # Test redundant internal optimization
|  2> #
|  3> ! RKS B3LYP  Opt TightSCF SmallPrint
|  4>
|  5> %basis
|  6>         Basis "6-31G"
|  7> end
|  8>
|  9> %geom
| 10> Constraints
| 11> { D 4  0  15  12  150.0   C } # D for Dihedral angle
| 12> { D 0  15  12  16  90.0   C } # D for Dihedral angle
| 13> { D 0  4  3  2   C } # D for Dihedral angle
| 14> { D 4  3  2  1   C } # D for Dihedral angle
| 15> { D 3  2  1  0   C } # D for Dihedral angle
| 16> { D 2  1  0  4   C } # D for Dihedral angle
| 17> { D 1  0  4  3   C } # D for Dihedral angle
| 18> { D 16  20  19  18   C } # D for Dihedral angle
| 19> { D 20  19  18  17   C } # D for Dihedral angle
| 20> { D 19  18  17  16   C } # D for Dihedral angle
| 21> { D 18  17  16  20   C } # D for Dihedral angle
| 22> { D 17  16  20  19   C } # D for Dihedral angle
| 23> { D 15  12  16  20   C } # D for Dihedral angle
| 24> end
| 25> end
| 26>
| 27>
| 28> #%pal
| 29> #nprocs 8
| 30> #end
| 31>
| 32> * xyz 0 1
| 33> C  -21.048   26.222   46.251
| 34> C  -20.361   27.558   45.944
| 35> C  -20.329   28.222   47.341
| 36> C  -20.110   27.022   48.296
| 37> O  -20.473   25.807   47.535
| 38> H  -20.833   25.428   45.533
| 39> H  -19.344   27.382   45.576
| 40> H  -20.898   28.157   45.201
| 41> H  -19.543   28.978   47.434
| 42> H  -21.289   28.710   47.548
| 43> H  -20.733   27.082   49.195
| 44> H  -19.064   26.913   48.597
| 45> C  -23.210   27.459   45.431
| 46> H  -24.093   27.897   45.914
| 47> H  -22.491   28.265   45.234
| 48> O  -22.586   26.394   46.375
| 49> C  -23.644   26.867   44.062
| 50> C  -22.477   26.156   43.367
| 51> C  -22.445   24.802   44.116
| 52> C  -23.941   24.522   44.402
| 53> O  -24.647   25.814   44.253
| 54> H  -24.114   27.651   43.466
| 55> O  -22.802   25.942   41.864
| 56> H  -21.532   26.704   43.442
| 57> H  -21.975   24.004   43.532
| 58> H  -21.885   24.903   45.054
| 59> H  -24.111   24.134   45.412
| 60> H  -24.382   23.830   43.679
| 61> H  -23.745   25.394   41.765
| 62> *
| 63>
| 64>                          ****END OF INPUT****
 Total Charge           Charge          ....    0
 Multiplicity           Mult            ....    1
 Number of Electrons    NEL             ....  102
FINAL SINGLE POINT ENERGY      -652.796936677131
FINAL SINGLE POINT ENERGY      -652.831072463546
FINAL SINGLE POINT ENERGY      -652.846286814496
FINAL SINGLE POINT ENERGY      -652.849507043856
FINAL SINGLE POINT ENERGY      -652.850051884941
FINAL SINGLE POINT ENERGY      -652.850115157444
FINAL SINGLE POINT ENERGY      -652.850123096261
FINAL SINGLE POINT ENERGY      -652.850122712966
                    ***********************HURRAY********************

CARTESIAN COORDINATES (ANGSTROEM)
---------------------------------
  C    -20.999109   26.264784   46.466421
  C    -20.149520   27.469582   46.061080
  C    -20.211054   28.352271   47.334853
  C    -20.230196   27.305926   48.469693
  O    -20.629393   26.026251   47.832874
  H    -20.774254   25.344166   45.928530
  H    -19.125675   27.120004   45.886365
  H    -20.479280   27.985292   45.156396
  H    -19.358053   29.033534   47.409045
  H    -21.127624   28.950846   47.340429
  H    -20.946644   27.541888   49.260319
  H    -19.242917   27.141015   48.911101
  C    -23.109613   27.352498   45.492538
  H    -23.996383   27.699775   46.030574
  H    -22.500441   28.234655   45.249619
  O    -22.445375   26.496383   46.463058
  C    -23.616325   26.736176   44.180350
  C    -22.620881   26.107027   43.193277
  C    -22.504293   24.655449   43.737417
  C    -23.939188   24.368558   44.252312
  O    -24.601696   25.681429   44.406472
  H    -24.149810   27.551245   43.672097
  O    -23.153597   26.138178   41.840637
  H    -21.664262   26.627635   43.134043
  H    -22.193010   23.972410   42.942407
  H    -21.780594   24.596568   44.548889
  H    -23.940255   23.859545   45.219936
  H    -24.534527   23.785815   43.541582
  H    -24.081033   25.820096   41.856684

 Multiplicity           Mult            ....    1
 Number of Electrons    NEL             ....  102
 Basis Dimension        Dim             ....  149

ORBITAL ENERGIES
----------------

  NO   OCC          E(Eh)            E(eV)
   0   2.0000     -19.144272      -520.9421
   1   2.0000     -19.142576      -520.8960
   2   2.0000     -19.141688      -520.8718
   3   2.0000     -19.140724      -520.8456
   4   2.0000     -10.284983      -279.8686
   5   2.0000     -10.245229      -278.7868
   6   2.0000     -10.236791      -278.5573
   7   2.0000     -10.235874      -278.5323
   8   2.0000     -10.228991      -278.3450
   9   2.0000     -10.227425      -278.3024
  10   2.0000     -10.197484      -277.4876
  11   2.0000     -10.195098      -277.4227
  12   2.0000     -10.187831      -277.2250
  13   2.0000      -1.054917       -28.7057
  14   2.0000      -1.038176       -28.2502
  15   2.0000      -1.008297       -27.4372
  16   2.0000      -0.993305       -27.0292
  17   2.0000      -0.793760       -21.5993
  18   2.0000      -0.780307       -21.2332
  19   2.0000      -0.772602       -21.0236
  20   2.0000      -0.739490       -20.1226
  21   2.0000      -0.682463       -18.5708
  22   2.0000      -0.611909       -16.6509
  23   2.0000      -0.605339       -16.4721
  24   2.0000      -0.602883       -16.4053
  25   2.0000      -0.571281       -15.5454
  26   2.0000      -0.524549       -14.2737
  27   2.0000      -0.516684       -14.0597
  28   2.0000      -0.508828       -13.8459
  29   2.0000      -0.491938       -13.3863
  30   2.0000      -0.473088       -12.8734
  31   2.0000      -0.459598       -12.5063
  32   2.0000      -0.454605       -12.3704
  33   2.0000      -0.446322       -12.1450
  34   2.0000      -0.423166       -11.5149
  35   2.0000      -0.422951       -11.5091
  36   2.0000      -0.403568       -10.9816
  37   2.0000      -0.393475       -10.7070
  38   2.0000      -0.384391       -10.4598
  39   2.0000      -0.370123       -10.0715
  40   2.0000      -0.366565        -9.9748
  41   2.0000      -0.365080        -9.9343
  42   2.0000      -0.355021        -9.6606
  43   2.0000      -0.332701        -9.0533
  44   2.0000      -0.317484        -8.6392
  45   2.0000      -0.307721        -8.3735
  46   2.0000      -0.296779        -8.0758
  47   2.0000      -0.274735        -7.4759
  48   2.0000      -0.271959        -7.4004
  49   2.0000      -0.259479        -7.0608
  50   2.0000      -0.237611        -6.4657
  51   0.0000       0.060407         1.6438
  52   0.0000       0.071504         1.9457
  53   0.0000       0.089286         2.4296
  54   0.0000       0.095783         2.6064
  55   0.0000       0.101211         2.7541

MULLIKEN ATOMIC CHARGES
-----------------------
   0 C :    0.314029
   1 C :   -0.302724
   2 C :   -0.298230
   3 C :   -0.002239
   4 O :   -0.499362
   5 H :    0.150617
   6 H :    0.155720
   7 H :    0.143710
   8 H :    0.146064
   9 H :    0.156405
  10 H :    0.155779
  11 H :    0.144960
  12 C :   -0.017331
  13 H :    0.171703
  14 H :    0.117835
  15 O :   -0.515647
  16 C :    0.071997
  17 C :    0.069444
  18 C :   -0.299622
  19 C :   -0.024324
  20 O :   -0.520122
  21 H :    0.153169
  22 O :   -0.599515
  23 H :    0.144355
  24 H :    0.158209
  25 H :    0.155392
  26 H :    0.162622
  27 H :    0.140977
  28 H :    0.366133
Sum of atomic charges:   -0.0000000

LOEWDIN ATOMIC CHARGES
----------------------
   0 C :    0.179838
   1 C :   -0.234718
   2 C :   -0.216513
   3 C :   -0.026179
   4 O :   -0.303827
   5 H :    0.095229
   6 H :    0.121486
   7 H :    0.111891
   8 H :    0.116374
   9 H :    0.114029
  10 H :    0.110150
  11 H :    0.104020
  12 C :   -0.043066
  13 H :    0.125321
  14 H :    0.091753
  15 O :   -0.330864
  16 C :    0.002224
  17 C :    0.034466
  18 C :   -0.241603
  19 C :   -0.034157
  20 O :   -0.326888
  21 H :    0.115778
  22 O :   -0.413636
  23 H :    0.111175
  24 H :    0.123744
  25 H :    0.118260
  26 H :    0.113218
  27 H :    0.098478
  28 H :    0.284014

  Mayer bond orders larger than 0.100000
B(  0-C ,  1-C ) :   0.9311 B(  0-C ,  4-O ) :   0.9239 B(  0-C ,  5-H ) :   0.9030
B(  0-C , 15-O ) :   0.8437 B(  1-C ,  2-C ) :   0.9493 B(  1-C ,  6-H ) :   0.9332
B(  1-C ,  7-H ) :   0.9262 B(  2-C ,  3-C ) :   0.9526 B(  2-C ,  8-H ) :   0.9453
B(  2-C ,  9-H ) :   0.9448 B(  3-C ,  4-O ) :   0.8367 B(  3-C , 10-H ) :   0.9341
B(  3-C , 11-H ) :   0.9393 B( 12-C , 13-H ) :   0.9291 B( 12-C , 14-H ) :   0.9008
B( 12-C , 15-O ) :   0.8827 B( 12-C , 16-C ) :   0.8823 B( 16-C , 17-C ) :   0.9066
B( 16-C , 20-O ) :   0.8696 B( 16-C , 21-H ) :   0.9135 B( 17-C , 18-C ) :   0.9212
B( 17-C , 22-O ) :   0.8946 B( 17-C , 23-H ) :   0.9340 B( 18-C , 19-C ) :   0.9434
B( 18-C , 24-H ) :   0.9371 B( 18-C , 25-H ) :   0.9139 B( 19-C , 20-O ) :   0.8413
B( 19-C , 26-H ) :   0.9319 B( 19-C , 27-H ) :   0.9364 B( 22-O , 28-H ) :   0.7934

FINAL SINGLE POINT ENERGY      -652.850121448226

DIPOLE MOMENT
-------------
                                X             Y             Z
Electronic contribution:     -3.97993      -2.38149      -0.65040
Nuclear contribution   :      4.79245       3.07529       0.50537
                        -----------------------------------------
Total Dipole Moment    :      0.81251       0.69380      -0.14504
                        -----------------------------------------
Magnitude (a.u.)       :      1.07823
Magnitude (Debye)      :      2.74063

Rotational constants in cm-1:     0.056383     0.014121     0.013578
Rotational constants in MHz :  1690.308375   423.344140   407.044590

                             ****ORCA TERMINATED NORMALLY****
TOTAL RUN TIME: 0 days 0 hours 20 minutes 35 seconds 68 msec
