                         Program Version 4.2.0 -  RELEASE  -
|  1> # Test redundant internal optimization
|  2> #
|  3> ! RKS B3LYP  Opt TightSCF SmallPrint
|  4>
|  5> %basis
|  6>         Basis "6-31G"
|  7> end
|  8>
|  9> %geom
| 10> Constraints
| 11> { D 4  0  15  12  165.0   C } # D for Dihedral angle
| 12> { D 0  15  12  16  90.0   C } # D for Dihedral angle
| 13> { D 0  4  3  2   C } # D for Dihedral angle
| 14> { D 4  3  2  1   C } # D for Dihedral angle
| 15> { D 3  2  1  0   C } # D for Dihedral angle
| 16> { D 2  1  0  4   C } # D for Dihedral angle
| 17> { D 1  0  4  3   C } # D for Dihedral angle
| 18> { D 16  20  19  18   C } # D for Dihedral angle
| 19> { D 20  19  18  17   C } # D for Dihedral angle
| 20> { D 19  18  17  16   C } # D for Dihedral angle
| 21> { D 18  17  16  20   C } # D for Dihedral angle
| 22> { D 17  16  20  19   C } # D for Dihedral angle
| 23> { D 15  12  16  20   C } # D for Dihedral angle
| 24> end
| 25> end
| 26>
| 27>
| 28> #%pal
| 29> #nprocs 8
| 30> #end
| 31>
| 32> * xyz 0 1
| 33> C  -21.048   26.222   46.251
| 34> C  -20.361   27.558   45.944
| 35> C  -20.329   28.222   47.341
| 36> C  -20.110   27.022   48.296
| 37> O  -20.473   25.807   47.535
| 38> H  -20.833   25.428   45.533
| 39> H  -19.344   27.382   45.576
| 40> H  -20.898   28.157   45.201
| 41> H  -19.543   28.978   47.434
| 42> H  -21.289   28.710   47.548
| 43> H  -20.733   27.082   49.195
| 44> H  -19.064   26.913   48.597
| 45> C  -23.260   27.170   45.210
| 46> H  -24.140   27.702   45.592
| 47> H  -22.567   27.911   44.791
| 48> O  -22.586   26.394   46.375
| 49> C  -23.715   26.239   44.052
| 50> C  -24.816   25.277   44.512
| 51> C  -26.065   26.189   44.476
| 52> C  -25.792   27.111   43.261
| 53> O  -24.343   27.022   42.983
| 54> H  -22.839   25.752   43.620
| 55> H  -24.918   24.453   43.796
| 56> O  -24.551   24.673   45.919
| 57> H  -26.998   25.627   44.372
| 58> H  -26.129   26.776   45.400
| 59> H  -26.056   28.155   43.458
| 60> H  -26.315   26.779   42.360
| 61> H  -24.445   25.481   46.651
| 62> *
| 63>
| 64>                          ****END OF INPUT****
 Total Charge           Charge          ....    0
 Multiplicity           Mult            ....    1
 Number of Electrons    NEL             ....  102
FINAL SINGLE POINT ENERGY      -652.824432199495
FINAL SINGLE POINT ENERGY      -652.849790998407
FINAL SINGLE POINT ENERGY      -652.856915292060
FINAL SINGLE POINT ENERGY      -652.859459717639
FINAL SINGLE POINT ENERGY      -652.860779299336
FINAL SINGLE POINT ENERGY      -652.861480455711
FINAL SINGLE POINT ENERGY      -652.861695844492
FINAL SINGLE POINT ENERGY      -652.861745249965
FINAL SINGLE POINT ENERGY      -652.861747653080
                    ***********************HURRAY********************

CARTESIAN COORDINATES (ANGSTROEM)
---------------------------------
  C    -21.099909   26.253140   46.197920
  C    -20.257647   27.498429   45.930701
  C    -20.313848   28.226167   47.297505
  C    -20.322800   27.058302   48.303758
  O    -20.723583   25.859134   47.519527
  H    -20.915519   25.404344   45.535716
  H    -19.235407   27.174194   45.704589
  H    -20.598431   28.118257   45.098543
  H    -19.463250   28.898088   47.445016
  H    -21.233614   28.814013   47.374380
  H    -21.036955   27.193131   49.119251
  H    -19.333702   26.841054   48.716177
  C    -23.220311   27.259222   45.174242
  H    -24.050517   27.779239   45.659661
  H    -22.567219   28.009188   44.718216
  O    -22.546513   26.525131   46.251462
  C    -23.727111   26.294966   44.094727
  C    -24.796145   25.301001   44.580034
  C    -26.077295   26.183861   44.563546
  C    -25.855035   27.104731   43.346894
  O    -24.392675   27.054623   43.037874
  H    -22.878579   25.786882   43.624799
  H    -24.897513   24.503344   43.835603
  O    -24.539230   24.665221   45.845668
  H    -26.983568   25.578855   44.479109
  H    -26.136111   26.745049   45.502640
  H    -26.137945   28.145817   43.529957
  H    -26.372692   26.751441   42.450366
  H    -23.846875   25.165175   46.341121

 Multiplicity           Mult            ....    1
 Number of Electrons    NEL             ....  102
 Basis Dimension        Dim             ....  149

ORBITAL ENERGIES
----------------

  NO   OCC          E(Eh)            E(eV)
   0   2.0000     -19.161232      -521.4036
   1   2.0000     -19.151168      -521.1298
   2   2.0000     -19.141639      -520.8705
   3   2.0000     -19.111890      -520.0610
   4   2.0000     -10.293897      -280.1112
   5   2.0000     -10.240133      -278.6482
   6   2.0000     -10.234667      -278.4994
   7   2.0000     -10.233842      -278.4770
   8   2.0000     -10.230079      -278.3746
   9   2.0000     -10.227576      -278.3065
  10   2.0000     -10.200335      -277.5652
  11   2.0000     -10.197367      -277.4845
  12   2.0000     -10.179328      -276.9936
  13   2.0000      -1.065400       -28.9910
  14   2.0000      -1.026247       -27.9256
  15   2.0000      -1.006172       -27.3793
  16   2.0000      -0.990588       -26.9553
  17   2.0000      -0.797825       -21.7099
  18   2.0000      -0.774492       -21.0750
  19   2.0000      -0.768226       -20.9045
  20   2.0000      -0.740675       -20.1548
  21   2.0000      -0.683922       -18.6105
  22   2.0000      -0.611482       -16.6393
  23   2.0000      -0.604474       -16.4486
  24   2.0000      -0.596107       -16.2209
  25   2.0000      -0.574409       -15.6305
  26   2.0000      -0.535334       -14.5672
  27   2.0000      -0.518393       -14.1062
  28   2.0000      -0.505246       -13.7484
  29   2.0000      -0.489204       -13.3119
  30   2.0000      -0.475185       -12.9304
  31   2.0000      -0.463667       -12.6170
  32   2.0000      -0.447729       -12.1833
  33   2.0000      -0.431817       -11.7503
  34   2.0000      -0.424924       -11.5628
  35   2.0000      -0.422143       -11.4871
  36   2.0000      -0.409632       -11.1467
  37   2.0000      -0.389581       -10.6010
  38   2.0000      -0.387809       -10.5528
  39   2.0000      -0.372070       -10.1245
  40   2.0000      -0.365710        -9.9515
  41   2.0000      -0.363934        -9.9031
  42   2.0000      -0.348079        -9.4717
  43   2.0000      -0.341161        -9.2835
  44   2.0000      -0.324441        -8.8285
  45   2.0000      -0.315516        -8.5856
  46   2.0000      -0.290023        -7.8919
  47   2.0000      -0.277948        -7.5633
  48   2.0000      -0.269589        -7.3359
  49   2.0000      -0.246373        -6.7042
  50   2.0000      -0.239009        -6.5038
  51   0.0000       0.057688         1.5698
  52   0.0000       0.074681         2.0322
  53   0.0000       0.092626         2.5205
  54   0.0000       0.093122         2.5340
  55   0.0000       0.100685         2.7398

MULLIKEN ATOMIC CHARGES
-----------------------
   0 C :    0.314127
   1 C :   -0.293940
   2 C :   -0.298060
   3 C :   -0.003219
   4 O :   -0.496328
   5 H :    0.157782
   6 H :    0.158261
   7 H :    0.151611
   8 H :    0.147915
   9 H :    0.158782
  10 H :    0.158494
  11 H :    0.148351
  12 C :   -0.043930
  13 H :    0.160827
  14 H :    0.152094
  15 O :   -0.547791
  16 C :    0.056428
  17 C :    0.120736
  18 C :   -0.297532
  19 C :   -0.023035
  20 O :   -0.523284
  21 H :    0.147436
  22 H :    0.148411
  23 O :   -0.640197
  24 H :    0.152080
  25 H :    0.143303
  26 H :    0.142126
  27 H :    0.150033
  28 H :    0.398519
Sum of atomic charges:   -0.0000000

LOEWDIN ATOMIC CHARGES
----------------------
   0 C :    0.184021
   1 C :   -0.230909
   2 C :   -0.215974
   3 C :   -0.024688
   4 O :   -0.299275
   5 H :    0.104784
   6 H :    0.122290
   7 H :    0.117138
   8 H :    0.117414
   9 H :    0.116317
  10 H :    0.111891
  11 H :    0.106217
  12 C :   -0.051835
  13 H :    0.114236
  14 H :    0.107539
  15 O :   -0.342327
  16 C :    0.006965
  17 C :    0.041271
  18 C :   -0.236171
  19 C :   -0.032625
  20 O :   -0.327063
  21 H :    0.108044
  22 H :    0.105919
  23 O :   -0.433488
  24 H :    0.121885
  25 H :    0.110425
  26 H :    0.101739
  27 H :    0.106375
  28 H :    0.289886

  Mayer bond orders larger than 0.100000
B(  0-C ,  1-C ) :   0.9364 B(  0-C ,  4-O ) :   0.9482 B(  0-C ,  5-H ) :   0.9223
B(  0-C , 15-O ) :   0.7897 B(  1-C ,  2-C ) :   0.9479 B(  1-C ,  6-H ) :   0.9329
B(  1-C ,  7-H ) :   0.9256 B(  2-C ,  3-C ) :   0.9551 B(  2-C ,  8-H ) :   0.9445
B(  2-C ,  9-H ) :   0.9456 B(  3-C ,  4-O ) :   0.8284 B(  3-C , 10-H ) :   0.9344
B(  3-C , 11-H ) :   0.9394 B( 12-C , 13-H ) :   0.9359 B( 12-C , 14-H ) :   0.9165
B( 12-C , 15-O ) :   0.8053 B( 12-C , 16-C ) :   0.8815 B( 16-C , 17-C ) :   0.9115
B( 16-C , 20-O ) :   0.8538 B( 16-C , 21-H ) :   0.9329 B( 17-C , 18-C ) :   0.9003
B( 17-C , 22-H ) :   0.9310 B( 17-C , 23-O ) :   0.9397 B( 18-C , 19-C ) :   0.9388
B( 18-C , 24-H ) :   0.9450 B( 18-C , 25-H ) :   0.9434 B( 19-C , 20-O ) :   0.8302
B( 19-C , 26-H ) :   0.9341 B( 19-C , 27-H ) :   0.9386 B( 23-O , 28-H ) :   0.7210

FINAL SINGLE POINT ENERGY      -652.861748425838

DIPOLE MOMENT
-------------
                                X             Y             Z
Electronic contribution:     -0.29189      -4.28298      -0.28376
Nuclear contribution   :      0.95942       5.74692       0.15488
                        -----------------------------------------
Total Dipole Moment    :      0.66754       1.46394      -0.12888
                        -----------------------------------------
Magnitude (a.u.)       :      1.61411
Magnitude (Debye)      :      4.10273

Rotational constants in cm-1:     0.059906     0.013348     0.012005
Rotational constants in MHz :  1795.939045   400.156218   359.905184

                             ****ORCA TERMINATED NORMALLY****
TOTAL RUN TIME: 0 days 0 hours 26 minutes 47 seconds 23 msec
