                         Program Version 4.2.0 -  RELEASE  -
|  1> # Test redundant internal optimization
|  2> #
|  3> ! RKS B3LYP  Opt TightSCF SmallPrint
|  4>
|  5> %basis
|  6>         Basis "6-31G"
|  7> end
|  8>
|  9> %geom
| 10> Constraints
| 11> { D 4  0  15  12  270.0   C } # D for Dihedral angle
| 12> { D 0  15  12  16  165.0   C } # D for Dihedral angle
| 13> { D 0  4  3  2   C } # D for Dihedral angle
| 14> { D 4  3  2  1   C } # D for Dihedral angle
| 15> { D 3  2  1  0   C } # D for Dihedral angle
| 16> { D 2  1  0  4   C } # D for Dihedral angle
| 17> { D 1  0  4  3   C } # D for Dihedral angle
| 18> { D 16  20  19  18   C } # D for Dihedral angle
| 19> { D 20  19  18  17   C } # D for Dihedral angle
| 20> { D 19  18  17  16   C } # D for Dihedral angle
| 21> { D 18  17  16  20   C } # D for Dihedral angle
| 22> { D 17  16  20  19   C } # D for Dihedral angle
| 23> { D 15  12  16  20   C } # D for Dihedral angle
| 24> end
| 25> end
| 26>
| 27>
| 28> #%pal
| 29> #nprocs 8
| 30> #end
| 31>
| 32> * xyz 0 1
| 33> C  -21.048   26.222   46.251
| 34> C  -20.361   27.558   45.944
| 35> C  -20.329   28.222   47.341
| 36> C  -20.110   27.022   48.296
| 37> O  -20.473   25.807   47.535
| 38> H  -20.833   25.428   45.533
| 39> H  -19.344   27.382   45.576
| 40> H  -20.898   28.157   45.201
| 41> H  -19.543   28.978   47.434
| 42> H  -21.289   28.710   47.548
| 43> H  -20.733   27.082   49.195
| 44> H  -19.064   26.913   48.597
| 45> C  -23.420   25.119   46.072
| 46> H  -23.429   24.941   44.990
| 47> H  -22.972   24.243   46.560
| 48> O  -22.586   26.394   46.375
| 49> C  -24.890   25.232   46.562
| 50> C  -25.645   26.330   45.804
| 51> C  -25.982   25.617   44.472
| 52> C  -26.238   24.154   44.912
| 53> O  -25.630   24.004   46.251
| 54> H  -24.898   25.345   47.647
| 55> H  -26.563   26.595   46.343
| 56> O  -24.806   27.621   45.602
| 57> H  -26.844   26.057   43.962
| 58> H  -25.125   25.672   43.790
| 59> H  -25.786   23.426   44.230
| 60> H  -27.303   23.929   45.014
| 61> H  -23.882   27.379   45.064
| 62> *
| 63>
| 64>                          ****END OF INPUT****
 Total Charge           Charge          ....    0
 Multiplicity           Mult            ....    1
 Number of Electrons    NEL             ....  102
FINAL SINGLE POINT ENERGY      -652.833556486768
FINAL SINGLE POINT ENERGY      -652.858679615080
FINAL SINGLE POINT ENERGY      -652.865094932864
FINAL SINGLE POINT ENERGY      -652.867527173931
FINAL SINGLE POINT ENERGY      -652.868878092496
FINAL SINGLE POINT ENERGY      -652.869647897410
FINAL SINGLE POINT ENERGY      -652.869919996695
FINAL SINGLE POINT ENERGY      -652.869977593330
FINAL SINGLE POINT ENERGY      -652.869984072463
                    ***********************HURRAY********************

CARTESIAN COORDINATES (ANGSTROEM)
---------------------------------
  C    -21.070825   26.122654   46.213404
  C    -20.481275   27.497942   45.904224
  C    -20.540879   28.188126   47.287175
  C    -20.260305   27.028650   48.267018
  O    -20.514490   25.781043   47.497357
  H    -20.806296   25.317262   45.523499
  H    -19.444242   27.375366   45.571836
  H    -21.038656   28.028344   45.129090
  H    -19.812274   28.998676   47.382095
  H    -21.539544   28.603009   47.452967
  H    -20.912096   27.037352   49.143719
  H    -19.216596   26.985105   48.590663
  C    -23.293312   25.039430   46.030147
  H    -23.264612   24.803922   44.958240
  H    -22.867648   24.202003   46.592390
  O    -22.515667   26.259936   46.282029
  C    -24.725467   25.292301   46.511366
  C    -25.480384   26.404798   45.763947
  C    -25.918692   25.670119   44.462738
  C    -26.205059   24.235574   44.951084
  O    -25.524264   24.092699   46.272890
  H    -24.711491   25.457838   47.591898
  H    -26.370352   26.672693   46.345398
  O    -24.742586   27.618227   45.520388
  H    -26.789466   26.144911   44.003241
  H    -25.095962   25.706199   43.740030
  H    -25.824856   23.462110   44.276440
  H    -27.269205   24.055021   45.129444
  H    -23.787496   27.457689   45.706284

 Multiplicity           Mult            ....    1
 Number of Electrons    NEL             ....  102
 Basis Dimension        Dim             ....  149

ORBITAL ENERGIES
----------------

  NO   OCC          E(Eh)            E(eV)
   0   2.0000     -19.165559      -521.5214
   1   2.0000     -19.148746      -521.0639
   2   2.0000     -19.139883      -520.8227
   3   2.0000     -19.113622      -520.1081
   4   2.0000     -10.292097      -280.0622
   5   2.0000     -10.238006      -278.5903
   6   2.0000     -10.234054      -278.4828
   7   2.0000     -10.231789      -278.4211
   8   2.0000     -10.230349      -278.3820
   9   2.0000     -10.226509      -278.2775
  10   2.0000     -10.194929      -277.4181
  11   2.0000     -10.192399      -277.3493
  12   2.0000     -10.179328      -276.9936
  13   2.0000      -1.066578       -29.0231
  14   2.0000      -1.025432       -27.9034
  15   2.0000      -1.007826       -27.4243
  16   2.0000      -0.992837       -27.0165
  17   2.0000      -0.796964       -21.6865
  18   2.0000      -0.772931       -21.0325
  19   2.0000      -0.767743       -20.8913
  20   2.0000      -0.735384       -20.0108
  21   2.0000      -0.678441       -18.4613
  22   2.0000      -0.606912       -16.5149
  23   2.0000      -0.601943       -16.3797
  24   2.0000      -0.593361       -16.1462
  25   2.0000      -0.581992       -15.8368
  26   2.0000      -0.529043       -14.3960
  27   2.0000      -0.522768       -14.2252
  28   2.0000      -0.500710       -13.6250
  29   2.0000      -0.485918       -13.2225
  30   2.0000      -0.473469       -12.8837
  31   2.0000      -0.461886       -12.5686
  32   2.0000      -0.440392       -11.9837
  33   2.0000      -0.433009       -11.7828
  34   2.0000      -0.425737       -11.5849
  35   2.0000      -0.424155       -11.5418
  36   2.0000      -0.407364       -11.0849
  37   2.0000      -0.387986       -10.5576
  38   2.0000      -0.382456       -10.4071
  39   2.0000      -0.368791       -10.0353
  40   2.0000      -0.364427        -9.9166
  41   2.0000      -0.357260        -9.7215
  42   2.0000      -0.348805        -9.4915
  43   2.0000      -0.345088        -9.3903
  44   2.0000      -0.326070        -8.8728
  45   2.0000      -0.316148        -8.6028
  46   2.0000      -0.292546        -7.9606
  47   2.0000      -0.279805        -7.6139
  48   2.0000      -0.261289        -7.1100
  49   2.0000      -0.249837        -6.7984
  50   2.0000      -0.242351        -6.5947
  51   0.0000       0.055510         1.5105
  52   0.0000       0.083650         2.2762
  53   0.0000       0.090841         2.4719
  54   0.0000       0.096394         2.6230
  55   0.0000       0.104539         2.8447

MULLIKEN ATOMIC CHARGES
-----------------------
   0 C :    0.294749
   1 C :   -0.265983
   2 C :   -0.303304
   3 C :   -0.003819
   4 O :   -0.503601
   5 H :    0.150685
   6 H :    0.152150
   7 H :    0.155634
   8 H :    0.147123
   9 H :    0.167230
  10 H :    0.154547
  11 H :    0.146715
  12 C :   -0.016142
  13 H :    0.137030
  14 H :    0.174575
  15 O :   -0.558698
  16 C :    0.045393
  17 C :    0.118131
  18 C :   -0.303128
  19 C :   -0.022777
  20 O :   -0.519518
  21 H :    0.165844
  22 H :    0.147847
  23 O :   -0.642944
  24 H :    0.151394
  25 H :    0.145530
  26 H :    0.142572
  27 H :    0.150332
  28 H :    0.392432
Sum of atomic charges:   -0.0000000

LOEWDIN ATOMIC CHARGES
----------------------
   0 C :    0.176510
   1 C :   -0.217083
   2 C :   -0.216285
   3 C :   -0.026270
   4 O :   -0.320256
   5 H :    0.103735
   6 H :    0.117779
   7 H :    0.122380
   8 H :    0.116896
   9 H :    0.120702
  10 H :    0.109533
  11 H :    0.105233
  12 C :   -0.044740
  13 H :    0.096468
  14 H :    0.119780
  15 O :   -0.340751
  16 C :    0.018057
  17 C :    0.041734
  18 C :   -0.237487
  19 C :   -0.033196
  20 O :   -0.322869
  21 H :    0.118394
  22 H :    0.105314
  23 O :   -0.437189
  24 H :    0.121248
  25 H :    0.110642
  26 H :    0.101897
  27 H :    0.106380
  28 H :    0.283445

  Mayer bond orders larger than 0.100000
B(  0-C ,  1-C ) :   0.9484 B(  0-C ,  4-O ) :   0.9339 B(  0-C ,  5-H ) :   0.9207
B(  0-C , 15-O ) :   0.8148 B(  1-C ,  2-C ) :   0.9550 B(  1-C ,  6-H ) :   0.9385
B(  1-C ,  7-H ) :   0.9361 B(  2-C ,  3-C ) :   0.9535 B(  2-C ,  8-H ) :   0.9447
B(  2-C ,  9-H ) :   0.9433 B(  3-C ,  4-O ) :   0.8302 B(  3-C , 10-H ) :   0.9350
B(  3-C , 11-H ) :   0.9399 B( 12-C , 13-H ) :   0.9218 B( 12-C , 14-H ) :   0.9196
B( 12-C , 15-O ) :   0.7831 B( 12-C , 16-C ) :   0.9103 B( 16-C , 17-C ) :   0.9141
B( 16-C , 20-O ) :   0.8572 B( 16-C , 21-H ) :   0.9274 B( 17-C , 18-C ) :   0.9016
B( 17-C , 22-H ) :   0.9294 B( 17-C , 23-O ) :   0.9333 B( 18-C , 19-C ) :   0.9379
B( 18-C , 24-H ) :   0.9449 B( 18-C , 25-H ) :   0.9434 B( 19-C , 20-O ) :   0.8326
B( 19-C , 26-H ) :   0.9341 B( 19-C , 27-H ) :   0.9386 B( 23-O , 28-H ) :   0.7217

FINAL SINGLE POINT ENERGY      -652.869985139334

DIPOLE MOMENT
-------------
                                X             Y             Z
Electronic contribution:     -1.11205      -2.38513       1.87222
Nuclear contribution   :      1.93720       2.58483      -2.35386
                        -----------------------------------------
Total Dipole Moment    :      0.82516       0.19970      -0.48164
                        -----------------------------------------
Magnitude (a.u.)       :      0.97609
Magnitude (Debye)      :      2.48102

Rotational constants in cm-1:     0.059913     0.013209     0.012068
Rotational constants in MHz :  1796.151883   395.997249   361.792090

                             ****ORCA TERMINATED NORMALLY****
TOTAL RUN TIME: 0 days 0 hours 29 minutes 8 seconds 52 msec
