                         Program Version 4.2.0 -  RELEASE  -
|  1> # Test redundant internal optimization
|  2> #
|  3> ! RKS B3LYP  Opt TightSCF SmallPrint
|  4>
|  5> %basis
|  6>         Basis "6-31G"
|  7> end
|  8>
|  9> %geom
| 10> Constraints
| 11> { D 4  0  15  12  165.0   C } # D for Dihedral angle
| 12> { D 0  15  12  16  240.0   C } # D for Dihedral angle
| 13> { D 0  4  3  2   C } # D for Dihedral angle
| 14> { D 4  3  2  1   C } # D for Dihedral angle
| 15> { D 3  2  1  0   C } # D for Dihedral angle
| 16> { D 2  1  0  4   C } # D for Dihedral angle
| 17> { D 1  0  4  3   C } # D for Dihedral angle
| 18> { D 16  20  19  18   C } # D for Dihedral angle
| 19> { D 20  19  18  17   C } # D for Dihedral angle
| 20> { D 19  18  17  16   C } # D for Dihedral angle
| 21> { D 18  17  16  20   C } # D for Dihedral angle
| 22> { D 17  16  20  19   C } # D for Dihedral angle
| 23> { D 15  12  16  20   C } # D for Dihedral angle
| 24> end
| 25> end
| 26>
| 27>
| 28> #%pal
| 29> #nprocs 8
| 30> #end
| 31>
| 32> * xyz 0 1
| 33> C  -21.048   26.222   46.251
| 34> C  -20.361   27.558   45.944
| 35> C  -20.329   28.222   47.341
| 36> C  -20.110   27.022   48.296
| 37> O  -20.473   25.807   47.535
| 38> H  -20.833   25.428   45.533
| 39> H  -19.344   27.382   45.576
| 40> H  -20.898   28.157   45.201
| 41> H  -19.543   28.978   47.434
| 42> H  -21.289   28.710   47.548
| 43> H  -20.733   27.082   49.195
| 44> H  -19.064   26.913   48.597
| 45> C  -23.260   27.170   45.210
| 46> H  -22.495   27.460   44.478
| 47> H  -23.998   26.536   44.703
| 48> O  -22.586   26.394   46.375
| 49> C  -23.990   28.456   45.688
| 50> C  -25.016   28.139   46.783
| 51> C  -24.110   28.004   48.031
| 52> C  -23.003   29.057   47.778
| 53> O  -23.044   29.373   46.333
| 54> H  -24.401   28.977   44.822
| 55> O  -26.002   29.327   46.948
| 56> H  -25.597   27.233   46.581
| 57> H  -24.648   28.181   48.968
| 58> H  -23.681   26.996   48.077
| 59> H  -22.005   28.688   48.036
| 60> H  -23.184   29.992   48.316
| 61> H  -25.442   30.246   47.153
| 62> *
| 63>
| 64>                          ****END OF INPUT****
 Total Charge           Charge          ....    0
 Multiplicity           Mult            ....    1
 Number of Electrons    NEL             ....  102
FINAL SINGLE POINT ENERGY      -652.755095845568
FINAL SINGLE POINT ENERGY      -652.826742475593
FINAL SINGLE POINT ENERGY      -652.846423485747
FINAL SINGLE POINT ENERGY      -652.851417137019
FINAL SINGLE POINT ENERGY      -652.852293156691
FINAL SINGLE POINT ENERGY      -652.852592649700
FINAL SINGLE POINT ENERGY      -652.852706343738
FINAL SINGLE POINT ENERGY      -652.852769675280
FINAL SINGLE POINT ENERGY      -652.852792071619
FINAL SINGLE POINT ENERGY      -652.852797362983
                    ***********************HURRAY********************

CARTESIAN COORDINATES (ANGSTROEM)
---------------------------------
  C    -21.009620   26.270688   46.151482
  C    -20.154342   27.501004   45.851419
  C    -19.997401   28.136274   47.256730
  C    -19.925862   26.903113   48.181395
  O    -20.479712   25.774014   47.385314
  H    -20.855460   25.470295   45.417837
  H    -19.193147   27.147806   45.463327
  H    -20.583826   28.198346   45.128540
  H    -19.099210   28.757484   47.331384
  H    -20.860971   28.763865   47.460563
  H    -20.514304   27.007521   49.097236
  H    -18.900645   26.626020   48.441535
  C    -23.186733   27.202034   45.307508
  H    -22.500715   27.550765   44.526354
  H    -23.922330   26.542424   44.827739
  O    -22.466408   26.412083   46.295554
  C    -23.946601   28.414461   45.853127
  C    -25.115547   28.132759   46.807688
  C    -24.405568   28.159862   48.184594
  C    -23.323494   29.245332   48.008636
  O    -23.152754   29.435776   46.538759
  H    -24.351742   28.911731   44.960451
  O    -26.141016   29.159350   46.688863
  H    -25.629098   27.192459   46.607586
  H    -25.110897   28.382931   48.989066
  H    -23.942742   27.185310   48.364287
  H    -22.372085   28.964461   48.459252
  H    -23.625298   30.218220   48.411197
  H    -25.719472   30.043614   46.733579

 Multiplicity           Mult            ....    1
 Number of Electrons    NEL             ....  102
 Basis Dimension        Dim             ....  149

ORBITAL ENERGIES
----------------

  NO   OCC          E(Eh)            E(eV)
   0   2.0000     -19.150684      -521.1166
   1   2.0000     -19.143989      -520.9344
   2   2.0000     -19.143079      -520.9097
   3   2.0000     -19.137971      -520.7707
   4   2.0000     -10.280806      -279.7549
   5   2.0000     -10.239193      -278.6226
   6   2.0000     -10.237299      -278.5711
   7   2.0000     -10.237108      -278.5659
   8   2.0000     -10.231357      -278.4094
   9   2.0000     -10.227608      -278.3074
  10   2.0000     -10.190086      -277.2863
  11   2.0000     -10.185567      -277.1634
  12   2.0000     -10.181696      -277.0580
  13   2.0000      -1.052098       -28.6290
  14   2.0000      -1.037545       -28.2330
  15   2.0000      -1.007124       -27.4052
  16   2.0000      -0.994771       -27.0691
  17   2.0000      -0.788659       -21.4605
  18   2.0000      -0.781790       -21.2736
  19   2.0000      -0.770519       -20.9669
  20   2.0000      -0.736363       -20.0374
  21   2.0000      -0.680790       -18.5252
  22   2.0000      -0.608652       -16.5623
  23   2.0000      -0.601572       -16.3696
  24   2.0000      -0.598281       -16.2800
  25   2.0000      -0.572397       -15.5757
  26   2.0000      -0.526184       -14.3182
  27   2.0000      -0.507311       -13.8046
  28   2.0000      -0.496200       -13.5023
  29   2.0000      -0.495427       -13.4812
  30   2.0000      -0.476957       -12.9787
  31   2.0000      -0.461050       -12.5458
  32   2.0000      -0.449799       -12.2397
  33   2.0000      -0.447713       -12.1829
  34   2.0000      -0.420869       -11.4524
  35   2.0000      -0.412656       -11.2289
  36   2.0000      -0.408105       -11.1051
  37   2.0000      -0.398261       -10.8372
  38   2.0000      -0.376056       -10.2330
  39   2.0000      -0.369561       -10.0563
  40   2.0000      -0.362210        -9.8562
  41   2.0000      -0.356909        -9.7120
  42   2.0000      -0.348460        -9.4821
  43   2.0000      -0.333610        -9.0780
  44   2.0000      -0.317459        -8.6385
  45   2.0000      -0.310708        -8.4548
  46   2.0000      -0.299483        -8.1494
  47   2.0000      -0.276224        -7.5164
  48   2.0000      -0.264082        -7.1860
  49   2.0000      -0.259839        -7.0706
  50   2.0000      -0.243167        -6.6169
  51   0.0000       0.059442         1.6175
  52   0.0000       0.080744         2.1972
  53   0.0000       0.091038         2.4773
  54   0.0000       0.097105         2.6424
  55   0.0000       0.099455         2.7063

MULLIKEN ATOMIC CHARGES
-----------------------
   0 C :    0.318281
   1 C :   -0.292082
   2 C :   -0.318137
   3 C :   -0.007736
   4 O :   -0.502039
   5 H :    0.145957
   6 H :    0.151769
   7 H :    0.158082
   8 H :    0.142003
   9 H :    0.181769
  10 H :    0.145792
  11 H :    0.145142
  12 C :   -0.022729
  13 H :    0.135906
  14 H :    0.145579
  15 O :   -0.520757
  16 C :    0.083737
  17 C :    0.079874
  18 C :   -0.291270
  19 C :   -0.025099
  20 O :   -0.532394
  21 H :    0.152310
  22 O :   -0.604064
  23 H :    0.157748
  24 H :    0.153256
  25 H :    0.178910
  26 H :    0.137221
  27 H :    0.140970
  28 H :    0.362003
Sum of atomic charges:    0.0000000

LOEWDIN ATOMIC CHARGES
----------------------
   0 C :    0.183335
   1 C :   -0.230383
   2 C :   -0.223087
   3 C :   -0.028277
   4 O :   -0.302927
   5 H :    0.094829
   6 H :    0.119476
   7 H :    0.120917
   8 H :    0.115074
   9 H :    0.124844
  10 H :    0.103784
  11 H :    0.104473
  12 C :   -0.040623
  13 H :    0.101157
  14 H :    0.108831
  15 O :   -0.340820
  16 C :    0.007830
  17 C :    0.038797
  18 C :   -0.239192
  19 C :   -0.035607
  20 O :   -0.334304
  21 H :    0.114420
  22 O :   -0.417067
  23 H :    0.119265
  24 H :    0.122070
  25 H :    0.132889
  26 H :    0.100452
  27 H :    0.098491
  28 H :    0.281353

  Mayer bond orders larger than 0.100000
B(  0-C ,  1-C ) :   0.9241 B(  0-C ,  4-O ) :   0.9364 B(  0-C ,  5-H ) :   0.9267
B(  0-C , 15-O ) :   0.8348 B(  1-C ,  2-C ) :   0.9530 B(  1-C ,  6-H ) :   0.9320
B(  1-C ,  7-H ) :   0.9253 B(  2-C ,  3-C ) :   0.9563 B(  2-C ,  8-H ) :   0.9456
B(  2-C ,  9-H ) :   0.9143 B(  3-C ,  4-O ) :   0.8361 B(  3-C , 10-H ) :   0.9328
B(  3-C , 11-H ) :   0.9384 B( 12-C , 13-H ) :   0.9180 B( 12-C , 14-H ) :   0.9181
B( 12-C , 15-O ) :   0.8676 B( 12-C , 16-C ) :   0.8900 B( 16-C , 17-C ) :   0.9085
B( 16-C , 20-O ) :   0.8688 B( 16-C , 21-H ) :   0.9156 B( 17-C , 18-C ) :   0.9251
B( 17-C , 22-O ) :   0.8911 B( 17-C , 23-H ) :   0.9352 B( 18-C , 19-C ) :   0.9467
B( 18-C , 24-H ) :   0.9363 B( 18-C , 25-H ) :   0.9209 B( 19-C , 20-O ) :   0.8353
B( 19-C , 26-H ) :   0.9176 B( 19-C , 27-H ) :   0.9392 B( 22-O , 28-H ) :   0.7976

FINAL SINGLE POINT ENERGY      -652.852797580289

DIPOLE MOMENT
-------------
                                X             Y             Z
Electronic contribution:     -3.10094      -1.92709      -1.35243
Nuclear contribution   :      3.87266       2.61065       1.19951
                        -----------------------------------------
Total Dipole Moment    :      0.77172       0.68355      -0.15292
                        -----------------------------------------
Magnitude (a.u.)       :      1.04220
Magnitude (Debye)      :      2.64906

Rotational constants in cm-1:     0.051842     0.016452     0.015385
Rotational constants in MHz :  1554.199030   493.230343   461.221503

                             ****ORCA TERMINATED NORMALLY****
TOTAL RUN TIME: 0 days 0 hours 35 minutes 40 seconds 228 msec
