                         Program Version 4.2.0 -  RELEASE  -
|  1> # Test redundant internal optimization
|  2> #
|  3> ! RKS B3LYP  Opt TightSCF SmallPrint
|  4>
|  5> %basis
|  6>         Basis "6-31G"
|  7> end
|  8>
|  9> %geom
| 10> Constraints
| 11> { D 4  0  15  12  45.0   C } # D for Dihedral angle
| 12> { D 0  15  12  16  285.0   C } # D for Dihedral angle
| 13> { D 0  4  3  2   C } # D for Dihedral angle
| 14> { D 4  3  2  1   C } # D for Dihedral angle
| 15> { D 3  2  1  0   C } # D for Dihedral angle
| 16> { D 2  1  0  4   C } # D for Dihedral angle
| 17> { D 1  0  4  3   C } # D for Dihedral angle
| 18> { D 16  20  19  18   C } # D for Dihedral angle
| 19> { D 20  19  18  17   C } # D for Dihedral angle
| 20> { D 19  18  17  16   C } # D for Dihedral angle
| 21> { D 18  17  16  20   C } # D for Dihedral angle
| 22> { D 17  16  20  19   C } # D for Dihedral angle
| 23> { D 15  12  16  20   C } # D for Dihedral angle
| 24> end
| 25> end
| 26>
| 27>
| 28> #%pal
| 29> #nprocs 8
| 30> #end
| 31>
| 32> * xyz 0 1
| 33> C  -21.048   26.222   46.251
| 34> C  -20.361   27.558   45.944
| 35> C  -20.329   28.222   47.341
| 36> C  -20.110   27.022   48.296
| 37> O  -20.473   25.807   47.535
| 38> H  -20.833   25.428   45.533
| 39> H  -19.344   27.382   45.576
| 40> H  -20.898   28.157   45.201
| 41> H  -19.543   28.978   47.434
| 42> H  -21.289   28.710   47.548
| 43> H  -20.733   27.082   49.195
| 44> H  -19.064   26.913   48.597
| 45> C  -23.065   27.161   47.638
| 46> H  -22.446   28.057   47.773
| 47> H  -24.109   27.481   47.520
| 48> O  -22.586   26.394   46.375
| 49> C  -22.975   26.305   48.931
| 50> C  -23.563   27.051   50.134
| 51> C  -25.081   26.847   49.920
| 52> C  -25.162   25.424   49.313
| 53> O  -23.809   25.104   48.809
| 54> H  -21.946   25.968   49.066
| 55> H  -23.237   26.577   51.067
| 56> O  -23.158   28.550   50.180
| 57> H  -25.657   26.938   50.846
| 58> H  -25.465   27.591   49.212
| 59> H  -25.876   25.361   48.484
| 60> H  -25.416   24.665   50.058
| 61> H  -23.474   29.046   49.256
| 62> *
| 63>
| 64>                          ****END OF INPUT****
 Total Charge           Charge          ....    0
 Multiplicity           Mult            ....    1
 Number of Electrons    NEL             ....  102
FINAL SINGLE POINT ENERGY      -652.797440897474
FINAL SINGLE POINT ENERGY      -652.827710893710
FINAL SINGLE POINT ENERGY      -652.845347997630
FINAL SINGLE POINT ENERGY      -652.848906582943
FINAL SINGLE POINT ENERGY      -652.849571956548
FINAL SINGLE POINT ENERGY      -652.849752773236
FINAL SINGLE POINT ENERGY      -652.849776778633
FINAL SINGLE POINT ENERGY      -652.849771579394
FINAL SINGLE POINT ENERGY      -652.849769302973
                    ***********************HURRAY********************

CARTESIAN COORDINATES (ANGSTROEM)
---------------------------------
  C    -21.107800   26.317543   46.381483
  C    -20.322675   27.537172   45.876413
  C    -19.944948   28.251898   47.207241
  C    -19.710233   27.065984   48.174030
  O    -20.369430   25.887491   47.550121
  H    -21.074920   25.478817   45.683996
  H    -19.424267   27.188031   45.356091
  H    -20.910809   28.157698   45.196339
  H    -19.049783   28.874103   47.107313
  H    -20.757862   28.898536   47.549462
  H    -20.137708   27.231500   49.167574
  H    -18.651474   26.812824   48.277992
  C    -23.114985   27.193083   47.684614
  H    -22.626623   28.158527   47.869132
  H    -24.143432   27.384262   47.362549
  O    -22.533593   26.501011   46.546243
  C    -23.101819   26.368992   48.980477
  C    -23.777382   27.082498   50.164084
  C    -25.283356   26.777749   49.906856
  C    -25.242621   25.352606   49.309709
  O    -23.852026   25.122322   48.847600
  H    -22.079622   26.064524   49.203052
  H    -23.449570   26.620877   51.098300
  O    -23.448573   28.488354   50.312289
  H    -25.881133   26.840864   50.819823
  H    -25.686645   27.503484   49.187316
  H    -25.927355   25.225592   48.464905
  H    -25.463233   24.585830   50.058516
  H    -23.976124   29.028832   49.689481

 Multiplicity           Mult            ....    1
 Number of Electrons    NEL             ....  102
 Basis Dimension        Dim             ....  149

ORBITAL ENERGIES
----------------

  NO   OCC          E(Eh)            E(eV)
   0   2.0000     -19.151024      -521.1259
   1   2.0000     -19.144325      -520.9436
   2   2.0000     -19.137517      -520.7583
   3   2.0000     -19.131058      -520.5825
   4   2.0000     -10.274814      -279.5919
   5   2.0000     -10.243769      -278.7471
   6   2.0000     -10.229410      -278.3564
   7   2.0000     -10.229032      -278.3461
   8   2.0000     -10.227064      -278.2926
   9   2.0000     -10.222521      -278.1689
  10   2.0000     -10.195360      -277.4298
  11   2.0000     -10.191675      -277.3296
  12   2.0000     -10.186442      -277.1872
  13   2.0000      -1.048861       -28.5410
  14   2.0000      -1.032287       -28.0899
  15   2.0000      -1.011934       -27.5361
  16   2.0000      -0.991776       -26.9876
  17   2.0000      -0.787065       -21.4171
  18   2.0000      -0.781215       -21.2579
  19   2.0000      -0.767282       -20.8788
  20   2.0000      -0.731365       -19.9015
  21   2.0000      -0.681020       -18.5315
  22   2.0000      -0.610104       -16.6018
  23   2.0000      -0.602175       -16.3860
  24   2.0000      -0.601573       -16.3696
  25   2.0000      -0.563366       -15.3300
  26   2.0000      -0.520123       -14.1533
  27   2.0000      -0.513783       -13.9807
  28   2.0000      -0.502163       -13.6646
  29   2.0000      -0.492090       -13.3904
  30   2.0000      -0.464437       -12.6380
  31   2.0000      -0.455349       -12.3907
  32   2.0000      -0.440565       -11.9884
  33   2.0000      -0.430691       -11.7197
  34   2.0000      -0.427162       -11.6237
  35   2.0000      -0.416824       -11.3424
  36   2.0000      -0.411523       -11.1981
  37   2.0000      -0.399586       -10.8733
  38   2.0000      -0.379140       -10.3169
  39   2.0000      -0.375851       -10.2274
  40   2.0000      -0.359034        -9.7698
  41   2.0000      -0.357930        -9.7398
  42   2.0000      -0.340435        -9.2637
  43   2.0000      -0.329348        -8.9620
  44   2.0000      -0.317281        -8.6337
  45   2.0000      -0.315189        -8.5767
  46   2.0000      -0.304505        -8.2860
  47   2.0000      -0.271172        -7.3790
  48   2.0000      -0.258472        -7.0334
  49   2.0000      -0.255779        -6.9601
  50   2.0000      -0.229633        -6.2486
  51   0.0000       0.049011         1.3336
  52   0.0000       0.075990         2.0678
  53   0.0000       0.083845         2.2815
  54   0.0000       0.090295         2.4571
  55   0.0000       0.097263         2.6466

MULLIKEN ATOMIC CHARGES
-----------------------
   0 C :    0.299853
   1 C :   -0.267888
   2 C :   -0.316424
   3 C :   -0.022586
   4 O :   -0.503158
   5 H :    0.168925
   6 H :    0.151444
   7 H :    0.152061
   8 H :    0.146296
   9 H :    0.154197
  10 H :    0.148332
  11 H :    0.152221
  12 C :   -0.025559
  13 H :    0.120152
  14 H :    0.144407
  15 O :   -0.513665
  16 C :    0.081728
  17 C :    0.082562
  18 C :   -0.328369
  19 C :   -0.012091
  20 O :   -0.502696
  21 H :    0.188177
  22 H :    0.165130
  23 O :   -0.603233
  24 H :    0.157461
  25 H :    0.131678
  26 H :    0.146520
  27 H :    0.149889
  28 H :    0.354637
Sum of atomic charges:   -0.0000000

LOEWDIN ATOMIC CHARGES
----------------------
   0 C :    0.177657
   1 C :   -0.227255
   2 C :   -0.223031
   3 C :   -0.037111
   4 O :   -0.318041
   5 H :    0.114479
   6 H :    0.118770
   7 H :    0.120641
   8 H :    0.116228
   9 H :    0.109752
  10 H :    0.103163
  11 H :    0.107324
  12 C :   -0.049830
  13 H :    0.090486
  14 H :    0.108534
  15 O :   -0.312753
  16 C :    0.006640
  17 C :    0.032996
  18 C :   -0.242641
  19 C :   -0.031429
  20 O :   -0.310849
  21 H :    0.128316
  22 H :    0.118253
  23 O :   -0.411567
  24 H :    0.122085
  25 H :    0.102723
  26 H :    0.103793
  27 H :    0.106003
  28 H :    0.276662

  Mayer bond orders larger than 0.100000
B(  0-C ,  1-C ) :   0.9145 B(  0-C ,  4-O ) :   0.8949 B(  0-C ,  5-H ) :   0.9360
B(  0-C , 15-O ) :   0.8927 B(  1-C ,  2-C ) :   0.9560 B(  1-C ,  6-H ) :   0.9353
B(  1-C ,  7-H ) :   0.9382 B(  2-C ,  3-C ) :   0.9483 B(  2-C ,  8-H ) :   0.9444
B(  2-C ,  9-H ) :   0.9392 B(  3-C ,  4-O ) :   0.8401 B(  3-C , 10-H ) :   0.9265
B(  3-C , 11-H ) :   0.9399 B( 12-C , 13-H ) :   0.8933 B( 12-C , 14-H ) :   0.9422
B( 12-C , 15-O ) :   0.8647 B( 12-C , 16-C ) :   0.8841 B( 16-C , 17-C ) :   0.8665
B( 16-C , 20-O ) :   0.8612 B( 16-C , 21-H ) :   0.9133 B( 17-C , 18-C ) :   0.9262
B( 17-C , 22-H ) :   0.9334 B( 17-C , 23-O ) :   0.8896 B( 18-C , 19-C ) :   0.9407
B( 18-C , 24-H ) :   0.9414 B( 18-C , 25-H ) :   0.9402 B( 19-C , 20-O ) :   0.8555
B( 19-C , 26-H ) :   0.9304 B( 19-C , 27-H ) :   0.9370 B( 23-O , 28-H ) :   0.7996

FINAL SINGLE POINT ENERGY      -652.849770781787

DIPOLE MOMENT
-------------
                                X             Y             Z
Electronic contribution:     -0.37682      -3.97985      -0.29078
Nuclear contribution   :      0.04912       5.30699       0.29772
                        -----------------------------------------
Total Dipole Moment    :     -0.32769       1.32714       0.00694
                        -----------------------------------------
Magnitude (a.u.)       :      1.36702
Magnitude (Debye)      :      3.47468

Rotational constants in cm-1:     0.048720     0.016182     0.014401
Rotational constants in MHz :  1460.593555   485.120361   431.745951

                             ****ORCA TERMINATED NORMALLY****
TOTAL RUN TIME: 0 days 1 hours 29 minutes 38 seconds 195 msec
