                         Program Version 4.2.0 -  RELEASE  -
|  1> # Test redundant internal optimization
|  2> #
|  3> ! RKS B3LYP  Opt TightSCF SmallPrint
|  4>
|  5> %basis
|  6>         Basis "6-31G"
|  7> end
|  8>
|  9> %geom
| 10> Constraints
| 11> { D 4  0  15  12  285.0   C } # D for Dihedral angle
| 12> { D 0  15  12  16  345.0   C } # D for Dihedral angle
| 13> { D 0  4  3  2   C } # D for Dihedral angle
| 14> { D 4  3  2  1   C } # D for Dihedral angle
| 15> { D 3  2  1  0   C } # D for Dihedral angle
| 16> { D 2  1  0  4   C } # D for Dihedral angle
| 17> { D 1  0  4  3   C } # D for Dihedral angle
| 18> { D 16  20  19  18   C } # D for Dihedral angle
| 19> { D 20  19  18  17   C } # D for Dihedral angle
| 20> { D 19  18  17  16   C } # D for Dihedral angle
| 21> { D 18  17  16  20   C } # D for Dihedral angle
| 22> { D 17  16  20  19   C } # D for Dihedral angle
| 23> { D 15  12  16  20   C } # D for Dihedral angle
| 24> end
| 25> end
| 26>
| 27>
| 28> #%pal
| 29> #nprocs 8
| 30> #end
| 31>
| 32> * xyz 0 1
| 33> C  -21.048   26.222   46.251
| 34> C  -20.361   27.558   45.944
| 35> C  -20.329   28.222   47.341
| 36> C  -20.110   27.022   48.296
| 37> O  -20.473   25.807   47.535
| 38> H  -20.833   25.428   45.533
| 39> H  -19.344   27.382   45.576
| 40> H  -20.898   28.157   45.201
| 41> H  -19.543   28.978   47.434
| 42> H  -21.289   28.710   47.548
| 43> H  -20.733   27.082   49.195
| 44> H  -19.064   26.913   48.597
| 45> C  -23.396   25.070   46.435
| 46> H  -23.740   24.903   47.464
| 47> H  -24.278   25.129   45.784
| 48> O  -22.586   26.394   46.375
| 49> C  -22.563   23.836   45.992
| 50> C  -23.423   22.568   45.953
| 51> C  -24.172   22.739   44.609
| 52> C  -23.120   23.428   43.706
| 53> O  -22.099   24.000   44.610
| 54> H  -21.674   23.759   46.621
| 55> O  -22.516   21.308   45.919
| 56> H  -24.102   22.482   46.809
| 57> H  -24.520   21.787   44.194
| 58> H  -25.047   23.385   44.746
| 59> H  -23.551   24.232   43.098
| 60> H  -22.607   22.721   43.047
| 61> H  -21.828   21.373   45.068
| 62> *
| 63>
| 64>                          ****END OF INPUT****
 Total Charge           Charge          ....    0
 Multiplicity           Mult            ....    1
 Number of Electrons    NEL             ....  102
FINAL SINGLE POINT ENERGY      -652.835472983577
FINAL SINGLE POINT ENERGY      -652.859062045507
FINAL SINGLE POINT ENERGY      -652.863401316358
FINAL SINGLE POINT ENERGY      -652.864287837474
FINAL SINGLE POINT ENERGY      -652.864434495906
FINAL SINGLE POINT ENERGY      -652.864455394598
                    ***********************HURRAY********************

CARTESIAN COORDINATES (ANGSTROEM)
---------------------------------
  C    -20.957663   26.208923   46.199401
  C    -20.433232   27.629259   45.978547
  C    -20.455913   28.202762   47.415411
  C    -20.087862   26.977661   48.284649
  O    -20.326817   25.786031   47.435087
  H    -20.690989   25.479129   45.436307
  H    -19.409733   27.577601   45.589893
  H    -21.054066   28.190611   45.277896
  H    -19.755169   29.032303   47.551199
  H    -21.463579   28.555256   47.652669
  H    -20.696856   26.897746   49.189252
  H    -19.029359   26.958152   48.562118
  C    -23.206324   25.110917   46.379517
  H    -23.546008   24.968968   47.414389
  H    -24.080594   25.331745   45.758156
  O    -22.390531   26.321093   46.335369
  C    -22.528588   23.817305   45.926707
  C    -23.466426   22.600278   45.946814
  C    -24.216608   22.757884   44.595935
  C    -23.128326   23.342941   43.658764
  O    -22.066310   23.891627   44.535333
  H    -21.642621   23.632967   46.541621
  O    -22.709542   21.361553   46.001684
  H    -24.133043   22.569296   46.809773
  H    -24.601418   21.794940   44.252591
  H    -25.060279   23.447486   44.707780
  H    -23.507824   24.143164   43.016078
  H    -22.663429   22.578887   43.028059
  H    -21.937891   21.428515   45.399998

 Multiplicity           Mult            ....    1
 Number of Electrons    NEL             ....  102
 Basis Dimension        Dim             ....  149

ORBITAL ENERGIES
----------------

  NO   OCC          E(Eh)            E(eV)
   0   2.0000     -19.149044      -521.0720
   1   2.0000     -19.141398      -520.8639
   2   2.0000     -19.136262      -520.7242
   3   2.0000     -19.131404      -520.5920
   4   2.0000     -10.265343      -279.3342
   5   2.0000     -10.247059      -278.8367
   6   2.0000     -10.236932      -278.5611
   7   2.0000     -10.236010      -278.5360
   8   2.0000     -10.230409      -278.3836
   9   2.0000     -10.218355      -278.0556
  10   2.0000     -10.193457      -277.3781
  11   2.0000     -10.177639      -276.9476
  12   2.0000     -10.176277      -276.9106
  13   2.0000      -1.047644       -28.5078
  14   2.0000      -1.038070       -28.2473
  15   2.0000      -1.010164       -27.4880
  16   2.0000      -0.984772       -26.7970
  17   2.0000      -0.789819       -21.4921
  18   2.0000      -0.779103       -21.2005
  19   2.0000      -0.765164       -20.8212
  20   2.0000      -0.728951       -19.8358
  21   2.0000      -0.672657       -18.3039
  22   2.0000      -0.608826       -16.5670
  23   2.0000      -0.605119       -16.4661
  24   2.0000      -0.590413       -16.0660
  25   2.0000      -0.565115       -15.3776
  26   2.0000      -0.529510       -14.4087
  27   2.0000      -0.508770       -13.8443
  28   2.0000      -0.493791       -13.4367
  29   2.0000      -0.480059       -13.0631
  30   2.0000      -0.475941       -12.9510
  31   2.0000      -0.456329       -12.4174
  32   2.0000      -0.448804       -12.2126
  33   2.0000      -0.438408       -11.9297
  34   2.0000      -0.420271       -11.4362
  35   2.0000      -0.407219       -11.0810
  36   2.0000      -0.397590       -10.8190
  37   2.0000      -0.396014       -10.7761
  38   2.0000      -0.380029       -10.3411
  39   2.0000      -0.366440        -9.9714
  40   2.0000      -0.362622        -9.8674
  41   2.0000      -0.348580        -9.4853
  42   2.0000      -0.340380        -9.2622
  43   2.0000      -0.332803        -9.0560
  44   2.0000      -0.323498        -8.8028
  45   2.0000      -0.313275        -8.5246
  46   2.0000      -0.292767        -7.9666
  47   2.0000      -0.276892        -7.5346
  48   2.0000      -0.263685        -7.1752
  49   2.0000      -0.247056        -6.7227
  50   2.0000      -0.240664        -6.5488
  51   0.0000       0.063308         1.7227
  52   0.0000       0.085497         2.3265
  53   0.0000       0.090046         2.4503
  54   0.0000       0.099731         2.7138
  55   0.0000       0.102853         2.7988

MULLIKEN ATOMIC CHARGES
-----------------------
   0 C :    0.266276
   1 C :   -0.257354
   2 C :   -0.296681
   3 C :   -0.000886
   4 O :   -0.521191
   5 H :    0.188118
   6 H :    0.142849
   7 H :    0.154455
   8 H :    0.136362
   9 H :    0.160045
  10 H :    0.142305
  11 H :    0.139799
  12 C :    0.034826
  13 H :    0.137873
  14 H :    0.140443
  15 O :   -0.537266
  16 C :    0.009239
  17 C :    0.079419
  18 C :   -0.299621
  19 C :   -0.023146
  20 O :   -0.528480
  21 H :    0.198321
  22 O :   -0.599682
  23 H :    0.156287
  24 H :    0.163479
  25 H :    0.148610
  26 H :    0.150666
  27 H :    0.148642
  28 H :    0.366294
Sum of atomic charges:    0.0000000

LOEWDIN ATOMIC CHARGES
----------------------
   0 C :    0.163122
   1 C :   -0.212222
   2 C :   -0.216187
   3 C :   -0.028090
   4 O :   -0.337704
   5 H :    0.116881
   6 H :    0.112599
   7 H :    0.123104
   8 H :    0.110928
   9 H :    0.118057
  10 H :    0.102616
  11 H :    0.100971
  12 C :   -0.035505
  13 H :    0.104160
  14 H :    0.105234
  15 O :   -0.325671
  16 C :   -0.005111
  17 C :    0.040826
  18 C :   -0.241057
  19 C :   -0.035864
  20 O :   -0.334018
  21 H :    0.130761
  22 O :   -0.412013
  23 H :    0.117587
  24 H :    0.127367
  25 H :    0.114483
  26 H :    0.106509
  27 H :    0.103854
  28 H :    0.284384

  Mayer bond orders larger than 0.100000
B(  0-C ,  1-C ) :   0.9458 B(  0-C ,  4-O ) :   0.8862 B(  0-C ,  5-H ) :   0.8951
B(  0-C , 15-O ) :   0.8534 B(  1-C ,  2-C ) :   0.9558 B(  1-C ,  6-H ) :   0.9418
B(  1-C ,  7-H ) :   0.9377 B(  2-C ,  3-C ) :   0.9557 B(  2-C ,  8-H ) :   0.9459
B(  2-C ,  9-H ) :   0.9445 B(  3-C ,  4-O ) :   0.8396 B(  3-C , 10-H ) :   0.9364
B(  3-C , 11-H ) :   0.9407 B( 12-C , 13-H ) :   0.9146 B( 12-C , 14-H ) :   0.9328
B( 12-C , 15-O ) :   0.8453 B( 12-C , 16-C ) :   0.9023 B( 16-C , 17-C ) :   0.8938
B( 16-C , 20-O ) :   0.8291 B( 16-C , 21-H ) :   0.9064 B( 17-C , 18-C ) :   0.9103
B( 17-C , 22-O ) :   0.8957 B( 17-C , 23-H ) :   0.9336 B( 18-C , 19-C ) :   0.9413
B( 18-C , 24-H ) :   0.9375 B( 18-C , 25-H ) :   0.9329 B( 19-C , 20-O ) :   0.8390
B( 19-C , 26-H ) :   0.9347 B( 19-C , 27-H ) :   0.9386 B( 22-O , 28-H ) :   0.7933

FINAL SINGLE POINT ENERGY      -652.864458092107

DIPOLE MOMENT
-------------
                                X             Y             Z
Electronic contribution:      0.80583      -3.53939       0.11372
Nuclear contribution   :     -1.27063       3.97562      -0.59925
                        -----------------------------------------
Total Dipole Moment    :     -0.46480       0.43623      -0.48552
                        -----------------------------------------
Magnitude (a.u.)       :      0.80129
Magnitude (Debye)      :      2.03672

Rotational constants in cm-1:     0.062772     0.013171     0.012381
Rotational constants in MHz :  1881.860015   394.863336   371.185521

                             ****ORCA TERMINATED NORMALLY****
TOTAL RUN TIME: 0 days 0 hours 22 minutes 24 seconds 533 msec
