                         Program Version 4.2.0 -  RELEASE  -
|  1> # Test redundant internal optimization
|  2> #
|  3> ! RKS B3LYP  Opt TightSCF SmallPrint
|  4>
|  5> %basis
|  6>         Basis "6-31G"
|  7> end
|  8>
|  9> %geom
| 10> Constraints
| 11> { D 4  0  15  12  165.0   C } # D for Dihedral angle
| 12> { D 0  15  12  16  135.0   C } # D for Dihedral angle
| 13> { D 0  4  3  2   C } # D for Dihedral angle
| 14> { D 4  3  2  1   C } # D for Dihedral angle
| 15> { D 3  2  1  0   C } # D for Dihedral angle
| 16> { D 2  1  0  4   C } # D for Dihedral angle
| 17> { D 1  0  4  3   C } # D for Dihedral angle
| 18> { D 16  20  19  18   C } # D for Dihedral angle
| 19> { D 20  19  18  17   C } # D for Dihedral angle
| 20> { D 19  18  17  16   C } # D for Dihedral angle
| 21> { D 18  17  16  20   C } # D for Dihedral angle
| 22> { D 17  16  20  19   C } # D for Dihedral angle
| 23> { D 15  12  16  20   C } # D for Dihedral angle
| 24> end
| 25> end
| 26>
| 27>
| 28> #%pal
| 29> #nprocs 8
| 30> #end
| 31>
| 32> * xyz 0 1
| 33> C  -21.048   26.222   46.251
| 34> C  -20.361   27.558   45.944
| 35> C  -20.329   28.222   47.341
| 36> C  -20.110   27.022   48.296
| 37> O  -20.473   25.807   47.535
| 38> H  -20.833   25.428   45.533
| 39> H  -19.344   27.382   45.576
| 40> H  -20.898   28.157   45.201
| 41> H  -19.543   28.978   47.434
| 42> H  -21.289   28.710   47.548
| 43> H  -20.733   27.082   49.195
| 44> H  -19.064   26.913   48.597
| 45> C  -23.260   27.170   45.210
| 46> H  -23.512   28.183   45.548
| 47> H  -22.574   27.254   44.357
| 48> O  -22.586   26.394   46.375
| 49> C  -24.561   26.486   44.706
| 50> C  -25.643   26.479   45.792
| 51> C  -26.185   27.926   45.703
| 52> C  -26.092   28.243   44.189
| 53> O  -25.154   27.259   43.610
| 54> H  -24.315   25.501   44.306
| 55> H  -26.426   25.756   45.537
| 56> O  -25.092   26.128   47.201
| 57> H  -27.206   28.020   46.087
| 58> H  -25.545   28.603   46.280
| 59> H  -25.718   29.253   43.995
| 60> H  -27.050   28.117   43.676
| 61> H  -24.305   26.840   47.476
| 62> *
| 63>
| 64>                          ****END OF INPUT****
 Total Charge           Charge          ....    0
 Multiplicity           Mult            ....    1
 Number of Electrons    NEL             ....  102
FINAL SINGLE POINT ENERGY      -652.826322814927
FINAL SINGLE POINT ENERGY      -652.850207359839
FINAL SINGLE POINT ENERGY      -652.856847898261
FINAL SINGLE POINT ENERGY      -652.859358349506
FINAL SINGLE POINT ENERGY      -652.860937062266
FINAL SINGLE POINT ENERGY      -652.861949485040
FINAL SINGLE POINT ENERGY      -652.862493796093
FINAL SINGLE POINT ENERGY      -652.862634098296
FINAL SINGLE POINT ENERGY      -652.862653483789
FINAL SINGLE POINT ENERGY      -652.862657011448
                    ***********************HURRAY********************

CARTESIAN COORDINATES (ANGSTROEM)
---------------------------------
  C    -21.120656   26.264562   46.199264
  C    -20.276961   27.507932   45.927654
  C    -20.327604   28.237298   47.293697
  C    -20.335545   27.071621   48.302347
  O    -20.741506   25.871114   47.519597
  H    -20.945656   25.415366   45.534084
  H    -19.255023   27.189119   45.692896
  H    -20.634861   28.124807   45.099737
  H    -19.476159   28.908701   47.438208
  H    -21.246478   28.826425   47.372640
  H    -21.046986   27.208220   49.119839
  H    -19.345901   26.851939   48.711812
  C    -23.187420   27.287761   45.135034
  H    -23.370207   28.320599   45.452674
  H    -22.544419   27.304061   44.248079
  O    -22.560551   26.550615   46.237009
  C    -24.489357   26.562428   44.776706
  C    -25.542021   26.526730   45.897491
  C    -26.173227   27.944453   45.780638
  C    -26.141587   28.218902   44.263135
  O    -25.153284   27.262575   43.679694
  H    -24.244552   25.560546   44.412242
  H    -26.294515   25.771591   45.640501
  O    -25.055062   26.236745   47.221029
  H    -27.183427   27.975197   46.196884
  H    -25.555734   28.651224   46.344681
  H    -25.832667   29.238483   44.011381
  H    -27.098687   28.010972   43.775944
  H    -24.068949   26.193015   47.214104

 Multiplicity           Mult            ....    1
 Number of Electrons    NEL             ....  102
 Basis Dimension        Dim             ....  149

ORBITAL ENERGIES
----------------

  NO   OCC          E(Eh)            E(eV)
   0   2.0000     -19.160535      -521.3847
   1   2.0000     -19.153025      -521.1803
   2   2.0000     -19.140050      -520.8272
   3   2.0000     -19.107998      -519.9550
   4   2.0000     -10.294891      -280.1382
   5   2.0000     -10.241033      -278.6727
   6   2.0000     -10.235062      -278.5102
   7   2.0000     -10.233534      -278.4686
   8   2.0000     -10.227887      -278.3150
   9   2.0000     -10.226101      -278.2663
  10   2.0000     -10.200556      -277.5712
  11   2.0000     -10.198363      -277.5116
  12   2.0000     -10.177507      -276.9440
  13   2.0000      -1.066760       -29.0280
  14   2.0000      -1.025338       -27.9009
  15   2.0000      -1.007093       -27.4044
  16   2.0000      -0.987730       -26.8775
  17   2.0000      -0.798753       -21.7352
  18   2.0000      -0.774712       -21.0810
  19   2.0000      -0.767007       -20.8713
  20   2.0000      -0.739228       -20.1154
  21   2.0000      -0.682393       -18.5689
  22   2.0000      -0.612630       -16.6705
  23   2.0000      -0.600373       -16.3370
  24   2.0000      -0.595326       -16.1996
  25   2.0000      -0.576969       -15.7001
  26   2.0000      -0.529019       -14.3954
  27   2.0000      -0.522673       -14.2227
  28   2.0000      -0.505635       -13.7590
  29   2.0000      -0.488639       -13.2965
  30   2.0000      -0.476601       -12.9690
  31   2.0000      -0.462398       -12.5825
  32   2.0000      -0.446873       -12.1600
  33   2.0000      -0.432969       -11.7817
  34   2.0000      -0.428898       -11.6709
  35   2.0000      -0.418575       -11.3900
  36   2.0000      -0.411454       -11.1962
  37   2.0000      -0.388472       -10.5709
  38   2.0000      -0.384461       -10.4617
  39   2.0000      -0.371471       -10.1082
  40   2.0000      -0.367072        -9.9885
  41   2.0000      -0.363351        -9.8873
  42   2.0000      -0.348501        -9.4832
  43   2.0000      -0.341853        -9.3023
  44   2.0000      -0.321858        -8.7582
  45   2.0000      -0.316665        -8.6169
  46   2.0000      -0.281520        -7.6606
  47   2.0000      -0.275545        -7.4980
  48   2.0000      -0.273009        -7.4289
  49   2.0000      -0.245585        -6.6827
  50   2.0000      -0.239321        -6.5123
  51   0.0000       0.058298         1.5864
  52   0.0000       0.073644         2.0040
  53   0.0000       0.090425         2.4606
  54   0.0000       0.095918         2.6101
  55   0.0000       0.103232         2.8091

MULLIKEN ATOMIC CHARGES
-----------------------
   0 C :    0.319345
   1 C :   -0.287124
   2 C :   -0.300968
   3 C :   -0.006116
   4 O :   -0.498077
   5 H :    0.156039
   6 H :    0.155856
   7 H :    0.149935
   8 H :    0.148771
   9 H :    0.158992
  10 H :    0.161212
  11 H :    0.149245
  12 C :   -0.027370
  13 H :    0.145854
  14 H :    0.155045
  15 O :   -0.560749
  16 C :    0.056792
  17 C :    0.125306
  18 C :   -0.300330
  19 C :   -0.017966
  20 O :   -0.524222
  21 H :    0.153763
  22 H :    0.145384
  23 O :   -0.643637
  24 H :    0.150805
  25 H :    0.145438
  26 H :    0.137777
  27 H :    0.149348
  28 H :    0.401652
Sum of atomic charges:   -0.0000000

LOEWDIN ATOMIC CHARGES
----------------------
   0 C :    0.187385
   1 C :   -0.231740
   2 C :   -0.216222
   3 C :   -0.025365
   4 O :   -0.299642
   5 H :    0.105331
   6 H :    0.120992
   7 H :    0.117325
   8 H :    0.117950
   9 H :    0.116300
  10 H :    0.112956
  11 H :    0.106744
  12 C :   -0.047787
  13 H :    0.102251
  14 H :    0.109505
  15 O :   -0.350629
  16 C :    0.016100
  17 C :    0.042725
  18 C :   -0.235539
  19 C :   -0.031936
  20 O :   -0.326670
  21 H :    0.113302
  22 H :    0.103109
  23 O :   -0.436600
  24 H :    0.121336
  25 H :    0.111200
  26 H :    0.099928
  27 H :    0.105936
  28 H :    0.291757

  Mayer bond orders larger than 0.100000
B(  0-C ,  1-C ) :   0.9347 B(  0-C ,  4-O ) :   0.9522 B(  0-C ,  5-H ) :   0.9235
B(  0-C , 15-O ) :   0.7896 B(  1-C ,  2-C ) :   0.9480 B(  1-C ,  6-H ) :   0.9331
B(  1-C ,  7-H ) :   0.9287 B(  2-C ,  3-C ) :   0.9549 B(  2-C ,  8-H ) :   0.9445
B(  2-C ,  9-H ) :   0.9453 B(  3-C ,  4-O ) :   0.8269 B(  3-C , 10-H ) :   0.9339
B(  3-C , 11-H ) :   0.9394 B( 12-C , 13-H ) :   0.9253 B( 12-C , 14-H ) :   0.9227
B( 12-C , 15-O ) :   0.7894 B( 12-C , 16-C ) :   0.8934 B( 16-C , 17-C ) :   0.9163
B( 16-C , 20-O ) :   0.8549 B( 16-C , 21-H ) :   0.9304 B( 17-C , 18-C ) :   0.9038
B( 17-C , 22-H ) :   0.9277 B( 17-C , 23-O ) :   0.9373 B( 18-C , 19-C ) :   0.9379
B( 18-C , 24-H ) :   0.9449 B( 18-C , 25-H ) :   0.9429 B( 19-C , 20-O ) :   0.8305
B( 19-C , 26-H ) :   0.9354 B( 19-C , 27-H ) :   0.9388 B( 23-O , 28-H ) :   0.7197

FINAL SINGLE POINT ENERGY      -652.862657436793

DIPOLE MOMENT
-------------
                                X             Y             Z
Electronic contribution:     -1.26578      -5.31241      -0.23415
Nuclear contribution   :      2.36034       6.58527      -0.19668
                        -----------------------------------------
Total Dipole Moment    :      1.09456       1.27286      -0.43082
                        -----------------------------------------
Magnitude (a.u.)       :      1.73316
Magnitude (Debye)      :      4.40534

Rotational constants in cm-1:     0.055801     0.013513     0.012553
Rotational constants in MHz :  1672.864991   405.097056   376.335431

                             ****ORCA TERMINATED NORMALLY****
TOTAL RUN TIME: 0 days 1 hours 4 minutes 52 seconds 128 msec
