                         Program Version 4.2.0 -  RELEASE  -
|  1> # Test redundant internal optimization
|  2> #
|  3> ! RKS B3LYP  Opt TightSCF SmallPrint
|  4>
|  5> %basis
|  6>         Basis "6-31G"
|  7> end
|  8>
|  9> %geom
| 10> Constraints
| 11> { D 4  0  15  12  300.0   C } # D for Dihedral angle
| 12> { D 0  15  12  16  165.0   C } # D for Dihedral angle
| 13> { D 0  4  3  2   C } # D for Dihedral angle
| 14> { D 4  3  2  1   C } # D for Dihedral angle
| 15> { D 3  2  1  0   C } # D for Dihedral angle
| 16> { D 2  1  0  4   C } # D for Dihedral angle
| 17> { D 1  0  4  3   C } # D for Dihedral angle
| 18> { D 16  20  19  18   C } # D for Dihedral angle
| 19> { D 20  19  18  17   C } # D for Dihedral angle
| 20> { D 19  18  17  16   C } # D for Dihedral angle
| 21> { D 18  17  16  20   C } # D for Dihedral angle
| 22> { D 17  16  20  19   C } # D for Dihedral angle
| 23> { D 15  12  16  20   C } # D for Dihedral angle
| 24> end
| 25> end
| 26>
| 27>
| 28> #%pal
| 29> #nprocs 8
| 30> #end
| 31>
| 32> * xyz 0 1
| 33> C  -21.048   26.222   46.251
| 34> C  -20.361   27.558   45.944
| 35> C  -20.329   28.222   47.341
| 36> C  -20.110   27.022   48.296
| 37> O  -20.473   25.807   47.535
| 38> H  -20.833   25.428   45.533
| 39> H  -19.344   27.382   45.576
| 40> H  -20.898   28.157   45.201
| 41> H  -19.543   28.978   47.434
| 42> H  -21.289   28.710   47.548
| 43> H  -20.733   27.082   49.195
| 44> H  -19.064   26.913   48.597
| 45> C  -23.362   25.116   46.798
| 46> H  -23.410   24.424   45.948
| 47> H  -22.846   24.609   47.623
| 48> O  -22.586   26.394   46.375
| 49> C  -24.812   25.421   47.263
| 50> C  -25.508   24.157   47.781
| 51> C  -24.913   24.032   49.204
| 52> C  -24.755   25.508   49.649
| 53> O  -24.801   26.325   48.418
| 54> H  -25.346   25.933   46.460
| 55> H  -26.591   24.314   47.827
| 56> O  -25.233   22.906   46.902
| 57> H  -25.552   23.458   49.882
| 58> H  -23.937   23.534   49.162
| 59> H  -23.805   25.690   50.164
| 60> H  -25.576   25.841   50.289
| 61> H  -24.154   22.727   46.842
| 62> *
| 63>
| 64>                          ****END OF INPUT****
 Total Charge           Charge          ....    0
 Multiplicity           Mult            ....    1
 Number of Electrons    NEL             ....  102
FINAL SINGLE POINT ENERGY      -652.831994375385
FINAL SINGLE POINT ENERGY      -652.857512707253
FINAL SINGLE POINT ENERGY      -652.862496425158
FINAL SINGLE POINT ENERGY      -652.863367266984
FINAL SINGLE POINT ENERGY      -652.863512981675
FINAL SINGLE POINT ENERGY      -652.863538732402
FINAL SINGLE POINT ENERGY      -652.863542629388
                    ***********************HURRAY********************

CARTESIAN COORDINATES (ANGSTROEM)
---------------------------------
  C    -21.068240   26.167451   46.233110
  C    -20.531793   27.576747   45.981603
  C    -20.528440   28.169957   47.407445
  C    -20.162799   26.960577   48.294826
  O    -20.426747   25.752894   47.466368
  H    -20.811718   25.406868   45.487521
  H    -19.516601   27.510947   45.573903
  H    -21.162193   28.133807   45.285578
  H    -19.818530   28.995322   47.518474
  H    -21.530584   28.532178   47.652010
  H    -20.765546   26.902397   49.204480
  H    -19.101605   26.928462   48.559345
  C    -23.175656   25.059969   46.767808
  H    -23.246601   24.376791   45.907589
  H    -22.601503   24.573534   47.566229
  O    -22.496420   26.284268   46.379089
  C    -24.576790   25.438965   47.235583
  C    -25.409762   24.244241   47.731266
  C    -24.907544   24.091644   49.198391
  C    -24.652130   25.553535   49.624130
  O    -24.556874   26.352050   48.375455
  H    -25.074231   25.984123   46.428598
  H    -26.468894   24.510815   47.716597
  O    -25.324848   23.044659   46.924336
  H    -25.636781   23.582502   49.834328
  H    -23.979542   23.504655   49.208761
  H    -23.726793   25.673798   50.196906
  H    -25.482194   25.967281   50.205318
  H    -24.470643   22.589564   47.072953

 Multiplicity           Mult            ....    1
 Number of Electrons    NEL             ....  102
 Basis Dimension        Dim             ....  149

ORBITAL ENERGIES
----------------

  NO   OCC          E(Eh)            E(eV)
   0   2.0000     -19.148915      -521.0685
   1   2.0000     -19.139796      -520.8203
   2   2.0000     -19.139181      -520.8036
   3   2.0000     -19.135250      -520.6966
   4   2.0000     -10.275013      -279.5973
   5   2.0000     -10.244063      -278.7551
   6   2.0000     -10.229229      -278.3515
   7   2.0000     -10.228092      -278.3205
   8   2.0000     -10.224102      -278.2120
   9   2.0000     -10.222453      -278.1671
  10   2.0000     -10.194340      -277.4021
  11   2.0000     -10.180944      -277.0376
  12   2.0000     -10.179311      -276.9931
  13   2.0000      -1.052978       -28.6530
  14   2.0000      -1.031874       -28.0787
  15   2.0000      -1.013673       -27.5834
  16   2.0000      -0.989880       -26.9360
  17   2.0000      -0.786537       -21.4028
  18   2.0000      -0.780076       -21.2270
  19   2.0000      -0.764244       -20.7961
  20   2.0000      -0.726967       -19.7818
  21   2.0000      -0.676115       -18.3980
  22   2.0000      -0.610110       -16.6019
  23   2.0000      -0.595343       -16.2001
  24   2.0000      -0.585761       -15.9394
  25   2.0000      -0.574528       -15.6337
  26   2.0000      -0.529332       -14.4038
  27   2.0000      -0.509449       -13.8628
  28   2.0000      -0.492208       -13.3937
  29   2.0000      -0.486592       -13.2408
  30   2.0000      -0.471080       -12.8188
  31   2.0000      -0.456600       -12.4247
  32   2.0000      -0.439348       -11.9553
  33   2.0000      -0.436156       -11.8684
  34   2.0000      -0.425639       -11.5822
  35   2.0000      -0.412187       -11.2162
  36   2.0000      -0.399367       -10.8673
  37   2.0000      -0.396361       -10.7855
  38   2.0000      -0.376366       -10.2414
  39   2.0000      -0.372351       -10.1322
  40   2.0000      -0.353934        -9.6310
  41   2.0000      -0.349916        -9.5217
  42   2.0000      -0.342359        -9.3161
  43   2.0000      -0.331542        -9.0217
  44   2.0000      -0.324425        -8.8281
  45   2.0000      -0.313627        -8.5342
  46   2.0000      -0.295106        -8.0302
  47   2.0000      -0.270485        -7.3603
  48   2.0000      -0.261203        -7.1077
  49   2.0000      -0.251658        -6.8480
  50   2.0000      -0.240968        -6.5571
  51   0.0000       0.053009         1.4425
  52   0.0000       0.073407         1.9975
  53   0.0000       0.093215         2.5365
  54   0.0000       0.100887         2.7453
  55   0.0000       0.104194         2.8352

MULLIKEN ATOMIC CHARGES
-----------------------
   0 C :    0.289005
   1 C :   -0.261958
   2 C :   -0.298978
   3 C :   -0.005025
   4 O :   -0.517940
   5 H :    0.138601
   6 H :    0.141848
   7 H :    0.160099
   8 H :    0.137808
   9 H :    0.176642
  10 H :    0.147377
  11 H :    0.140863
  12 C :   -0.014535
  13 H :    0.130109
  14 H :    0.145536
  15 O :   -0.515147
  16 C :    0.093929
  17 C :    0.078656
  18 C :   -0.326787
  19 C :   -0.012406
  20 O :   -0.507273
  21 H :    0.162893
  22 H :    0.169614
  23 O :   -0.599973
  24 H :    0.158466
  25 H :    0.137273
  26 H :    0.144629
  27 H :    0.149086
  28 H :    0.357587
Sum of atomic charges:   -0.0000000

LOEWDIN ATOMIC CHARGES
----------------------
   0 C :    0.172732
   1 C :   -0.213867
   2 C :   -0.216034
   3 C :   -0.027559
   4 O :   -0.333879
   5 H :    0.093818
   6 H :    0.112363
   7 H :    0.125966
   8 H :    0.112142
   9 H :    0.126420
  10 H :    0.105165
  11 H :    0.101595
  12 C :   -0.056946
  13 H :    0.096385
  14 H :    0.101632
  15 O :   -0.315882
  16 C :    0.023442
  17 C :    0.034886
  18 C :   -0.242890
  19 C :   -0.030623
  20 O :   -0.315294
  21 H :    0.119260
  22 H :    0.119715
  23 O :   -0.407930
  24 H :    0.122643
  25 H :    0.105999
  26 H :    0.102495
  27 H :    0.105387
  28 H :    0.278857

  Mayer bond orders larger than 0.100000
B(  0-C ,  1-C ) :   0.9513 B(  0-C ,  4-O ) :   0.8970 B(  0-C ,  5-H ) :   0.9192
B(  0-C , 15-O ) :   0.8671 B(  1-C ,  2-C ) :   0.9560 B(  1-C ,  6-H ) :   0.9407
B(  1-C ,  7-H ) :   0.9354 B(  2-C ,  3-C ) :   0.9571 B(  2-C ,  8-H ) :   0.9451
B(  2-C ,  9-H ) :   0.9402 B(  3-C ,  4-O ) :   0.8332 B(  3-C , 10-H ) :   0.9355
B(  3-C , 11-H ) :   0.9406 B( 12-C , 13-H ) :   0.9064 B( 12-C , 14-H ) :   0.9083
B( 12-C , 15-O ) :   0.8350 B( 12-C , 16-C ) :   0.9086 B( 16-C , 17-C ) :   0.8744
B( 16-C , 20-O ) :   0.8703 B( 16-C , 21-H ) :   0.9298 B( 17-C , 18-C ) :   0.9257
B( 17-C , 22-H ) :   0.9333 B( 17-C , 23-O ) :   0.8983 B( 18-C , 19-C ) :   0.9387
B( 18-C , 24-H ) :   0.9410 B( 18-C , 25-H ) :   0.9397 B( 19-C , 20-O ) :   0.8507
B( 19-C , 26-H ) :   0.9312 B( 19-C , 27-H ) :   0.9378 B( 23-O , 28-H ) :   0.7975

FINAL SINGLE POINT ENERGY      -652.863543153813

DIPOLE MOMENT
-------------
                                X             Y             Z
Electronic contribution:     -2.50189      -1.71169      -2.51593
Nuclear contribution   :      3.05801       1.53376       3.07679
                        -----------------------------------------
Total Dipole Moment    :      0.55612      -0.17793       0.56086
                        -----------------------------------------
Magnitude (a.u.)       :      0.80963
Magnitude (Debye)      :      2.05790

Rotational constants in cm-1:     0.051539     0.014280     0.013078
Rotational constants in MHz :  1545.094296   428.116748   392.080227

                             ****ORCA TERMINATED NORMALLY****
TOTAL RUN TIME: 0 days 0 hours 30 minutes 13 seconds 43 msec
