                         Program Version 4.2.0 -  RELEASE  -
|  1> # Test redundant internal optimization
|  2> #
|  3> ! RKS B3LYP  Opt TightSCF SmallPrint
|  4>
|  5> %basis
|  6>         Basis "6-31G"
|  7> end
|  8>
|  9> %geom
| 10> Constraints
| 11> { D 4  0  15  12  30.0   C } # D for Dihedral angle
| 12> { D 0  15  12  16  180.0   C } # D for Dihedral angle
| 13> { D 0  4  3  2   C } # D for Dihedral angle
| 14> { D 4  3  2  1   C } # D for Dihedral angle
| 15> { D 3  2  1  0   C } # D for Dihedral angle
| 16> { D 2  1  0  4   C } # D for Dihedral angle
| 17> { D 1  0  4  3   C } # D for Dihedral angle
| 18> { D 16  20  19  18   C } # D for Dihedral angle
| 19> { D 20  19  18  17   C } # D for Dihedral angle
| 20> { D 19  18  17  16   C } # D for Dihedral angle
| 21> { D 18  17  16  20   C } # D for Dihedral angle
| 22> { D 17  16  20  19   C } # D for Dihedral angle
| 23> { D 15  12  16  20   C } # D for Dihedral angle
| 24> end
| 25> end
| 26>
| 27>
| 28> #%pal
| 29> #nprocs 8
| 30> #end
| 31>
| 32> * xyz 0 1
| 33> C  -21.048   26.222   46.251
| 34> C  -20.361   27.558   45.944
| 35> C  -20.329   28.222   47.341
| 36> C  -20.110   27.022   48.296
| 37> O  -20.473   25.807   47.535
| 38> H  -20.833   25.428   45.533
| 39> H  -19.344   27.382   45.576
| 40> H  -20.898   28.157   45.201
| 41> H  -19.543   28.978   47.434
| 42> H  -21.289   28.710   47.548
| 43> H  -20.733   27.082   49.195
| 44> H  -19.064   26.913   48.597
| 45> C  -23.091   26.824   47.779
| 46> H  -22.791   26.071   48.518
| 47> H  -22.648   27.785   48.070
| 48> O  -22.586   26.394   46.375
| 49> C  -24.636   26.979   47.840
| 50> C  -25.340   25.637   47.613
| 51> C  -25.198   24.969   49.002
| 52> C  -25.314   26.165   49.980
| 53> O  -25.058   27.385   49.185
| 54> H  -24.943   27.772   47.156
| 55> O  -26.836   25.871   47.268
| 56> H  -24.890   25.045   46.809
| 57> H  -25.959   24.205   49.185
| 58> H  -24.215   24.492   49.091
| 59> H  -24.588   26.111   50.798
| 60> H  -26.317   26.261   50.404
| 61> H  -27.309   26.463   48.061
| 62> *
| 63>
| 64>                          ****END OF INPUT****
 Total Charge           Charge          ....    0
 Multiplicity           Mult            ....    1
 Number of Electrons    NEL             ....  102
FINAL SINGLE POINT ENERGY      -652.830187151658
FINAL SINGLE POINT ENERGY      -652.854447189729
FINAL SINGLE POINT ENERGY      -652.859230433490
FINAL SINGLE POINT ENERGY      -652.861750742512
FINAL SINGLE POINT ENERGY      -652.861942492847
FINAL SINGLE POINT ENERGY      -652.861980119301
                    ***********************HURRAY********************

CARTESIAN COORDINATES (ANGSTROEM)
---------------------------------
  C    -21.204477   26.294131   46.421718
  C    -20.495805   27.559887   45.926431
  C    -20.149285   28.276319   47.259739
  C    -19.838692   27.097602   48.212480
  O    -20.436044   25.891466   47.577238
  H    -21.159655   25.466422   45.711539
  H    -19.585257   27.269370   45.390362
  H    -21.126574   28.155207   45.262474
  H    -19.295029   28.953386   47.160148
  H    -21.000079   28.867011   47.611302
  H    -20.269334   27.220728   49.210228
  H    -18.766400   26.902862   48.305107
  C    -23.092398   26.854655   47.991907
  H    -22.763431   26.129484   48.744372
  H    -22.721653   27.844954   48.279908
  O    -22.625334   26.450947   46.672380
  C    -24.615455   26.921701   47.905612
  C    -25.312209   25.588782   47.601424
  C    -25.307790   24.908559   48.993744
  C    -25.499933   26.096145   49.969924
  O    -25.155195   27.325098   49.210106
  H    -24.908279   27.687223   47.182114
  O    -26.666401   25.815462   47.116907
  H    -24.810278   25.013476   46.825982
  H    -26.107138   24.166197   49.064369
  H    -24.352633   24.400358   49.164544
  H    -24.855627   26.031716   50.851914
  H    -26.536773   26.204729   50.302178
  H    -27.086842   26.516122   47.658848

 Multiplicity           Mult            ....    1
 Number of Electrons    NEL             ....  102
 Basis Dimension        Dim             ....  149

ORBITAL ENERGIES
----------------

  NO   OCC          E(Eh)            E(eV)
   0   2.0000     -19.151239      -521.1317
   1   2.0000     -19.144601      -520.9511
   2   2.0000     -19.143233      -520.9138
   3   2.0000     -19.131663      -520.5990
   4   2.0000     -10.281892      -279.7845
   5   2.0000     -10.235095      -278.5111
   6   2.0000     -10.231885      -278.4237
   7   2.0000     -10.230904      -278.3970
   8   2.0000     -10.229816      -278.3674
   9   2.0000     -10.229567      -278.3607
  10   2.0000     -10.195428      -277.4317
  11   2.0000     -10.189879      -277.2807
  12   2.0000     -10.184233      -277.1271
  13   2.0000      -1.057518       -28.7765
  14   2.0000      -1.033526       -28.1237
  15   2.0000      -1.001361       -27.2484
  16   2.0000      -0.997059       -27.1314
  17   2.0000      -0.792896       -21.5758
  18   2.0000      -0.779236       -21.2041
  19   2.0000      -0.768784       -20.9197
  20   2.0000      -0.733480       -19.9590
  21   2.0000      -0.675110       -18.3707
  22   2.0000      -0.607377       -16.5276
  23   2.0000      -0.601594       -16.3702
  24   2.0000      -0.594204       -16.1691
  25   2.0000      -0.576221       -15.6798
  26   2.0000      -0.521457       -14.1896
  27   2.0000      -0.515848       -14.0369
  28   2.0000      -0.503852       -13.7105
  29   2.0000      -0.488953       -13.3051
  30   2.0000      -0.472756       -12.8643
  31   2.0000      -0.459226       -12.4962
  32   2.0000      -0.448541       -12.2054
  33   2.0000      -0.437703       -11.9105
  34   2.0000      -0.420712       -11.4481
  35   2.0000      -0.417538       -11.3618
  36   2.0000      -0.406633       -11.0650
  37   2.0000      -0.389190       -10.5904
  38   2.0000      -0.380597       -10.3566
  39   2.0000      -0.364843        -9.9279
  40   2.0000      -0.363972        -9.9042
  41   2.0000      -0.358128        -9.7452
  42   2.0000      -0.350942        -9.5496
  43   2.0000      -0.334443        -9.1006
  44   2.0000      -0.325665        -8.8618
  45   2.0000      -0.314132        -8.5480
  46   2.0000      -0.302443        -8.2299
  47   2.0000      -0.269307        -7.3282
  48   2.0000      -0.264429        -7.1955
  49   2.0000      -0.252651        -6.8750
  50   2.0000      -0.246124        -6.6974
  51   0.0000       0.067384         1.8336
  52   0.0000       0.069381         1.8880
  53   0.0000       0.093362         2.5405
  54   0.0000       0.096176         2.6171
  55   0.0000       0.101618         2.7652

MULLIKEN ATOMIC CHARGES
-----------------------
   0 C :    0.300242
   1 C :   -0.259670
   2 C :   -0.319619
   3 C :   -0.015279
   4 O :   -0.511050
   5 H :    0.163888
   6 H :    0.149656
   7 H :    0.157972
   8 H :    0.148996
   9 H :    0.157736
  10 H :    0.145786
  11 H :    0.152708
  12 C :   -0.001043
  13 H :    0.150626
  14 H :    0.134872
  15 O :   -0.539597
  16 C :    0.051275
  17 C :    0.089412
  18 C :   -0.302985
  19 C :   -0.030096
  20 O :   -0.529774
  21 H :    0.165206
  22 O :   -0.603042
  23 H :    0.178283
  24 H :    0.163063
  25 H :    0.150300
  26 H :    0.145622
  27 H :    0.145099
  28 H :    0.361414
Sum of atomic charges:   -0.0000000

LOEWDIN ATOMIC CHARGES
----------------------
   0 C :    0.179688
   1 C :   -0.225091
   2 C :   -0.223019
   3 C :   -0.033645
   4 O :   -0.320019
   5 H :    0.111278
   6 H :    0.117513
   7 H :    0.123909
   8 H :    0.117821
   9 H :    0.112767
  10 H :    0.103340
  11 H :    0.107788
  12 C :   -0.040409
  13 H :    0.103192
  14 H :    0.096950
  15 O :   -0.336087
  16 C :    0.018639
  17 C :    0.038948
  18 C :   -0.242488
  19 C :   -0.038343
  20 O :   -0.332992
  21 H :    0.117655
  22 O :   -0.415498
  23 H :    0.128630
  24 H :    0.126748
  25 H :    0.116363
  26 H :    0.103565
  27 H :    0.102276
  28 H :    0.280517

  Mayer bond orders larger than 0.100000
B(  0-C ,  1-C ) :   0.9192 B(  0-C ,  4-O ) :   0.9101 B(  0-C ,  5-H ) :   0.9348
B(  0-C , 15-O ) :   0.8620 B(  1-C ,  2-C ) :   0.9528 B(  1-C ,  6-H ) :   0.9343
B(  1-C ,  7-H ) :   0.9367 B(  2-C ,  3-C ) :   0.9508 B(  2-C ,  8-H ) :   0.9440
B(  2-C ,  9-H ) :   0.9399 B(  3-C ,  4-O ) :   0.8337 B(  3-C , 10-H ) :   0.9329
B(  3-C , 11-H ) :   0.9395 B( 12-C , 13-H ) :   0.9160 B( 12-C , 14-H ) :   0.9057
B( 12-C , 15-O ) :   0.8199 B( 12-C , 16-C ) :   0.9066 B( 16-C , 17-C ) :   0.9145
B( 16-C , 20-O ) :   0.8448 B( 16-C , 21-H ) :   0.9250 B( 17-C , 18-C ) :   0.9114
B( 17-C , 22-O ) :   0.8883 B( 17-C , 23-H ) :   0.9233 B( 18-C , 19-C ) :   0.9437
B( 18-C , 24-H ) :   0.9376 B( 18-C , 25-H ) :   0.9340 B( 19-C , 20-O ) :   0.8425
B( 19-C , 26-H ) :   0.9354 B( 19-C , 27-H ) :   0.9386 B( 22-O , 28-H ) :   0.7965

FINAL SINGLE POINT ENERGY      -652.861985830221

DIPOLE MOMENT
-------------
                                X             Y             Z
Electronic contribution:     -3.56565      -1.52027      -1.82680
Nuclear contribution   :      4.49987       2.02495       2.36046
                        -----------------------------------------
Total Dipole Moment    :      0.93422       0.50469       0.53366
                        -----------------------------------------
Magnitude (a.u.)       :      1.18839
Magnitude (Debye)      :      3.02064

Rotational constants in cm-1:     0.056535     0.013026     0.012346
Rotational constants in MHz :  1694.887570   390.510131   370.117269

                             ****ORCA TERMINATED NORMALLY****
TOTAL RUN TIME: 0 days 2 hours 15 minutes 41 seconds 436 msec
