                         Program Version 4.2.0 -  RELEASE  -
|  1> # Test redundant internal optimization
|  2> #
|  3> ! RKS B3LYP  Opt TightSCF SmallPrint
|  4>
|  5> %basis
|  6>         Basis "6-31G"
|  7> end
|  8>
|  9> %geom
| 10> Constraints
| 11> { D 4  0  15  12  255.0   C } # D for Dihedral angle
| 12> { D 0  15  12  16  195.0   C } # D for Dihedral angle
| 13> { D 0  4  3  2   C } # D for Dihedral angle
| 14> { D 4  3  2  1   C } # D for Dihedral angle
| 15> { D 3  2  1  0   C } # D for Dihedral angle
| 16> { D 2  1  0  4   C } # D for Dihedral angle
| 17> { D 1  0  4  3   C } # D for Dihedral angle
| 18> { D 16  20  19  18   C } # D for Dihedral angle
| 19> { D 20  19  18  17   C } # D for Dihedral angle
| 20> { D 19  18  17  16   C } # D for Dihedral angle
| 21> { D 18  17  16  20   C } # D for Dihedral angle
| 22> { D 17  16  20  19   C } # D for Dihedral angle
| 23> { D 15  12  16  20   C } # D for Dihedral angle
| 24> end
| 25> end
| 26>
| 27>
| 28> #%pal
| 29> #nprocs 8
| 30> #end
| 31>
| 32> * xyz 0 1
| 33> C  -21.048   26.222   46.251
| 34> C  -20.361   27.558   45.944
| 35> C  -20.329   28.222   47.341
| 36> C  -20.110   27.022   48.296
| 37> O  -20.473   25.807   47.535
| 38> H  -20.833   25.428   45.533
| 39> H  -19.344   27.382   45.576
| 40> H  -20.898   28.157   45.201
| 41> H  -19.543   28.978   47.434
| 42> H  -21.289   28.710   47.548
| 43> H  -20.733   27.082   49.195
| 44> H  -19.064   26.913   48.597
| 45> C  -23.431   25.260   45.734
| 46> H  -23.019   25.014   44.747
| 47> H  -23.395   24.355   46.355
| 48> O  -22.586   26.394   46.375
| 49> C  -24.924   25.651   45.555
| 50> C  -25.547   26.094   46.884
| 51> C  -25.022   27.545   47.007
| 52> C  -25.001   28.037   45.539
| 53> O  -25.046   26.827   44.689
| 54> H  -25.452   24.833   45.060
| 55> H  -26.639   26.084   46.809
| 56> O  -25.129   25.200   48.083
| 57> H  -25.650   28.171   47.649
| 58> H  -24.009   27.545   47.428
| 59> H  -24.099   28.611   45.300
| 60> H  -25.880   28.639   45.288
| 61> H  -24.037   25.195   48.176
| 62> *
| 63>
| 64>                          ****END OF INPUT****
 Total Charge           Charge          ....    0
 Multiplicity           Mult            ....    1
 Number of Electrons    NEL             ....  102
FINAL SINGLE POINT ENERGY      -652.836475434939
FINAL SINGLE POINT ENERGY      -652.859760167703
FINAL SINGLE POINT ENERGY      -652.864130332960
FINAL SINGLE POINT ENERGY      -652.865356920921
FINAL SINGLE POINT ENERGY      -652.865479236943
FINAL SINGLE POINT ENERGY      -652.865500225396
                    ***********************HURRAY********************

CARTESIAN COORDINATES (ANGSTROEM)
---------------------------------
  C    -21.058249   26.156430   46.214755
  C    -20.427633   27.517334   45.918233
  C    -20.423073   28.177921   47.317535
  C    -20.157011   26.985020   48.262962
  O    -20.476585   25.765916   47.477777
  H    -20.825580   25.364245   45.497968
  H    -19.404559   27.369433   45.553601
  H    -20.993223   28.079447   45.172454
  H    -19.663838   28.960167   47.411960
  H    -21.401671   28.624197   47.520169
  H    -20.780589   26.999955   49.160625
  H    -19.106457   26.901776   48.556200
  C    -23.308142   25.256587   45.740853
  H    -22.915003   25.003647   44.747238
  H    -23.274008   24.358130   46.372044
  O    -22.493227   26.320051   46.323676
  C    -24.755843   25.706290   45.587348
  C    -25.462608   26.102396   46.895394
  C    -25.041829   27.596508   47.047635
  C    -24.998354   28.086189   45.584708
  O    -24.925301   26.871547   44.731137
  H    -25.284675   24.883300   45.091390
  H    -26.544151   26.004800   46.779191
  O    -25.129398   25.266670   48.029091
  H    -25.749917   28.161593   47.660929
  H    -24.051080   27.637682   47.504605
  H    -24.127334   28.713375   45.375066
  H    -25.907524   28.622160   45.293445
  H    -24.204138   25.443232   48.301009

 Multiplicity           Mult            ....    1
 Number of Electrons    NEL             ....  102
 Basis Dimension        Dim             ....  149

ORBITAL ENERGIES
----------------

  NO   OCC          E(Eh)            E(eV)
   0   2.0000     -19.152150      -521.1565
   1   2.0000     -19.144459      -520.9472
   2   2.0000     -19.137369      -520.7543
   3   2.0000     -19.133870      -520.6591
   4   2.0000     -10.285091      -279.8716
   5   2.0000     -10.235478      -278.5215
   6   2.0000     -10.233286      -278.4619
   7   2.0000     -10.230944      -278.3981
   8   2.0000     -10.230370      -278.3825
   9   2.0000     -10.222088      -278.1572
  10   2.0000     -10.191349      -277.3207
  11   2.0000     -10.189647      -277.2744
  12   2.0000     -10.178424      -276.9690
  13   2.0000      -1.059056       -28.8184
  14   2.0000      -1.026226       -27.9250
  15   2.0000      -1.008420       -27.4405
  16   2.0000      -0.998981       -27.1837
  17   2.0000      -0.792453       -21.5637
  18   2.0000      -0.772893       -21.0315
  19   2.0000      -0.765740       -20.8368
  20   2.0000      -0.733869       -19.9696
  21   2.0000      -0.678004       -18.4494
  22   2.0000      -0.603885       -16.4326
  23   2.0000      -0.601431       -16.3658
  24   2.0000      -0.596195       -16.2233
  25   2.0000      -0.576182       -15.6787
  26   2.0000      -0.527907       -14.3651
  27   2.0000      -0.508217       -13.8293
  28   2.0000      -0.498647       -13.5689
  29   2.0000      -0.488501       -13.2928
  30   2.0000      -0.472984       -12.8706
  31   2.0000      -0.463189       -12.6040
  32   2.0000      -0.438987       -11.9454
  33   2.0000      -0.433478       -11.7955
  34   2.0000      -0.421849       -11.4791
  35   2.0000      -0.416179       -11.3248
  36   2.0000      -0.403137       -10.9699
  37   2.0000      -0.397591       -10.8190
  38   2.0000      -0.381955       -10.3935
  39   2.0000      -0.369515       -10.0550
  40   2.0000      -0.361636        -9.8406
  41   2.0000      -0.353818        -9.6279
  42   2.0000      -0.348105        -9.4724
  43   2.0000      -0.330040        -8.9808
  44   2.0000      -0.321419        -8.7463
  45   2.0000      -0.311882        -8.4867
  46   2.0000      -0.304481        -8.2854
  47   2.0000      -0.274671        -7.4742
  48   2.0000      -0.261942        -7.1278
  49   2.0000      -0.254815        -6.9339
  50   2.0000      -0.239137        -6.5073
  51   0.0000       0.062655         1.7049
  52   0.0000       0.076699         2.0871
  53   0.0000       0.086718         2.3597
  54   0.0000       0.097019         2.6400
  55   0.0000       0.105507         2.8710

MULLIKEN ATOMIC CHARGES
-----------------------
   0 C :    0.288902
   1 C :   -0.255498
   2 C :   -0.304463
   3 C :   -0.002939
   4 O :   -0.506410
   5 H :    0.146251
   6 H :    0.147099
   7 H :    0.156788
   8 H :    0.145217
   9 H :    0.158027
  10 H :    0.145514
  11 H :    0.145489
  12 C :   -0.021878
  13 H :    0.143893
  14 H :    0.150201
  15 O :   -0.535216
  16 C :    0.087385
  17 C :    0.083576
  18 C :   -0.314457
  19 C :   -0.003729
  20 O :   -0.522375
  21 H :    0.150889
  22 H :    0.163362
  23 O :   -0.607296
  24 H :    0.144054
  25 H :    0.167003
  26 H :    0.142740
  27 H :    0.140275
  28 H :    0.367596
Sum of atomic charges:   -0.0000000

LOEWDIN ATOMIC CHARGES
----------------------
   0 C :    0.175587
   1 C :   -0.217552
   2 C :   -0.216985
   3 C :   -0.027775
   4 O :   -0.323353
   5 H :    0.101880
   6 H :    0.115190
   7 H :    0.123382
   8 H :    0.115630
   9 H :    0.115228
  10 H :    0.104448
  11 H :    0.104279
  12 C :   -0.047033
  13 H :    0.104091
  14 H :    0.105596
  15 O :   -0.339231
  16 C :    0.018129
  17 C :    0.037595
  18 C :   -0.243693
  19 C :   -0.025085
  20 O :   -0.324006
  21 H :    0.115559
  22 H :    0.116467
  23 O :   -0.411487
  24 H :    0.114943
  25 H :    0.120774
  26 H :    0.102566
  27 H :    0.100362
  28 H :    0.284495

  Mayer bond orders larger than 0.100000
B(  0-C ,  1-C ) :   0.9443 B(  0-C ,  4-O ) :   0.9253 B(  0-C ,  5-H ) :   0.9185
B(  0-C , 15-O ) :   0.8398 B(  1-C ,  2-C ) :   0.9566 B(  1-C ,  6-H ) :   0.9377
B(  1-C ,  7-H ) :   0.9360 B(  2-C ,  3-C ) :   0.9535 B(  2-C ,  8-H ) :   0.9448
B(  2-C ,  9-H ) :   0.9437 B(  3-C ,  4-O ) :   0.8384 B(  3-C , 10-H ) :   0.9356
B(  3-C , 11-H ) :   0.9396 B( 12-C , 13-H ) :   0.9211 B( 12-C , 14-H ) :   0.9027
B( 12-C , 15-O ) :   0.8289 B( 12-C , 16-C ) :   0.9180 B( 16-C , 17-C ) :   0.8870
B( 16-C , 20-O ) :   0.8803 B( 16-C , 21-H ) :   0.9272 B( 17-C , 18-C ) :   0.9317
B( 17-C , 22-H ) :   0.9357 B( 17-C , 23-O ) :   0.9060 B( 18-C , 19-C ) :   0.9456
B( 18-C , 24-H ) :   0.9409 B( 18-C , 25-H ) :   0.9254 B( 19-C , 20-O ) :   0.8374
B( 19-C , 26-H ) :   0.9323 B( 19-C , 27-H ) :   0.9376 B( 23-O , 28-H ) :   0.7894

FINAL SINGLE POINT ENERGY      -652.865500322620

DIPOLE MOMENT
-------------
                                X             Y             Z
Electronic contribution:     -2.40921      -4.52191      -0.94889
Nuclear contribution   :      3.21182       5.39340       0.93520
                        -----------------------------------------
Total Dipole Moment    :      0.80261       0.87149      -0.01369
                        -----------------------------------------
Magnitude (a.u.)       :      1.18485
Magnitude (Debye)      :      3.01165

Rotational constants in cm-1:     0.044242     0.016301     0.015372
Rotational constants in MHz :  1326.346431   488.698729   460.854626

                             ****ORCA TERMINATED NORMALLY****
TOTAL RUN TIME: 0 days 0 hours 52 minutes 2 seconds 753 msec
