                         Program Version 4.2.0 -  RELEASE  -
|  1> # Test redundant internal optimization
|  2> #
|  3> ! RKS B3LYP  Opt TightSCF SmallPrint
|  4>
|  5> %basis
|  6>         Basis "6-31G"
|  7> end
|  8>
|  9> %geom
| 10> Constraints
| 11> { D 4  0  15  12  90.0   C } # D for Dihedral angle
| 12> { D 0  15  12  16  210.0   C } # D for Dihedral angle
| 13> { D 0  4  3  2   C } # D for Dihedral angle
| 14> { D 4  3  2  1   C } # D for Dihedral angle
| 15> { D 3  2  1  0   C } # D for Dihedral angle
| 16> { D 2  1  0  4   C } # D for Dihedral angle
| 17> { D 1  0  4  3   C } # D for Dihedral angle
| 18> { D 16  20  19  18   C } # D for Dihedral angle
| 19> { D 20  19  18  17   C } # D for Dihedral angle
| 20> { D 19  18  17  16   C } # D for Dihedral angle
| 21> { D 18  17  16  20   C } # D for Dihedral angle
| 22> { D 17  16  20  19   C } # D for Dihedral angle
| 23> { D 15  12  16  20   C } # D for Dihedral angle
| 24> end
| 25> end
| 26>
| 27>
| 28> #%pal
| 29> #nprocs 8
| 30> #end
| 31>
| 32> * xyz 0 1
| 33> C  -21.048   26.222   46.251
| 34> C  -20.361   27.558   45.944
| 35> C  -20.329   28.222   47.341
| 36> C  -20.110   27.022   48.296
| 37> O  -20.473   25.807   47.535
| 38> H  -20.833   25.428   45.533
| 39> H  -19.344   27.382   45.576
| 40> H  -20.898   28.157   45.201
| 41> H  -19.543   28.978   47.434
| 42> H  -21.289   28.710   47.548
| 43> H  -20.733   27.082   49.195
| 44> H  -19.064   26.913   48.597
| 45> C  -23.061   27.816   46.783
| 46> H  -22.289   28.291   47.402
| 47> H  -23.218   28.438   45.893
| 48> O  -22.586   26.394   46.375
| 49> C  -24.390   27.797   47.588
| 50> C  -24.214   27.088   48.936
| 51> C  -23.536   28.191   49.784
| 52> C  -24.193   29.492   49.258
| 53> O  -24.791   29.161   47.947
| 54> H  -25.182   27.385   46.961
| 55> O  -25.601   26.717   49.527
| 56> H  -23.613   26.175   48.868
| 57> H  -23.687   28.052   50.859
| 58> H  -22.456   28.199   49.595
| 59> H  -23.470   30.304   49.128
| 60> H  -25.004   29.840   49.904
| 61> H  -26.222   27.617   49.606
| 62> *
| 63>
| 64>                          ****END OF INPUT****
 Total Charge           Charge          ....    0
 Multiplicity           Mult            ....    1
 Number of Electrons    NEL             ....  102
FINAL SINGLE POINT ENERGY      -652.792377269142
FINAL SINGLE POINT ENERGY      -652.832559336297
FINAL SINGLE POINT ENERGY      -652.852156106607
FINAL SINGLE POINT ENERGY      -652.855578154767
FINAL SINGLE POINT ENERGY      -652.856093011619
FINAL SINGLE POINT ENERGY      -652.856213235589
FINAL SINGLE POINT ENERGY      -652.856228661850
FINAL SINGLE POINT ENERGY      -652.856231168284
FINAL SINGLE POINT ENERGY      -652.856230010429
                    ***********************HURRAY********************

CARTESIAN COORDINATES (ANGSTROEM)
---------------------------------
  C    -21.224709   26.365810   46.412318
  C    -20.244824   27.407652   45.851278
  C    -19.812180   28.173364   47.137430
  C    -19.797709   27.049679   48.205748
  O    -20.601988   25.936725   47.647047
  H    -21.276734   25.464205   45.799884
  H    -19.393110   26.878671   45.412919
  H    -20.688742   28.051548   45.086962
  H    -18.826994   28.637712   47.027588
  H    -20.519108   28.967917   47.386059
  H    -20.228154   27.359171   49.163280
  H    -18.791637   26.658000   48.380578
  C    -23.116651   28.033509   46.870680
  H    -22.418327   28.599476   47.495074
  H    -23.303671   28.604583   45.954150
  O    -22.616902   26.703674   46.548712
  C    -24.426683   27.828267   47.634088
  C    -24.283716   27.090706   48.973724
  C    -23.790537   28.227755   49.905228
  C    -24.533806   29.475387   49.366461
  O    -24.993676   29.132971   47.995713
  H    -25.152488   27.324585   46.990391
  O    -25.566443   26.561173   49.408241
  H    -23.607564   26.239413   48.919046
  H    -24.033540   28.003829   50.947102
  H    -22.703492   28.342726   49.825206
  H    -23.897104   30.364372   49.314803
  H    -25.425502   29.719934   49.951843
  H    -26.262007   27.235186   49.253447

 Multiplicity           Mult            ....    1
 Number of Electrons    NEL             ....  102
 Basis Dimension        Dim             ....  149

ORBITAL ENERGIES
----------------

  NO   OCC          E(Eh)            E(eV)
   0   2.0000     -19.148256      -521.0505
   1   2.0000     -19.145175      -520.9667
   2   2.0000     -19.144605      -520.9512
   3   2.0000     -19.132014      -520.6086
   4   2.0000     -10.283181      -279.8196
   5   2.0000     -10.235455      -278.5209
   6   2.0000     -10.234011      -278.4816
   7   2.0000     -10.232717      -278.4464
   8   2.0000     -10.232035      -278.4278
   9   2.0000     -10.231687      -278.4184
  10   2.0000     -10.199539      -277.5436
  11   2.0000     -10.198400      -277.5126
  12   2.0000     -10.187761      -277.2231
  13   2.0000      -1.055010       -28.7083
  14   2.0000      -1.034899       -28.1610
  15   2.0000      -1.002911       -27.2906
  16   2.0000      -0.999854       -27.2074
  17   2.0000      -0.794541       -21.6206
  18   2.0000      -0.782367       -21.2893
  19   2.0000      -0.771310       -20.9884
  20   2.0000      -0.734675       -19.9915
  21   2.0000      -0.681665       -18.5491
  22   2.0000      -0.610458       -16.6114
  23   2.0000      -0.603421       -16.4199
  24   2.0000      -0.597746       -16.2655
  25   2.0000      -0.577582       -15.7168
  26   2.0000      -0.525042       -14.2871
  27   2.0000      -0.512768       -13.9531
  28   2.0000      -0.507606       -13.8127
  29   2.0000      -0.494224       -13.4485
  30   2.0000      -0.475003       -12.9255
  31   2.0000      -0.455992       -12.4082
  32   2.0000      -0.453368       -12.3368
  33   2.0000      -0.437975       -11.9179
  34   2.0000      -0.430311       -11.7093
  35   2.0000      -0.419330       -11.4105
  36   2.0000      -0.411164       -11.1883
  37   2.0000      -0.391406       -10.6507
  38   2.0000      -0.388415       -10.5693
  39   2.0000      -0.368537       -10.0284
  40   2.0000      -0.365430        -9.9439
  41   2.0000      -0.362617        -9.8673
  42   2.0000      -0.350616        -9.5408
  43   2.0000      -0.331832        -9.0296
  44   2.0000      -0.319086        -8.6828
  45   2.0000      -0.304988        -8.2991
  46   2.0000      -0.299207        -8.1418
  47   2.0000      -0.277900        -7.5620
  48   2.0000      -0.264953        -7.2097
  49   2.0000      -0.257908        -7.0180
  50   2.0000      -0.245937        -6.6923
  51   0.0000       0.048995         1.3332
  52   0.0000       0.065290         1.7766
  53   0.0000       0.087557         2.3825
  54   0.0000       0.096259         2.6193
  55   0.0000       0.102385         2.7860

MULLIKEN ATOMIC CHARGES
-----------------------
   0 C :    0.305825
   1 C :   -0.286636
   2 C :   -0.314664
   3 C :   -0.011173
   4 O :   -0.500288
   5 H :    0.168868
   6 H :    0.160893
   7 H :    0.151202
   8 H :    0.147309
   9 H :    0.148241
  10 H :    0.142763
  11 H :    0.150332
  12 C :   -0.010059
  13 H :    0.125148
  14 H :    0.150889
  15 O :   -0.526583
  16 C :    0.060971
  17 C :    0.085066
  18 C :   -0.306317
  19 C :   -0.034094
  20 O :   -0.528772
  21 H :    0.171007
  22 O :   -0.602203
  23 H :    0.190343
  24 H :    0.163750
  25 H :    0.145019
  26 H :    0.142484
  27 H :    0.149612
  28 H :    0.361064
Sum of atomic charges:   -0.0000000

LOEWDIN ATOMIC CHARGES
----------------------
   0 C :    0.175197
   1 C :   -0.228640
   2 C :   -0.223400
   3 C :   -0.033888
   4 O :   -0.321044
   5 H :    0.113450
   6 H :    0.125180
   7 H :    0.119261
   8 H :    0.116858
   9 H :    0.107318
  10 H :    0.100251
  11 H :    0.106294
  12 C :   -0.039797
  13 H :    0.091770
  14 H :    0.107329
  15 O :   -0.321274
  16 C :    0.018230
  17 C :    0.037290
  18 C :   -0.243833
  19 C :   -0.040004
  20 O :   -0.332178
  21 H :    0.120310
  22 O :   -0.412941
  23 H :    0.134007
  24 H :    0.127695
  25 H :    0.110543
  26 H :    0.101629
  27 H :    0.104059
  28 H :    0.280331

  Mayer bond orders larger than 0.100000
B(  0-C ,  1-C ) :   0.9223 B(  0-C ,  4-O ) :   0.8988 B(  0-C ,  5-H ) :   0.9351
B(  0-C , 15-O ) :   0.8999 B(  1-C ,  2-C ) :   0.9534 B(  1-C ,  6-H ) :   0.9349
B(  1-C ,  7-H ) :   0.9359 B(  2-C ,  3-C ) :   0.9458 B(  2-C ,  8-H ) :   0.9445
B(  2-C ,  9-H ) :   0.9376 B(  3-C ,  4-O ) :   0.8497 B(  3-C , 10-H ) :   0.9315
B(  3-C , 11-H ) :   0.9383 B( 12-C , 13-H ) :   0.9054 B( 12-C , 14-H ) :   0.9234
B( 12-C , 15-O ) :   0.8214 B( 12-C , 16-C ) :   0.9012 B( 16-C , 17-C ) :   0.9107
B( 16-C , 20-O ) :   0.8419 B( 16-C , 21-H ) :   0.9251 B( 17-C , 18-C ) :   0.9118
B( 17-C , 22-O ) :   0.8873 B( 17-C , 23-H ) :   0.9168 B( 18-C , 19-C ) :   0.9398
B( 18-C , 24-H ) :   0.9373 B( 18-C , 25-H ) :   0.9322 B( 19-C , 20-O ) :   0.8445
B( 19-C , 26-H ) :   0.9360 B( 19-C , 27-H ) :   0.9379 B( 22-O , 28-H ) :   0.7966

FINAL SINGLE POINT ENERGY      -652.856219770541

DIPOLE MOMENT
-------------
                                X             Y             Z
Electronic contribution:     -5.30724      -4.19097      -1.24397
Nuclear contribution   :      6.54131       5.57096       1.15080
                        -----------------------------------------
Total Dipole Moment    :      1.23407       1.37999      -0.09317
                        -----------------------------------------
Magnitude (a.u.)       :      1.85364
Magnitude (Debye)      :      4.71159

Rotational constants in cm-1:     0.047685     0.014849     0.014734
Rotational constants in MHz :  1429.570422   445.167390   441.726673

                             ****ORCA TERMINATED NORMALLY****
TOTAL RUN TIME: 0 days 0 hours 31 minutes 57 seconds 884 msec
