                         Program Version 4.2.0 -  RELEASE  -
|  1> # Test redundant internal optimization
|  2> #
|  3> ! RKS B3LYP  Opt TightSCF SmallPrint
|  4>
|  5> %basis
|  6>         Basis "6-31G"
|  7> end
|  8>
|  9> %geom
| 10> Constraints
| 11> { D 4  0  15  12  315.0   C } # D for Dihedral angle
| 12> { D 0  15  12  16  90.0   C } # D for Dihedral angle
| 13> { D 0  4  3  2   C } # D for Dihedral angle
| 14> { D 4  3  2  1   C } # D for Dihedral angle
| 15> { D 3  2  1  0   C } # D for Dihedral angle
| 16> { D 2  1  0  4   C } # D for Dihedral angle
| 17> { D 1  0  4  3   C } # D for Dihedral angle
| 18> { D 16  20  19  18   C } # D for Dihedral angle
| 19> { D 20  19  18  17   C } # D for Dihedral angle
| 20> { D 19  18  17  16   C } # D for Dihedral angle
| 21> { D 18  17  16  20   C } # D for Dihedral angle
| 22> { D 17  16  20  19   C } # D for Dihedral angle
| 23> { D 15  12  16  20   C } # D for Dihedral angle
| 24> end
| 25> end
| 26>
| 27>
| 28> #%pal
| 29> #nprocs 8
| 30> #end
| 31>
| 32> * xyz 0 1
| 33> C  -21.048   26.222   46.251
| 34> C  -20.361   27.558   45.944
| 35> C  -20.329   28.222   47.341
| 36> C  -20.110   27.022   48.296
| 37> O  -20.473   25.807   47.535
| 38> H  -20.833   25.428   45.533
| 39> H  -19.344   27.382   45.576
| 40> H  -20.898   28.157   45.201
| 41> H  -19.543   28.978   47.434
| 42> H  -21.289   28.710   47.548
| 43> H  -20.733   27.082   49.195
| 44> H  -19.064   26.913   48.597
| 45> C  -23.319   25.255   47.135
| 46> H  -24.334   25.146   46.733
| 47> H  -22.792   24.301   46.998
| 48> O  -22.586   26.394   46.375
| 49> C  -23.424   25.522   48.662
| 50> C  -24.293   26.750   48.954
| 51> C  -25.719   26.168   48.801
| 52> C  -25.569   24.724   49.343
| 53> O  -24.123   24.418   49.329
| 54> H  -22.419   25.567   49.087
| 55> O  -24.053   27.239   50.408
| 56> H  -24.100   27.586   48.273
| 57> H  -26.472   26.743   49.349
| 58> H  -26.009   26.157   47.744
| 59> H  -26.097   23.989   48.728
| 60> H  -25.909   24.629   50.378
| 61> H  -24.241   26.417   51.109
| 62> *
| 63>
| 64>                          ****END OF INPUT****
 Total Charge           Charge          ....    0
 Multiplicity           Mult            ....    1
 Number of Electrons    NEL             ....  102
FINAL SINGLE POINT ENERGY      -652.842837006239
FINAL SINGLE POINT ENERGY      -652.865094040958
FINAL SINGLE POINT ENERGY      -652.868608373683
FINAL SINGLE POINT ENERGY      -652.869314775423
FINAL SINGLE POINT ENERGY      -652.869411413902
FINAL SINGLE POINT ENERGY      -652.869427097442
                    ***********************HURRAY********************

CARTESIAN COORDINATES (ANGSTROEM)
---------------------------------
  C    -21.084850   26.161021   46.329974
  C    -20.503659   27.538472   46.009085
  C    -20.477690   28.199516   47.404732
  C    -20.149264   27.026441   48.353196
  O    -20.456502   25.784642   47.579108
  H    -20.827948   25.361453   45.626707
  H    -19.491558   27.413720   45.608721
  H    -21.111352   28.083129   45.283552
  H    -19.740049   29.004950   47.474847
  H    -21.462258   28.616846   47.635209
  H    -20.750947   27.035168   49.265435
  H    -19.089465   26.968798   48.615359
  C    -23.243270   25.213455   47.107675
  H    -24.215810   25.149158   46.611053
  H    -22.727279   24.252468   46.995831
  O    -22.524830   26.276730   46.407247
  C    -23.403057   25.512754   48.598739
  C    -24.221579   26.765426   48.936465
  C    -25.670572   26.237994   48.795384
  C    -25.568364   24.775684   49.298950
  O    -24.129273   24.415479   49.251513
  H    -22.415514   25.541969   49.060710
  O    -23.927310   27.227938   50.285441
  H    -24.002938   27.608476   48.282428
  H    -26.364916   26.843220   49.383425
  H    -25.985137   26.277727   47.746871
  H    -26.134116   24.071723   48.680870
  H    -25.894376   24.665374   50.338056
  H    -23.910116   26.456269   50.890416

 Multiplicity           Mult            ....    1
 Number of Electrons    NEL             ....  102
 Basis Dimension        Dim             ....  149

ORBITAL ENERGIES
----------------

  NO   OCC          E(Eh)            E(eV)
   0   2.0000     -19.146663      -521.0072
   1   2.0000     -19.146224      -520.9952
   2   2.0000     -19.141860      -520.8765
   3   2.0000     -19.136949      -520.7428
   4   2.0000     -10.279846      -279.7288
   5   2.0000     -10.235457      -278.5209
   6   2.0000     -10.229858      -278.3686
   7   2.0000     -10.227575      -278.3065
   8   2.0000     -10.226872      -278.2873
   9   2.0000     -10.225620      -278.2533
  10   2.0000     -10.186826      -277.1976
  11   2.0000     -10.186574      -277.1908
  12   2.0000     -10.186325      -277.1840
  13   2.0000      -1.055452       -28.7203
  14   2.0000      -1.033556       -28.1245
  15   2.0000      -1.003727       -27.3128
  16   2.0000      -0.994975       -27.0746
  17   2.0000      -0.791355       -21.5339
  18   2.0000      -0.777903       -21.1678
  19   2.0000      -0.764732       -20.8094
  20   2.0000      -0.730146       -19.8683
  21   2.0000      -0.673217       -18.3192
  22   2.0000      -0.602339       -16.3905
  23   2.0000      -0.600086       -16.3292
  24   2.0000      -0.596313       -16.2265
  25   2.0000      -0.575934       -15.6720
  26   2.0000      -0.522787       -14.2258
  27   2.0000      -0.512631       -13.9494
  28   2.0000      -0.492513       -13.4020
  29   2.0000      -0.488891       -13.3034
  30   2.0000      -0.472886       -12.8679
  31   2.0000      -0.459029       -12.4908
  32   2.0000      -0.449826       -12.2404
  33   2.0000      -0.435124       -11.8403
  34   2.0000      -0.416682       -11.3385
  35   2.0000      -0.411340       -11.1931
  36   2.0000      -0.403887       -10.9903
  37   2.0000      -0.392045       -10.6681
  38   2.0000      -0.373302       -10.1581
  39   2.0000      -0.365860        -9.9556
  40   2.0000      -0.358739        -9.7618
  41   2.0000      -0.357060        -9.7161
  42   2.0000      -0.349057        -9.4983
  43   2.0000      -0.331433        -9.0187
  44   2.0000      -0.329152        -8.9567
  45   2.0000      -0.306947        -8.3525
  46   2.0000      -0.302025        -8.2185
  47   2.0000      -0.275124        -7.4865
  48   2.0000      -0.266827        -7.2607
  49   2.0000      -0.260684        -7.0936
  50   2.0000      -0.239474        -6.5164
  51   0.0000       0.064927         1.7667
  52   0.0000       0.079933         2.1751
  53   0.0000       0.094241         2.5644
  54   0.0000       0.098787         2.6881
  55   0.0000       0.103263         2.8099

MULLIKEN ATOMIC CHARGES
-----------------------
   0 C :    0.291784
   1 C :   -0.263232
   2 C :   -0.302303
   3 C :   -0.020920
   4 O :   -0.512998
   5 H :    0.149368
   6 H :    0.147102
   7 H :    0.160218
   8 H :    0.144754
   9 H :    0.165044
  10 H :    0.156366
  11 H :    0.148094
  12 C :   -0.019119
  13 H :    0.143263
  14 H :    0.155792
  15 O :   -0.528592
  16 C :    0.049527
  17 C :    0.086997
  18 C :   -0.303350
  19 C :   -0.030086
  20 O :   -0.526746
  21 H :    0.184085
  22 O :   -0.606694
  23 H :    0.168670
  24 H :    0.161450
  25 H :    0.147686
  26 H :    0.147078
  27 H :    0.143973
  28 H :    0.362791
Sum of atomic charges:    0.0000000

LOEWDIN ATOMIC CHARGES
----------------------
   0 C :    0.174785
   1 C :   -0.214664
   2 C :   -0.215998
   3 C :   -0.033231
   4 O :   -0.329533
   5 H :    0.097250
   6 H :    0.115490
   7 H :    0.125995
   8 H :    0.115814
   9 H :    0.118972
  10 H :    0.107577
  11 H :    0.105911
  12 C :   -0.039344
  13 H :    0.106678
  14 H :    0.112624
  15 O :   -0.333563
  16 C :    0.003815
  17 C :    0.035159
  18 C :   -0.241756
  19 C :   -0.038928
  20 O :   -0.329864
  21 H :    0.124041
  22 O :   -0.417716
  23 H :    0.121927
  24 H :    0.126172
  25 H :    0.115162
  26 H :    0.103969
  27 H :    0.101447
  28 H :    0.281811

  Mayer bond orders larger than 0.100000
B(  0-C ,  1-C ) :   0.9476 B(  0-C ,  4-O ) :   0.9012 B(  0-C ,  5-H ) :   0.9221
B(  0-C , 15-O ) :   0.8549 B(  1-C ,  2-C ) :   0.9546 B(  1-C ,  6-H ) :   0.9388
B(  1-C ,  7-H ) :   0.9358 B(  2-C ,  3-C ) :   0.9560 B(  2-C ,  8-H ) :   0.9447
B(  2-C ,  9-H ) :   0.9421 B(  3-C ,  4-O ) :   0.8288 B(  3-C , 10-H ) :   0.9249
B(  3-C , 11-H ) :   0.9411 B( 12-C , 13-H ) :   0.9402 B( 12-C , 14-H ) :   0.9202
B( 12-C , 15-O ) :   0.8321 B( 12-C , 16-C ) :   0.8857 B( 16-C , 17-C ) :   0.9097
B( 16-C , 20-O ) :   0.8336 B( 16-C , 21-H ) :   0.9117 B( 17-C , 18-C ) :   0.9119
B( 17-C , 22-O ) :   0.8864 B( 17-C , 23-H ) :   0.9247 B( 18-C , 19-C ) :   0.9437
B( 18-C , 24-H ) :   0.9378 B( 18-C , 25-H ) :   0.9345 B( 19-C , 20-O ) :   0.8460
B( 19-C , 26-H ) :   0.9350 B( 19-C , 27-H ) :   0.9384 B( 22-O , 28-H ) :   0.7966

FINAL SINGLE POINT ENERGY      -652.869428758029

DIPOLE MOMENT
-------------
                                X             Y             Z
Electronic contribution:      0.27879      -3.04688       0.84170
Nuclear contribution   :     -0.46943       3.37737      -1.23684
                        -----------------------------------------
Total Dipole Moment    :     -0.19064       0.33049      -0.39514
                        -----------------------------------------
Magnitude (a.u.)       :      0.54927
Magnitude (Debye)      :      1.39614

Rotational constants in cm-1:     0.050337     0.016040     0.014746
Rotational constants in MHz :  1509.075328   480.857961   442.086103

                             ****ORCA TERMINATED NORMALLY****
TOTAL RUN TIME: 0 days 0 hours 32 minutes 43 seconds 97 msec
