                         Program Version 4.2.0 -  RELEASE  -
|  1> # Test redundant internal optimization
|  2> #
|  3> ! RKS B3LYP  Opt TightSCF SmallPrint
|  4>
|  5> %basis
|  6>         Basis "6-31G"
|  7> end
|  8>
|  9> %geom
| 10> Constraints
| 11> { D 4  0  15  12  165.0   C } # D for Dihedral angle
| 12> { D 0  15  12  16  285.0   C } # D for Dihedral angle
| 13> { D 0  4  3  2   C } # D for Dihedral angle
| 14> { D 4  3  2  1   C } # D for Dihedral angle
| 15> { D 3  2  1  0   C } # D for Dihedral angle
| 16> { D 2  1  0  4   C } # D for Dihedral angle
| 17> { D 1  0  4  3   C } # D for Dihedral angle
| 18> { D 16  20  19  18   C } # D for Dihedral angle
| 19> { D 20  19  18  17   C } # D for Dihedral angle
| 20> { D 19  18  17  16   C } # D for Dihedral angle
| 21> { D 18  17  16  20   C } # D for Dihedral angle
| 22> { D 17  16  20  19   C } # D for Dihedral angle
| 23> { D 15  12  16  20   C } # D for Dihedral angle
| 24> end
| 25> end
| 26>
| 27>
| 28> #%pal
| 29> #nprocs 8
| 30> #end
| 31>
| 32> * xyz 0 1
| 33> C  -21.048   26.222   46.251
| 34> C  -20.361   27.558   45.944
| 35> C  -20.329   28.222   47.341
| 36> C  -20.110   27.022   48.296
| 37> O  -20.473   25.807   47.535
| 38> H  -20.833   25.428   45.533
| 39> H  -19.344   27.382   45.576
| 40> H  -20.898   28.157   45.201
| 41> H  -19.543   28.978   47.434
| 42> H  -21.289   28.710   47.548
| 43> H  -20.733   27.082   49.195
| 44> H  -19.064   26.913   48.597
| 45> C  -23.260   27.170   45.210
| 46> H  -22.870   26.798   44.254
| 47> H  -24.346   27.014   45.222
| 48> O  -22.586   26.394   46.375
| 49> C  -23.002   28.701   45.280
| 50> C  -23.774   29.446   44.186
| 51> C  -25.198   29.502   44.790
| 52> C  -24.930   29.666   46.307
| 53> O  -23.528   29.253   46.533
| 54> H  -21.925   28.883   45.277
| 55> H  -23.368   30.456   44.059
| 56> O  -23.732   28.725   42.811
| 57> H  -25.800   30.320   44.382
| 58> H  -25.729   28.564   44.591
| 59> H  -25.591   29.043   46.919
| 60> H  -25.017   30.706   46.636
| 61> H  -24.135   27.711   42.912
| 62> *
| 63>
| 64>                          ****END OF INPUT****
 Total Charge           Charge          ....    0
 Multiplicity           Mult            ....    1
 Number of Electrons    NEL             ....  102
FINAL SINGLE POINT ENERGY      -652.801216756818
FINAL SINGLE POINT ENERGY      -652.827183718383
FINAL SINGLE POINT ENERGY      -652.843346450022
FINAL SINGLE POINT ENERGY      -652.846194059672
FINAL SINGLE POINT ENERGY      -652.846799040134
FINAL SINGLE POINT ENERGY      -652.846907883127
FINAL SINGLE POINT ENERGY      -652.846922705991
FINAL SINGLE POINT ENERGY      -652.846925791480
                    ***********************HURRAY********************

CARTESIAN COORDINATES (ANGSTROEM)
---------------------------------
  C    -20.981040   26.266657   46.201138
  C    -20.102485   27.499499   45.990073
  C    -20.186653   28.199040   47.372621
  C    -20.253745   27.005810   48.347466
  O    -20.653981   25.836031   47.527430
  H    -20.764708   25.435803   45.521485
  H    -19.080114   27.145461   45.806585
  H    -20.382411   28.129748   45.146403
  H    -19.324896   28.845921   47.563034
  H    -21.098377   28.801298   47.437433
  H    -20.992352   27.142775   49.140989
  H    -19.283524   26.759550   48.789503
  C    -23.159972   27.214893   45.204887
  H    -22.882411   26.853197   44.200253
  H    -24.197897   26.924953   45.396675
  O    -22.428184   26.484719   46.221304
  C    -23.042565   28.745490   45.203126
  C    -23.927288   29.403188   44.127783
  C    -25.322910   29.429912   44.830674
  C    -24.948489   29.682127   46.309139
  O    -23.510653   29.339106   46.452333
  H    -22.007100   29.061414   45.094948
  H    -23.576695   30.422350   43.950742
  O    -23.902028   28.779703   42.822166
  H    -25.975025   30.204231   44.418652
  H    -25.822303   28.461231   44.700232
  H    -25.528940   29.071863   47.006968
  H    -25.054163   30.734589   46.587324
  H    -24.425090   27.952442   42.823634

 Multiplicity           Mult            ....    1
 Number of Electrons    NEL             ....  102
 Basis Dimension        Dim             ....  149

ORBITAL ENERGIES
----------------

  NO   OCC          E(Eh)            E(eV)
   0   2.0000     -19.155341      -521.2433
   1   2.0000     -19.143711      -520.9269
   2   2.0000     -19.132605      -520.6246
   3   2.0000     -19.131809      -520.6030
   4   2.0000     -10.275580      -279.6127
   5   2.0000     -10.250987      -278.9435
   6   2.0000     -10.235023      -278.5091
   7   2.0000     -10.234818      -278.5036
   8   2.0000     -10.233225      -278.4602
   9   2.0000     -10.217307      -278.0270
  10   2.0000     -10.200505      -277.5698
  11   2.0000     -10.184742      -277.1409
  12   2.0000     -10.178330      -276.9664
  13   2.0000      -1.046212       -28.4689
  14   2.0000      -1.038557       -28.2606
  15   2.0000      -1.021160       -27.7872
  16   2.0000      -0.984176       -26.7808
  17   2.0000      -0.787531       -21.4298
  18   2.0000      -0.780489       -21.2382
  19   2.0000      -0.770099       -20.9554
  20   2.0000      -0.732348       -19.9282
  21   2.0000      -0.683243       -18.5920
  22   2.0000      -0.616923       -16.7873
  23   2.0000      -0.600107       -16.3298
  24   2.0000      -0.592659       -16.1271
  25   2.0000      -0.573475       -15.6051
  26   2.0000      -0.527561       -14.3557
  27   2.0000      -0.511213       -13.9108
  28   2.0000      -0.496319       -13.5055
  29   2.0000      -0.494742       -13.4626
  30   2.0000      -0.465247       -12.6600
  31   2.0000      -0.453555       -12.3419
  32   2.0000      -0.443126       -12.0581
  33   2.0000      -0.440117       -11.9762
  34   2.0000      -0.431972       -11.7545
  35   2.0000      -0.422318       -11.4919
  36   2.0000      -0.409118       -11.1327
  37   2.0000      -0.403207       -10.9718
  38   2.0000      -0.379791       -10.3346
  39   2.0000      -0.375152       -10.2084
  40   2.0000      -0.357841        -9.7374
  41   2.0000      -0.352978        -9.6050
  42   2.0000      -0.347105        -9.4452
  43   2.0000      -0.333414        -9.0726
  44   2.0000      -0.320741        -8.7278
  45   2.0000      -0.303653        -8.2628
  46   2.0000      -0.286581        -7.7983
  47   2.0000      -0.276970        -7.5367
  48   2.0000      -0.264531        -7.1983
  49   2.0000      -0.250927        -6.8281
  50   2.0000      -0.235061        -6.3963
  51   0.0000       0.048395         1.3169
  52   0.0000       0.075365         2.0508
  53   0.0000       0.079844         2.1727
  54   0.0000       0.093642         2.5481
  55   0.0000       0.098980         2.6934

MULLIKEN ATOMIC CHARGES
-----------------------
   0 C :    0.312736
   1 C :   -0.291318
   2 C :   -0.318676
   3 C :    0.000821
   4 O :   -0.497275
   5 H :    0.140756
   6 H :    0.146704
   7 H :    0.140971
   8 H :    0.137255
   9 H :    0.193626
  10 H :    0.156259
  11 H :    0.138559
  12 C :   -0.008675
  13 H :    0.116963
  14 H :    0.147720
  15 O :   -0.513625
  16 C :    0.077722
  17 C :    0.081897
  18 C :   -0.326989
  19 C :   -0.006698
  20 O :   -0.514463
  21 H :    0.157730
  22 H :    0.167404
  23 O :   -0.597816
  24 H :    0.161047
  25 H :    0.136878
  26 H :    0.153344
  27 H :    0.148706
  28 H :    0.358437
Sum of atomic charges:   -0.0000000

LOEWDIN ATOMIC CHARGES
----------------------
   0 C :    0.187304
   1 C :   -0.233996
   2 C :   -0.223855
   3 C :   -0.024216
   4 O :   -0.302233
   5 H :    0.096483
   6 H :    0.116647
   7 H :    0.110769
   8 H :    0.112405
   9 H :    0.130770
  10 H :    0.110475
  11 H :    0.100301
  12 C :   -0.047262
  13 H :    0.090330
  14 H :    0.111058
  15 O :   -0.330007
  16 C :    0.003253
  17 C :    0.035418
  18 C :   -0.241874
  19 C :   -0.028117
  20 O :   -0.320979
  21 H :    0.112117
  22 H :    0.119021
  23 O :   -0.406296
  24 H :    0.123946
  25 H :    0.105715
  26 H :    0.107478
  27 H :    0.106263
  28 H :    0.279083

  Mayer bond orders larger than 0.100000
B(  0-C ,  1-C ) :   0.9278 B(  0-C ,  4-O ) :   0.9406 B(  0-C ,  5-H ) :   0.9233
B(  0-C , 15-O ) :   0.8396 B(  1-C ,  2-C ) :   0.9501 B(  1-C ,  6-H ) :   0.9318
B(  1-C ,  7-H ) :   0.9224 B(  2-C ,  3-C ) :   0.9534 B(  2-C ,  8-H ) :   0.9453
B(  2-C ,  9-H ) :   0.9250 B(  3-C ,  4-O ) :   0.8328 B(  3-C , 10-H ) :   0.9346
B(  3-C , 11-H ) :   0.9403 B( 12-C , 13-H ) :   0.9038 B( 12-C , 14-H ) :   0.9380
B( 12-C , 15-O ) :   0.8781 B( 12-C , 16-C ) :   0.8771 B( 16-C , 17-C ) :   0.8670
B( 16-C , 20-O ) :   0.8533 B( 16-C , 21-H ) :   0.9187 B( 17-C , 18-C ) :   0.9244
B( 17-C , 22-H ) :   0.9328 B( 17-C , 23-O ) :   0.9021 B( 18-C , 19-C ) :   0.9377
B( 18-C , 24-H ) :   0.9414 B( 18-C , 25-H ) :   0.9397 B( 19-C , 20-O ) :   0.8418
B( 19-C , 26-H ) :   0.9306 B( 19-C , 27-H ) :   0.9383 B( 23-O , 28-H ) :   0.7963

FINAL SINGLE POINT ENERGY      -652.846926079605

DIPOLE MOMENT
-------------
                                X             Y             Z
Electronic contribution:     -0.23672      -3.15653      -0.16022
Nuclear contribution   :     -0.26582       3.96892      -0.43691
                        -----------------------------------------
Total Dipole Moment    :     -0.50253       0.81239      -0.59713
                        -----------------------------------------
Magnitude (a.u.)       :      1.12654
Magnitude (Debye)      :      2.86343

Rotational constants in cm-1:     0.051753     0.014671     0.013522
Rotational constants in MHz :  1551.512904   439.816763   405.383977

                             ****ORCA TERMINATED NORMALLY****
TOTAL RUN TIME: 0 days 0 hours 28 minutes 21 seconds 418 msec
