                         Program Version 4.2.0 -  RELEASE  -
|  1> # Test redundant internal optimization
|  2> #
|  3> ! RKS B3LYP  Opt TightSCF SmallPrint
|  4>
|  5> %basis
|  6>         Basis "6-31G"
|  7> end
|  8>
|  9> %geom
| 10> Constraints
| 11> { D 4  0  15  12  165.0   C } # D for Dihedral angle
| 12> { D 0  15  12  16  255.0   C } # D for Dihedral angle
| 13> { D 0  4  3  2   C } # D for Dihedral angle
| 14> { D 4  3  2  1   C } # D for Dihedral angle
| 15> { D 3  2  1  0   C } # D for Dihedral angle
| 16> { D 2  1  0  4   C } # D for Dihedral angle
| 17> { D 1  0  4  3   C } # D for Dihedral angle
| 18> { D 16  20  19  18   C } # D for Dihedral angle
| 19> { D 20  19  18  17   C } # D for Dihedral angle
| 20> { D 19  18  17  16   C } # D for Dihedral angle
| 21> { D 18  17  16  20   C } # D for Dihedral angle
| 22> { D 17  16  20  19   C } # D for Dihedral angle
| 23> { D 15  12  16  20   C } # D for Dihedral angle
| 24> end
| 25> end
| 26>
| 27>
| 28> #%pal
| 29> #nprocs 8
| 30> #end
| 31>
| 32> * xyz 0 1
| 33> C  -21.048   26.222   46.251
| 34> C  -20.361   27.558   45.944
| 35> C  -20.329   28.222   47.341
| 36> C  -20.110   27.022   48.296
| 37> O  -20.473   25.807   47.535
| 38> H  -20.833   25.428   45.533
| 39> H  -19.344   27.382   45.576
| 40> H  -20.898   28.157   45.201
| 41> H  -19.543   28.978   47.434
| 42> H  -21.289   28.710   47.548
| 43> H  -20.733   27.082   49.195
| 44> H  -19.064   26.913   48.597
| 45> C  -23.260   27.170   45.210
| 46> H  -22.565   27.225   44.363
| 47> H  -24.167   26.650   44.877
| 48> O  -22.586   26.394   46.375
| 49> C  -23.663   28.618   45.607
| 50> C  -24.426   29.313   44.475
| 51> C  -25.842   28.710   44.635
| 52> C  -25.982   28.545   46.169
| 53> O  -24.613   28.597   46.724
| 54> H  -22.776   29.154   45.950
| 55> O  -24.453   30.847   44.713
| 56> H  -23.994   29.125   43.485
| 57> H  -26.625   29.346   44.210
| 58> H  -25.895   27.735   44.135
| 59> H  -26.446   27.592   46.447
| 60> H  -26.548   29.362   46.627
| 61> H  -24.883   31.059   45.699
| 62> *
| 63>
| 64>                          ****END OF INPUT****
 Total Charge           Charge          ....    0
 Multiplicity           Mult            ....    1
 Number of Electrons    NEL             ....  102
FINAL SINGLE POINT ENERGY      -652.825667735707
FINAL SINGLE POINT ENERGY      -652.847952607720
FINAL SINGLE POINT ENERGY      -652.852017194806
FINAL SINGLE POINT ENERGY      -652.852686121959
FINAL SINGLE POINT ENERGY      -652.852779453604
FINAL SINGLE POINT ENERGY      -652.852789848215
                    ***********************HURRAY********************

CARTESIAN COORDINATES (ANGSTROEM)
---------------------------------
  C    -21.067120   26.284791   46.181713
  C    -20.305205   27.585686   45.926277
  C    -20.357208   28.273144   47.317989
  C    -20.266276   27.073798   48.284959
  O    -20.623150   25.879027   47.479925
  H    -20.831682   25.471065   45.488521
  H    -19.272127   27.336771   45.657652
  H    -20.717711   28.203291   45.123692
  H    -19.540348   28.987258   47.459026
  H    -21.305043   28.801699   47.450274
  H    -20.960380   27.146333   49.125418
  H    -19.252854   26.905340   48.660740
  C    -23.211099   27.152753   45.193106
  H    -22.592984   27.219133   44.284897
  H    -24.088565   26.541648   44.953765
  O    -22.520676   26.439361   46.254131
  C    -23.656368   28.558888   45.606061
  C    -24.439374   29.293925   44.509058
  C    -25.867161   28.712310   44.695405
  C    -25.964829   28.517276   46.229396
  O    -24.575227   28.531893   46.745448
  H    -22.792355   29.148832   45.922169
  O    -24.407828   30.731718   44.726236
  H    -24.041895   29.148625   43.503419
  H    -26.618507   29.401567   44.302139
  H    -25.960883   27.759531   44.163320
  H    -26.436916   27.570157   46.507780
  H    -26.502038   29.332860   46.723907
  H    -24.573192   30.914319   45.675577

 Multiplicity           Mult            ....    1
 Number of Electrons    NEL             ....  102
 Basis Dimension        Dim             ....  149

ORBITAL ENERGIES
----------------

  NO   OCC          E(Eh)            E(eV)
   0   2.0000     -19.143881      -520.9315
   1   2.0000     -19.143588      -520.9235
   2   2.0000     -19.138137      -520.7752
   3   2.0000     -19.136108      -520.7200
   4   2.0000     -10.278991      -279.7056
   5   2.0000     -10.247509      -278.8489
   6   2.0000     -10.237214      -278.5688
   7   2.0000     -10.235707      -278.5278
   8   2.0000     -10.232771      -278.4478
   9   2.0000     -10.222929      -278.1800
  10   2.0000     -10.193336      -277.3748
  11   2.0000     -10.190811      -277.3061
  12   2.0000     -10.187609      -277.2189
  13   2.0000      -1.050987       -28.5988
  14   2.0000      -1.039808       -28.2946
  15   2.0000      -1.010103       -27.4863
  16   2.0000      -0.990267       -26.9465
  17   2.0000      -0.788379       -21.4529
  18   2.0000      -0.786591       -21.4042
  19   2.0000      -0.770054       -20.9542
  20   2.0000      -0.733926       -19.9712
  21   2.0000      -0.678750       -18.4697
  22   2.0000      -0.608484       -16.5577
  23   2.0000      -0.604517       -16.4497
  24   2.0000      -0.596045       -16.2192
  25   2.0000      -0.579673       -15.7737
  26   2.0000      -0.524372       -14.2689
  27   2.0000      -0.513017       -13.9599
  28   2.0000      -0.501616       -13.6497
  29   2.0000      -0.495141       -13.4735
  30   2.0000      -0.472971       -12.8702
  31   2.0000      -0.458620       -12.4797
  32   2.0000      -0.455329       -12.3901
  33   2.0000      -0.442899       -12.0519
  34   2.0000      -0.430654       -11.7187
  35   2.0000      -0.408930       -11.1276
  36   2.0000      -0.406600       -11.0641
  37   2.0000      -0.397349       -10.8124
  38   2.0000      -0.379211       -10.3189
  39   2.0000      -0.375413       -10.2155
  40   2.0000      -0.363622        -9.8947
  41   2.0000      -0.356072        -9.6892
  42   2.0000      -0.353954        -9.6316
  43   2.0000      -0.335799        -9.1376
  44   2.0000      -0.314036        -8.5454
  45   2.0000      -0.308499        -8.3947
  46   2.0000      -0.295888        -8.0515
  47   2.0000      -0.275126        -7.4866
  48   2.0000      -0.266358        -7.2480
  49   2.0000      -0.254993        -6.9387
  50   2.0000      -0.237086        -6.4514
  51   0.0000       0.061682         1.6784
  52   0.0000       0.079670         2.1679
  53   0.0000       0.086889         2.3644
  54   0.0000       0.087504         2.3811
  55   0.0000       0.095744         2.6053

MULLIKEN ATOMIC CHARGES
-----------------------
   0 C :    0.310921
   1 C :   -0.294817
   2 C :   -0.308038
   3 C :   -0.000052
   4 O :   -0.497902
   5 H :    0.143885
   6 H :    0.152049
   7 H :    0.139271
   8 H :    0.143749
   9 H :    0.170993
  10 H :    0.160440
  11 H :    0.141145
  12 C :   -0.023022
  13 H :    0.122608
  14 H :    0.151801
  15 O :   -0.497754
  16 C :    0.064970
  17 C :    0.073507
  18 C :   -0.293416
  19 C :   -0.030272
  20 O :   -0.510314
  21 H :    0.159219
  22 O :   -0.601067
  23 H :    0.149066
  24 H :    0.162810
  25 H :    0.145428
  26 H :    0.153324
  27 H :    0.146181
  28 H :    0.365287
Sum of atomic charges:   -0.0000000

LOEWDIN ATOMIC CHARGES
----------------------
   0 C :    0.184165
   1 C :   -0.236272
   2 C :   -0.219033
   3 C :   -0.024254
   4 O :   -0.300555
   5 H :    0.097474
   6 H :    0.119156
   7 H :    0.110381
   8 H :    0.115181
   9 H :    0.118128
  10 H :    0.112663
  11 H :    0.102111
  12 C :   -0.045687
  13 H :    0.094180
  14 H :    0.110603
  15 O :   -0.325476
  16 C :    0.006714
  17 C :    0.034285
  18 C :   -0.240459
  19 C :   -0.037913
  20 O :   -0.321061
  21 H :    0.111529
  22 O :   -0.414345
  23 H :    0.113768
  24 H :    0.126840
  25 H :    0.113593
  26 H :    0.108040
  27 H :    0.102565
  28 H :    0.283679

  Mayer bond orders larger than 0.100000
B(  0-C ,  1-C ) :   0.9271 B(  0-C ,  4-O ) :   0.9413 B(  0-C ,  5-H ) :   0.9229
B(  0-C , 15-O ) :   0.8406 B(  1-C ,  2-C ) :   0.9506 B(  1-C ,  6-H ) :   0.9326
B(  1-C ,  7-H ) :   0.9292 B(  2-C ,  3-C ) :   0.9534 B(  2-C ,  8-H ) :   0.9447
B(  2-C ,  9-H ) :   0.9330 B(  3-C ,  4-O ) :   0.8338 B(  3-C , 10-H ) :   0.9334
B(  3-C , 11-H ) :   0.9400 B( 12-C , 13-H ) :   0.9121 B( 12-C , 14-H ) :   0.9320
B( 12-C , 15-O ) :   0.8648 B( 12-C , 16-C ) :   0.8765 B( 16-C , 17-C ) :   0.8928
B( 16-C , 20-O ) :   0.8687 B( 16-C , 21-H ) :   0.9159 B( 17-C , 18-C ) :   0.9115
B( 17-C , 22-O ) :   0.8949 B( 17-C , 23-H ) :   0.9338 B( 18-C , 19-C ) :   0.9380
B( 18-C , 24-H ) :   0.9375 B( 18-C , 25-H ) :   0.9337 B( 19-C , 20-O ) :   0.8482
B( 19-C , 26-H ) :   0.9337 B( 19-C , 27-H ) :   0.9375 B( 22-O , 28-H ) :   0.7935

FINAL SINGLE POINT ENERGY      -652.852792207221

DIPOLE MOMENT
-------------
                                X             Y             Z
Electronic contribution:     -0.55138      -2.11472       1.56384
Nuclear contribution   :      0.52123       2.67497      -2.32828
                        -----------------------------------------
Total Dipole Moment    :     -0.03015       0.56025      -0.76444
                        -----------------------------------------
Magnitude (a.u.)       :      0.94824
Magnitude (Debye)      :      2.41022

Rotational constants in cm-1:     0.054645     0.013677     0.013064
Rotational constants in MHz :  1638.201509   410.029712   391.639471

                             ****ORCA TERMINATED NORMALLY****
TOTAL RUN TIME: 0 days 0 hours 57 minutes 27 seconds 79 msec
