                         Program Version 4.2.0 -  RELEASE  -
|  1> # Test redundant internal optimization
|  2> #
|  3> ! RKS B3LYP  Opt TightSCF SmallPrint
|  4>
|  5> %basis
|  6>         Basis "6-31G"
|  7> end
|  8>
|  9> %geom
| 10> Constraints
| 11> { D 4  0  15  12  180.0   C } # D for Dihedral angle
| 12> { D 0  15  12  16  60.0   C } # D for Dihedral angle
| 13> { D 0  4  3  2   C } # D for Dihedral angle
| 14> { D 4  3  2  1   C } # D for Dihedral angle
| 15> { D 3  2  1  0   C } # D for Dihedral angle
| 16> { D 2  1  0  4   C } # D for Dihedral angle
| 17> { D 1  0  4  3   C } # D for Dihedral angle
| 18> { D 16  20  19  18   C } # D for Dihedral angle
| 19> { D 20  19  18  17   C } # D for Dihedral angle
| 20> { D 19  18  17  16   C } # D for Dihedral angle
| 21> { D 18  17  16  20   C } # D for Dihedral angle
| 22> { D 17  16  20  19   C } # D for Dihedral angle
| 23> { D 15  12  16  20   C } # D for Dihedral angle
| 24> end
| 25> end
| 26>
| 27>
| 28> #%pal
| 29> #nprocs 8
| 30> #end
| 31>
| 32> * xyz 0 1
| 33> C  -21.048   26.222   46.251
| 34> C  -20.361   27.558   45.944
| 35> C  -20.329   28.222   47.341
| 36> C  -20.110   27.022   48.296
| 37> O  -20.473   25.807   47.535
| 38> H  -20.833   25.428   45.533
| 39> H  -19.344   27.382   45.576
| 40> H  -20.898   28.157   45.201
| 41> H  -19.543   28.978   47.434
| 42> H  -21.289   28.710   47.548
| 43> H  -20.733   27.082   49.195
| 44> H  -19.064   26.913   48.597
| 45> C  -23.309   26.834   45.072
| 46> H  -24.383   26.934   45.270
| 47> H  -22.930   27.807   44.733
| 48> O  -22.586   26.394   46.375
| 49> C  -23.119   25.821   43.909
| 50> C  -23.745   26.341   42.611
| 51> C  -22.670   27.340   42.121
| 52> C  -21.343   26.669   42.556
| 53> O  -21.695   25.670   43.588
| 54> H  -23.481   24.841   44.225
| 55> H  -23.865   25.520   41.894
| 56> O  -25.132   27.007   42.826
| 57> H  -22.714   27.516   41.042
| 58> H  -22.797   28.306   42.624
| 59> H  -20.630   27.385   42.979
| 60> H  -20.860   26.129   41.736
| 61> H  -25.038   27.833   43.539
| 62> *
| 63>
| 64>                          ****END OF INPUT****
 Total Charge           Charge          ....    0
 Multiplicity           Mult            ....    1
 Number of Electrons    NEL             ....  102
FINAL SINGLE POINT ENERGY      -652.825686734423
FINAL SINGLE POINT ENERGY      -652.849191510646
FINAL SINGLE POINT ENERGY      -652.854229004850
FINAL SINGLE POINT ENERGY      -652.855402514988
FINAL SINGLE POINT ENERGY      -652.855554940838
FINAL SINGLE POINT ENERGY      -652.855588714670
FINAL SINGLE POINT ENERGY      -652.855592348423
                    ***********************HURRAY********************

CARTESIAN COORDINATES (ANGSTROEM)
---------------------------------
  C    -20.954660   26.234169   46.239189
  C    -20.221818   27.557583   46.026752
  C    -20.349671   28.224823   47.419222
  C    -20.263195   27.020786   48.381084
  O    -20.552221   25.823372   47.552610
  H    -20.706551   25.438734   45.540922
  H    -19.173027   27.347909   45.786086
  H    -20.637714   28.168015   45.220339
  H    -19.565369   28.965034   47.605008
  H    -21.321405   28.719792   47.507033
  H    -20.989915   27.067248   49.196258
  H    -19.260514   26.880117   48.796287
  C    -23.145908   26.839147   45.128235
  H    -24.188412   26.876590   45.457509
  H    -22.840148   27.858088   44.834916
  O    -22.410965   26.419343   46.303743
  C    -23.043573   25.892452   43.928018
  C    -23.807540   26.369696   42.680038
  C    -22.776353   27.338297   42.023766
  C    -21.423378   26.661684   42.340204
  O    -21.671461   25.707665   43.454536
  H    -23.374236   24.900490   44.251147
  H    -23.999064   25.517487   42.024695
  O    -25.114149   26.937906   42.929197
  H    -22.949142   27.461344   40.951440
  H    -22.850494   28.326818   42.494586
  H    -20.650173   27.373685   42.645673
  H    -21.046718   26.073990   41.498202
  H    -25.034226   27.825737   43.334305

 Multiplicity           Mult            ....    1
 Number of Electrons    NEL             ....  102
 Basis Dimension        Dim             ....  149

ORBITAL ENERGIES
----------------

  NO   OCC          E(Eh)            E(eV)
   0   2.0000     -19.155903      -521.2586
   1   2.0000     -19.150640      -521.1154
   2   2.0000     -19.132987      -520.6350
   3   2.0000     -19.130942      -520.5794
   4   2.0000     -10.264935      -279.3231
   5   2.0000     -10.252363      -278.9810
   6   2.0000     -10.240717      -278.6641
   7   2.0000     -10.235944      -278.5342
   8   2.0000     -10.232975      -278.4534
   9   2.0000     -10.218116      -278.0491
  10   2.0000     -10.203323      -277.6465
  11   2.0000     -10.182163      -277.0707
  12   2.0000     -10.181743      -277.0593
  13   2.0000      -1.046498       -28.4767
  14   2.0000      -1.038816       -28.2676
  15   2.0000      -1.024488       -27.8777
  16   2.0000      -0.984445       -26.7881
  17   2.0000      -0.790743       -21.5172
  18   2.0000      -0.780456       -21.2373
  19   2.0000      -0.769993       -20.9526
  20   2.0000      -0.728997       -19.8370
  21   2.0000      -0.684033       -18.6135
  22   2.0000      -0.620146       -16.8750
  23   2.0000      -0.600851       -16.3500
  24   2.0000      -0.591836       -16.1047
  25   2.0000      -0.565271       -15.3818
  26   2.0000      -0.535911       -14.5829
  27   2.0000      -0.512636       -13.9495
  28   2.0000      -0.498388       -13.5618
  29   2.0000      -0.484477       -13.1833
  30   2.0000      -0.472011       -12.8441
  31   2.0000      -0.457832       -12.4582
  32   2.0000      -0.446763       -12.1570
  33   2.0000      -0.439436       -11.9577
  34   2.0000      -0.429873       -11.6974
  35   2.0000      -0.424249       -11.5444
  36   2.0000      -0.403065       -10.9679
  37   2.0000      -0.400244       -10.8912
  38   2.0000      -0.387970       -10.5572
  39   2.0000      -0.370821       -10.0905
  40   2.0000      -0.360113        -9.7992
  41   2.0000      -0.351171        -9.5558
  42   2.0000      -0.349054        -9.4982
  43   2.0000      -0.336102        -9.1458
  44   2.0000      -0.324546        -8.8313
  45   2.0000      -0.305245        -8.3061
  46   2.0000      -0.297233        -8.0881
  47   2.0000      -0.278810        -7.5868
  48   2.0000      -0.265457        -7.2234
  49   2.0000      -0.249424        -6.7872
  50   2.0000      -0.235484        -6.4078
  51   0.0000       0.044721         1.2169
  52   0.0000       0.058774         1.5993
  53   0.0000       0.084829         2.3083
  54   0.0000       0.095307         2.5934
  55   0.0000       0.100675         2.7395

MULLIKEN ATOMIC CHARGES
-----------------------
   0 C :    0.299293
   1 C :   -0.281134
   2 C :   -0.298222
   3 C :    0.001422
   4 O :   -0.502866
   5 H :    0.183660
   6 H :    0.147488
   7 H :    0.131952
   8 H :    0.137956
   9 H :    0.153493
  10 H :    0.151311
  11 H :    0.138733
  12 C :   -0.019393
  13 H :    0.162704
  14 H :    0.102051
  15 O :   -0.516553
  16 C :    0.084659
  17 C :    0.083144
  18 C :   -0.320459
  19 C :   -0.017043
  20 O :   -0.520947
  21 H :    0.167120
  22 H :    0.173239
  23 O :   -0.597014
  24 H :    0.162563
  25 H :    0.132323
  26 H :    0.145855
  27 H :    0.156300
  28 H :    0.358364
Sum of atomic charges:    0.0000000

LOEWDIN ATOMIC CHARGES
----------------------
   0 C :    0.178717
   1 C :   -0.230034
   2 C :   -0.218318
   3 C :   -0.025701
   4 O :   -0.303135
   5 H :    0.117263
   6 H :    0.116127
   7 H :    0.106824
   8 H :    0.111899
   9 H :    0.114265
  10 H :    0.107731
  11 H :    0.100782
  12 C :   -0.051140
  13 H :    0.121385
  14 H :    0.076522
  15 O :   -0.330953
  16 C :    0.007223
  17 C :    0.036875
  18 C :   -0.240771
  19 C :   -0.031687
  20 O :   -0.322186
  21 H :    0.120503
  22 H :    0.121762
  23 O :   -0.404131
  24 H :    0.124984
  25 H :    0.104097
  26 H :    0.102268
  27 H :    0.109286
  28 H :    0.279543

  Mayer bond orders larger than 0.100000
B(  0-C ,  1-C ) :   0.9320 B(  0-C ,  4-O ) :   0.9213 B(  0-C ,  5-H ) :   0.9064
B(  0-C , 15-O ) :   0.8132 B(  1-C ,  2-C ) :   0.9488 B(  1-C ,  6-H ) :   0.9358
B(  1-C ,  7-H ) :   0.9335 B(  2-C ,  3-C ) :   0.9560 B(  2-C ,  8-H ) :   0.9456
B(  2-C ,  9-H ) :   0.9460 B(  3-C ,  4-O ) :   0.8412 B(  3-C , 10-H ) :   0.9348
B(  3-C , 11-H ) :   0.9401 B( 12-C , 13-H ) :   0.9207 B( 12-C , 14-H ) :   0.9133
B( 12-C , 15-O ) :   0.8807 B( 12-C , 16-C ) :   0.8915 B( 16-C , 17-C ) :   0.8713
B( 16-C , 20-O ) :   0.8440 B( 16-C , 21-H ) :   0.9274 B( 17-C , 18-C ) :   0.9221
B( 17-C , 22-H ) :   0.9313 B( 17-C , 23-O ) :   0.9048 B( 18-C , 19-C ) :   0.9403
B( 18-C , 24-H ) :   0.9408 B( 18-C , 25-H ) :   0.9406 B( 19-C , 20-O ) :   0.8386
B( 19-C , 26-H ) :   0.9288 B( 19-C , 27-H ) :   0.9373 B( 23-O , 28-H ) :   0.7968

FINAL SINGLE POINT ENERGY      -652.855592708575

DIPOLE MOMENT
-------------
                                X             Y             Z
Electronic contribution:     -2.79745      -5.51170       0.94017
Nuclear contribution   :      3.20404       7.17011      -1.95104
                        -----------------------------------------
Total Dipole Moment    :      0.40659       1.65841      -1.01087
                        -----------------------------------------
Magnitude (a.u.)       :      1.98431
Magnitude (Debye)      :      5.04372

Rotational constants in cm-1:     0.056920     0.013912     0.013031
Rotational constants in MHz :  1706.427371   417.069932   390.672434

                             ****ORCA TERMINATED NORMALLY****
TOTAL RUN TIME: 0 days 1 hours 0 minutes 50 seconds 528 msec
