                         Program Version 4.2.0 -  RELEASE  -
|  1> # Test redundant internal optimization
|  2> #
|  3> ! RKS B3LYP  Opt TightSCF SmallPrint
|  4>
|  5> %basis
|  6>         Basis "6-31G"
|  7> end
|  8>
|  9> %geom
| 10> Constraints
| 11> { D 4  0  15  12  180.0   C } # D for Dihedral angle
| 12> { D 0  15  12  16  90.0   C } # D for Dihedral angle
| 13> { D 0  4  3  2   C } # D for Dihedral angle
| 14> { D 4  3  2  1   C } # D for Dihedral angle
| 15> { D 3  2  1  0   C } # D for Dihedral angle
| 16> { D 2  1  0  4   C } # D for Dihedral angle
| 17> { D 1  0  4  3   C } # D for Dihedral angle
| 18> { D 16  20  19  18   C } # D for Dihedral angle
| 19> { D 20  19  18  17   C } # D for Dihedral angle
| 20> { D 19  18  17  16   C } # D for Dihedral angle
| 21> { D 18  17  16  20   C } # D for Dihedral angle
| 22> { D 17  16  20  19   C } # D for Dihedral angle
| 23> { D 15  12  16  20   C } # D for Dihedral angle
| 24> end
| 25> end
| 26>
| 27>
| 28> #%pal
| 29> #nprocs 8
| 30> #end
| 31>
| 32> * xyz 0 1
| 33> C  -21.048   26.222   46.251
| 34> C  -20.361   27.558   45.944
| 35> C  -20.329   28.222   47.341
| 36> C  -20.110   27.022   48.296
| 37> O  -20.473   25.807   47.535
| 38> H  -20.833   25.428   45.533
| 39> H  -19.344   27.382   45.576
| 40> H  -20.898   28.157   45.201
| 41> H  -19.543   28.978   47.434
| 42> H  -21.289   28.710   47.548
| 43> H  -20.733   27.082   49.195
| 44> H  -19.064   26.913   48.597
| 45> C  -23.309   26.834   45.072
| 46> H  -24.192   27.431   45.332
| 47> H  -22.645   27.453   44.455
| 48> O  -22.586   26.394   46.375
| 49> C  -23.771   25.629   44.206
| 50> C  -24.374   26.098   42.878
| 51> C  -23.105   26.406   42.048
| 52> C  -22.103   25.325   42.524
| 53> O  -22.620   24.811   43.811
| 54> H  -24.428   24.992   44.801
| 55> H  -24.950   25.287   42.418
| 56> O  -25.306   27.331   43.032
| 57> H  -23.283   26.363   40.968
| 58> H  -22.733   27.409   42.287
| 59> H  -21.095   25.726   42.677
| 60> H  -22.046   24.476   41.837
| 61> H  -24.752   28.158   43.490
| 62> *
| 63>
| 64>                          ****END OF INPUT****
 Total Charge           Charge          ....    0
 Multiplicity           Mult            ....    1
 Number of Electrons    NEL             ....  102
FINAL SINGLE POINT ENERGY      -652.826616294588
FINAL SINGLE POINT ENERGY      -652.849860507951
FINAL SINGLE POINT ENERGY      -652.854553263509
FINAL SINGLE POINT ENERGY      -652.855281884372
FINAL SINGLE POINT ENERGY      -652.855399001895
FINAL SINGLE POINT ENERGY      -652.855426633700
FINAL SINGLE POINT ENERGY      -652.855431520612
                    ***********************HURRAY********************

CARTESIAN COORDINATES (ANGSTROEM)
---------------------------------
  C    -21.002440   26.257478   46.187872
  C    -20.261823   27.578574   45.986066
  C    -20.345473   28.215768   47.397075
  C    -20.245689   26.988877   48.327268
  O    -20.569281   25.813984   47.479143
  H    -20.787247   25.466357   45.469186
  H    -19.221214   27.361948   45.716627
  H    -20.684646   28.217352   45.205712
  H    -19.548555   28.943642   47.576810
  H    -21.309547   28.717897   47.521146
  H    -20.950435   27.022035   49.161779
  H    -19.234019   26.828184   48.711845
  C    -23.168557   26.898831   45.104943
  H    -24.041205   27.445201   45.477933
  H    -22.553817   27.591602   44.510687
  O    -22.454521   26.446424   46.283502
  C    -23.644189   25.717709   44.256684
  C    -24.383978   26.103675   42.963757
  C    -23.199532   26.373237   41.987744
  C    -22.147638   25.331165   42.427476
  O    -22.529120   24.887482   43.795248
  H    -24.245021   25.067305   44.898139
  H    -24.979370   25.256072   42.618069
  O    -25.334046   27.188115   43.091557
  H    -23.493786   26.266263   40.940362
  H    -22.832842   27.398179   42.133088
  H    -21.130603   25.735404   42.452357
  H    -22.154589   24.440663   41.791935
  H    -24.869819   28.044577   43.187990

 Multiplicity           Mult            ....    1
 Number of Electrons    NEL             ....  102
 Basis Dimension        Dim             ....  149

ORBITAL ENERGIES
----------------

  NO   OCC          E(Eh)            E(eV)
   0   2.0000     -19.153791      -521.2011
   1   2.0000     -19.145597      -520.9782
   2   2.0000     -19.134160      -520.6670
   3   2.0000     -19.134018      -520.6631
   4   2.0000     -10.269413      -279.4449
   5   2.0000     -10.248997      -278.8894
   6   2.0000     -10.237107      -278.5658
   7   2.0000     -10.232318      -278.4355
   8   2.0000     -10.231255      -278.4066
   9   2.0000     -10.220309      -278.1087
  10   2.0000     -10.200834      -277.5788
  11   2.0000     -10.185941      -277.1736
  12   2.0000     -10.184694      -277.1396
  13   2.0000      -1.047570       -28.5058
  14   2.0000      -1.037154       -28.2224
  15   2.0000      -1.020647       -27.7732
  16   2.0000      -0.986709       -26.8497
  17   2.0000      -0.787765       -21.4362
  18   2.0000      -0.783314       -21.3151
  19   2.0000      -0.768464       -20.9110
  20   2.0000      -0.729531       -19.8515
  21   2.0000      -0.683767       -18.6062
  22   2.0000      -0.616791       -16.7837
  23   2.0000      -0.600417       -16.3382
  24   2.0000      -0.591500       -16.0955
  25   2.0000      -0.570153       -15.5147
  26   2.0000      -0.532857       -14.4998
  27   2.0000      -0.508803       -13.8452
  28   2.0000      -0.501628       -13.6500
  29   2.0000      -0.489884       -13.3304
  30   2.0000      -0.470513       -12.8033
  31   2.0000      -0.457870       -12.4593
  32   2.0000      -0.446223       -12.1423
  33   2.0000      -0.439709       -11.9651
  34   2.0000      -0.430655       -11.7187
  35   2.0000      -0.419614       -11.4183
  36   2.0000      -0.405074       -11.0226
  37   2.0000      -0.398104       -10.8330
  38   2.0000      -0.384821       -10.4715
  39   2.0000      -0.372896       -10.1470
  40   2.0000      -0.361220        -9.8293
  41   2.0000      -0.351966        -9.5775
  42   2.0000      -0.350122        -9.5273
  43   2.0000      -0.334721        -9.1082
  44   2.0000      -0.320331        -8.7167
  45   2.0000      -0.307416        -8.3652
  46   2.0000      -0.296957        -8.0806
  47   2.0000      -0.274934        -7.4813
  48   2.0000      -0.268879        -7.3166
  49   2.0000      -0.252171        -6.8619
  50   2.0000      -0.233038        -6.3413
  51   0.0000       0.044900         1.2218
  52   0.0000       0.064562         1.7568
  53   0.0000       0.085088         2.3153
  54   0.0000       0.097493         2.6529
  55   0.0000       0.098967         2.6930

MULLIKEN ATOMIC CHARGES
-----------------------
   0 C :    0.296807
   1 C :   -0.285052
   2 C :   -0.296818
   3 C :    0.001119
   4 O :   -0.500019
   5 H :    0.175838
   6 H :    0.147565
   7 H :    0.134842
   8 H :    0.139658
   9 H :    0.155659
  10 H :    0.153427
  11 H :    0.139559
  12 C :   -0.038937
  13 H :    0.156013
  14 H :    0.105703
  15 O :   -0.505605
  16 C :    0.094614
  17 C :    0.084115
  18 C :   -0.317356
  19 C :   -0.019152
  20 O :   -0.510549
  21 H :    0.172472
  22 H :    0.170610
  23 O :   -0.598835
  24 H :    0.160227
  25 H :    0.130722
  26 H :    0.141176
  27 H :    0.156519
  28 H :    0.355676
Sum of atomic charges:   -0.0000000

LOEWDIN ATOMIC CHARGES
----------------------
   0 C :    0.179557
   1 C :   -0.233997
   2 C :   -0.217371
   3 C :   -0.025589
   4 O :   -0.300154
   5 H :    0.113573
   6 H :    0.115514
   7 H :    0.108042
   8 H :    0.112813
   9 H :    0.115458
  10 H :    0.109039
  11 H :    0.101322
  12 C :   -0.054485
  13 H :    0.116212
  14 H :    0.081159
  15 O :   -0.326972
  16 C :    0.010608
  17 C :    0.035113
  18 C :   -0.240360
  19 C :   -0.033232
  20 O :   -0.318952
  21 H :    0.123364
  22 H :    0.121069
  23 O :   -0.405996
  24 H :    0.123976
  25 H :    0.102532
  26 H :    0.100731
  27 H :    0.109250
  28 H :    0.277777

  Mayer bond orders larger than 0.100000
B(  0-C ,  1-C ) :   0.9288 B(  0-C ,  4-O ) :   0.9309 B(  0-C ,  5-H ) :   0.9070
B(  0-C , 15-O ) :   0.8191 B(  1-C ,  2-C ) :   0.9491 B(  1-C ,  6-H ) :   0.9345
B(  1-C ,  7-H ) :   0.9313 B(  2-C ,  3-C ) :   0.9570 B(  2-C ,  8-H ) :   0.9453
B(  2-C ,  9-H ) :   0.9455 B(  3-C ,  4-O ) :   0.8390 B(  3-C , 10-H ) :   0.9344
B(  3-C , 11-H ) :   0.9399 B( 12-C , 13-H ) :   0.9219 B( 12-C , 14-H ) :   0.9134
B( 12-C , 15-O ) :   0.8790 B( 12-C , 16-C ) :   0.8881 B( 16-C , 17-C ) :   0.8678
B( 16-C , 20-O ) :   0.8569 B( 16-C , 21-H ) :   0.9285 B( 17-C , 18-C ) :   0.9205
B( 17-C , 22-H ) :   0.9318 B( 17-C , 23-O ) :   0.8996 B( 18-C , 19-C ) :   0.9389
B( 18-C , 24-H ) :   0.9416 B( 18-C , 25-H ) :   0.9412 B( 19-C , 20-O ) :   0.8464
B( 19-C , 26-H ) :   0.9318 B( 19-C , 27-H ) :   0.9369 B( 23-O , 28-H ) :   0.7984

FINAL SINGLE POINT ENERGY      -652.855432528907

DIPOLE MOMENT
-------------
                                X             Y             Z
Electronic contribution:     -3.32848      -4.68386       1.57728
Nuclear contribution   :      4.00790       6.15422      -2.72705
                        -----------------------------------------
Total Dipole Moment    :      0.67942       1.47036      -1.14977
                        -----------------------------------------
Magnitude (a.u.)       :      1.98634
Magnitude (Debye)      :      5.04887

Rotational constants in cm-1:     0.056889     0.013233     0.012497
Rotational constants in MHz :  1705.489036   396.717020   374.658273

                             ****ORCA TERMINATED NORMALLY****
TOTAL RUN TIME: 0 days 0 hours 24 minutes 6 seconds 583 msec
