                         Program Version 4.2.1 -  RELEASE  -
|  1> # Test redundant internal optimization
|  2> #
|  3> ! RKS B3LYP  Opt TightSCF SmallPrint
|  4>
|  5> %basis
|  6>         Basis "6-31G"
|  7> end
|  8>
|  9> %geom
| 10> Constraints
| 11> { D 4  0  19  14  240.0   C } # D for Dihedral angle
| 12> { D 0  19  14  12  0.0   C } # D for Dihedral angle
| 13> { D 0  4  3  2   C } # D for Dihedral angle
| 14> { D 4  3  2  1   C } # D for Dihedral angle
| 15> { D 3  2  1  0   C } # D for Dihedral angle
| 16> { D 2  1  0  4   C } # D for Dihedral angle
| 17> { D 1  0  4  3   C } # D for Dihedral angle
| 18> { D 14  15  16  17   C } # D for Dihedral angle
| 19> { D 15  16  17  12   C } # D for Dihedral angle
| 20> { D 16  17  12  14   C } # D for Dihedral angle
| 21> { D 17  12  14  15   C } # D for Dihedral angle
| 22> { D 12  14  15  16   C } # D for Dihedral angle
| 23> end
| 24> end
| 25>
| 26>
| 27> #%pal
| 28> #nprocs 8
| 29> #end
| 30>
| 31> * xyz 0 1
| 32> C  -21.048   26.222   46.251
| 33> C  -20.361   27.558   45.944
| 34> C  -20.329   28.222   47.341
| 35> C  -20.110   27.022   48.296
| 36> O  -20.473   25.807   47.535
| 37> H  -20.833   25.428   45.533
| 38> H  -19.344   27.382   45.576
| 39> H  -20.898   28.157   45.201
| 40> H  -19.543   28.978   47.434
| 41> H  -21.289   28.710   47.548
| 42> H  -20.733   27.082   49.195
| 43> H  -19.064   26.913   48.597
| 44> C  -22.295   24.658   44.656
| 45> H  -22.819   24.218   43.794
| 46> C  -23.235   25.530   45.496
| 47> C  -24.007   24.466   46.311
| 48> C  -22.938   23.374   46.565
| 49> O  -21.858   23.605   45.580
| 50> H  -21.396   25.168   44.306
| 51> O  -22.472   26.381   46.366
| 52> H  -23.894   26.160   44.888
| 53> H  -24.426   24.864   47.240
| 54> H  -24.836   24.063   45.716
| 55> H  -23.332   22.360   46.433
| 56> H  -22.489   23.452   47.560
| 57> *
| 58>
| 59>                          ****END OF INPUT****
 Total Charge           Charge          ....    0
 Multiplicity           Mult            ....    1
 Number of Electrons    NEL             ....   86
FINAL SINGLE POINT ENERGY      -538.403183109170
FINAL SINGLE POINT ENERGY      -538.427409638627
FINAL SINGLE POINT ENERGY      -538.429014545656
FINAL SINGLE POINT ENERGY      -538.429271676355
FINAL SINGLE POINT ENERGY      -538.429327270489
FINAL SINGLE POINT ENERGY      -538.429337118259
                    ***********************HURRAY********************

CARTESIAN COORDINATES (ANGSTROEM)
---------------------------------
  C    -20.830068   26.219671   46.236792
  C    -20.256886   27.618401   46.002590
  C    -20.422620   28.268763   47.397605
  C    -20.174699   27.085699   48.360885
  O    -20.345249   25.856242   47.550277
  H    -20.483841   25.438603   45.563227
  H    -19.196844   27.538124   45.733416
  H    -20.784835   28.155391   45.211176
  H    -19.726626   29.096274   47.563852
  H    -21.444201   28.644825   47.505938
  H    -20.880400   27.059810   49.195845
  H    -19.152802   27.066045   48.752512
  C    -22.476696   24.489578   44.496865
  H    -23.205816   24.128970   43.755472
  C    -23.162606   25.481866   45.435480
  C    -23.919824   24.536412   46.387778
  C    -22.972573   23.322768   46.520110
  O    -22.033299   23.405818   45.371267
  H    -21.604358   24.872555   43.964315
  O    -22.275519   26.305227   46.267287
  H    -23.820657   26.176798   44.905187
  H    -24.113277   25.034698   47.339408
  H    -24.879234   24.243099   45.943810
  H    -23.498649   22.363898   46.477133
  H    -22.360421   23.370464   47.423775

 Multiplicity           Mult            ....    1
 Number of Electrons    NEL             ....   86
 Basis Dimension        Dim             ....  127

ORBITAL ENERGIES
----------------

  NO   OCC          E(Eh)            E(eV)
   0   2.0000     -19.133871      -520.6591
   1   2.0000     -19.133656      -520.6532
   2   2.0000     -19.130243      -520.5604
   3   2.0000     -10.271356      -279.4978
   4   2.0000     -10.242412      -278.7102
   5   2.0000     -10.230158      -278.3768
   6   2.0000     -10.218422      -278.0574
   7   2.0000     -10.217803      -278.0406
   8   2.0000     -10.180936      -277.0374
   9   2.0000     -10.179705      -277.0039
  10   2.0000     -10.179484      -276.9978
  11   2.0000      -1.044676       -28.4271
  12   2.0000      -1.015470       -27.6324
  13   2.0000      -0.982159       -26.7259
  14   2.0000      -0.787999       -21.4426
  15   2.0000      -0.772932       -21.0326
  16   2.0000      -0.738495       -20.0955
  17   2.0000      -0.720384       -19.6027
  18   2.0000      -0.617839       -16.8122
  19   2.0000      -0.595962       -16.2169
  20   2.0000      -0.590912       -16.0795
  21   2.0000      -0.562370       -15.3029
  22   2.0000      -0.525021       -14.2865
  23   2.0000      -0.500148       -13.6097
  24   2.0000      -0.480501       -13.0751
  25   2.0000      -0.475070       -12.9273
  26   2.0000      -0.449111       -12.2209
  27   2.0000      -0.446779       -12.1575
  28   2.0000      -0.422182       -11.4882
  29   2.0000      -0.413863       -11.2618
  30   2.0000      -0.395847       -10.7715
  31   2.0000      -0.381636       -10.3848
  32   2.0000      -0.370968       -10.0945
  33   2.0000      -0.364922        -9.9300
  34   2.0000      -0.357609        -9.7310
  35   2.0000      -0.350426        -9.5356
  36   2.0000      -0.342536        -9.3209
  37   2.0000      -0.315090        -8.5740
  38   2.0000      -0.306870        -8.3503
  39   2.0000      -0.292311        -7.9542
  40   2.0000      -0.259160        -7.0521
  41   2.0000      -0.240384        -6.5412
  42   2.0000      -0.237432        -6.4609
  43   0.0000       0.080474         2.1898
  44   0.0000       0.099158         2.6982
  45   0.0000       0.106345         2.8938
  46   0.0000       0.111014         3.0208
  47   0.0000       0.115188         3.1344

MULLIKEN ATOMIC CHARGES
-----------------------
   0 C :    0.279659
   1 C :   -0.249577
   2 C :   -0.297816
   3 C :   -0.000956
   4 O :   -0.504133
   5 H :    0.170272
   6 H :    0.141157
   7 H :    0.140414
   8 H :    0.137381
   9 H :    0.160188
  10 H :    0.145797
  11 H :    0.138461
  12 C :   -0.043278
  13 H :    0.136216
  14 C :    0.097414
  15 C :   -0.282709
  16 C :   -0.007528
  17 O :   -0.522312
  18 H :    0.152267
  19 O :   -0.538265
  20 H :    0.139194
  21 H :    0.167435
  22 H :    0.133642
  23 H :    0.135984
  24 H :    0.171094
Sum of atomic charges:   -0.0000000

LOEWDIN ATOMIC CHARGES
----------------------
   0 C :    0.173588
   1 C :   -0.221549
   2 C :   -0.216388
   3 C :   -0.028380
   4 O :   -0.317670
   5 H :    0.112177
   6 H :    0.111367
   7 H :    0.115479
   8 H :    0.111778
   9 H :    0.118112
  10 H :    0.104465
  11 H :    0.100295
  12 C :   -0.053683
  13 H :    0.099603
  14 C :    0.047095
  15 C :   -0.228643
  16 C :   -0.029252
  17 O :   -0.333526
  18 H :    0.110372
  19 O :   -0.335413
  20 H :    0.105748
  21 H :    0.129988
  22 H :    0.107550
  23 H :    0.099842
  24 H :    0.117040

  Mayer bond orders larger than 0.100000
B(  0-C ,  1-C ) :   0.9387 B(  0-C ,  4-O ) :   0.9132 B(  0-C ,  5-H ) :   0.9050
B(  0-C , 19-O ) :   0.8357 B(  1-C ,  2-C ) :   0.9568 B(  1-C ,  6-H ) :   0.9374
B(  1-C ,  7-H ) :   0.9398 B(  2-C ,  3-C ) :   0.9540 B(  2-C ,  8-H ) :   0.9459
B(  2-C ,  9-H ) :   0.9440 B(  3-C ,  4-O ) :   0.8441 B(  3-C , 10-H ) :   0.9353
B(  3-C , 11-H ) :   0.9399 B( 12-C , 13-H ) :   0.9129 B( 12-C , 14-C ) :   0.9249
B( 12-C , 17-O ) :   0.8630 B( 12-C , 18-H ) :   0.9267 B( 14-C , 15-C ) :   0.9374
B( 14-C , 19-O ) :   0.8470 B( 14-C , 20-H ) :   0.9295 B( 15-C , 16-C ) :   0.9467
B( 15-C , 21-H ) :   0.9363 B( 15-C , 22-H ) :   0.9377 B( 16-C , 17-O ) :   0.8375
B( 16-C , 23-H ) :   0.9356 B( 16-C , 24-H ) :   0.9319

FINAL SINGLE POINT ENERGY      -538.429338153056

DIPOLE MOMENT
-------------
                                X             Y             Z
Electronic contribution:      0.58406      -2.67448      -0.52047
Nuclear contribution   :     -1.12627       3.49153       0.15052
                        -----------------------------------------
Total Dipole Moment    :     -0.54221       0.81705      -0.36995
                        -----------------------------------------
Magnitude (a.u.)       :      1.04806
Magnitude (Debye)      :      2.66395

Rotational constants in cm-1:     0.076886     0.022841     0.021851
Rotational constants in MHz :  2304.995018   684.755957   655.074779

                             ****ORCA TERMINATED NORMALLY****
TOTAL RUN TIME: 0 days 0 hours 8 minutes 7 seconds 355 msec
