                         Program Version 4.2.1 -  RELEASE  -
|  1> # Test redundant internal optimization
|  2> #
|  3> ! RKS B3LYP  Opt TightSCF SmallPrint
|  4>
|  5> %basis
|  6>         Basis "6-31G"
|  7> end
|  8>
|  9> %geom
| 10> Constraints
| 11> { D 4  0  19  14  225.0   C } # D for Dihedral angle
| 12> { D 0  19  14  12  135.0   C } # D for Dihedral angle
| 13> { D 0  4  3  2   C } # D for Dihedral angle
| 14> { D 4  3  2  1   C } # D for Dihedral angle
| 15> { D 3  2  1  0   C } # D for Dihedral angle
| 16> { D 2  1  0  4   C } # D for Dihedral angle
| 17> { D 1  0  4  3   C } # D for Dihedral angle
| 18> { D 14  15  16  17   C } # D for Dihedral angle
| 19> { D 15  16  17  12   C } # D for Dihedral angle
| 20> { D 16  17  12  14   C } # D for Dihedral angle
| 21> { D 17  12  14  15   C } # D for Dihedral angle
| 22> { D 12  14  15  16   C } # D for Dihedral angle
| 23> end
| 24> end
| 25>
| 26>
| 27> #%pal
| 28> #nprocs 8
| 29> #end
| 30>
| 31> * xyz 0 1
| 32> C  -21.048   26.222   46.251
| 33> C  -20.361   27.558   45.944
| 34> C  -20.329   28.222   47.341
| 35> C  -20.110   27.022   48.296
| 36> O  -20.473   25.807   47.535
| 37> H  -20.833   25.428   45.533
| 38> H  -19.344   27.382   45.576
| 39> H  -20.898   28.157   45.201
| 40> H  -19.543   28.978   47.434
| 41> H  -21.289   28.710   47.548
| 42> H  -20.733   27.082   49.195
| 43> H  -19.064   26.913   48.597
| 44> C  -24.420   25.019   45.840
| 45> H  -24.836   24.336   45.084
| 46> C  -23.222   25.800   45.287
| 47> C  -23.921   26.899   44.454
| 48> C  -25.198   27.206   45.275
| 49> O  -25.398   26.057   46.186
| 50> H  -24.212   24.459   46.753
| 51> O  -22.472   26.381   46.366
| 52> H  -22.544   25.181   44.690
| 53> H  -23.295   27.785   44.309
| 54> H  -24.185   26.511   43.462
| 55> H  -26.086   27.323   44.645
| 56> H  -25.088   28.097   45.902
| 57> *
| 58>
| 59>                          ****END OF INPUT****
 Total Charge           Charge          ....    0
 Multiplicity           Mult            ....    1
 Number of Electrons    NEL             ....   86
FINAL SINGLE POINT ENERGY      -538.428351517697
FINAL SINGLE POINT ENERGY      -538.430486233991
FINAL SINGLE POINT ENERGY      -538.430660132289
FINAL SINGLE POINT ENERGY      -538.430693345596
FINAL SINGLE POINT ENERGY      -538.430701529526
FINAL SINGLE POINT ENERGY      -538.430702736505
                    ***********************HURRAY********************

CARTESIAN COORDINATES (ANGSTROEM)
---------------------------------
  C    -20.978254   26.208949   46.216226
  C    -20.321627   27.562804   45.950055
  C    -20.373170   28.225036   47.348584
  C    -20.162053   27.029067   48.302312
  O    -20.459780   25.815930   47.498291
  H    -20.725226   25.416004   45.504244
  H    -19.283565   27.408497   45.630967
  H    -20.842873   28.137858   45.180774
  H    -19.613613   29.001895   47.476319
  H    -21.359472   28.671525   47.506256
  H    -20.829194   27.045544   49.167316
  H    -19.126564   26.933142   48.642338
  C    -24.417190   25.037102   45.863081
  H    -24.875428   24.352249   45.133178
  C    -23.234361   25.781530   45.241059
  C    -23.947976   26.884838   44.433982
  C    -25.172802   27.232095   45.313998
  O    -25.349630   26.098100   46.245678
  H    -24.142443   24.493651   46.767629
  O    -22.420356   26.354852   46.303718
  H    -22.616538   25.130039   44.608012
  H    -23.294659   27.743228   44.258255
  H    -24.261366   26.484362   43.462646
  H    -26.087991   27.362426   44.725669
  H    -25.005870   28.124278   45.923413

 Multiplicity           Mult            ....    1
 Number of Electrons    NEL             ....   86
 Basis Dimension        Dim             ....  127

ORBITAL ENERGIES
----------------

  NO   OCC          E(Eh)            E(eV)
   0   2.0000     -19.138871      -520.7952
   1   2.0000     -19.138189      -520.7766
   2   2.0000     -19.125978      -520.4443
   3   2.0000     -10.280845      -279.7560
   4   2.0000     -10.242944      -278.7247
   5   2.0000     -10.222984      -278.1815
   6   2.0000     -10.219902      -278.0977
   7   2.0000     -10.218893      -278.0702
   8   2.0000     -10.187191      -277.2076
   9   2.0000     -10.185904      -277.1725
  10   2.0000     -10.184862      -277.1442
  11   2.0000      -1.052477       -28.6394
  12   2.0000      -1.013242       -27.5717
  13   2.0000      -0.989563       -26.9274
  14   2.0000      -0.789297       -21.4779
  15   2.0000      -0.778457       -21.1829
  16   2.0000      -0.740048       -20.1377
  17   2.0000      -0.720835       -19.6149
  18   2.0000      -0.606584       -16.5060
  19   2.0000      -0.599870       -16.3233
  20   2.0000      -0.595593       -16.2069
  21   2.0000      -0.581339       -15.8190
  22   2.0000      -0.519845       -14.1457
  23   2.0000      -0.504559       -13.7297
  24   2.0000      -0.482697       -13.1348
  25   2.0000      -0.478055       -13.0086
  26   2.0000      -0.450576       -12.2608
  27   2.0000      -0.445713       -12.1285
  28   2.0000      -0.428575       -11.6621
  29   2.0000      -0.413377       -11.2486
  30   2.0000      -0.408787       -11.1237
  31   2.0000      -0.386183       -10.5086
  32   2.0000      -0.373435       -10.1617
  33   2.0000      -0.364068        -9.9068
  34   2.0000      -0.356938        -9.7128
  35   2.0000      -0.354011        -9.6331
  36   2.0000      -0.347605        -9.4588
  37   2.0000      -0.313515        -8.5312
  38   2.0000      -0.309340        -8.4176
  39   2.0000      -0.298198        -8.1144
  40   2.0000      -0.263644        -7.1741
  41   2.0000      -0.249475        -6.7886
  42   2.0000      -0.229552        -6.2464
  43   0.0000       0.073043         1.9876
  44   0.0000       0.082420         2.2428
  45   0.0000       0.097762         2.6602
  46   0.0000       0.113830         3.0975
  47   0.0000       0.123690         3.3658

MULLIKEN ATOMIC CHARGES
-----------------------
   0 C :    0.287716
   1 C :   -0.257242
   2 C :   -0.300274
   3 C :   -0.000671
   4 O :   -0.501813
   5 H :    0.136579
   6 H :    0.141908
   7 H :    0.141367
   8 H :    0.140961
   9 H :    0.163800
  10 H :    0.156035
  11 H :    0.140142
  12 C :    0.008551
  13 H :    0.121042
  14 C :    0.065408
  15 C :   -0.294583
  16 C :    0.009121
  17 O :   -0.517772
  18 H :    0.171825
  19 O :   -0.508092
  20 H :    0.122350
  21 H :    0.150409
  22 H :    0.140333
  23 H :    0.132806
  24 H :    0.150097
Sum of atomic charges:   -0.0000000

LOEWDIN ATOMIC CHARGES
----------------------
   0 C :    0.178399
   1 C :   -0.225142
   2 C :   -0.216785
   3 C :   -0.025441
   4 O :   -0.311080
   5 H :    0.095416
   6 H :    0.112024
   7 H :    0.113682
   8 H :    0.113795
   9 H :    0.120031
  10 H :    0.110237
  11 H :    0.101533
  12 C :   -0.038011
  13 H :    0.089676
  14 C :    0.040713
  15 C :   -0.234517
  16 C :   -0.026847
  17 O :   -0.328166
  18 H :    0.125180
  19 O :   -0.325694
  20 H :    0.095700
  21 H :    0.119255
  22 H :    0.112072
  23 H :    0.097203
  24 H :    0.106769

  Mayer bond orders larger than 0.100000
B(  0-C ,  1-C ) :   0.9368 B(  0-C ,  4-O ) :   0.9353 B(  0-C ,  5-H ) :   0.9165
B(  0-C , 19-O ) :   0.8450 B(  1-C ,  2-C ) :   0.9565 B(  1-C ,  6-H ) :   0.9350
B(  1-C ,  7-H ) :   0.9374 B(  2-C ,  3-C ) :   0.9547 B(  2-C ,  8-H ) :   0.9451
B(  2-C ,  9-H ) :   0.9431 B(  3-C ,  4-O ) :   0.8363 B(  3-C , 10-H ) :   0.9341
B(  3-C , 11-H ) :   0.9398 B( 12-C , 13-H ) :   0.9132 B( 12-C , 14-C ) :   0.9302
B( 12-C , 17-O ) :   0.8716 B( 12-C , 18-H ) :   0.9300 B( 14-C , 15-C ) :   0.9403
B( 14-C , 19-O ) :   0.8351 B( 14-C , 20-H ) :   0.9170 B( 15-C , 16-C ) :   0.9475
B( 15-C , 21-H ) :   0.9395 B( 15-C , 22-H ) :   0.9373 B( 16-C , 17-O ) :   0.8601
B( 16-C , 23-H ) :   0.9333 B( 16-C , 24-H ) :   0.9364

FINAL SINGLE POINT ENERGY      -538.430702962428

DIPOLE MOMENT
-------------
                                X             Y             Z
Electronic contribution:     -1.32135      -3.56777       2.21461
Nuclear contribution   :      2.07572       4.19135      -3.37970
                        -----------------------------------------
Total Dipole Moment    :      0.75437       0.62359      -1.16509
                        -----------------------------------------
Magnitude (a.u.)       :      1.52164
Magnitude (Debye)      :      3.86769

Rotational constants in cm-1:     0.077909     0.020195     0.019252
Rotational constants in MHz :  2335.647804   605.444255   577.146761

                             ****ORCA TERMINATED NORMALLY****
TOTAL RUN TIME: 0 days 0 hours 8 minutes 10 seconds 278 msec
