                         Program Version 4.2.0 -  RELEASE  -
|  1> # Test redundant internal optimization
|  2> #
|  3> ! RKS B3LYP  Opt TightSCF SmallPrint
|  4>
|  5> %basis
|  6>         Basis "6-31G"
|  7> end
|  8>
|  9> %geom
| 10> Constraints
| 11> { D 4  0  15  12  0.0   C } # D for Dihedral angle
| 12> { D 0  15  12  16  285.0   C } # D for Dihedral angle
| 13> { D 0  4  3  2   C } # D for Dihedral angle
| 14> { D 4  3  2  1   C } # D for Dihedral angle
| 15> { D 3  2  1  0   C } # D for Dihedral angle
| 16> { D 2  1  0  4   C } # D for Dihedral angle
| 17> { D 1  0  4  3   C } # D for Dihedral angle
| 18> { D 16  20  19  18   C } # D for Dihedral angle
| 19> { D 20  19  18  17   C } # D for Dihedral angle
| 20> { D 19  18  17  16   C } # D for Dihedral angle
| 21> { D 18  17  16  20   C } # D for Dihedral angle
| 22> { D 17  16  20  19   C } # D for Dihedral angle
| 23> { D 15  12  16  20   C } # D for Dihedral angle
| 24> end
| 25> end
| 26>
| 27>
| 28> #%pal
| 29> #nprocs 8
| 30> #end
| 31>
| 32> * xyz 0 1
| 33> C  -21.048   26.222   46.251
| 34> C  -20.361   27.558   45.944
| 35> C  -20.329   28.222   47.341
| 36> C  -20.110   27.022   48.296
| 37> O  -20.473   25.807   47.535
| 38> H  -20.833   25.428   45.533
| 39> H  -19.344   27.382   45.576
| 40> H  -20.898   28.157   45.201
| 41> H  -19.543   28.978   47.434
| 42> H  -21.289   28.710   47.548
| 43> H  -20.733   27.082   49.195
| 44> H  -19.064   26.913   48.597
| 45> C  -23.172   26.101   47.783
| 46> H  -22.548   26.588   48.543
| 47> H  -24.190   26.502   47.867
| 48> O  -22.586   26.394   46.375
| 49> C  -23.235   24.581   48.103
| 50> C  -24.019   23.818   47.029
| 51> C  -22.966   23.694   45.902
| 52> C  -21.637   23.523   46.679
| 53> O  -21.893   23.992   48.059
| 54> H  -23.611   24.445   49.119
| 55> H  -24.303   22.829   47.403
| 56> O  -25.306   24.557   46.571
| 57> H  -23.164   22.856   45.225
| 58> H  -22.947   24.612   45.301
| 59> H  -20.819   24.109   46.247
| 60> H  -21.324   22.477   46.748
| 61> H  -25.044   25.552   46.193
| 62> *
| 63>
| 64>                          ****END OF INPUT****
 Total Charge           Charge          ....    0
 Multiplicity           Mult            ....    1
 Number of Electrons    NEL             ....  102
FINAL SINGLE POINT ENERGY      -652.795241214349
FINAL SINGLE POINT ENERGY      -652.833476852982
FINAL SINGLE POINT ENERGY      -652.850389367527
FINAL SINGLE POINT ENERGY      -652.853667916927
FINAL SINGLE POINT ENERGY      -652.854064748703
FINAL SINGLE POINT ENERGY      -652.854136248245
FINAL SINGLE POINT ENERGY      -652.854148069396
FINAL SINGLE POINT ENERGY      -652.854148402978
                    ***********************HURRAY********************

CARTESIAN COORDINATES (ANGSTROEM)
---------------------------------
  C    -21.023693   26.443975   46.252416
  C    -20.492763   27.857882   46.019073
  C    -20.277168   28.361830   47.466850
  C    -19.822283   27.088134   48.213364
  O    -20.234453   25.948850   47.345759
  H    -20.870953   25.753486   45.420025
  H    -19.541140   27.801542   45.477333
  H    -21.192671   28.470990   45.447505
  H    -19.536504   29.164943   47.526847
  H    -21.220593   28.739722   47.874056
  H    -20.285954   26.962710   49.195020
  H    -18.735446   27.020198   48.317507
  C    -23.123242   26.100209   47.719897
  H    -22.621330   26.575143   48.573007
  H    -24.128242   26.523864   47.638011
  O    -22.465177   26.503618   46.480957
  C    -23.270994   24.599934   48.026715
  C    -24.099486   23.848395   46.970468
  C    -23.008321   23.437677   45.931192
  C    -21.784205   23.156958   46.832710
  O    -22.057621   23.814388   48.133752
  H    -23.753552   24.552630   49.011118
  H    -24.565911   22.966437   47.414743
  O    -25.197702   24.607316   46.407424
  H    -23.307478   22.570580   45.335985
  H    -22.826871   24.283880   45.260760
  H    -20.846614   23.554833   46.438401
  H    -21.660074   22.089456   47.040443
  H    -24.838559   25.311419   45.826664

 Multiplicity           Mult            ....    1
 Number of Electrons    NEL             ....  102
 Basis Dimension        Dim             ....  149

ORBITAL ENERGIES
----------------

  NO   OCC          E(Eh)            E(eV)
   0   2.0000     -19.148932      -521.0689
   1   2.0000     -19.143222      -520.9136
   2   2.0000     -19.136055      -520.7185
   3   2.0000     -19.128174      -520.5041
   4   2.0000     -10.283400      -279.8255
   5   2.0000     -10.232196      -278.4322
   6   2.0000     -10.231716      -278.4191
   7   2.0000     -10.230458      -278.3849
   8   2.0000     -10.225117      -278.2396
   9   2.0000     -10.217326      -278.0276
  10   2.0000     -10.192096      -277.3410
  11   2.0000     -10.187581      -277.2182
  12   2.0000     -10.180301      -277.0201
  13   2.0000      -1.055253       -28.7149
  14   2.0000      -1.023243       -27.8439
  15   2.0000      -1.005399       -27.3583
  16   2.0000      -0.993467       -27.0336
  17   2.0000      -0.791608       -21.5408
  18   2.0000      -0.770502       -20.9664
  19   2.0000      -0.764975       -20.8160
  20   2.0000      -0.733503       -19.9596
  21   2.0000      -0.676232       -18.4012
  22   2.0000      -0.605487       -16.4761
  23   2.0000      -0.602548       -16.3962
  24   2.0000      -0.598653       -16.2902
  25   2.0000      -0.555906       -15.1270
  26   2.0000      -0.527835       -14.3631
  27   2.0000      -0.507183       -13.8012
  28   2.0000      -0.497299       -13.5322
  29   2.0000      -0.484184       -13.1753
  30   2.0000      -0.469954       -12.7881
  31   2.0000      -0.460150       -12.5213
  32   2.0000      -0.437104       -11.8942
  33   2.0000      -0.428252       -11.6533
  34   2.0000      -0.419351       -11.4111
  35   2.0000      -0.411856       -11.2072
  36   2.0000      -0.404619       -11.0103
  37   2.0000      -0.390537       -10.6271
  38   2.0000      -0.377584       -10.2746
  39   2.0000      -0.371547       -10.1103
  40   2.0000      -0.361047        -9.8246
  41   2.0000      -0.356021        -9.6878
  42   2.0000      -0.345656        -9.4058
  43   2.0000      -0.331460        -9.0195
  44   2.0000      -0.319304        -8.6887
  45   2.0000      -0.308761        -8.4018
  46   2.0000      -0.298256        -8.1160
  47   2.0000      -0.267131        -7.2690
  48   2.0000      -0.259397        -7.0586
  49   2.0000      -0.257486        -7.0066
  50   2.0000      -0.225915        -6.1474
  51   0.0000       0.064535         1.7561
  52   0.0000       0.086278         2.3477
  53   0.0000       0.092235         2.5099
  54   0.0000       0.095596         2.6013
  55   0.0000       0.104369         2.8400

MULLIKEN ATOMIC CHARGES
-----------------------
   0 C :    0.312864
   1 C :   -0.256805
   2 C :   -0.310037
   3 C :   -0.016750
   4 O :   -0.497908
   5 H :    0.145783
   6 H :    0.144804
   7 H :    0.157062
   8 H :    0.148282
   9 H :    0.154433
  10 H :    0.153969
  11 H :    0.151886
  12 C :   -0.031800
  13 H :    0.137247
  14 H :    0.159534
  15 O :   -0.561327
  16 C :    0.104550
  17 C :    0.087600
  18 C :   -0.322221
  19 C :   -0.006764
  20 O :   -0.508601
  21 H :    0.142501
  22 H :    0.159109
  23 O :   -0.608613
  24 H :    0.147314
  25 H :    0.152438
  26 H :    0.153493
  27 H :    0.141003
  28 H :    0.366956
Sum of atomic charges:   -0.0000000

LOEWDIN ATOMIC CHARGES
----------------------
   0 C :    0.181225
   1 C :   -0.219300
   2 C :   -0.219737
   3 C :   -0.030970
   4 O :   -0.304286
   5 H :    0.098345
   6 H :    0.113396
   7 H :    0.123860
   8 H :    0.117672
   9 H :    0.114230
  10 H :    0.106656
  11 H :    0.107475
  12 C :   -0.046800
  13 H :    0.098935
  14 H :    0.119212
  15 O :   -0.357785
  16 C :    0.008764
  17 C :    0.034586
  18 C :   -0.243167
  19 C :   -0.028218
  20 O :   -0.311363
  21 H :    0.112974
  22 H :    0.114799
  23 O :   -0.412897
  24 H :    0.117105
  25 H :    0.113609
  26 H :    0.106929
  27 H :    0.101427
  28 H :    0.283324

  Mayer bond orders larger than 0.100000
B(  0-C ,  1-C ) :   0.9347 B(  0-C ,  4-O ) :   0.9253 B(  0-C ,  5-H ) :   0.9250
B(  0-C , 15-O ) :   0.8215 B(  1-C ,  2-C ) :   0.9544 B(  1-C ,  6-H ) :   0.9356
B(  1-C ,  7-H ) :   0.9365 B(  2-C ,  3-C ) :   0.9519 B(  2-C ,  8-H ) :   0.9444
B(  2-C ,  9-H ) :   0.9451 B(  3-C ,  4-O ) :   0.8284 B(  3-C , 10-H ) :   0.9303
B(  3-C , 11-H ) :   0.9394 B( 12-C , 13-H ) :   0.9263 B( 12-C , 14-H ) :   0.9190
B( 12-C , 15-O ) :   0.8411 B( 12-C , 16-C ) :   0.8825 B( 16-C , 17-C ) :   0.8831
B( 16-C , 20-O ) :   0.8903 B( 16-C , 21-H ) :   0.9211 B( 17-C , 18-C ) :   0.9297
B( 17-C , 22-H ) :   0.9376 B( 17-C , 23-O ) :   0.8999 B( 18-C , 19-C ) :   0.9440
B( 18-C , 24-H ) :   0.9415 B( 18-C , 25-H ) :   0.9315 B( 19-C , 20-O ) :   0.8372
B( 19-C , 26-H ) :   0.9217 B( 19-C , 27-H ) :   0.9390 B( 23-O , 28-H ) :   0.7894

FINAL SINGLE POINT ENERGY      -652.854146802493

DIPOLE MOMENT
-------------
                                X             Y             Z
Electronic contribution:     -2.48289      -2.94781       0.73969
Nuclear contribution   :      3.19288       3.80698      -1.05561
                        -----------------------------------------
Total Dipole Moment    :      0.70999       0.85917      -0.31591
                        -----------------------------------------
Magnitude (a.u.)       :      1.15847
Magnitude (Debye)      :      2.94461

Rotational constants in cm-1:     0.050175     0.017823     0.016206
Rotational constants in MHz :  1504.198939   534.312945   485.829890

                             ****ORCA TERMINATED NORMALLY****
TOTAL RUN TIME: 0 days 0 hours 39 minutes 36 seconds 114 msec
