                         Program Version 4.2.1 -  RELEASE  -
|  1> # Test redundant internal optimization
|  2> #
|  3> ! RKS B3LYP  Opt TightSCF SmallPrint
|  4>
|  5> %basis
|  6>         Basis "6-31G"
|  7> end
|  8>
|  9> %geom
| 10> Constraints
| 11> { D 4  0  19  14  195.0   C } # D for Dihedral angle
| 12> { D 0  19  14  12  240.0   C } # D for Dihedral angle
| 13> { D 0  4  3  2   C } # D for Dihedral angle
| 14> { D 4  3  2  1   C } # D for Dihedral angle
| 15> { D 3  2  1  0   C } # D for Dihedral angle
| 16> { D 2  1  0  4   C } # D for Dihedral angle
| 17> { D 1  0  4  3   C } # D for Dihedral angle
| 18> { D 14  15  16  17   C } # D for Dihedral angle
| 19> { D 15  16  17  12   C } # D for Dihedral angle
| 20> { D 16  17  12  14   C } # D for Dihedral angle
| 21> { D 17  12  14  15   C } # D for Dihedral angle
| 22> { D 12  14  15  16   C } # D for Dihedral angle
| 23> end
| 24> end
| 25>
| 26>
| 27> #%pal
| 28> #nprocs 8
| 29> #end
| 30>
| 31> * xyz 0 1
| 32> C  -21.048   26.222   46.251
| 33> C  -20.361   27.558   45.944
| 34> C  -20.329   28.222   47.341
| 35> C  -20.110   27.022   48.296
| 36> O  -20.473   25.807   47.535
| 37> H  -20.833   25.428   45.533
| 38> H  -19.344   27.382   45.576
| 39> H  -20.898   28.157   45.201
| 40> H  -19.543   28.978   47.434
| 41> H  -21.289   28.710   47.548
| 42> H  -20.733   27.082   49.195
| 43> H  -19.064   26.913   48.597
| 44> C  -23.905   27.788   44.991
| 45> H  -24.663   27.757   44.193
| 46> C  -23.163   26.451   45.109
| 47> C  -22.159   26.544   43.937
| 48> C  -21.793   28.050   43.905
| 49> O  -22.853   28.756   44.659
| 50> H  -24.372   28.130   45.915
| 51> O  -22.472   26.381   46.366
| 52> H  -23.828   25.583   45.031
| 53> H  -21.282   25.905   44.077
| 54> H  -22.644   26.245   42.999
| 55> H  -21.749   28.451   42.887
| 56> H  -20.845   28.260   44.410
| 57> *
| 58>
| 59>                          ****END OF INPUT****
 Total Charge           Charge          ....    0
 Multiplicity           Mult            ....    1
 Number of Electrons    NEL             ....   86
FINAL SINGLE POINT ENERGY      -538.289685043837
FINAL SINGLE POINT ENERGY      -538.345766433811
FINAL SINGLE POINT ENERGY      -538.376793248820
FINAL SINGLE POINT ENERGY      -538.395183277305
FINAL SINGLE POINT ENERGY      -538.405822198806
FINAL SINGLE POINT ENERGY      -538.411840719868
FINAL SINGLE POINT ENERGY      -538.415141292250
FINAL SINGLE POINT ENERGY      -538.416864152976
FINAL SINGLE POINT ENERGY      -538.417802210016
FINAL SINGLE POINT ENERGY      -538.418518397118
FINAL SINGLE POINT ENERGY      -538.420876050552
FINAL SINGLE POINT ENERGY      -538.421026861821
FINAL SINGLE POINT ENERGY      -538.421152120184
FINAL SINGLE POINT ENERGY      -538.421263243089
FINAL SINGLE POINT ENERGY      -538.421352012211
FINAL SINGLE POINT ENERGY      -538.421402058248
FINAL SINGLE POINT ENERGY      -538.421421539157
FINAL SINGLE POINT ENERGY      -538.421427432738
FINAL SINGLE POINT ENERGY      -538.421429309054
                    ***********************HURRAY********************

CARTESIAN COORDINATES (ANGSTROEM)
---------------------------------
  C    -20.779993   26.241205   46.307881
  C    -20.066888   27.587588   46.184318
  C    -20.302803   28.210535   47.587054
  C    -20.249907   26.977298   48.512445
  O    -20.453960   25.801097   47.632956
  H    -20.452623   25.462523   45.612954
  H    -18.998309   27.419721   46.002767
  H    -20.469952   28.225457   45.400879
  H    -19.549301   28.960886   47.842918
  H    -21.289334   28.680276   47.614908
  H    -21.030597   26.977269   49.277838
  H    -19.274053   26.844149   48.989831
  C    -23.794696   27.844815   45.045259
  H    -24.734107   27.746644   44.483028
  C    -23.029534   26.518697   45.056819
  C    -22.385481   26.525307   43.659517
  C    -22.061405   28.020071   43.409887
  O    -22.888808   28.792230   44.370309
  H    -23.992876   28.226407   46.046551
  O    -22.228838   26.391930   46.272206
  H    -23.738941   25.682640   45.123482
  H    -21.508944   25.876836   43.571597
  H    -23.134236   26.166288   42.946147
  H    -22.324012   28.332936   42.392828
  H    -21.013401   28.269193   43.585620

 Multiplicity           Mult            ....    1
 Number of Electrons    NEL             ....   86
 Basis Dimension        Dim             ....  127

ORBITAL ENERGIES
----------------

  NO   OCC          E(Eh)            E(eV)
   0   2.0000     -19.138064      -520.7732
   1   2.0000     -19.136129      -520.7206
   2   2.0000     -19.134291      -520.6705
   3   2.0000     -10.279183      -279.7108
   4   2.0000     -10.243622      -278.7431
   5   2.0000     -10.230301      -278.3806
   6   2.0000     -10.223774      -278.2030
   7   2.0000     -10.220247      -278.1071
   8   2.0000     -10.199109      -277.5319
   9   2.0000     -10.180291      -277.0198
  10   2.0000     -10.179618      -277.0015
  11   2.0000      -1.048991       -28.5445
  12   2.0000      -1.017568       -27.6894
  13   2.0000      -0.985012       -26.8036
  14   2.0000      -0.790742       -21.5172
  15   2.0000      -0.779158       -21.2020
  16   2.0000      -0.749127       -20.3848
  17   2.0000      -0.719852       -19.5882
  18   2.0000      -0.619985       -16.8706
  19   2.0000      -0.606438       -16.5020
  20   2.0000      -0.594199       -16.1690
  21   2.0000      -0.564724       -15.3669
  22   2.0000      -0.519817       -14.1449
  23   2.0000      -0.505112       -13.7448
  24   2.0000      -0.488690       -13.2979
  25   2.0000      -0.483374       -13.1533
  26   2.0000      -0.454570       -12.3695
  27   2.0000      -0.444389       -12.0924
  28   2.0000      -0.427538       -11.6339
  29   2.0000      -0.419255       -11.4085
  30   2.0000      -0.403116       -10.9694
  31   2.0000      -0.388924       -10.5832
  32   2.0000      -0.377535       -10.2733
  33   2.0000      -0.372435       -10.1345
  34   2.0000      -0.364972        -9.9314
  35   2.0000      -0.350120        -9.5272
  36   2.0000      -0.343677        -9.3519
  37   2.0000      -0.313923        -8.5423
  38   2.0000      -0.307430        -8.3656
  39   2.0000      -0.295232        -8.0337
  40   2.0000      -0.255390        -6.9495
  41   2.0000      -0.251753        -6.8505
  42   2.0000      -0.238615        -6.4930
  43   0.0000       0.071870         1.9557
  44   0.0000       0.085805         2.3349
  45   0.0000       0.099003         2.6940
  46   0.0000       0.106841         2.9073
  47   0.0000       0.111227         3.0267

MULLIKEN ATOMIC CHARGES
-----------------------
   0 C :    0.301732
   1 C :   -0.282840
   2 C :   -0.301704
   3 C :   -0.000461
   4 O :   -0.501849
   5 H :    0.136757
   6 H :    0.138266
   7 H :    0.169566
   8 H :    0.140458
   9 H :    0.167477
  10 H :    0.152728
  11 H :    0.139785
  12 C :   -0.012420
  13 H :    0.129041
  14 C :    0.097724
  15 C :   -0.328306
  16 C :   -0.004176
  17 O :   -0.525261
  18 H :    0.169801
  19 O :   -0.526350
  20 H :    0.145837
  21 H :    0.154578
  22 H :    0.158883
  23 H :    0.140048
  24 H :    0.140688
Sum of atomic charges:   -0.0000000

LOEWDIN ATOMIC CHARGES
----------------------
   0 C :    0.186147
   1 C :   -0.236270
   2 C :   -0.215727
   3 C :   -0.025995
   4 O :   -0.303621
   5 H :    0.094393
   6 H :    0.111098
   7 H :    0.125247
   8 H :    0.114000
   9 H :    0.121026
  10 H :    0.108255
  11 H :    0.101109
  12 C :   -0.041833
  13 H :    0.093722
  14 C :    0.042687
  15 C :   -0.239172
  16 C :   -0.035418
  17 O :   -0.336453
  18 H :    0.123422
  19 O :   -0.336281
  20 H :    0.105737
  21 H :    0.120869
  22 H :    0.124155
  23 H :    0.100153
  24 H :    0.098749

  Mayer bond orders larger than 0.100000
B(  0-C ,  1-C ) :   0.9335 B(  0-C ,  4-O ) :   0.9392 B(  0-C ,  5-H ) :   0.9206
B(  0-C , 19-O ) :   0.8228 B(  1-C ,  2-C ) :   0.9507 B(  1-C ,  6-H ) :   0.9338
B(  1-C ,  7-H ) :   0.9138 B(  2-C ,  3-C ) :   0.9546 B(  2-C ,  8-H ) :   0.9449
B(  2-C ,  9-H ) :   0.9419 B(  3-C ,  4-O ) :   0.8320 B(  3-C , 10-H ) :   0.9354
B(  3-C , 11-H ) :   0.9400 B( 12-C , 13-H ) :   0.9136 B( 12-C , 14-C ) :   0.9171
B( 12-C , 17-O ) :   0.8576 B( 12-C , 18-H ) :   0.9322 B( 14-C , 15-C ) :   0.9328
B( 14-C , 19-O ) :   0.8665 B( 14-C , 20-H ) :   0.9300 B( 15-C , 16-C ) :   0.9410
B( 15-C , 21-H ) :   0.9344 B( 15-C , 22-H ) :   0.9353 B( 16-C , 17-O ) :   0.8576
B( 16-C , 23-H ) :   0.9359 B( 16-C , 24-H ) :   0.9240

FINAL SINGLE POINT ENERGY      -538.421429870414

DIPOLE MOMENT
-------------
                                X             Y             Z
Electronic contribution:     -1.44327      -2.20354       1.69273
Nuclear contribution   :      1.64729       2.25379      -2.48876
                        -----------------------------------------
Total Dipole Moment    :      0.20402       0.05024      -0.79603
                        -----------------------------------------
Magnitude (a.u.)       :      0.82330
Magnitude (Debye)      :      2.09266

Rotational constants in cm-1:     0.072162     0.024043     0.022691
Rotational constants in MHz :  2163.373684   720.796291   680.266554

                             ****ORCA TERMINATED NORMALLY****
TOTAL RUN TIME: 0 days 0 hours 30 minutes 53 seconds 436 msec
