                         Program Version 4.2.0 -  RELEASE  -
|  1> # Test redundant internal optimization
|  2> #
|  3> ! RKS B3LYP  Opt TightSCF SmallPrint
|  4>
|  5> %basis
|  6>         Basis "6-31G"
|  7> end
|  8>
|  9> %geom
| 10> Constraints
| 11> { D 4  0  15  12  0.0   C } # D for Dihedral angle
| 12> { D 0  15  12  16  225.0   C } # D for Dihedral angle
| 13> { D 0  4  3  2   C } # D for Dihedral angle
| 14> { D 4  3  2  1   C } # D for Dihedral angle
| 15> { D 3  2  1  0   C } # D for Dihedral angle
| 16> { D 2  1  0  4   C } # D for Dihedral angle
| 17> { D 1  0  4  3   C } # D for Dihedral angle
| 18> { D 16  20  19  18   C } # D for Dihedral angle
| 19> { D 20  19  18  17   C } # D for Dihedral angle
| 20> { D 19  18  17  16   C } # D for Dihedral angle
| 21> { D 18  17  16  20   C } # D for Dihedral angle
| 22> { D 17  16  20  19   C } # D for Dihedral angle
| 23> { D 15  12  16  20   C } # D for Dihedral angle
| 24> end
| 25> end
| 26>
| 27>
| 28> #%pal
| 29> #nprocs 8
| 30> #end
| 31>
| 32> * xyz 0 1
| 33> C  -21.048   26.222   46.251
| 34> C  -20.361   27.558   45.944
| 35> C  -20.329   28.222   47.341
| 36> C  -20.110   27.022   48.296
| 37> O  -20.473   25.807   47.535
| 38> H  -20.833   25.428   45.533
| 39> H  -19.344   27.382   45.576
| 40> H  -20.898   28.157   45.201
| 41> H  -19.543   28.978   47.434
| 42> H  -21.289   28.710   47.548
| 43> H  -20.733   27.082   49.195
| 44> H  -19.064   26.913   48.597
| 45> C  -23.172   26.101   47.783
| 46> H  -22.422   25.572   48.385
| 47> H  -23.425   27.037   48.297
| 48> O  -22.586   26.394   46.375
| 49> C  -24.457   25.229   47.730
| 50> C  -25.072   25.057   49.123
| 51> C  -25.808   26.405   49.310
| 52> C  -26.304   26.736   47.880
| 53> O  -25.503   25.906   46.955
| 54> H  -24.233   24.293   47.215
| 55> H  -25.784   24.225   49.121
| 56> O  -24.013   24.791   50.228
| 57> H  -26.628   26.344   50.033
| 58> H  -25.107   27.171   49.663
| 59> H  -26.167   27.793   47.623
| 60> H  -27.353   26.467   47.730
| 61> H  -23.288   25.612   50.251
| 62> *
| 63>
| 64>                          ****END OF INPUT****
 Total Charge           Charge          ....    0
 Multiplicity           Mult            ....    1
 Number of Electrons    NEL             ....  102
FINAL SINGLE POINT ENERGY      -652.825264626003
FINAL SINGLE POINT ENERGY      -652.848362455950
FINAL SINGLE POINT ENERGY      -652.852975164696
FINAL SINGLE POINT ENERGY      -652.853619592839
FINAL SINGLE POINT ENERGY      -652.853731997474
FINAL SINGLE POINT ENERGY      -652.853755598373
FINAL SINGLE POINT ENERGY      -652.853757108751
                    ***********************HURRAY********************

CARTESIAN COORDINATES (ANGSTROEM)
---------------------------------
  C    -21.104728   26.216448   46.351145
  C    -20.475327   27.545707   45.932608
  C    -20.242108   28.229682   47.300051
  C    -19.883627   27.048544   48.228159
  O    -20.360379   25.823760   47.525240
  H    -20.990601   25.405758   45.628630
  H    -19.525293   27.352881   45.420410
  H    -21.131296   28.114659   45.270785
  H    -19.449149   28.983087   47.265635
  H    -21.162642   28.721819   47.631201
  H    -20.367455   27.102588   49.207692
  H    -18.805957   26.924903   48.366879
  C    -23.098101   26.162622   47.890201
  H    -22.381672   25.617359   48.513909
  H    -23.312325   27.139123   48.351070
  O    -22.539305   26.387741   46.568963
  C    -24.371992   25.330781   47.754246
  C    -25.082904   25.061785   49.091557
  C    -25.916126   26.366060   49.280734
  C    -26.314968   26.724589   47.831917
  O    -25.394336   25.980266   46.938071
  H    -24.115680   24.405858   47.229783
  H    -25.745812   24.200915   48.981644
  O    -24.222076   24.714810   50.203104
  H    -26.777434   26.215355   49.936748
  H    -25.282312   27.143554   49.727377
  H    -26.232437   27.795465   47.619174
  H    -27.330849   26.396690   47.590725
  H    -23.730108   25.501193   50.515342

 Multiplicity           Mult            ....    1
 Number of Electrons    NEL             ....  102
 Basis Dimension        Dim             ....  149

ORBITAL ENERGIES
----------------

  NO   OCC          E(Eh)            E(eV)
   0   2.0000     -19.152472      -521.1653
   1   2.0000     -19.147186      -521.0214
   2   2.0000     -19.133248      -520.6422
   3   2.0000     -19.131319      -520.5897
   4   2.0000     -10.277719      -279.6709
   5   2.0000     -10.241676      -278.6902
   6   2.0000     -10.235101      -278.5113
   7   2.0000     -10.226637      -278.2809
   8   2.0000     -10.224764      -278.2300
   9   2.0000     -10.224548      -278.2241
  10   2.0000     -10.192807      -277.3604
  11   2.0000     -10.192500      -277.3520
  12   2.0000     -10.184781      -277.1420
  13   2.0000      -1.054684       -28.6994
  14   2.0000      -1.030456       -28.0401
  15   2.0000      -1.011766       -27.5315
  16   2.0000      -0.989398       -26.9229
  17   2.0000      -0.791720       -21.5438
  18   2.0000      -0.779064       -21.1994
  19   2.0000      -0.766425       -20.8555
  20   2.0000      -0.733178       -19.9508
  21   2.0000      -0.676740       -18.4150
  22   2.0000      -0.608071       -16.5464
  23   2.0000      -0.605057       -16.4645
  24   2.0000      -0.594608       -16.1801
  25   2.0000      -0.566756       -15.4222
  26   2.0000      -0.526401       -14.3241
  27   2.0000      -0.507841       -13.8191
  28   2.0000      -0.499383       -13.5889
  29   2.0000      -0.497632       -13.5413
  30   2.0000      -0.469818       -12.7844
  31   2.0000      -0.458111       -12.4658
  32   2.0000      -0.445088       -12.1115
  33   2.0000      -0.427920       -11.6443
  34   2.0000      -0.422993       -11.5102
  35   2.0000      -0.414009       -11.2658
  36   2.0000      -0.413062       -11.2400
  37   2.0000      -0.396871       -10.7994
  38   2.0000      -0.375283       -10.2120
  39   2.0000      -0.371508       -10.1092
  40   2.0000      -0.361397        -9.8341
  41   2.0000      -0.351702        -9.5703
  42   2.0000      -0.348524        -9.4838
  43   2.0000      -0.337351        -9.1798
  44   2.0000      -0.325080        -8.8459
  45   2.0000      -0.311096        -8.4653
  46   2.0000      -0.300295        -8.1714
  47   2.0000      -0.268964        -7.3189
  48   2.0000      -0.265065        -7.2128
  49   2.0000      -0.251973        -6.8565
  50   2.0000      -0.231096        -6.2884
  51   0.0000       0.050096         1.3632
  52   0.0000       0.074206         2.0192
  53   0.0000       0.088562         2.4099
  54   0.0000       0.093490         2.5440
  55   0.0000       0.106437         2.8963

MULLIKEN ATOMIC CHARGES
-----------------------
   0 C :    0.295226
   1 C :   -0.254826
   2 C :   -0.310367
   3 C :   -0.015515
   4 O :   -0.510620
   5 H :    0.160056
   6 H :    0.143342
   7 H :    0.164920
   8 H :    0.148138
   9 H :    0.155133
  10 H :    0.136722
  11 H :    0.154099
  12 C :   -0.027263
  13 H :    0.167708
  14 H :    0.111230
  15 O :   -0.524647
  16 C :    0.100095
  17 C :    0.081184
  18 C :   -0.327420
  19 C :   -0.005946
  20 O :   -0.504860
  21 H :    0.159818
  22 H :    0.168315
  23 O :   -0.597628
  24 H :    0.158448
  25 H :    0.131494
  26 H :    0.143507
  27 H :    0.145913
  28 H :    0.353743
Sum of atomic charges:   -0.0000000

LOEWDIN ATOMIC CHARGES
----------------------
   0 C :    0.182587
   1 C :   -0.220561
   2 C :   -0.219983
   3 C :   -0.032603
   4 O :   -0.317514
   5 H :    0.107076
   6 H :    0.113134
   7 H :    0.127855
   8 H :    0.117666
   9 H :    0.114197
  10 H :    0.098851
  11 H :    0.108636
  12 C :   -0.056734
  13 H :    0.116496
  14 H :    0.084100
  15 O :   -0.329350
  16 C :    0.019236
  17 C :    0.033775
  18 C :   -0.243211
  19 C :   -0.029741
  20 O :   -0.313940
  21 H :    0.118698
  22 H :    0.119780
  23 O :   -0.406551
  24 H :    0.122311
  25 H :    0.102700
  26 H :    0.102307
  27 H :    0.104456
  28 H :    0.276329

  Mayer bond orders larger than 0.100000
B(  0-C ,  1-C ) :   0.9286 B(  0-C ,  4-O ) :   0.9057 B(  0-C ,  5-H ) :   0.9286
B(  0-C , 15-O ) :   0.8538 B(  1-C ,  2-C ) :   0.9526 B(  1-C ,  6-H ) :   0.9352
B(  1-C ,  7-H ) :   0.9353 B(  2-C ,  3-C ) :   0.9529 B(  2-C ,  8-H ) :   0.9448
B(  2-C ,  9-H ) :   0.9455 B(  3-C ,  4-O ) :   0.8310 B(  3-C , 10-H ) :   0.9346
B(  3-C , 11-H ) :   0.9403 B( 12-C , 13-H ) :   0.8888 B( 12-C , 14-H ) :   0.9233
B( 12-C , 15-O ) :   0.8437 B( 12-C , 16-C ) :   0.9053 B( 16-C , 17-C ) :   0.8705
B( 16-C , 20-O ) :   0.8691 B( 16-C , 21-H ) :   0.9303 B( 17-C , 18-C ) :   0.9224
B( 17-C , 22-H ) :   0.9335 B( 17-C , 23-O ) :   0.8980 B( 18-C , 19-C ) :   0.9393
B( 18-C , 24-H ) :   0.9414 B( 18-C , 25-H ) :   0.9414 B( 19-C , 20-O ) :   0.8515
B( 19-C , 26-H ) :   0.9317 B( 19-C , 27-H ) :   0.9379 B( 23-O , 28-H ) :   0.7989

FINAL SINGLE POINT ENERGY      -652.853756926672

DIPOLE MOMENT
-------------
                                X             Y             Z
Electronic contribution:     -1.21819      -4.98830      -1.84893
Nuclear contribution   :      1.58543       6.32829       2.58072
                        -----------------------------------------
Total Dipole Moment    :      0.36723       1.33999       0.73178
                        -----------------------------------------
Magnitude (a.u.)       :      1.57033
Magnitude (Debye)      :      3.99147

Rotational constants in cm-1:     0.050113     0.013833     0.012476
Rotational constants in MHz :  1502.349749   414.709442   374.016176

                             ****ORCA TERMINATED NORMALLY****
TOTAL RUN TIME: 0 days 0 hours 24 minutes 35 seconds 785 msec
