                         Program Version 4.2.0 -  RELEASE  -
|  1> # Test redundant internal optimization
|  2> #
|  3> ! RKS B3LYP  Opt TightSCF SmallPrint
|  4>
|  5> %basis
|  6>         Basis "6-31G"
|  7> end
|  8>
|  9> %geom
| 10> Constraints
| 11> { D 4  0  15  12  180.0   C } # D for Dihedral angle
| 12> { D 0  15  12  16  165.0   C } # D for Dihedral angle
| 13> { D 0  4  3  2   C } # D for Dihedral angle
| 14> { D 4  3  2  1   C } # D for Dihedral angle
| 15> { D 3  2  1  0   C } # D for Dihedral angle
| 16> { D 2  1  0  4   C } # D for Dihedral angle
| 17> { D 1  0  4  3   C } # D for Dihedral angle
| 18> { D 16  20  19  18   C } # D for Dihedral angle
| 19> { D 20  19  18  17   C } # D for Dihedral angle
| 20> { D 19  18  17  16   C } # D for Dihedral angle
| 21> { D 18  17  16  20   C } # D for Dihedral angle
| 22> { D 17  16  20  19   C } # D for Dihedral angle
| 23> { D 15  12  16  20   C } # D for Dihedral angle
| 24> end
| 25> end
| 26>
| 27>
| 28> #%pal
| 29> #nprocs 8
| 30> #end
| 31>
| 32> * xyz 0 1
| 33> C  -21.048   26.222   46.251
| 34> C  -20.361   27.558   45.944
| 35> C  -20.329   28.222   47.341
| 36> C  -20.110   27.022   48.296
| 37> O  -20.473   25.807   47.535
| 38> H  -20.833   25.428   45.533
| 39> H  -19.344   27.382   45.576
| 40> H  -20.898   28.157   45.201
| 41> H  -19.543   28.978   47.434
| 42> H  -21.289   28.710   47.548
| 43> H  -20.733   27.082   49.195
| 44> H  -19.064   26.913   48.597
| 45> C  -23.309   26.834   45.072
| 46> H  -23.107   27.896   44.887
| 47> H  -22.936   26.260   44.214
| 48> O  -22.586   26.394   46.375
| 49> C  -24.848   26.633   45.142
| 50> C  -25.205   25.183   45.488
| 51> C  -24.978   25.161   47.019
| 52> C  -25.418   26.579   47.460
| 53> O  -25.417   27.418   46.242
| 54> H  -25.299   27.002   44.219
| 55> O  -26.696   24.907   45.152
| 56> H  -24.590   24.449   44.957
| 57> H  -25.547   24.372   47.521
| 58> H  -23.916   25.000   47.239
| 59> H  -24.740   27.018   48.200
| 60> H  -26.436   26.595   47.861
| 61> H  -27.332   25.631   45.674
| 62> *
| 63>
| 64>                          ****END OF INPUT****
 Total Charge           Charge          ....    0
 Multiplicity           Mult            ....    1
 Number of Electrons    NEL             ....  102
FINAL SINGLE POINT ENERGY      -652.834529591515
FINAL SINGLE POINT ENERGY      -652.857316755264
FINAL SINGLE POINT ENERGY      -652.861515384336
FINAL SINGLE POINT ENERGY      -652.862553637346
FINAL SINGLE POINT ENERGY      -652.862680472218
FINAL SINGLE POINT ENERGY      -652.862699756373
                    ***********************HURRAY********************

CARTESIAN COORDINATES (ANGSTROEM)
---------------------------------
  C    -21.089079   26.249430   46.179168
  C    -20.355174   27.559122   45.898845
  C    -20.386583   28.248962   47.285186
  C    -20.254318   27.061939   48.260641
  O    -20.610739   25.852947   47.469777
  H    -20.880127   25.435156   45.476373
  H    -19.325883   27.330256   45.598798
  H    -20.810892   28.163472   45.110230
  H    -19.582404   28.980801   47.406301
  H    -21.343943   28.759987   47.424045
  H    -20.929527   27.127651   49.116940
  H    -19.230418   26.910943   48.614086
  C    -23.230220   26.836030   45.089866
  H    -23.050772   27.899671   44.889228
  H    -22.875968   26.253839   44.223170
  O    -22.532253   26.428639   46.297854
  C    -24.733713   26.625374   45.255689
  C    -25.204069   25.190898   45.537577
  C    -25.018674   25.092917   47.075958
  C    -25.366979   26.522013   47.559948
  O    -25.272344   27.403698   46.370606
  H    -25.217192   27.002896   44.346679
  O    -26.591460   25.020789   45.129665
  H    -24.650345   24.430364   44.986028
  H    -25.677927   24.328388   47.496692
  H    -23.979859   24.855063   47.305626
  H    -24.667714   26.883411   48.317914
  H    -26.390097   26.608581   47.941353
  H    -27.126324   25.749764   45.508755

 Multiplicity           Mult            ....    1
 Number of Electrons    NEL             ....  102
 Basis Dimension        Dim             ....  149

ORBITAL ENERGIES
----------------

  NO   OCC          E(Eh)            E(eV)
   0   2.0000     -19.147815      -521.0385
   1   2.0000     -19.146045      -520.9904
   2   2.0000     -19.135494      -520.7033
   3   2.0000     -19.131922      -520.6061
   4   2.0000     -10.285868      -279.8927
   5   2.0000     -10.236271      -278.5431
   6   2.0000     -10.233466      -278.4668
   7   2.0000     -10.233029      -278.4549
   8   2.0000     -10.229361      -278.3551
   9   2.0000     -10.219017      -278.0736
  10   2.0000     -10.192362      -277.3483
  11   2.0000     -10.190576      -277.2997
  12   2.0000     -10.170344      -276.7491
  13   2.0000      -1.060158       -28.8484
  14   2.0000      -1.030164       -28.0322
  15   2.0000      -1.003492       -27.3064
  16   2.0000      -0.995057       -27.0769
  17   2.0000      -0.791307       -21.5325
  18   2.0000      -0.776352       -21.1256
  19   2.0000      -0.761039       -20.7089
  20   2.0000      -0.734805       -19.9951
  21   2.0000      -0.675642       -18.3852
  22   2.0000      -0.605954       -16.4888
  23   2.0000      -0.598255       -16.2793
  24   2.0000      -0.592894       -16.1335
  25   2.0000      -0.573576       -15.6078
  26   2.0000      -0.528420       -14.3790
  27   2.0000      -0.503805       -13.7092
  28   2.0000      -0.502627       -13.6772
  29   2.0000      -0.486237       -13.2312
  30   2.0000      -0.475793       -12.9470
  31   2.0000      -0.456979       -12.4350
  32   2.0000      -0.450192       -12.2504
  33   2.0000      -0.439120       -11.9491
  34   2.0000      -0.422291       -11.4911
  35   2.0000      -0.410202       -11.1622
  36   2.0000      -0.404751       -11.0138
  37   2.0000      -0.383703       -10.4411
  38   2.0000      -0.380320       -10.3490
  39   2.0000      -0.365698        -9.9511
  40   2.0000      -0.360633        -9.8133
  41   2.0000      -0.355708        -9.6793
  42   2.0000      -0.354613        -9.6495
  43   2.0000      -0.327893        -8.9224
  44   2.0000      -0.315849        -8.5947
  45   2.0000      -0.308518        -8.3952
  46   2.0000      -0.299992        -8.1632
  47   2.0000      -0.265691        -7.2298
  48   2.0000      -0.263281        -7.1642
  49   2.0000      -0.259546        -7.0626
  50   2.0000      -0.239787        -6.5249
  51   0.0000       0.068979         1.8770
  52   0.0000       0.078296         2.1306
  53   0.0000       0.094248         2.5646
  54   0.0000       0.102319         2.7842
  55   0.0000       0.111250         3.0273

MULLIKEN ATOMIC CHARGES
-----------------------
   0 C :    0.308835
   1 C :   -0.282139
   2 C :   -0.299186
   3 C :   -0.002193
   4 O :   -0.505025
   5 H :    0.142426
   6 H :    0.149586
   7 H :    0.145771
   8 H :    0.144589
   9 H :    0.165932
  10 H :    0.154316
  11 H :    0.144235
  12 C :    0.002279
  13 H :    0.143521
  14 H :    0.119642
  15 O :   -0.517195
  16 C :    0.069712
  17 C :    0.077872
  18 C :   -0.286682
  19 C :   -0.018956
  20 O :   -0.530244
  21 H :    0.151314
  22 O :   -0.604052
  23 H :    0.147842
  24 H :    0.145606
  25 H :    0.184409
  26 H :    0.153423
  27 H :    0.132543
  28 H :    0.361821
Sum of atomic charges:   -0.0000000

LOEWDIN ATOMIC CHARGES
----------------------
   0 C :    0.180549
   1 C :   -0.231705
   2 C :   -0.216632
   3 C :   -0.024457
   4 O :   -0.304178
   5 H :    0.096990
   6 H :    0.116945
   7 H :    0.115059
   8 H :    0.115748
   9 H :    0.120532
  10 H :    0.109514
  11 H :    0.103826
  12 C :   -0.040999
  13 H :    0.100679
  14 H :    0.092190
  15 O :   -0.332713
  16 C :    0.016497
  17 C :    0.039487
  18 C :   -0.241735
  19 C :   -0.032425
  20 O :   -0.332033
  21 H :    0.114235
  22 O :   -0.417686
  23 H :    0.114418
  24 H :    0.117120
  25 H :    0.135795
  26 H :    0.108903
  27 H :    0.094710
  28 H :    0.281365

  Mayer bond orders larger than 0.100000
B(  0-C ,  1-C ) :   0.9282 B(  0-C ,  4-O ) :   0.9406 B(  0-C ,  5-H ) :   0.9198
B(  0-C , 15-O ) :   0.8248 B(  1-C ,  2-C ) :   0.9511 B(  1-C ,  6-H ) :   0.9340
B(  1-C ,  7-H ) :   0.9314 B(  2-C ,  3-C ) :   0.9561 B(  2-C ,  8-H ) :   0.9449
B(  2-C ,  9-H ) :   0.9433 B(  3-C ,  4-O ) :   0.8316 B(  3-C , 10-H ) :   0.9348
B(  3-C , 11-H ) :   0.9397 B( 12-C , 13-H ) :   0.9117 B( 12-C , 14-H ) :   0.9075
B( 12-C , 15-O ) :   0.8429 B( 12-C , 16-C ) :   0.9074 B( 16-C , 17-C ) :   0.9074
B( 16-C , 20-O ) :   0.8767 B( 16-C , 21-H ) :   0.9231 B( 17-C , 18-C ) :   0.9249
B( 17-C , 22-O ) :   0.8891 B( 17-C , 23-H ) :   0.9364 B( 18-C , 19-C ) :   0.9470
B( 18-C , 24-H ) :   0.9373 B( 18-C , 25-H ) :   0.9153 B( 19-C , 20-O ) :   0.8350
B( 19-C , 26-H ) :   0.9343 B( 19-C , 27-H ) :   0.9381 B( 22-O , 28-H ) :   0.7967

FINAL SINGLE POINT ENERGY      -652.862700311914

DIPOLE MOMENT
-------------
                                X             Y             Z
Electronic contribution:     -3.46329      -2.34760      -1.16740
Nuclear contribution   :      4.43651       3.11817       1.06649
                        -----------------------------------------
Total Dipole Moment    :      0.97321       0.77056      -0.10090
                        -----------------------------------------
Magnitude (a.u.)       :      1.24543
Magnitude (Debye)      :      3.16563

Rotational constants in cm-1:     0.057969     0.013772     0.013390
Rotational constants in MHz :  1737.872116   412.865487   401.423984

                             ****ORCA TERMINATED NORMALLY****
TOTAL RUN TIME: 0 days 0 hours 23 minutes 6 seconds 649 msec
