                         Program Version 4.2.0 -  RELEASE  -
|  1> # Test redundant internal optimization
|  2> #
|  3> ! RKS B3LYP  Opt TightSCF SmallPrint
|  4>
|  5> %basis
|  6>         Basis "6-31G"
|  7> end
|  8>
|  9> %geom
| 10> Constraints
| 11> { D 4  0  15  12  0.0   C } # D for Dihedral angle
| 12> { D 0  15  12  16  195.0   C } # D for Dihedral angle
| 13> { D 0  4  3  2   C } # D for Dihedral angle
| 14> { D 4  3  2  1   C } # D for Dihedral angle
| 15> { D 3  2  1  0   C } # D for Dihedral angle
| 16> { D 2  1  0  4   C } # D for Dihedral angle
| 17> { D 1  0  4  3   C } # D for Dihedral angle
| 18> { D 16  20  19  18   C } # D for Dihedral angle
| 19> { D 20  19  18  17   C } # D for Dihedral angle
| 20> { D 19  18  17  16   C } # D for Dihedral angle
| 21> { D 18  17  16  20   C } # D for Dihedral angle
| 22> { D 17  16  20  19   C } # D for Dihedral angle
| 23> { D 15  12  16  20   C } # D for Dihedral angle
| 24> end
| 25> end
| 26>
| 27>
| 28> #%pal
| 29> #nprocs 8
| 30> #end
| 31>
| 32> * xyz 0 1
| 33> C  -21.048   26.222   46.251
| 34> C  -20.361   27.558   45.944
| 35> C  -20.329   28.222   47.341
| 36> C  -20.110   27.022   48.296
| 37> O  -20.473   25.807   47.535
| 38> H  -20.833   25.428   45.533
| 39> H  -19.344   27.382   45.576
| 40> H  -20.898   28.157   45.201
| 41> H  -19.543   28.978   47.434
| 42> H  -21.289   28.710   47.548
| 43> H  -20.733   27.082   49.195
| 44> H  -19.064   26.913   48.597
| 45> C  -23.172   26.101   47.783
| 46> H  -22.724   25.180   48.177
| 47> H  -22.937   26.920   48.475
| 48> O  -22.586   26.394   46.375
| 49> C  -24.716   25.924   47.767
| 50> C  -25.409   27.141   47.142
| 51> C  -25.208   26.874   45.631
| 52> C  -25.305   25.332   45.530
| 53> O  -25.094   24.806   46.896
| 54> H  -25.058   25.676   48.773
| 55> O  -26.919   27.136   47.503
| 56> H  -24.979   28.095   47.466
| 57> H  -25.951   27.381   45.008
| 58> H  -24.216   27.220   45.317
| 59> H  -24.549   24.907   44.861
| 60> H  -26.294   24.996   45.205
| 61> H  -27.371   26.189   47.187
| 62> *
| 63>
| 64>                          ****END OF INPUT****
 Total Charge           Charge          ....    0
 Multiplicity           Mult            ....    1
 Number of Electrons    NEL             ....  102
FINAL SINGLE POINT ENERGY      -652.835258337305
FINAL SINGLE POINT ENERGY      -652.857066986182
FINAL SINGLE POINT ENERGY      -652.861313599139
FINAL SINGLE POINT ENERGY      -652.862265925495
FINAL SINGLE POINT ENERGY      -652.862376230118
FINAL SINGLE POINT ENERGY      -652.862391225401
                    ***********************HURRAY********************

CARTESIAN COORDINATES (ANGSTROEM)
---------------------------------
  C    -21.101371   26.189921   46.374248
  C    -20.463105   27.524810   45.989008
  C    -20.321126   28.217428   47.364992
  C    -20.006055   27.043510   48.318226
  O    -20.425975   25.811609   47.591383
  H    -20.939349   25.376266   45.664380
  H    -19.481115   27.338509   45.538901
  H    -21.077575   28.087350   45.282917
  H    -19.535975   28.979489   47.374549
  H    -21.264614   28.701641   47.638576
  H    -20.548274   27.093312   49.266253
  H    -18.937139   26.933553   48.520644
  C    -23.155029   26.104794   47.816207
  H    -22.745639   25.189977   48.255181
  H    -22.947899   26.940446   48.502330
  O    -22.549085   26.340573   46.513812
  C    -24.666434   25.948089   47.666185
  C    -25.435316   27.138183   47.073024
  C    -25.268940   26.895688   45.549241
  C    -25.297637   25.351448   45.438441
  O    -25.019193   24.826995   46.796006
  H    -25.063305   25.711556   48.661097
  O    -26.830106   27.103192   47.490369
  H    -25.063162   28.109502   47.400303
  H    -26.075009   27.379422   44.990259
  H    -24.304720   27.285752   45.222124
  H    -24.535356   24.970748   44.753825
  H    -26.276602   24.963026   45.138048
  H    -27.177895   26.196210   47.356473

 Multiplicity           Mult            ....    1
 Number of Electrons    NEL             ....  102
 Basis Dimension        Dim             ....  149

ORBITAL ENERGIES
----------------

  NO   OCC          E(Eh)            E(eV)
   0   2.0000     -19.154742      -521.2270
   1   2.0000     -19.142977      -520.9069
   2   2.0000     -19.133482      -520.6485
   3   2.0000     -19.131743      -520.6012
   4   2.0000     -10.283857      -279.8380
   5   2.0000     -10.236715      -278.5552
   6   2.0000     -10.233123      -278.4574
   7   2.0000     -10.230378      -278.3827
   8   2.0000     -10.229407      -278.3563
   9   2.0000     -10.218689      -278.0647
  10   2.0000     -10.196233      -277.4536
  11   2.0000     -10.190959      -277.3101
  12   2.0000     -10.172271      -276.8016
  13   2.0000      -1.059728       -28.8367
  14   2.0000      -1.029311       -28.0090
  15   2.0000      -1.001367       -27.2486
  16   2.0000      -0.992250       -27.0005
  17   2.0000      -0.796045       -21.6615
  18   2.0000      -0.776087       -21.1184
  19   2.0000      -0.761728       -20.7277
  20   2.0000      -0.735850       -20.0235
  21   2.0000      -0.671234       -18.2652
  22   2.0000      -0.609027       -16.5725
  23   2.0000      -0.599901       -16.3241
  24   2.0000      -0.593253       -16.1432
  25   2.0000      -0.568542       -15.4708
  26   2.0000      -0.524963       -14.2850
  27   2.0000      -0.512030       -13.9331
  28   2.0000      -0.498236       -13.5577
  29   2.0000      -0.488184       -13.2842
  30   2.0000      -0.470691       -12.8082
  31   2.0000      -0.457961       -12.4618
  32   2.0000      -0.447828       -12.1860
  33   2.0000      -0.437104       -11.8942
  34   2.0000      -0.421991       -11.4829
  35   2.0000      -0.408302       -11.1105
  36   2.0000      -0.403731       -10.9861
  37   2.0000      -0.383682       -10.4405
  38   2.0000      -0.376610       -10.2481
  39   2.0000      -0.369400       -10.0519
  40   2.0000      -0.365514        -9.9461
  41   2.0000      -0.358533        -9.7562
  42   2.0000      -0.349498        -9.5103
  43   2.0000      -0.338413        -9.2087
  44   2.0000      -0.322395        -8.7728
  45   2.0000      -0.309364        -8.4182
  46   2.0000      -0.297612        -8.0984
  47   2.0000      -0.269360        -7.3297
  48   2.0000      -0.263949        -7.1824
  49   2.0000      -0.251300        -6.8382
  50   2.0000      -0.238918        -6.5013
  51   0.0000       0.062897         1.7115
  52   0.0000       0.078414         2.1338
  53   0.0000       0.095091         2.5875
  54   0.0000       0.101194         2.7536
  55   0.0000       0.106297         2.8925

MULLIKEN ATOMIC CHARGES
-----------------------
   0 C :    0.305471
   1 C :   -0.255467
   2 C :   -0.310275
   3 C :   -0.016788
   4 O :   -0.509266
   5 H :    0.161011
   6 H :    0.146268
   7 H :    0.157189
   8 H :    0.150199
   9 H :    0.154365
  10 H :    0.147188
  11 H :    0.153228
  12 C :    0.013641
  13 H :    0.168338
  14 H :    0.116197
  15 O :   -0.550378
  16 C :    0.064058
  17 C :    0.081281
  18 C :   -0.284701
  19 C :   -0.014059
  20 O :   -0.526966
  21 H :    0.153324
  22 O :   -0.606443
  23 H :    0.143704
  24 H :    0.146175
  25 H :    0.169588
  26 H :    0.149327
  27 H :    0.131278
  28 H :    0.362514
Sum of atomic charges:   -0.0000000

LOEWDIN ATOMIC CHARGES
----------------------
   0 C :    0.183887
   1 C :   -0.220208
   2 C :   -0.219694
   3 C :   -0.032363
   4 O :   -0.315180
   5 H :    0.108068
   6 H :    0.114835
   7 H :    0.123481
   8 H :    0.118806
   9 H :    0.113700
  10 H :    0.103593
  11 H :    0.108563
  12 C :   -0.035152
  13 H :    0.116974
  14 H :    0.087579
  15 O :   -0.345519
  16 C :    0.015510
  17 C :    0.039544
  18 C :   -0.241712
  19 C :   -0.032065
  20 O :   -0.329245
  21 H :    0.114791
  22 O :   -0.419154
  23 H :    0.112394
  24 H :    0.117215
  25 H :    0.128046
  26 H :    0.107204
  27 H :    0.094430
  28 H :    0.281669

  Mayer bond orders larger than 0.100000
B(  0-C ,  1-C ) :   0.9325 B(  0-C ,  4-O ) :   0.9153 B(  0-C ,  5-H ) :   0.9295
B(  0-C , 15-O ) :   0.8307 B(  1-C ,  2-C ) :   0.9513 B(  1-C ,  6-H ) :   0.9347
B(  1-C ,  7-H ) :   0.9365 B(  2-C ,  3-C ) :   0.9531 B(  2-C ,  8-H ) :   0.9444
B(  2-C ,  9-H ) :   0.9451 B(  3-C ,  4-O ) :   0.8286 B(  3-C , 10-H ) :   0.9324
B(  3-C , 11-H ) :   0.9399 B( 12-C , 13-H ) :   0.9135 B( 12-C , 14-H ) :   0.9082
B( 12-C , 15-O ) :   0.8287 B( 12-C , 16-C ) :   0.9079 B( 16-C , 17-C ) :   0.9078
B( 16-C , 20-O ) :   0.8720 B( 16-C , 21-H ) :   0.9232 B( 17-C , 18-C ) :   0.9248
B( 17-C , 22-O ) :   0.8874 B( 17-C , 23-H ) :   0.9375 B( 18-C , 19-C ) :   0.9457
B( 18-C , 24-H ) :   0.9374 B( 18-C , 25-H ) :   0.9194 B( 19-C , 20-O ) :   0.8400
B( 19-C , 26-H ) :   0.9348 B( 19-C , 27-H ) :   0.9376 B( 22-O , 28-H ) :   0.7962

FINAL SINGLE POINT ENERGY      -652.862391445712

DIPOLE MOMENT
-------------
                                X             Y             Z
Electronic contribution:     -3.07376      -4.28827       1.00510
Nuclear contribution   :      4.07794       5.09507      -1.22665
                        -----------------------------------------
Total Dipole Moment    :      1.00418       0.80680      -0.22156
                        -----------------------------------------
Magnitude (a.u.)       :      1.30705
Magnitude (Debye)      :      3.32227

Rotational constants in cm-1:     0.056330     0.013755     0.013564
Rotational constants in MHz :  1688.740677   412.358310   406.639429

                             ****ORCA TERMINATED NORMALLY****
TOTAL RUN TIME: 0 days 1 hours 23 minutes 21 seconds 672 msec
