                         Program Version 4.2.0 -  RELEASE  -
|  1> # Test redundant internal optimization
|  2> #
|  3> ! RKS B3LYP  Opt TightSCF SmallPrint
|  4>
|  5> %basis
|  6>         Basis "6-31G"
|  7> end
|  8>
|  9> %geom
| 10> Constraints
| 11> { D 4  0  15  12  195.0   C } # D for Dihedral angle
| 12> { D 0  15  12  16  15.0   C } # D for Dihedral angle
| 13> { D 0  4  3  2   C } # D for Dihedral angle
| 14> { D 4  3  2  1   C } # D for Dihedral angle
| 15> { D 3  2  1  0   C } # D for Dihedral angle
| 16> { D 2  1  0  4   C } # D for Dihedral angle
| 17> { D 1  0  4  3   C } # D for Dihedral angle
| 18> { D 16  20  19  18   C } # D for Dihedral angle
| 19> { D 20  19  18  17   C } # D for Dihedral angle
| 20> { D 19  18  17  16   C } # D for Dihedral angle
| 21> { D 18  17  16  20   C } # D for Dihedral angle
| 22> { D 17  16  20  19   C } # D for Dihedral angle
| 23> { D 15  12  16  20   C } # D for Dihedral angle
| 24> end
| 25> end
| 26>
| 27>
| 28> #%pal
| 29> #nprocs 8
| 30> #end
| 31>
| 32> * xyz 0 1
| 33> C  -21.048   26.222   46.251
| 34> C  -20.361   27.558   45.944
| 35> C  -20.329   28.222   47.341
| 36> C  -20.110   27.022   48.296
| 37> O  -20.473   25.807   47.535
| 38> H  -20.833   25.428   45.533
| 39> H  -19.344   27.382   45.576
| 40> H  -20.898   28.157   45.201
| 41> H  -19.543   28.978   47.434
| 42> H  -21.289   28.710   47.548
| 43> H  -20.733   27.082   49.195
| 44> H  -19.064   26.913   48.597
| 45> C  -23.353   26.472   45.026
| 46> H  -24.249   25.842   45.082
| 47> H  -23.671   27.503   44.825
| 48> O  -22.586   26.394   46.375
| 49> C  -22.496   25.997   43.820
| 50> C  -22.148   24.509   43.937
| 51> C  -23.462   23.841   43.465
| 52> C  -23.973   24.809   42.368
| 53> O  -23.267   26.091   42.576
| 54> H  -21.633   26.656   43.713
| 55> O  -20.979   24.159   42.976
| 56> H  -21.861   24.212   44.951
| 57> H  -23.310   22.826   43.087
| 58> H  -24.175   23.787   44.295
| 59> H  -25.053   24.980   42.430
| 60> H  -23.727   24.465   41.360
| 61> H  -21.244   24.447   41.952
| 62> *
| 63>
| 64>                          ****END OF INPUT****
 Total Charge           Charge          ....    0
 Multiplicity           Mult            ....    1
 Number of Electrons    NEL             ....  102
FINAL SINGLE POINT ENERGY      -652.822364042562
FINAL SINGLE POINT ENERGY      -652.845562600990
FINAL SINGLE POINT ENERGY      -652.850257186426
FINAL SINGLE POINT ENERGY      -652.852240697984
FINAL SINGLE POINT ENERGY      -652.852453755922
FINAL SINGLE POINT ENERGY      -652.852494644656
FINAL SINGLE POINT ENERGY      -652.852497638138
                    ***********************HURRAY********************

CARTESIAN COORDINATES (ANGSTROEM)
---------------------------------
  C    -20.922663   26.221614   46.291208
  C    -20.183179   27.533197   46.030612
  C    -20.374953   28.283062   47.372884
  C    -20.329818   27.142374   48.410421
  O    -20.579266   25.892345   47.644872
  H    -20.609163   25.383238   45.669750
  H    -19.122471   27.323162   45.847038
  H    -20.578413   28.087407   45.174380
  H    -19.601820   29.037494   47.546146
  H    -21.351370   28.775451   47.384300
  H    -21.094533   27.233308   49.185948
  H    -19.347259   27.029631   48.878595
  C    -23.125661   26.443791   45.007143
  H    -24.033571   25.865630   45.206747
  H    -23.430186   27.479242   44.812794
  O    -22.366899   26.412594   46.258311
  C    -22.459679   25.930768   43.719049
  C    -22.096499   24.436497   43.692883
  C    -23.480573   23.777043   43.424802
  C    -24.172840   24.800135   42.488784
  O    -23.438341   26.078913   42.637633
  H    -21.595339   26.545431   43.449375
  O    -21.138514   24.160240   42.635058
  H    -21.635536   24.063231   44.604207
  H    -23.354869   22.794070   42.964806
  H    -24.028938   23.652102   44.363586
  H    -25.224760   24.965234   42.741319
  H    -24.108436   24.514712   41.434182
  H    -21.426453   24.609084   41.812166

 Multiplicity           Mult            ....    1
 Number of Electrons    NEL             ....  102
 Basis Dimension        Dim             ....  149

ORBITAL ENERGIES
----------------

  NO   OCC          E(Eh)            E(eV)
   0   2.0000     -19.153446      -521.1918
   1   2.0000     -19.145390      -520.9726
   2   2.0000     -19.138521      -520.7856
   3   2.0000     -19.137604      -520.7607
   4   2.0000     -10.279381      -279.7162
   5   2.0000     -10.247055      -278.8365
   6   2.0000     -10.244193      -278.7587
   7   2.0000     -10.238242      -278.5967
   8   2.0000     -10.232798      -278.4486
   9   2.0000     -10.223102      -278.1847
  10   2.0000     -10.194429      -277.4045
  11   2.0000     -10.185565      -277.1633
  12   2.0000     -10.184788      -277.1422
  13   2.0000      -1.050817       -28.5942
  14   2.0000      -1.044595       -28.4249
  15   2.0000      -1.014191       -27.5975
  16   2.0000      -0.989119       -26.9153
  17   2.0000      -0.786501       -21.4018
  18   2.0000      -0.783602       -21.3229
  19   2.0000      -0.771295       -20.9880
  20   2.0000      -0.736990       -20.0545
  21   2.0000      -0.679445       -18.4886
  22   2.0000      -0.611921       -16.6512
  23   2.0000      -0.607122       -16.5206
  24   2.0000      -0.598038       -16.2734
  25   2.0000      -0.575765       -15.6674
  26   2.0000      -0.530090       -14.4245
  27   2.0000      -0.515840       -14.0367
  28   2.0000      -0.502089       -13.6625
  29   2.0000      -0.483558       -13.1583
  30   2.0000      -0.477475       -12.9928
  31   2.0000      -0.462138       -12.5754
  32   2.0000      -0.449908       -12.2426
  33   2.0000      -0.438389       -11.9292
  34   2.0000      -0.426818       -11.6143
  35   2.0000      -0.420199       -11.4342
  36   2.0000      -0.402798       -10.9607
  37   2.0000      -0.399363       -10.8672
  38   2.0000      -0.376917       -10.2564
  39   2.0000      -0.375742       -10.2245
  40   2.0000      -0.365616        -9.9489
  41   2.0000      -0.357437        -9.7264
  42   2.0000      -0.353311        -9.6141
  43   2.0000      -0.337210        -9.1759
  44   2.0000      -0.316265        -8.6060
  45   2.0000      -0.312261        -8.4971
  46   2.0000      -0.306545        -8.3415
  47   2.0000      -0.277410        -7.5487
  48   2.0000      -0.257775        -7.0144
  49   2.0000      -0.254554        -6.9268
  50   2.0000      -0.244824        -6.6620
  51   0.0000       0.057559         1.5663
  52   0.0000       0.072206         1.9648
  53   0.0000       0.087083         2.3696
  54   0.0000       0.090909         2.4738
  55   0.0000       0.095630         2.6022

MULLIKEN ATOMIC CHARGES
-----------------------
   0 C :    0.288415
   1 C :   -0.270354
   2 C :   -0.296843
   3 C :   -0.001916
   4 O :   -0.502520
   5 H :    0.150377
   6 H :    0.147587
   7 H :    0.141844
   8 H :    0.141399
   9 H :    0.161002
  10 H :    0.154401
  11 H :    0.142078
  12 C :    0.011112
  13 H :    0.145824
  14 H :    0.150860
  15 O :   -0.527125
  16 C :    0.019326
  17 C :    0.084088
  18 C :   -0.304409
  19 C :   -0.034527
  20 O :   -0.524954
  21 H :    0.163687
  22 O :   -0.603402
  23 H :    0.173454
  24 H :    0.165795
  25 H :    0.157379
  26 H :    0.152872
  27 H :    0.149427
  28 H :    0.365123
Sum of atomic charges:   -0.0000000

LOEWDIN ATOMIC CHARGES
----------------------
   0 C :    0.177438
   1 C :   -0.230788
   2 C :   -0.216128
   3 C :   -0.025174
   4 O :   -0.303504
   5 H :    0.099249
   6 H :    0.115140
   7 H :    0.112577
   8 H :    0.114143
   9 H :    0.118507
  10 H :    0.109345
  11 H :    0.102378
  12 C :   -0.040988
  13 H :    0.108432
  14 H :    0.107443
  15 O :   -0.339877
  16 C :   -0.000048
  17 C :    0.032733
  18 C :   -0.240654
  19 C :   -0.039064
  20 O :   -0.324885
  21 H :    0.112667
  22 O :   -0.413679
  23 H :    0.121797
  24 H :    0.128667
  25 H :    0.119742
  26 H :    0.107020
  27 H :    0.103937
  28 H :    0.283573

  Mayer bond orders larger than 0.100000
B(  0-C ,  1-C ) :   0.9285 B(  0-C ,  4-O ) :   0.9356 B(  0-C ,  5-H ) :   0.9048
B(  0-C , 15-O ) :   0.8316 B(  1-C ,  2-C ) :   0.9517 B(  1-C ,  6-H ) :   0.9339
B(  1-C ,  7-H ) :   0.9361 B(  2-C ,  3-C ) :   0.9549 B(  2-C ,  8-H ) :   0.9448
B(  2-C ,  9-H ) :   0.9445 B(  3-C ,  4-O ) :   0.8345 B(  3-C , 10-H ) :   0.9348
B(  3-C , 11-H ) :   0.9397 B( 12-C , 13-H ) :   0.9310 B( 12-C , 14-H ) :   0.9182
B( 12-C , 15-O ) :   0.8408 B( 12-C , 16-C ) :   0.8898 B( 16-C , 17-C ) :   0.8995
B( 16-C , 20-O ) :   0.8312 B( 16-C , 21-H ) :   0.9207 B( 17-C , 18-C ) :   0.9094
B( 17-C , 22-O ) :   0.8899 B( 17-C , 23-H ) :   0.9196 B( 18-C , 19-C ) :   0.9407
B( 18-C , 24-H ) :   0.9368 B( 18-C , 25-H ) :   0.9326 B( 19-C , 20-O ) :   0.8369
B( 19-C , 26-H ) :   0.9344 B( 19-C , 27-H ) :   0.9376 B( 22-O , 28-H ) :   0.7947

FINAL SINGLE POINT ENERGY      -652.852499142575

DIPOLE MOMENT
-------------
                                X             Y             Z
Electronic contribution:     -0.09033      -2.02995      -1.02242
Nuclear contribution   :     -0.17608       2.46155       0.58289
                        -----------------------------------------
Total Dipole Moment    :     -0.26641       0.43160      -0.43953
                        -----------------------------------------
Magnitude (a.u.)       :      0.67115
Magnitude (Debye)      :      1.70592

Rotational constants in cm-1:     0.059745     0.013028     0.012541
Rotational constants in MHz :  1791.102268   390.584427   375.979764

                             ****ORCA TERMINATED NORMALLY****
TOTAL RUN TIME: 0 days 0 hours 21 minutes 40 seconds 718 msec
