                         Program Version 4.2.0 -  RELEASE  -
|  1> # Test redundant internal optimization
|  2> #
|  3> ! RKS B3LYP  Opt TightSCF SmallPrint
|  4>
|  5> %basis
|  6>         Basis "6-31G"
|  7> end
|  8>
|  9> %geom
| 10> Constraints
| 11> { D 4  0  15  12  15.0   C } # D for Dihedral angle
| 12> { D 0  15  12  16  105.0   C } # D for Dihedral angle
| 13> { D 0  4  3  2   C } # D for Dihedral angle
| 14> { D 4  3  2  1   C } # D for Dihedral angle
| 15> { D 3  2  1  0   C } # D for Dihedral angle
| 16> { D 2  1  0  4   C } # D for Dihedral angle
| 17> { D 1  0  4  3   C } # D for Dihedral angle
| 18> { D 16  20  19  18   C } # D for Dihedral angle
| 19> { D 20  19  18  17   C } # D for Dihedral angle
| 20> { D 19  18  17  16   C } # D for Dihedral angle
| 21> { D 18  17  16  20   C } # D for Dihedral angle
| 22> { D 17  16  20  19   C } # D for Dihedral angle
| 23> { D 15  12  16  20   C } # D for Dihedral angle
| 24> end
| 25> end
| 26>
| 27>
| 28> #%pal
| 29> #nprocs 8
| 30> #end
| 31>
| 32> * xyz 0 1
| 33> C  -21.048   26.222   46.251
| 34> C  -20.361   27.558   45.944
| 35> C  -20.329   28.222   47.341
| 36> C  -20.110   27.022   48.296
| 37> O  -20.473   25.807   47.535
| 38> H  -20.833   25.428   45.533
| 39> H  -19.344   27.382   45.576
| 40> H  -20.898   28.157   45.201
| 41> H  -19.543   28.978   47.434
| 42> H  -21.289   28.710   47.548
| 43> H  -20.733   27.082   49.195
| 44> H  -19.064   26.913   48.597
| 45> C  -23.128   26.462   47.829
| 46> H  -24.011   25.818   47.917
| 47> H  -22.370   26.104   48.538
| 48> O  -22.586   26.394   46.375
| 49> C  -23.529   27.902   48.254
| 50> C  -24.706   28.420   47.419
| 51> C  -25.906   27.720   48.100
| 52> C  -25.494   27.689   49.593
| 53> O  -24.033   27.908   49.631
| 54> H  -22.644   28.541   48.234
| 55> H  -24.787   29.509   47.519
| 56> O  -24.583   28.075   45.910
| 57> H  -26.852   28.245   47.938
| 58> H  -26.018   26.701   47.708
| 59> H  -25.726   26.733   50.073
| 60> H  -25.957   28.495   50.170
| 61> H  -24.501   26.990   45.786
| 62> *
| 63>
| 64>                          ****END OF INPUT****
 Total Charge           Charge          ....    0
 Multiplicity           Mult            ....    1
 Number of Electrons    NEL             ....  102
FINAL SINGLE POINT ENERGY      -652.821624312976
FINAL SINGLE POINT ENERGY      -652.846684092384
FINAL SINGLE POINT ENERGY      -652.856559754866
FINAL SINGLE POINT ENERGY      -652.859755511134
FINAL SINGLE POINT ENERGY      -652.861161240827
FINAL SINGLE POINT ENERGY      -652.861891617389
FINAL SINGLE POINT ENERGY      -652.862135231971
FINAL SINGLE POINT ENERGY      -652.862204012413
FINAL SINGLE POINT ENERGY      -652.862208230809
                    ***********************HURRAY********************

CARTESIAN COORDINATES (ANGSTROEM)
---------------------------------
  C    -21.134685   26.244468   46.402060
  C    -20.457056   27.530247   45.922965
  C    -20.157836   28.252392   47.262164
  C    -19.828932   27.086754   48.220564
  O    -20.381968   25.862173   47.564792
  H    -21.045159   25.419045   45.692658
  H    -19.530934   27.262477   45.403235
  H    -21.090421   28.113680   45.250319
  H    -19.323664   28.955706   47.176539
  H    -21.030788   28.817052   47.596250
  H    -20.282291   27.189838   49.210052
  H    -18.754963   26.915599   48.330481
  C    -23.174159   26.416491   47.960244
  H    -24.021557   25.724907   47.938959
  H    -22.455504   26.055190   48.699778
  O    -22.581336   26.356247   46.617266
  C    -23.635737   27.833732   48.314703
  C    -24.758441   28.382544   47.417306
  C    -26.011289   27.687170   48.021768
  C    -25.691544   27.628351   49.529414
  O    -24.214895   27.827626   49.657862
  H    -22.780891   28.512033   48.359046
  H    -24.836679   29.465225   47.564702
  O    -24.581104   28.166144   46.002746
  H    -26.927253   28.243016   47.804121
  H    -26.114890   26.689050   47.582149
  H    -25.957231   26.673347   49.992837
  H    -26.163975   28.438083   50.093232
  H    -23.930817   27.438415   45.856789

 Multiplicity           Mult            ....    1
 Number of Electrons    NEL             ....  102
 Basis Dimension        Dim             ....  149

ORBITAL ENERGIES
----------------

  NO   OCC          E(Eh)            E(eV)
   0   2.0000     -19.161303      -521.4056
   1   2.0000     -19.157814      -521.3106
   2   2.0000     -19.141337      -520.8623
   3   2.0000     -19.116620      -520.1897
   4   2.0000     -10.291459      -280.0448
   5   2.0000     -10.240449      -278.6568
   6   2.0000     -10.234120      -278.4846
   7   2.0000     -10.233558      -278.4693
   8   2.0000     -10.231861      -278.4231
   9   2.0000     -10.227423      -278.3023
  10   2.0000     -10.199144      -277.5328
  11   2.0000     -10.196004      -277.4474
  12   2.0000     -10.180118      -277.0151
  13   2.0000      -1.065063       -28.9818
  14   2.0000      -1.026049       -27.9202
  15   2.0000      -1.006139       -27.3784
  16   2.0000      -0.993374       -27.0311
  17   2.0000      -0.799041       -21.7430
  18   2.0000      -0.776581       -21.1318
  19   2.0000      -0.769464       -20.9382
  20   2.0000      -0.739090       -20.1117
  21   2.0000      -0.680579       -18.5195
  22   2.0000      -0.613332       -16.6896
  23   2.0000      -0.601415       -16.3653
  24   2.0000      -0.597128       -16.2487
  25   2.0000      -0.577503       -15.7147
  26   2.0000      -0.534013       -14.5312
  27   2.0000      -0.512327       -13.9411
  28   2.0000      -0.507708       -13.8154
  29   2.0000      -0.488731       -13.2991
  30   2.0000      -0.476422       -12.9641
  31   2.0000      -0.460844       -12.5402
  32   2.0000      -0.449210       -12.2236
  33   2.0000      -0.428631       -11.6636
  34   2.0000      -0.425595       -11.5810
  35   2.0000      -0.419357       -11.4113
  36   2.0000      -0.413674       -11.2567
  37   2.0000      -0.389115       -10.5884
  38   2.0000      -0.384972       -10.4756
  39   2.0000      -0.370141       -10.0721
  40   2.0000      -0.369195       -10.0463
  41   2.0000      -0.357137        -9.7182
  42   2.0000      -0.353434        -9.6174
  43   2.0000      -0.345396        -9.3987
  44   2.0000      -0.329251        -8.9594
  45   2.0000      -0.320618        -8.7245
  46   2.0000      -0.287960        -7.8358
  47   2.0000      -0.277909        -7.5623
  48   2.0000      -0.273742        -7.4489
  49   2.0000      -0.249069        -6.7775
  50   2.0000      -0.238862        -6.4998
  51   0.0000       0.059525         1.6197
  52   0.0000       0.068545         1.8652
  53   0.0000       0.084768         2.3066
  54   0.0000       0.093085         2.5330
  55   0.0000       0.099383         2.7043

MULLIKEN ATOMIC CHARGES
-----------------------
   0 C :    0.315716
   1 C :   -0.269887
   2 C :   -0.320247
   3 C :   -0.026035
   4 O :   -0.507376
   5 H :    0.167645
   6 H :    0.154743
   7 H :    0.165161
   8 H :    0.153522
   9 H :    0.162534
  10 H :    0.157230
  11 H :    0.158399
  12 C :   -0.040191
  13 H :    0.157353
  14 H :    0.181075
  15 O :   -0.568779
  16 C :    0.039836
  17 C :    0.115599
  18 C :   -0.299459
  19 C :   -0.021793
  20 O :   -0.521711
  21 H :    0.155343
  22 H :    0.148645
  23 O :   -0.639992
  24 H :    0.150318
  25 H :    0.146851
  26 H :    0.143401
  27 H :    0.150448
  28 H :    0.391651
Sum of atomic charges:   -0.0000000

LOEWDIN ATOMIC CHARGES
----------------------
   0 C :    0.185722
   1 C :   -0.223813
   2 C :   -0.222725
   3 C :   -0.033158
   4 O :   -0.311402
   5 H :    0.110709
   6 H :    0.120370
   7 H :    0.127403
   8 H :    0.120817
   9 H :    0.113303
  10 H :    0.108773
  11 H :    0.111068
  12 C :   -0.048506
  13 H :    0.111685
  14 H :    0.123980
  15 O :   -0.349418
  16 C :    0.003597
  17 C :    0.040223
  18 C :   -0.237142
  19 C :   -0.032057
  20 O :   -0.325475
  21 H :    0.106319
  22 H :    0.105882
  23 O :   -0.434438
  24 H :    0.121061
  25 H :    0.112141
  26 H :    0.102754
  27 H :    0.106269
  28 H :    0.286059

  Mayer bond orders larger than 0.100000
B(  0-C ,  1-C ) :   0.9248 B(  0-C ,  4-O ) :   0.9284 B(  0-C ,  5-H ) :   0.9327
B(  0-C , 15-O ) :   0.8110 B(  1-C ,  2-C ) :   0.9527 B(  1-C ,  6-H ) :   0.9333
B(  1-C ,  7-H ) :   0.9335 B(  2-C ,  3-C ) :   0.9518 B(  2-C ,  8-H ) :   0.9430
B(  2-C ,  9-H ) :   0.9270 B(  3-C ,  4-O ) :   0.8223 B(  3-C , 10-H ) :   0.9314
B(  3-C , 11-H ) :   0.9395 B( 12-C , 13-H ) :   0.9349 B( 12-C , 14-H ) :   0.9147
B( 12-C , 15-O ) :   0.7932 B( 12-C , 16-C ) :   0.8857 B( 16-C , 17-C ) :   0.9122
B( 16-C , 20-O ) :   0.8485 B( 16-C , 21-H ) :   0.9148 B( 17-C , 18-C ) :   0.9015
B( 17-C , 22-H ) :   0.9316 B( 17-C , 23-O ) :   0.9345 B( 18-C , 19-C ) :   0.9378
B( 18-C , 24-H ) :   0.9449 B( 18-C , 25-H ) :   0.9428 B( 19-C , 20-O ) :   0.8313
B( 19-C , 26-H ) :   0.9343 B( 19-C , 27-H ) :   0.9380 B( 23-O , 28-H ) :   0.7244

FINAL SINGLE POINT ENERGY      -652.862209419218

DIPOLE MOMENT
-------------
                                X             Y             Z
Electronic contribution:     -0.21439      -2.40137      -0.69930
Nuclear contribution   :      0.84545       2.60983       0.89504
                        -----------------------------------------
Total Dipole Moment    :      0.63106       0.20846       0.19573
                        -----------------------------------------
Magnitude (a.u.)       :      0.69282
Magnitude (Debye)      :      1.76101

Rotational constants in cm-1:     0.050060     0.016090     0.014570
Rotational constants in MHz :  1500.773521   482.363514   436.792186

                             ****ORCA TERMINATED NORMALLY****
TOTAL RUN TIME: 0 days 0 hours 52 minutes 8 seconds 418 msec
