                         Program Version 4.2.0 -  RELEASE  -
|  1> # Test redundant internal optimization
|  2> #
|  3> ! RKS B3LYP  Opt TightSCF SmallPrint
|  4>
|  5> %basis
|  6>         Basis "6-31G"
|  7> end
|  8>
|  9> %geom
| 10> Constraints
| 11> { D 4  0  15  12  15.0   C } # D for Dihedral angle
| 12> { D 0  15  12  16  195.0   C } # D for Dihedral angle
| 13> { D 0  4  3  2   C } # D for Dihedral angle
| 14> { D 4  3  2  1   C } # D for Dihedral angle
| 15> { D 3  2  1  0   C } # D for Dihedral angle
| 16> { D 2  1  0  4   C } # D for Dihedral angle
| 17> { D 1  0  4  3   C } # D for Dihedral angle
| 18> { D 16  20  19  18   C } # D for Dihedral angle
| 19> { D 20  19  18  17   C } # D for Dihedral angle
| 20> { D 19  18  17  16   C } # D for Dihedral angle
| 21> { D 18  17  16  20   C } # D for Dihedral angle
| 22> { D 17  16  20  19   C } # D for Dihedral angle
| 23> { D 15  12  16  20   C } # D for Dihedral angle
| 24> end
| 25> end
| 26>
| 27>
| 28> #%pal
| 29> #nprocs 8
| 30> #end
| 31>
| 32> * xyz 0 1
| 33> C  -21.048   26.222   46.251
| 34> C  -20.361   27.558   45.944
| 35> C  -20.329   28.222   47.341
| 36> C  -20.110   27.022   48.296
| 37> O  -20.473   25.807   47.535
| 38> H  -20.833   25.428   45.533
| 39> H  -19.344   27.382   45.576
| 40> H  -20.898   28.157   45.201
| 41> H  -19.543   28.978   47.434
| 42> H  -21.289   28.710   47.548
| 43> H  -20.733   27.082   49.195
| 44> H  -19.064   26.913   48.597
| 45> C  -23.128   26.462   47.829
| 46> H  -22.647   25.681   48.432
| 47> H  -22.895   27.435   48.280
| 48> O  -22.586   26.394   46.375
| 49> C  -24.667   26.261   47.907
| 50> C  -25.067   24.853   47.452
| 51> C  -24.739   24.012   48.708
| 52> C  -25.082   24.973   49.874
| 53> O  -25.123   26.334   49.299
| 54> H  -25.161   27.069   47.365
| 55> H  -26.141   24.820   47.234
| 56> O  -24.297   24.377   46.190
| 57> H  -25.308   23.079   48.755
| 58> H  -23.673   23.755   48.720
| 59> H  -24.336   24.945   50.675
| 60> H  -26.068   24.774   50.303
| 61> H  -23.219   24.402   46.385
| 62> *
| 63>
| 64>                          ****END OF INPUT****
 Total Charge           Charge          ....    0
 Multiplicity           Mult            ....    1
 Number of Electrons    NEL             ....  102
FINAL SINGLE POINT ENERGY      -652.826937211875
FINAL SINGLE POINT ENERGY      -652.851419238096
FINAL SINGLE POINT ENERGY      -652.858372189263
FINAL SINGLE POINT ENERGY      -652.860918102068
FINAL SINGLE POINT ENERGY      -652.862390646828
FINAL SINGLE POINT ENERGY      -652.863432083914
FINAL SINGLE POINT ENERGY      -652.863922239412
FINAL SINGLE POINT ENERGY      -652.864047619624
FINAL SINGLE POINT ENERGY      -652.864072725804
                    ***********************HURRAY********************

CARTESIAN COORDINATES (ANGSTROEM)
---------------------------------
  C    -21.085567   26.211850   46.413027
  C    -20.452943   27.526816   45.955823
  C    -20.256387   28.269771   47.299914
  C    -19.914663   27.129879   48.283938
  O    -20.370819   25.874523   47.615149
  H    -20.957062   25.379001   45.720331
  H    -19.489829   27.313217   45.478376
  H    -21.089008   28.066845   45.251317
  H    -19.462483   29.021290   47.251576
  H    -21.181134   28.779194   47.589242
  H    -20.421920   27.215031   49.248143
  H    -18.840122   27.015544   48.448785
  C    -23.086794   26.448263   47.953533
  H    -22.589341   25.724593   48.605793
  H    -22.924737   27.455158   48.352989
  O    -22.539226   26.336193   46.592949
  C    -24.594645   26.184276   47.873621
  C    -24.998049   24.773446   47.410742
  C    -24.784198   23.941735   48.708973
  C    -25.185253   24.926725   49.826038
  O    -25.148136   26.292919   49.222194
  H    -25.069901   26.963205   47.271089
  H    -26.066066   24.784854   47.162629
  O    -24.289041   24.259653   46.267727
  H    -25.387644   23.030367   48.710509
  H    -23.731592   23.646526   48.773312
  H    -24.509644   24.906180   50.686885
  H    -26.209049   24.772211   50.177970
  H    -23.526748   24.857738   46.081428

 Multiplicity           Mult            ....    1
 Number of Electrons    NEL             ....  102
 Basis Dimension        Dim             ....  149

ORBITAL ENERGIES
----------------

  NO   OCC          E(Eh)            E(eV)
   0   2.0000     -19.162807      -521.4465
   1   2.0000     -19.161438      -521.4092
   2   2.0000     -19.138867      -520.7950
   3   2.0000     -19.109733      -520.0023
   4   2.0000     -10.293555      -280.1019
   5   2.0000     -10.242409      -278.7101
   6   2.0000     -10.235047      -278.5098
   7   2.0000     -10.232274      -278.4343
   8   2.0000     -10.227353      -278.3004
   9   2.0000     -10.224363      -278.2191
  10   2.0000     -10.201218      -277.5892
  11   2.0000     -10.196609      -277.4638
  12   2.0000     -10.175753      -276.8963
  13   2.0000      -1.068692       -29.0806
  14   2.0000      -1.024484       -27.8776
  15   2.0000      -1.007277       -27.4094
  16   2.0000      -0.989682       -26.9306
  17   2.0000      -0.800925       -21.7943
  18   2.0000      -0.776004       -21.1161
  19   2.0000      -0.765959       -20.8428
  20   2.0000      -0.738205       -20.0876
  21   2.0000      -0.677623       -18.4391
  22   2.0000      -0.614361       -16.7176
  23   2.0000      -0.600885       -16.3509
  24   2.0000      -0.593295       -16.1444
  25   2.0000      -0.575650       -15.6642
  26   2.0000      -0.529946       -14.4206
  27   2.0000      -0.517363       -14.0782
  28   2.0000      -0.508527       -13.8377
  29   2.0000      -0.486762       -13.2455
  30   2.0000      -0.475365       -12.9353
  31   2.0000      -0.461774       -12.5655
  32   2.0000      -0.442757       -12.0480
  33   2.0000      -0.432119       -11.7585
  34   2.0000      -0.425619       -11.5817
  35   2.0000      -0.419874       -11.4254
  36   2.0000      -0.408292       -11.1102
  37   2.0000      -0.386907       -10.5283
  38   2.0000      -0.385943       -10.5020
  39   2.0000      -0.371405       -10.1064
  40   2.0000      -0.367557       -10.0017
  41   2.0000      -0.358765        -9.7625
  42   2.0000      -0.355013        -9.6604
  43   2.0000      -0.337055        -9.1717
  44   2.0000      -0.335963        -9.1420
  45   2.0000      -0.320180        -8.7125
  46   2.0000      -0.290942        -7.9169
  47   2.0000      -0.277651        -7.5553
  48   2.0000      -0.263915        -7.1815
  49   2.0000      -0.246457        -6.7064
  50   2.0000      -0.239751        -6.5239
  51   0.0000       0.058010         1.5785
  52   0.0000       0.071677         1.9504
  53   0.0000       0.088175         2.3994
  54   0.0000       0.098528         2.6811
  55   0.0000       0.100623         2.7381

MULLIKEN ATOMIC CHARGES
-----------------------
   0 C :    0.299567
   1 C :   -0.255097
   2 C :   -0.316392
   3 C :   -0.020513
   4 O :   -0.506696
   5 H :    0.167340
   6 H :    0.151597
   7 H :    0.163213
   8 H :    0.153478
   9 H :    0.159978
  10 H :    0.151850
  11 H :    0.157666
  12 C :   -0.015440
  13 H :    0.167706
  14 H :    0.145394
  15 O :   -0.570335
  16 C :    0.046698
  17 C :    0.118229
  18 C :   -0.301276
  19 C :   -0.020517
  20 O :   -0.523536
  21 H :    0.159900
  22 H :    0.145831
  23 O :   -0.639524
  24 H :    0.150626
  25 H :    0.149510
  26 H :    0.141487
  27 H :    0.147518
  28 H :    0.391737
Sum of atomic charges:   -0.0000000

LOEWDIN ATOMIC CHARGES
----------------------
   0 C :    0.181260
   1 C :   -0.220394
   2 C :   -0.220642
   3 C :   -0.032431
   4 O :   -0.312746
   5 H :    0.112247
   6 H :    0.117927
   7 H :    0.126742
   8 H :    0.120592
   9 H :    0.115443
  10 H :    0.106634
  11 H :    0.110983
  12 C :   -0.046928
  13 H :    0.111732
  14 H :    0.102044
  15 O :   -0.348801
  16 C :    0.019581
  17 C :    0.041737
  18 C :   -0.236692
  19 C :   -0.032654
  20 O :   -0.325516
  21 H :    0.114832
  22 H :    0.103824
  23 O :   -0.435548
  24 H :    0.121163
  25 H :    0.113555
  26 H :    0.101511
  27 H :    0.105424
  28 H :    0.285119

  Mayer bond orders larger than 0.100000
B(  0-C ,  1-C ) :   0.9301 B(  0-C ,  4-O ) :   0.9286 B(  0-C ,  5-H ) :   0.9314
B(  0-C , 15-O ) :   0.8072 B(  1-C ,  2-C ) :   0.9516 B(  1-C ,  6-H ) :   0.9342
B(  1-C ,  7-H ) :   0.9354 B(  2-C ,  3-C ) :   0.9526 B(  2-C ,  8-H ) :   0.9437
B(  2-C ,  9-H ) :   0.9420 B(  3-C ,  4-O ) :   0.8224 B(  3-C , 10-H ) :   0.9324
B(  3-C , 11-H ) :   0.9396 B( 12-C , 13-H ) :   0.9121 B( 12-C , 14-H ) :   0.9190
B( 12-C , 15-O ) :   0.7796 B( 12-C , 16-C ) :   0.9067 B( 16-C , 17-C ) :   0.9168
B( 16-C , 20-O ) :   0.8568 B( 16-C , 21-H ) :   0.9286 B( 17-C , 18-C ) :   0.9023
B( 17-C , 22-H ) :   0.9288 B( 17-C , 23-O ) :   0.9350 B( 18-C , 19-C ) :   0.9403
B( 18-C , 24-H ) :   0.9441 B( 18-C , 25-H ) :   0.9426 B( 19-C , 20-O ) :   0.8319
B( 19-C , 26-H ) :   0.9342 B( 19-C , 27-H ) :   0.9389 B( 23-O , 28-H ) :   0.7219

FINAL SINGLE POINT ENERGY      -652.864075632387

DIPOLE MOMENT
-------------
                                X             Y             Z
Electronic contribution:     -2.37975      -1.79511      -1.99986
Nuclear contribution   :      3.51048       2.72050       2.36685
                        -----------------------------------------
Total Dipole Moment    :      1.13073       0.92539       0.36698
                        -----------------------------------------
Magnitude (a.u.)       :      1.50651
Magnitude (Debye)      :      3.82924

Rotational constants in cm-1:     0.051352     0.014820     0.013537
Rotational constants in MHz :  1539.507594   444.300895   405.824673

                             ****ORCA TERMINATED NORMALLY****
TOTAL RUN TIME: 0 days 0 hours 44 minutes 10 seconds 123 msec
