                         Program Version 4.2.0 -  RELEASE  -
|  1> # Test redundant internal optimization
|  2> #
|  3> ! RKS B3LYP  Opt TightSCF SmallPrint
|  4>
|  5> %basis
|  6>         Basis "6-31G"
|  7> end
|  8>
|  9> %geom
| 10> Constraints
| 11> { D 4  0  15  12  75.0   C } # D for Dihedral angle
| 12> { D 0  15  12  16  180.0   C } # D for Dihedral angle
| 13> { D 0  4  3  2   C } # D for Dihedral angle
| 14> { D 4  3  2  1   C } # D for Dihedral angle
| 15> { D 3  2  1  0   C } # D for Dihedral angle
| 16> { D 2  1  0  4   C } # D for Dihedral angle
| 17> { D 1  0  4  3   C } # D for Dihedral angle
| 18> { D 16  20  19  18   C } # D for Dihedral angle
| 19> { D 20  19  18  17   C } # D for Dihedral angle
| 20> { D 19  18  17  16   C } # D for Dihedral angle
| 21> { D 18  17  16  20   C } # D for Dihedral angle
| 22> { D 17  16  20  19   C } # D for Dihedral angle
| 23> { D 15  12  16  20   C } # D for Dihedral angle
| 24> end
| 25> end
| 26>
| 27>
| 28> #%pal
| 29> #nprocs 8
| 30> #end
| 31>
| 32> * xyz 0 1
| 33> C  -21.048   26.222   46.251
| 34> C  -20.361   27.558   45.944
| 35> C  -20.329   28.222   47.341
| 36> C  -20.110   27.022   48.296
| 37> O  -20.473   25.807   47.535
| 38> H  -20.833   25.428   45.533
| 39> H  -19.344   27.382   45.576
| 40> H  -20.898   28.157   45.201
| 41> H  -19.543   28.978   47.434
| 42> H  -21.289   28.710   47.548
| 43> H  -20.733   27.082   49.195
| 44> H  -19.064   26.913   48.597
| 45> C  -23.049   27.675   47.122
| 46> H  -22.643   27.666   48.141
| 47> H  -22.677   28.573   46.612
| 48> O  -22.586   26.394   46.375
| 49> C  -24.596   27.790   47.213
| 50> C  -25.243   27.718   45.825
| 51> C  -25.219   26.196   45.548
| 52> C  -25.457   25.579   46.949
| 53> O  -25.154   26.641   47.933
| 54> H  -24.855   28.683   47.786
| 55> H  -26.274   28.086   45.872
| 56> O  -24.477   28.538   44.751
| 57> H  -25.976   25.884   44.821
| 58> H  -24.238   25.900   45.157
| 59> H  -24.811   24.715   47.142
| 60> H  -26.499   25.283   47.104
| 61> H  -23.442   28.185   44.688
| 62> *
| 63>
| 64>                          ****END OF INPUT****
 Total Charge           Charge          ....    0
 Multiplicity           Mult            ....    1
 Number of Electrons    NEL             ....  102
FINAL SINGLE POINT ENERGY      -652.812818994599
FINAL SINGLE POINT ENERGY      -652.840682301750
FINAL SINGLE POINT ENERGY      -652.854640903198
FINAL SINGLE POINT ENERGY      -652.857454650416
FINAL SINGLE POINT ENERGY      -652.857902726024
FINAL SINGLE POINT ENERGY      -652.857970603285
FINAL SINGLE POINT ENERGY      -652.857977579681
                    ***********************HURRAY********************

CARTESIAN COORDINATES (ANGSTROEM)
---------------------------------
  C    -21.165406   26.358392   46.443887
  C    -20.307515   27.547015   45.986963
  C    -20.005823   28.269187   47.333484
  C    -19.880582   27.084887   48.325910
  O    -20.528430   25.925365   47.664869
  H    -21.114537   25.503578   45.767926
  H    -19.386340   27.160605   45.539860
  H    -20.809345   28.185882   45.254084
  H    -19.083959   28.857285   47.287213
  H    -20.816268   28.945950   47.612204
  H    -20.375550   27.269170   49.283807
  H    -18.839755   26.803724   48.510131
  C    -23.141665   27.730930   47.228157
  H    -22.819388   27.738242   48.275805
  H    -22.816603   28.658672   46.739296
  O    -22.592095   26.561831   46.551450
  C    -24.667484   27.687819   47.191362
  C    -25.294048   27.677957   45.786169
  C    -25.273837   26.157913   45.435549
  C    -25.537680   25.493991   46.803957
  O    -25.241862   26.519588   47.837914
  H    -25.012035   28.556381   47.766751
  H    -26.315351   28.061708   45.832242
  O    -24.614379   28.524432   44.824538
  H    -26.029096   25.899719   44.687404
  H    -24.283000   25.892022   45.061488
  H    -24.895617   24.627953   46.981188
  H    -26.584916   25.205843   46.936406
  H    -23.788432   28.080957   44.539983

 Multiplicity           Mult            ....    1
 Number of Electrons    NEL             ....  102
 Basis Dimension        Dim             ....  149

ORBITAL ENERGIES
----------------

  NO   OCC          E(Eh)            E(eV)
   0   2.0000     -19.153444      -521.1917
   1   2.0000     -19.145757      -520.9825
   2   2.0000     -19.141224      -520.8592
   3   2.0000     -19.130956      -520.5798
   4   2.0000     -10.285589      -279.8851
   5   2.0000     -10.235962      -278.5347
   6   2.0000     -10.233174      -278.4588
   7   2.0000     -10.233109      -278.4570
   8   2.0000     -10.230234      -278.3788
   9   2.0000     -10.217881      -278.0427
  10   2.0000     -10.199078      -277.5310
  11   2.0000     -10.197955      -277.5005
  12   2.0000     -10.177600      -276.9466
  13   2.0000      -1.058361       -28.7995
  14   2.0000      -1.026871       -27.9426
  15   2.0000      -1.009499       -27.4699
  16   2.0000      -1.000138       -27.2151
  17   2.0000      -0.794412       -21.6170
  18   2.0000      -0.777139       -21.1470
  19   2.0000      -0.765674       -20.8351
  20   2.0000      -0.735851       -20.0235
  21   2.0000      -0.681583       -18.5468
  22   2.0000      -0.610091       -16.6014
  23   2.0000      -0.603668       -16.4266
  24   2.0000      -0.600421       -16.3383
  25   2.0000      -0.563399       -15.3309
  26   2.0000      -0.525657       -14.3038
  27   2.0000      -0.513844       -13.9824
  28   2.0000      -0.504982       -13.7413
  29   2.0000      -0.488474       -13.2920
  30   2.0000      -0.474742       -12.9184
  31   2.0000      -0.458098       -12.4655
  32   2.0000      -0.441048       -12.0015
  33   2.0000      -0.433933       -11.8079
  34   2.0000      -0.425101       -11.5676
  35   2.0000      -0.418370       -11.3844
  36   2.0000      -0.404775       -11.0145
  37   2.0000      -0.398511       -10.8440
  38   2.0000      -0.387899       -10.5553
  39   2.0000      -0.371354       -10.1051
  40   2.0000      -0.366838        -9.9822
  41   2.0000      -0.360085        -9.7984
  42   2.0000      -0.346072        -9.4171
  43   2.0000      -0.324736        -8.8365
  44   2.0000      -0.319657        -8.6983
  45   2.0000      -0.309855        -8.4316
  46   2.0000      -0.305500        -8.3131
  47   2.0000      -0.274215        -7.4618
  48   2.0000      -0.261855        -7.1254
  49   2.0000      -0.258872        -7.0443
  50   2.0000      -0.236971        -6.4483
  51   0.0000       0.053224         1.4483
  52   0.0000       0.078010         2.1227
  53   0.0000       0.090311         2.4575
  54   0.0000       0.094892         2.5821
  55   0.0000       0.099209         2.6996

MULLIKEN ATOMIC CHARGES
-----------------------
   0 C :    0.306081
   1 C :   -0.285968
   2 C :   -0.314117
   3 C :   -0.011852
   4 O :   -0.498785
   5 H :    0.162710
   6 H :    0.159615
   7 H :    0.143007
   8 H :    0.148495
   9 H :    0.151807
  10 H :    0.150436
  11 H :    0.149002
  12 C :   -0.017678
  13 H :    0.153878
  14 H :    0.134334
  15 O :   -0.531166
  16 C :    0.090091
  17 C :    0.082164
  18 C :   -0.310350
  19 C :    0.001852
  20 O :   -0.518786
  21 H :    0.147093
  22 H :    0.161232
  23 O :   -0.608093
  24 H :    0.142957
  25 H :    0.161862
  26 H :    0.154394
  27 H :    0.137033
  28 H :    0.358754
Sum of atomic charges:   -0.0000000

LOEWDIN ATOMIC CHARGES
----------------------
   0 C :    0.172941
   1 C :   -0.230391
   2 C :   -0.224220
   3 C :   -0.032572
   4 O :   -0.316550
   5 H :    0.111618
   6 H :    0.124233
   7 H :    0.114352
   8 H :    0.117349
   9 H :    0.111577
  10 H :    0.105225
  11 H :    0.105538
  12 C :   -0.050194
  13 H :    0.108218
  14 H :    0.096634
  15 O :   -0.323888
  16 C :    0.020659
  17 C :    0.036934
  18 C :   -0.241910
  19 C :   -0.022398
  20 O :   -0.320363
  21 H :    0.113244
  22 H :    0.115816
  23 O :   -0.413528
  24 H :    0.114025
  25 H :    0.120471
  26 H :    0.109498
  27 H :    0.099429
  28 H :    0.278255

  Mayer bond orders larger than 0.100000
B(  0-C ,  1-C ) :   0.9210 B(  0-C ,  4-O ) :   0.9130 B(  0-C ,  5-H ) :   0.9369
B(  0-C , 15-O ) :   0.8867 B(  1-C ,  2-C ) :   0.9543 B(  1-C ,  6-H ) :   0.9348
B(  1-C ,  7-H ) :   0.9359 B(  2-C ,  3-C ) :   0.9479 B(  2-C ,  8-H ) :   0.9452
B(  2-C ,  9-H ) :   0.9389 B(  3-C ,  4-O ) :   0.8433 B(  3-C , 10-H ) :   0.9325
B(  3-C , 11-H ) :   0.9385 B( 12-C , 13-H ) :   0.9170 B( 12-C , 14-H ) :   0.8958
B( 12-C , 15-O ) :   0.8301 B( 12-C , 16-C ) :   0.9115 B( 16-C , 17-C ) :   0.8842
B( 16-C , 20-O ) :   0.8889 B( 16-C , 21-H ) :   0.9294 B( 17-C , 18-C ) :   0.9357
B( 17-C , 22-H ) :   0.9361 B( 17-C , 23-O ) :   0.8958 B( 18-C , 19-C ) :   0.9455
B( 18-C , 24-H ) :   0.9412 B( 18-C , 25-H ) :   0.9266 B( 19-C , 20-O ) :   0.8356
B( 19-C , 26-H ) :   0.9318 B( 19-C , 27-H ) :   0.9383 B( 23-O , 28-H ) :   0.7944

FINAL SINGLE POINT ENERGY      -652.857976213918

DIPOLE MOMENT
-------------
                                X             Y             Z
Electronic contribution:     -2.93000      -2.06590       0.80112
Nuclear contribution   :      3.88988       2.58042      -1.29013
                        -----------------------------------------
Total Dipole Moment    :      0.95989       0.51452      -0.48901
                        -----------------------------------------
Magnitude (a.u.)       :      1.19383
Magnitude (Debye)      :      3.03448

Rotational constants in cm-1:     0.049623     0.015679     0.014303
Rotational constants in MHz :  1487.654916   470.043066   428.805866

                             ****ORCA TERMINATED NORMALLY****
TOTAL RUN TIME: 0 days 0 hours 37 minutes 30 seconds 274 msec
