                         Program Version 4.2.0 -  RELEASE  -
|  1> # Test redundant internal optimization
|  2> #
|  3> ! RKS B3LYP  Opt TightSCF SmallPrint
|  4>
|  5> %basis
|  6>         Basis "6-31G"
|  7> end
|  8>
|  9> %geom
| 10> Constraints
| 11> { D 4  0  15  12  285.0   C } # D for Dihedral angle
| 12> { D 0  15  12  16  150.0   C } # D for Dihedral angle
| 13> { D 0  4  3  2   C } # D for Dihedral angle
| 14> { D 4  3  2  1   C } # D for Dihedral angle
| 15> { D 3  2  1  0   C } # D for Dihedral angle
| 16> { D 2  1  0  4   C } # D for Dihedral angle
| 17> { D 1  0  4  3   C } # D for Dihedral angle
| 18> { D 16  20  19  18   C } # D for Dihedral angle
| 19> { D 20  19  18  17   C } # D for Dihedral angle
| 20> { D 19  18  17  16   C } # D for Dihedral angle
| 21> { D 18  17  16  20   C } # D for Dihedral angle
| 22> { D 17  16  20  19   C } # D for Dihedral angle
| 23> { D 15  12  16  20   C } # D for Dihedral angle
| 24> end
| 25> end
| 26>
| 27>
| 28> #%pal
| 29> #nprocs 8
| 30> #end
| 31>
| 32> * xyz 0 1
| 33> C  -21.048   26.222   46.251
| 34> C  -20.361   27.558   45.944
| 35> C  -20.329   28.222   47.341
| 36> C  -20.110   27.022   48.296
| 37> O  -20.473   25.807   47.535
| 38> H  -20.833   25.428   45.533
| 39> H  -19.344   27.382   45.576
| 40> H  -20.898   28.157   45.201
| 41> H  -19.543   28.978   47.434
| 42> H  -21.289   28.710   47.548
| 43> H  -20.733   27.082   49.195
| 44> H  -19.064   26.913   48.597
| 45> C  -23.396   25.070   46.435
| 46> H  -23.660   24.760   45.416
| 47> H  -22.795   24.273   46.891
| 48> O  -22.586   26.394   46.375
| 49> C  -24.706   25.204   47.260
| 50> C  -25.684   26.180   46.596
| 51> C  -26.295   25.301   45.479
| 52> C  -26.354   23.896   46.130
| 53> O  -25.430   23.929   47.284
| 54> H  -24.455   25.449   48.293
| 55> H  -26.455   26.486   47.312
| 56> O  -24.992   27.458   46.046
| 57> H  -27.279   25.652   45.153
| 58> H  -25.635   25.294   44.603
| 59> H  -26.042   23.102   45.443
| 60> H  -27.347   23.658   46.519
| 61> H  -24.216   27.176   45.327
| 62> *
| 63>
| 64>                          ****END OF INPUT****
 Total Charge           Charge          ....    0
 Multiplicity           Mult            ....    1
 Number of Electrons    NEL             ....  102
FINAL SINGLE POINT ENERGY      -652.835634464571
FINAL SINGLE POINT ENERGY      -652.860684541897
FINAL SINGLE POINT ENERGY      -652.867018137083
FINAL SINGLE POINT ENERGY      -652.869302534268
FINAL SINGLE POINT ENERGY      -652.870561278348
FINAL SINGLE POINT ENERGY      -652.871226863780
FINAL SINGLE POINT ENERGY      -652.871439357034
FINAL SINGLE POINT ENERGY      -652.871482006435
FINAL SINGLE POINT ENERGY      -652.871484779083
                    ***********************HURRAY********************

CARTESIAN COORDINATES (ANGSTROEM)
---------------------------------
  C    -21.076655   26.117154   46.223573
  C    -20.510286   27.504500   45.925606
  C    -20.569318   28.176420   47.316518
  C    -20.263808   27.011432   48.282071
  O    -20.505119   25.767337   47.500220
  H    -20.805769   25.320023   45.526241
  H    -19.475300   27.400607   45.581321
  H    -21.084126   28.035112   45.162798
  H    -19.852336   28.996780   47.415755
  H    -21.573084   28.573506   47.493710
  H    -20.908036   27.001263   49.164327
  H    -19.217094   26.979302   48.596885
  C    -23.271650   24.980316   46.384273
  H    -23.489950   24.624536   45.369762
  H    -22.678467   24.227408   46.911918
  O    -22.519375   26.240220   46.301734
  C    -24.552077   25.252489   47.179425
  C    -25.523110   26.252820   46.529113
  C    -26.229106   25.362041   45.465491
  C    -26.314374   23.988153   46.161332
  O    -25.324282   24.016323   47.279298
  H    -24.279802   25.543333   48.197356
  H    -26.255468   26.566137   47.281676
  O    -24.932453   27.450208   45.985700
  H    -27.208579   25.759375   45.188141
  H    -25.611455   25.330498   44.561412
  H    -26.072061   23.150269   45.500254
  H    -27.291838   23.806120   46.617058
  H    -23.957021   27.329316   45.910035

 Multiplicity           Mult            ....    1
 Number of Electrons    NEL             ....  102
 Basis Dimension        Dim             ....  149

ORBITAL ENERGIES
----------------

  NO   OCC          E(Eh)            E(eV)
   0   2.0000     -19.164701      -521.4980
   1   2.0000     -19.150059      -521.0996
   2   2.0000     -19.138561      -520.7867
   3   2.0000     -19.113650      -520.1088
   4   2.0000     -10.291771      -280.0533
   5   2.0000     -10.235274      -278.5160
   6   2.0000     -10.232462      -278.4394
   7   2.0000     -10.232325      -278.4357
   8   2.0000     -10.229518      -278.3593
   9   2.0000     -10.225429      -278.2481
  10   2.0000     -10.194804      -277.4147
  11   2.0000     -10.192265      -277.3456
  12   2.0000     -10.178114      -276.9606
  13   2.0000      -1.067175       -29.0393
  14   2.0000      -1.024278       -27.8720
  15   2.0000      -1.006859       -27.3980
  16   2.0000      -0.992195       -26.9990
  17   2.0000      -0.797440       -21.6994
  18   2.0000      -0.772044       -21.0084
  19   2.0000      -0.766813       -20.8660
  20   2.0000      -0.735060       -20.0020
  21   2.0000      -0.677557       -18.4373
  22   2.0000      -0.607077       -16.5194
  23   2.0000      -0.600358       -16.3366
  24   2.0000      -0.592900       -16.1336
  25   2.0000      -0.581231       -15.8161
  26   2.0000      -0.529351       -14.4044
  27   2.0000      -0.520768       -14.1708
  28   2.0000      -0.500680       -13.6242
  29   2.0000      -0.485012       -13.1979
  30   2.0000      -0.473680       -12.8895
  31   2.0000      -0.461433       -12.5562
  32   2.0000      -0.440585       -11.9889
  33   2.0000      -0.431238       -11.7346
  34   2.0000      -0.424296       -11.5457
  35   2.0000      -0.421846       -11.4790
  36   2.0000      -0.407900       -11.0995
  37   2.0000      -0.387466       -10.5435
  38   2.0000      -0.381848       -10.3906
  39   2.0000      -0.367548       -10.0015
  40   2.0000      -0.364498        -9.9185
  41   2.0000      -0.356560        -9.7025
  42   2.0000      -0.349908        -9.5215
  43   2.0000      -0.345044        -9.3891
  44   2.0000      -0.326243        -8.8775
  45   2.0000      -0.313288        -8.5250
  46   2.0000      -0.290317        -7.8999
  47   2.0000      -0.281903        -7.6710
  48   2.0000      -0.262726        -7.1491
  49   2.0000      -0.249506        -6.7894
  50   2.0000      -0.241098        -6.5606
  51   0.0000       0.057821         1.5734
  52   0.0000       0.084255         2.2927
  53   0.0000       0.092564         2.5188
  54   0.0000       0.097400         2.6504
  55   0.0000       0.107257         2.9186

MULLIKEN ATOMIC CHARGES
-----------------------
   0 C :    0.294651
   1 C :   -0.266590
   2 C :   -0.302098
   3 C :   -0.005762
   4 O :   -0.506961
   5 H :    0.152105
   6 H :    0.152094
   7 H :    0.157372
   8 H :    0.146724
   9 H :    0.167468
  10 H :    0.153639
  11 H :    0.147791
  12 C :   -0.020013
  13 H :    0.139769
  14 H :    0.178847
  15 O :   -0.562061
  16 C :    0.055657
  17 C :    0.117961
  18 C :   -0.304762
  19 C :   -0.016023
  20 O :   -0.522697
  21 H :    0.159367
  22 H :    0.147537
  23 O :   -0.640911
  24 H :    0.150340
  25 H :    0.145740
  26 H :    0.140982
  27 H :    0.147544
  28 H :    0.392288
Sum of atomic charges:    0.0000000

LOEWDIN ATOMIC CHARGES
----------------------
   0 C :    0.176075
   1 C :   -0.215467
   2 C :   -0.216120
   3 C :   -0.026765
   4 O :   -0.323586
   5 H :    0.102795
   6 H :    0.117922
   7 H :    0.123606
   8 H :    0.116708
   9 H :    0.120980
  10 H :    0.108920
  11 H :    0.105775
  12 C :   -0.046553
  13 H :    0.098752
  14 H :    0.122972
  15 O :   -0.341619
  16 C :    0.018815
  17 C :    0.041132
  18 C :   -0.237691
  19 C :   -0.031401
  20 O :   -0.324150
  21 H :    0.116268
  22 H :    0.105236
  23 O :   -0.435758
  24 H :    0.120973
  25 H :    0.110925
  26 H :    0.101312
  27 H :    0.105394
  28 H :    0.284548

  Mayer bond orders larger than 0.100000
B(  0-C ,  1-C ) :   0.9506 B(  0-C ,  4-O ) :   0.9244 B(  0-C ,  5-H ) :   0.9214
B(  0-C , 15-O ) :   0.8212 B(  1-C ,  2-C ) :   0.9545 B(  1-C ,  6-H ) :   0.9391
B(  1-C ,  7-H ) :   0.9359 B(  2-C ,  3-C ) :   0.9541 B(  2-C ,  8-H ) :   0.9446
B(  2-C ,  9-H ) :   0.9431 B(  3-C ,  4-O ) :   0.8288 B(  3-C , 10-H ) :   0.9352
B(  3-C , 11-H ) :   0.9400 B( 12-C , 13-H ) :   0.9246 B( 12-C , 14-H ) :   0.9188
B( 12-C , 15-O ) :   0.7775 B( 12-C , 16-C ) :   0.9077 B( 16-C , 17-C ) :   0.9135
B( 16-C , 20-O ) :   0.8538 B( 16-C , 21-H ) :   0.9290 B( 17-C , 18-C ) :   0.9014
B( 17-C , 22-H ) :   0.9307 B( 17-C , 23-O ) :   0.9334 B( 18-C , 19-C ) :   0.9387
B( 18-C , 24-H ) :   0.9449 B( 18-C , 25-H ) :   0.9434 B( 19-C , 20-O ) :   0.8318
B( 19-C , 26-H ) :   0.9346 B( 19-C , 27-H ) :   0.9392 B( 23-O , 28-H ) :   0.7254

FINAL SINGLE POINT ENERGY      -652.871485623359

DIPOLE MOMENT
-------------
                                X             Y             Z
Electronic contribution:     -0.60619      -2.13140       1.39332
Nuclear contribution   :      1.37290       2.31211      -1.87081
                        -----------------------------------------
Total Dipole Moment    :      0.76671       0.18071      -0.47749
                        -----------------------------------------
Magnitude (a.u.)       :      0.92114
Magnitude (Debye)      :      2.34136

Rotational constants in cm-1:     0.058204     0.013595     0.012429
Rotational constants in MHz :  1744.904086   407.575874   372.604797

                             ****ORCA TERMINATED NORMALLY****
TOTAL RUN TIME: 0 days 1 hours 22 minutes 41 seconds 533 msec
