                         Program Version 4.2.0 -  RELEASE  -
|  1> # Test redundant internal optimization
|  2> #
|  3> ! RKS B3LYP  Opt TightSCF SmallPrint
|  4>
|  5> %basis
|  6>         Basis "6-31G"
|  7> end
|  8>
|  9> %geom
| 10> Constraints
| 11> { D 4  0  15  12  210.0   C } # D for Dihedral angle
| 12> { D 0  15  12  16  330.0   C } # D for Dihedral angle
| 13> { D 0  4  3  2   C } # D for Dihedral angle
| 14> { D 4  3  2  1   C } # D for Dihedral angle
| 15> { D 3  2  1  0   C } # D for Dihedral angle
| 16> { D 2  1  0  4   C } # D for Dihedral angle
| 17> { D 1  0  4  3   C } # D for Dihedral angle
| 18> { D 16  20  19  18   C } # D for Dihedral angle
| 19> { D 20  19  18  17   C } # D for Dihedral angle
| 20> { D 19  18  17  16   C } # D for Dihedral angle
| 21> { D 18  17  16  20   C } # D for Dihedral angle
| 22> { D 17  16  20  19   C } # D for Dihedral angle
| 23> { D 15  12  16  20   C } # D for Dihedral angle
| 24> end
| 25> end
| 26>
| 27>
| 28> #%pal
| 29> #nprocs 8
| 30> #end
| 31>
| 32> * xyz 0 1
| 33> C  -21.048   26.222   46.251
| 34> C  -20.361   27.558   45.944
| 35> C  -20.329   28.222   47.341
| 36> C  -20.110   27.022   48.296
| 37> O  -20.473   25.807   47.535
| 38> H  -20.833   25.428   45.533
| 39> H  -19.344   27.382   45.576
| 40> H  -20.898   28.157   45.201
| 41> H  -19.543   28.978   47.434
| 42> H  -21.289   28.710   47.548
| 43> H  -20.733   27.082   49.195
| 44> H  -19.064   26.913   48.597
| 45> C  -23.389   26.110   45.076
| 46> H  -23.673   25.051   45.050
| 47> H  -24.307   26.712   45.053
| 48> O  -22.586   26.394   46.375
| 49> C  -22.581   26.431   43.788
| 50> C  -23.441   26.250   42.532
| 51> C  -24.265   27.559   42.526
| 52> C  -23.268   28.606   43.081
| 53> O  -22.198   27.846   43.763
| 54> H  -21.657   25.849   43.791
| 55> H  -22.802   26.191   41.644
| 56> O  -24.331   24.978   42.580
| 57> H  -24.635   27.823   41.530
| 58> H  -25.132   27.461   43.190
| 59> H  -23.734   29.290   43.799
| 60> H  -22.793   29.192   42.289
| 61> H  -24.980   25.015   43.461
| 62> *
| 63>
| 64>                          ****END OF INPUT****
 Total Charge           Charge          ....    0
 Multiplicity           Mult            ....    1
 Number of Electrons    NEL             ....  102
FINAL SINGLE POINT ENERGY      -652.820509693174
FINAL SINGLE POINT ENERGY      -652.844029827224
FINAL SINGLE POINT ENERGY      -652.849606314421
FINAL SINGLE POINT ENERGY      -652.851868056529
FINAL SINGLE POINT ENERGY      -652.852183364217
FINAL SINGLE POINT ENERGY      -652.852261940437
FINAL SINGLE POINT ENERGY      -652.852268489311
FINAL SINGLE POINT ENERGY      -652.852270338517
                    ***********************HURRAY********************

CARTESIAN COORDINATES (ANGSTROEM)
---------------------------------
  C    -20.917072   26.227583   46.217688
  C    -20.229201   27.576228   46.017429
  C    -20.362284   28.214039   47.419995
  C    -20.226984   27.001368   48.365012
  O    -20.486630   25.804916   47.523794
  H    -20.628469   25.438654   45.516897
  H    -19.173412   27.402092   45.772703
  H    -20.688552   28.161232   45.220866
  H    -19.602130   28.978133   47.608691
  H    -21.350163   28.673335   47.522473
  H    -20.946296   27.010898   49.188186
  H    -19.215842   26.886622   48.768037
  C    -23.191938   26.145800   45.092042
  H    -23.505506   25.090801   45.080843
  H    -24.078049   26.766046   45.265372
  O    -22.368824   26.368696   46.271750
  C    -22.591082   26.444985   43.714243
  C    -23.588931   26.217980   42.561926
  C    -24.384274   27.561460   42.557809
  C    -23.302856   28.597175   42.939896
  O    -22.182164   27.839124   43.556623
  H    -21.685491   25.850379   43.565564
  H    -23.033927   26.106445   41.628092
  O    -24.394926   25.022894   42.648225
  H    -24.842477   27.763914   41.586649
  H    -25.184247   27.518164   43.308428
  H    -23.659225   29.344886   43.654850
  H    -22.894441   29.110653   42.064951
  H    -25.081607   25.114495   43.339967

 Multiplicity           Mult            ....    1
 Number of Electrons    NEL             ....  102
 Basis Dimension        Dim             ....  149

ORBITAL ENERGIES
----------------

  NO   OCC          E(Eh)            E(eV)
   0   2.0000     -19.157210      -521.2942
   1   2.0000     -19.151473      -521.1381
   2   2.0000     -19.131266      -520.5882
   3   2.0000     -19.128520      -520.5135
   4   2.0000     -10.269555      -279.4488
   5   2.0000     -10.254905      -279.0502
   6   2.0000     -10.242123      -278.7023
   7   2.0000     -10.240941      -278.6702
   8   2.0000     -10.232989      -278.4538
   9   2.0000     -10.213954      -277.9358
  10   2.0000     -10.203973      -277.6642
  11   2.0000     -10.173161      -276.8258
  12   2.0000     -10.165068      -276.6056
  13   2.0000      -1.046069       -28.4650
  14   2.0000      -1.038645       -28.2630
  15   2.0000      -1.026108       -27.9218
  16   2.0000      -0.982275       -26.7291
  17   2.0000      -0.792100       -21.5541
  18   2.0000      -0.774538       -21.0762
  19   2.0000      -0.769016       -20.9260
  20   2.0000      -0.728649       -19.8276
  21   2.0000      -0.681882       -18.5549
  22   2.0000      -0.621144       -16.9022
  23   2.0000      -0.605134       -16.4665
  24   2.0000      -0.586376       -15.9561
  25   2.0000      -0.561254       -15.2725
  26   2.0000      -0.536250       -14.5921
  27   2.0000      -0.517051       -14.0697
  28   2.0000      -0.492425       -13.3996
  29   2.0000      -0.482506       -13.1297
  30   2.0000      -0.467258       -12.7147
  31   2.0000      -0.452887       -12.3237
  32   2.0000      -0.446030       -12.1371
  33   2.0000      -0.436482       -11.8773
  34   2.0000      -0.435744       -11.8572
  35   2.0000      -0.419854       -11.4248
  36   2.0000      -0.411134       -11.1875
  37   2.0000      -0.391684       -10.6583
  38   2.0000      -0.387896       -10.5552
  39   2.0000      -0.366528        -9.9737
  40   2.0000      -0.357786        -9.7359
  41   2.0000      -0.352540        -9.5931
  42   2.0000      -0.341085        -9.2814
  43   2.0000      -0.333478        -9.0744
  44   2.0000      -0.322271        -8.7694
  45   2.0000      -0.304482        -8.2854
  46   2.0000      -0.297157        -8.0861
  47   2.0000      -0.281034        -7.6473
  48   2.0000      -0.258659        -7.0385
  49   2.0000      -0.247592        -6.7373
  50   2.0000      -0.235072        -6.3966
  51   0.0000       0.045918         1.2495
  52   0.0000       0.070371         1.9149
  53   0.0000       0.080671         2.1952
  54   0.0000       0.095945         2.6108
  55   0.0000       0.098636         2.6840

MULLIKEN ATOMIC CHARGES
-----------------------
   0 C :    0.290389
   1 C :   -0.276527
   2 C :   -0.300091
   3 C :   -0.000308
   4 O :   -0.507346
   5 H :    0.135861
   6 H :    0.131548
   7 H :    0.193543
   8 H :    0.135567
   9 H :    0.155715
  10 H :    0.148658
  11 H :    0.136400
  12 C :    0.005285
  13 H :    0.134058
  14 H :    0.136949
  15 O :   -0.520794
  16 C :    0.061358
  17 C :    0.090514
  18 C :   -0.325839
  19 C :   -0.009142
  20 O :   -0.516643
  21 H :    0.162342
  22 H :    0.169093
  23 O :   -0.595020
  24 H :    0.160290
  25 H :    0.140098
  26 H :    0.151083
  27 H :    0.154013
  28 H :    0.358945
Sum of atomic charges:   -0.0000000

LOEWDIN ATOMIC CHARGES
----------------------
   0 C :    0.181691
   1 C :   -0.235345
   2 C :   -0.217186
   3 C :   -0.026559
   4 O :   -0.309289
   5 H :    0.093768
   6 H :    0.107934
   7 H :    0.136977
   8 H :    0.111228
   9 H :    0.115779
  10 H :    0.105994
  11 H :    0.099485
  12 C :   -0.046256
  13 H :    0.099510
  14 H :    0.104390
  15 O :   -0.333079
  16 C :    0.002646
  17 C :    0.039619
  18 C :   -0.241008
  19 C :   -0.028833
  20 O :   -0.320499
  21 H :    0.114014
  22 H :    0.120035
  23 O :   -0.401906
  24 H :    0.124691
  25 H :    0.107115
  26 H :    0.106504
  27 H :    0.108476
  28 H :    0.280103

  Mayer bond orders larger than 0.100000
B(  0-C ,  1-C ) :   0.9355 B(  0-C ,  4-O ) :   0.9283 B(  0-C ,  5-H ) :   0.9204
B(  0-C , 15-O ) :   0.8224 B(  1-C ,  2-C ) :   0.9528 B(  1-C ,  6-H ) :   0.9350
B(  1-C ,  7-H ) :   0.9053 B(  2-C ,  3-C ) :   0.9547 B(  2-C ,  8-H ) :   0.9457
B(  2-C ,  9-H ) :   0.9449 B(  3-C ,  4-O ) :   0.8385 B(  3-C , 10-H ) :   0.9356
B(  3-C , 11-H ) :   0.9402 B( 12-C , 13-H ) :   0.9011 B( 12-C , 14-H ) :   0.9350
B( 12-C , 15-O ) :   0.8703 B( 12-C , 16-C ) :   0.8947 B( 16-C , 17-C ) :   0.8678
B( 16-C , 20-O ) :   0.8433 B( 16-C , 21-H ) :   0.9256 B( 17-C , 18-C ) :   0.9214
B( 17-C , 22-H ) :   0.9331 B( 17-C , 23-O ) :   0.9067 B( 18-C , 19-C ) :   0.9407
B( 18-C , 24-H ) :   0.9419 B( 18-C , 25-H ) :   0.9400 B( 19-C , 20-O ) :   0.8352
B( 19-C , 26-H ) :   0.9315 B( 19-C , 27-H ) :   0.9378 B( 23-O , 28-H ) :   0.7958

FINAL SINGLE POINT ENERGY      -652.852270218658

DIPOLE MOMENT
-------------
                                X             Y             Z
Electronic contribution:     -0.21358      -4.45693      -0.09763
Nuclear contribution   :     -0.48305       5.56286      -0.66900
                        -----------------------------------------
Total Dipole Moment    :     -0.69663       1.10593      -0.76663
                        -----------------------------------------
Magnitude (a.u.)       :      1.51529
Magnitude (Debye)      :      3.85156

Rotational constants in cm-1:     0.058359     0.013764     0.012127
Rotational constants in MHz :  1749.561689   412.644309   363.549137

                             ****ORCA TERMINATED NORMALLY****
TOTAL RUN TIME: 0 days 0 hours 24 minutes 1 seconds 314 msec
