                         Program Version 4.2.0 -  RELEASE  -
|  1> # Test redundant internal optimization
|  2> #
|  3> ! RKS B3LYP  Opt TightSCF SmallPrint
|  4>
|  5> %basis
|  6>         Basis "6-31G"
|  7> end
|  8>
|  9> %geom
| 10> Constraints
| 11> { D 4  0  15  12  285.0   C } # D for Dihedral angle
| 12> { D 0  15  12  16  120.0   C } # D for Dihedral angle
| 13> { D 0  4  3  2   C } # D for Dihedral angle
| 14> { D 4  3  2  1   C } # D for Dihedral angle
| 15> { D 3  2  1  0   C } # D for Dihedral angle
| 16> { D 2  1  0  4   C } # D for Dihedral angle
| 17> { D 1  0  4  3   C } # D for Dihedral angle
| 18> { D 16  20  19  18   C } # D for Dihedral angle
| 19> { D 20  19  18  17   C } # D for Dihedral angle
| 20> { D 19  18  17  16   C } # D for Dihedral angle
| 21> { D 18  17  16  20   C } # D for Dihedral angle
| 22> { D 17  16  20  19   C } # D for Dihedral angle
| 23> { D 15  12  16  20   C } # D for Dihedral angle
| 24> end
| 25> end
| 26>
| 27>
| 28> #%pal
| 29> #nprocs 8
| 30> #end
| 31>
| 32> * xyz 0 1
| 33> C  -21.048   26.222   46.251
| 34> C  -20.361   27.558   45.944
| 35> C  -20.329   28.222   47.341
| 36> C  -20.110   27.022   48.296
| 37> O  -20.473   25.807   47.535
| 38> H  -20.833   25.428   45.533
| 39> H  -19.344   27.382   45.576
| 40> H  -20.898   28.157   45.201
| 41> H  -19.543   28.978   47.434
| 42> H  -21.289   28.710   47.548
| 43> H  -20.733   27.082   49.195
| 44> H  -19.064   26.913   48.597
| 45> C  -23.396   25.070   46.435
| 46> H  -24.090   25.031   45.586
| 47> H  -22.723   24.205   46.368
| 48> O  -22.586   26.394   46.375
| 49> C  -24.219   24.928   47.746
| 50> C  -25.305   26.005   47.840
| 51> C  -26.399   25.430   46.909
| 52> C  -26.287   23.901   47.139
| 53> O  -24.962   23.664   47.750
| 54> H  -23.535   24.900   48.596
| 55> O  -25.826   26.110   49.300
| 56> H  -24.958   26.996   47.527
| 57> H  -27.397   25.814   47.139
| 58> H  -26.175   25.682   45.866
| 59> H  -26.360   23.331   46.207
| 60> H  -27.038   23.529   47.841
| 61> H  -26.180   25.128   49.636
| 62> *
| 63>
| 64>                          ****END OF INPUT****
 Total Charge           Charge          ....    0
 Multiplicity           Mult            ....    1
 Number of Electrons    NEL             ....  102
FINAL SINGLE POINT ENERGY      -652.841417017165
FINAL SINGLE POINT ENERGY      -652.864949774072
FINAL SINGLE POINT ENERGY      -652.868592202362
FINAL SINGLE POINT ENERGY      -652.869254469570
FINAL SINGLE POINT ENERGY      -652.869346295152
FINAL SINGLE POINT ENERGY      -652.869357121770
FINAL SINGLE POINT ENERGY      -652.869359088761
                    ***********************HURRAY********************

CARTESIAN COORDINATES (ANGSTROEM)
---------------------------------
  C    -21.101040   26.125596   46.254594
  C    -20.529927   27.520510   45.997854
  C    -20.589234   28.150717   47.408309
  C    -20.288101   26.955786   48.340116
  O    -20.530078   25.735076   47.526002
  H    -20.816458   25.348357   45.539077
  H    -19.494777   27.426823   45.650786
  H    -21.108095   28.070867   45.253067
  H    -19.871569   28.966857   47.535282
  H    -21.593989   28.540802   47.594337
  H    -20.933258   26.926066   49.221497
  H    -19.241716   26.915616   48.656608
  C    -23.295645   25.002207   46.357110
  H    -23.944561   24.978064   45.473539
  H    -22.628436   24.133957   46.329615
  O    -22.536092   26.249890   46.320151
  C    -24.111390   24.959614   47.648195
  C    -25.163034   26.068715   47.788485
  C    -26.323546   25.510528   46.926237
  C    -26.241532   23.982749   47.168213
  O    -24.884962   23.714133   47.710557
  H    -23.424569   24.957870   48.499420
  O    -25.555760   26.234283   49.179829
  H    -24.801473   27.042476   47.462623
  H    -27.278237   25.940448   47.238926
  H    -26.165804   25.756703   45.870398
  H    -26.381125   23.396933   46.254712
  H    -26.961174   23.637889   47.917322
  H    -25.665417   25.349469   49.588139

 Multiplicity           Mult            ....    1
 Number of Electrons    NEL             ....  102
 Basis Dimension        Dim             ....  149

ORBITAL ENERGIES
----------------

  NO   OCC          E(Eh)            E(eV)
   0   2.0000     -19.147583      -521.0322
   1   2.0000     -19.142791      -520.9018
   2   2.0000     -19.139913      -520.8235
   3   2.0000     -19.133051      -520.6368
   4   2.0000     -10.280419      -279.7444
   5   2.0000     -10.233628      -278.4712
   6   2.0000     -10.229979      -278.3719
   7   2.0000     -10.229756      -278.3658
   8   2.0000     -10.228735      -278.3380
   9   2.0000     -10.224331      -278.2182
  10   2.0000     -10.185779      -277.1691
  11   2.0000     -10.185671      -277.1662
  12   2.0000     -10.184604      -277.1372
  13   2.0000      -1.055394       -28.7187
  14   2.0000      -1.033442       -28.1214
  15   2.0000      -1.002055       -27.2673
  16   2.0000      -0.995143       -27.0792
  17   2.0000      -0.790087       -21.4994
  18   2.0000      -0.776742       -21.1362
  19   2.0000      -0.764996       -20.8166
  20   2.0000      -0.728828       -19.8324
  21   2.0000      -0.673041       -18.3144
  22   2.0000      -0.601942       -16.3797
  23   2.0000      -0.598003       -16.2725
  24   2.0000      -0.592400       -16.1200
  25   2.0000      -0.581021       -15.8104
  26   2.0000      -0.521054       -14.1786
  27   2.0000      -0.516059       -14.0427
  28   2.0000      -0.495296       -13.4777
  29   2.0000      -0.486651       -13.2425
  30   2.0000      -0.468796       -12.7566
  31   2.0000      -0.457074       -12.4376
  32   2.0000      -0.449983       -12.2447
  33   2.0000      -0.436848       -11.8872
  34   2.0000      -0.422826       -11.5057
  35   2.0000      -0.411837       -11.2067
  36   2.0000      -0.400460       -10.8971
  37   2.0000      -0.390651       -10.6302
  38   2.0000      -0.373183       -10.1548
  39   2.0000      -0.364654        -9.9227
  40   2.0000      -0.357614        -9.7312
  41   2.0000      -0.354951        -9.6587
  42   2.0000      -0.347287        -9.4502
  43   2.0000      -0.330699        -8.9988
  44   2.0000      -0.326287        -8.8787
  45   2.0000      -0.306203        -8.3322
  46   2.0000      -0.298958        -8.1351
  47   2.0000      -0.281311        -7.6549
  48   2.0000      -0.264376        -7.1940
  49   2.0000      -0.253212        -6.8902
  50   2.0000      -0.241553        -6.5730
  51   0.0000       0.066329         1.8049
  52   0.0000       0.080350         2.1864
  53   0.0000       0.095930         2.6104
  54   0.0000       0.101230         2.7546
  55   0.0000       0.107583         2.9275

MULLIKEN ATOMIC CHARGES
-----------------------
   0 C :    0.281763
   1 C :   -0.260263
   2 C :   -0.298772
   3 C :   -0.006425
   4 O :   -0.511580
   5 H :    0.145356
   6 H :    0.145994
   7 H :    0.155291
   8 H :    0.141462
   9 H :    0.164156
  10 H :    0.152337
  11 H :    0.143199
  12 C :   -0.015253
  13 H :    0.135482
  14 H :    0.159165
  15 O :   -0.524827
  16 C :    0.059290
  17 C :    0.094130
  18 C :   -0.296377
  19 C :   -0.032638
  20 O :   -0.526761
  21 H :    0.171550
  22 O :   -0.607014
  23 H :    0.170313
  24 H :    0.159775
  25 H :    0.144790
  26 H :    0.146079
  27 H :    0.146810
  28 H :    0.362967
Sum of atomic charges:   -0.0000000

LOEWDIN ATOMIC CHARGES
----------------------
   0 C :    0.172306
   1 C :   -0.215263
   2 C :   -0.215606
   3 C :   -0.028489
   4 O :   -0.331324
   5 H :    0.097664
   6 H :    0.114626
   7 H :    0.123414
   8 H :    0.113761
   9 H :    0.119731
  10 H :    0.107569
  11 H :    0.103152
  12 C :   -0.039457
  13 H :    0.099627
  14 H :    0.114906
  15 O :   -0.331392
  16 C :    0.011932
  17 C :    0.038211
  18 C :   -0.240775
  19 C :   -0.038935
  20 O :   -0.331763
  21 H :    0.121125
  22 O :   -0.417012
  23 H :    0.124938
  24 H :    0.125891
  25 H :    0.113461
  26 H :    0.103676
  27 H :    0.102453
  28 H :    0.281574

  Mayer bond orders larger than 0.100000
B(  0-C ,  1-C ) :   0.9504 B(  0-C ,  4-O ) :   0.9075 B(  0-C ,  5-H ) :   0.9204
B(  0-C , 15-O ) :   0.8607 B(  1-C ,  2-C ) :   0.9567 B(  1-C ,  6-H ) :   0.9400
B(  1-C ,  7-H ) :   0.9365 B(  2-C ,  3-C ) :   0.9550 B(  2-C ,  8-H ) :   0.9453
B(  2-C ,  9-H ) :   0.9438 B(  3-C ,  4-O ) :   0.8352 B(  3-C , 10-H ) :   0.9346
B(  3-C , 11-H ) :   0.9405 B( 12-C , 13-H ) :   0.9338 B( 12-C , 14-H ) :   0.9187
B( 12-C , 15-O ) :   0.8211 B( 12-C , 16-C ) :   0.8960 B( 16-C , 17-C ) :   0.9146
B( 16-C , 20-O ) :   0.8397 B( 16-C , 21-H ) :   0.9232 B( 17-C , 18-C ) :   0.9115
B( 17-C , 22-O ) :   0.8871 B( 17-C , 23-H ) :   0.9257 B( 18-C , 19-C ) :   0.9407
B( 18-C , 24-H ) :   0.9385 B( 18-C , 25-H ) :   0.9349 B( 19-C , 20-O ) :   0.8460
B( 19-C , 26-H ) :   0.9355 B( 19-C , 27-H ) :   0.9379 B( 22-O , 28-H ) :   0.7959

FINAL SINGLE POINT ENERGY      -652.869359094618

DIPOLE MOMENT
-------------
                                X             Y             Z
Electronic contribution:     -0.50742      -3.20800       1.73143
Nuclear contribution   :      0.54542       3.54205      -2.53180
                        -----------------------------------------
Total Dipole Moment    :      0.03800       0.33405      -0.80037
                        -----------------------------------------
Magnitude (a.u.)       :      0.86812
Magnitude (Debye)      :      2.20658

Rotational constants in cm-1:     0.054345     0.013401     0.012712
Rotational constants in MHz :  1629.234647   401.741815   381.085567

                             ****ORCA TERMINATED NORMALLY****
TOTAL RUN TIME: 0 days 0 hours 26 minutes 46 seconds 321 msec
