                         Program Version 4.2.0 -  RELEASE  -
|  1> # Test redundant internal optimization
|  2> #
|  3> ! RKS B3LYP  Opt TightSCF SmallPrint
|  4>
|  5> %basis
|  6>         Basis "6-31G"
|  7> end
|  8>
|  9> %geom
| 10> Constraints
| 11> { D 4  0  15  12  120.0   C } # D for Dihedral angle
| 12> { D 0  15  12  16  240.0   C } # D for Dihedral angle
| 13> { D 0  4  3  2   C } # D for Dihedral angle
| 14> { D 4  3  2  1   C } # D for Dihedral angle
| 15> { D 3  2  1  0   C } # D for Dihedral angle
| 16> { D 2  1  0  4   C } # D for Dihedral angle
| 17> { D 1  0  4  3   C } # D for Dihedral angle
| 18> { D 16  20  19  18   C } # D for Dihedral angle
| 19> { D 20  19  18  17   C } # D for Dihedral angle
| 20> { D 19  18  17  16   C } # D for Dihedral angle
| 21> { D 18  17  16  20   C } # D for Dihedral angle
| 22> { D 17  16  20  19   C } # D for Dihedral angle
| 23> { D 15  12  16  20   C } # D for Dihedral angle
| 24> end
| 25> end
| 26>
| 27>
| 28> #%pal
| 29> #nprocs 8
| 30> #end
| 31>
| 32> * xyz 0 1
| 33> C  -21.048   26.222   46.251
| 34> C  -20.361   27.558   45.944
| 35> C  -20.329   28.222   47.341
| 36> C  -20.110   27.022   48.296
| 37> O  -20.473   25.807   47.535
| 38> H  -20.833   25.428   45.533
| 39> H  -19.344   27.382   45.576
| 40> H  -20.898   28.157   45.201
| 41> H  -19.543   28.978   47.434
| 42> H  -21.289   28.710   47.548
| 43> H  -20.733   27.082   49.195
| 44> H  -19.064   26.913   48.597
| 45> C  -23.119   27.818   46.058
| 46> H  -22.278   28.467   45.784
| 47> H  -23.817   27.787   45.211
| 48> O  -22.586   26.394   46.375
| 49> C  -23.862   28.463   47.260
| 50> C  -24.473   29.815   46.877
| 51> C  -25.752   29.379   46.122
| 52> C  -26.194   28.106   46.886
| 53> O  -25.015   27.643   47.649
| 54> H  -23.190   28.498   48.120
| 55> O  -24.839   30.617   48.156
| 56> H  -23.806   30.430   46.262
| 57> H  -26.527   30.152   46.117
| 58> H  -25.510   29.139   45.079
| 59> H  -26.521   27.305   46.213
| 60> H  -26.988   28.307   47.610
| 61> H  -25.507   30.020   48.786
| 62> *
| 63>
| 64>                          ****END OF INPUT****
 Total Charge           Charge          ....    0
 Multiplicity           Mult            ....    1
 Number of Electrons    NEL             ....  102
FINAL SINGLE POINT ENERGY      -652.811497610701
FINAL SINGLE POINT ENERGY      -652.835481617657
FINAL SINGLE POINT ENERGY      -652.846092457339
FINAL SINGLE POINT ENERGY      -652.848238205344
FINAL SINGLE POINT ENERGY      -652.848624561161
FINAL SINGLE POINT ENERGY      -652.848661711547
FINAL SINGLE POINT ENERGY      -652.848668471105
                    ***********************HURRAY********************

CARTESIAN COORDINATES (ANGSTROEM)
---------------------------------
  C    -21.138474   26.341016   46.301097
  C    -20.177077   27.483475   45.958931
  C    -20.054121   28.223319   47.319759
  C    -20.127291   27.061447   48.339442
  O    -20.712386   25.913408   47.609942
  H    -21.036093   25.462688   45.661642
  H    -19.215525   27.039687   45.680214
  H    -20.497908   28.123180   45.132925
  H    -19.121097   28.788806   47.401982
  H    -20.882401   28.925861   47.460039
  H    -20.755058   27.289844   49.205382
  H    -19.138962   26.746725   48.686544
  C    -23.137331   27.924883   45.984537
  H    -22.376412   28.661865   45.702172
  H    -23.796775   27.774670   45.121036
  O    -22.563582   26.632813   46.305838
  C    -23.934942   28.466099   47.173989
  C    -24.618002   29.813020   46.899845
  C    -25.913336   29.368536   46.168067
  C    -26.267953   28.033826   46.870090
  O    -25.034852   27.578553   47.555480
  H    -23.277029   28.527404   48.046973
  O    -24.911417   30.506061   48.144087
  H    -24.013243   30.511884   46.319094
  H    -26.693176   30.128020   46.270220
  H    -25.714589   29.219398   45.100488
  H    -26.591029   27.258685   46.168746
  H    -27.038965   28.154692   47.637295
  H    -25.269976   29.861137   48.790144

 Multiplicity           Mult            ....    1
 Number of Electrons    NEL             ....  102
 Basis Dimension        Dim             ....  149

ORBITAL ENERGIES
----------------

  NO   OCC          E(Eh)            E(eV)
   0   2.0000     -19.141116      -520.8563
   1   2.0000     -19.140321      -520.8346
   2   2.0000     -19.136524      -520.7313
   3   2.0000     -19.136520      -520.7312
   4   2.0000     -10.279576      -279.7215
   5   2.0000     -10.245786      -278.8020
   6   2.0000     -10.236433      -278.5475
   7   2.0000     -10.234974      -278.5078
   8   2.0000     -10.230157      -278.3767
   9   2.0000     -10.226659      -278.2815
  10   2.0000     -10.196234      -277.4536
  11   2.0000     -10.195565      -277.4354
  12   2.0000     -10.191976      -277.3378
  13   2.0000      -1.048756       -28.5381
  14   2.0000      -1.037072       -28.2202
  15   2.0000      -1.007532       -27.4163
  16   2.0000      -0.990897       -26.9637
  17   2.0000      -0.791650       -21.5419
  18   2.0000      -0.787202       -21.4209
  19   2.0000      -0.770564       -20.9681
  20   2.0000      -0.734476       -19.9861
  21   2.0000      -0.681039       -18.5320
  22   2.0000      -0.608704       -16.5637
  23   2.0000      -0.605735       -16.4829
  24   2.0000      -0.598457       -16.2848
  25   2.0000      -0.575141       -15.6504
  26   2.0000      -0.522534       -14.2189
  27   2.0000      -0.519621       -14.1396
  28   2.0000      -0.502883       -13.6842
  29   2.0000      -0.494806       -13.4643
  30   2.0000      -0.472918       -12.8688
  31   2.0000      -0.459775       -12.5111
  32   2.0000      -0.451465       -12.2850
  33   2.0000      -0.441749       -12.0206
  34   2.0000      -0.431587       -11.7441
  35   2.0000      -0.417365       -11.3571
  36   2.0000      -0.400110       -10.8875
  37   2.0000      -0.394977       -10.7479
  38   2.0000      -0.382241       -10.4013
  39   2.0000      -0.373921       -10.1749
  40   2.0000      -0.364387        -9.9155
  41   2.0000      -0.361877        -9.8472
  42   2.0000      -0.354931        -9.6582
  43   2.0000      -0.334670        -9.1068
  44   2.0000      -0.313866        -8.5407
  45   2.0000      -0.307699        -8.3729
  46   2.0000      -0.289759        -7.8847
  47   2.0000      -0.273535        -7.4433
  48   2.0000      -0.269913        -7.3447
  49   2.0000      -0.251710        -6.8494
  50   2.0000      -0.236538        -6.4365
  51   0.0000       0.062550         1.7021
  52   0.0000       0.072584         1.9751
  53   0.0000       0.083223         2.2646
  54   0.0000       0.090736         2.4690
  55   0.0000       0.096473         2.6252

MULLIKEN ATOMIC CHARGES
-----------------------
   0 C :    0.316742
   1 C :   -0.307584
   2 C :   -0.310216
   3 C :   -0.003612
   4 O :   -0.491523
   5 H :    0.159379
   6 H :    0.158842
   7 H :    0.145821
   8 H :    0.147481
   9 H :    0.149984
  10 H :    0.150892
  11 H :    0.145191
  12 C :   -0.005315
  13 H :    0.121589
  14 H :    0.143199
  15 O :   -0.513593
  16 C :    0.074164
  17 C :    0.072128
  18 C :   -0.304859
  19 C :   -0.027207
  20 O :   -0.505364
  21 H :    0.162963
  22 O :   -0.602018
  23 H :    0.146970
  24 H :    0.165089
  25 H :    0.145996
  26 H :    0.151203
  27 H :    0.147021
  28 H :    0.366636
Sum of atomic charges:   -0.0000000

LOEWDIN ATOMIC CHARGES
----------------------
   0 C :    0.182768
   1 C :   -0.234160
   2 C :   -0.221474
   3 C :   -0.030177
   4 O :   -0.310820
   5 H :    0.107361
   6 H :    0.124301
   7 H :    0.113779
   8 H :    0.117108
   9 H :    0.108176
  10 H :    0.106285
  11 H :    0.104306
  12 C :   -0.040270
  13 H :    0.095244
  14 H :    0.103450
  15 O :   -0.318972
  16 C :    0.011039
  17 C :    0.033004
  18 C :   -0.243961
  19 C :   -0.037864
  20 O :   -0.316767
  21 H :    0.114944
  22 O :   -0.414687
  23 H :    0.112450
  24 H :    0.127371
  25 H :    0.113144
  26 H :    0.107013
  27 H :    0.103000
  28 H :    0.284408

  Mayer bond orders larger than 0.100000
B(  0-C ,  1-C ) :   0.9297 B(  0-C ,  4-O ) :   0.9158 B(  0-C ,  5-H ) :   0.9317
B(  0-C , 15-O ) :   0.8752 B(  1-C ,  2-C ) :   0.9498 B(  1-C ,  6-H ) :   0.9331
B(  1-C ,  7-H ) :   0.9280 B(  2-C ,  3-C ) :   0.9486 B(  2-C ,  8-H ) :   0.9458
B(  2-C ,  9-H ) :   0.9403 B(  3-C ,  4-O ) :   0.8474 B(  3-C , 10-H ) :   0.9326
B(  3-C , 11-H ) :   0.9390 B( 12-C , 13-H ) :   0.9004 B( 12-C , 14-H ) :   0.9293
B( 12-C , 15-O ) :   0.8556 B( 12-C , 16-C ) :   0.8837 B( 16-C , 17-C ) :   0.8937
B( 16-C , 20-O ) :   0.8686 B( 16-C , 21-H ) :   0.9229 B( 17-C , 18-C ) :   0.9124
B( 17-C , 22-O ) :   0.8936 B( 17-C , 23-H ) :   0.9334 B( 18-C , 19-C ) :   0.9406
B( 18-C , 24-H ) :   0.9368 B( 18-C , 25-H ) :   0.9328 B( 19-C , 20-O ) :   0.8517
B( 19-C , 26-H ) :   0.9334 B( 19-C , 27-H ) :   0.9375 B( 22-O , 28-H ) :   0.7929

FINAL SINGLE POINT ENERGY      -652.848669427191

DIPOLE MOMENT
-------------
                                X             Y             Z
Electronic contribution:     -1.81100      -3.82770       2.27787
Nuclear contribution   :      2.19243       4.88220      -3.23699
                        -----------------------------------------
Total Dipole Moment    :      0.38143       1.05450      -0.95911
                        -----------------------------------------
Magnitude (a.u.)       :      1.47559
Magnitude (Debye)      :      3.75065

Rotational constants in cm-1:     0.052484     0.013818     0.012921
Rotational constants in MHz :  1573.434363   414.266906   387.368123

                             ****ORCA TERMINATED NORMALLY****
TOTAL RUN TIME: 0 days 1 hours 51 minutes 30 seconds 725 msec
