                         Program Version 4.2.0 -  RELEASE  -
|  1> # Test redundant internal optimization
|  2> #
|  3> ! RKS B3LYP  Opt TightSCF SmallPrint
|  4>
|  5> %basis
|  6>         Basis "6-31G"
|  7> end
|  8>
|  9> %geom
| 10> Constraints
| 11> { D 4  0  15  12  150.0   C } # D for Dihedral angle
| 12> { D 0  15  12  16  165.0   C } # D for Dihedral angle
| 13> { D 0  4  3  2   C } # D for Dihedral angle
| 14> { D 4  3  2  1   C } # D for Dihedral angle
| 15> { D 3  2  1  0   C } # D for Dihedral angle
| 16> { D 2  1  0  4   C } # D for Dihedral angle
| 17> { D 1  0  4  3   C } # D for Dihedral angle
| 18> { D 16  20  19  18   C } # D for Dihedral angle
| 19> { D 20  19  18  17   C } # D for Dihedral angle
| 20> { D 19  18  17  16   C } # D for Dihedral angle
| 21> { D 18  17  16  20   C } # D for Dihedral angle
| 22> { D 17  16  20  19   C } # D for Dihedral angle
| 23> { D 15  12  16  20   C } # D for Dihedral angle
| 24> end
| 25> end
| 26>
| 27>
| 28> #%pal
| 29> #nprocs 8
| 30> #end
| 31>
| 32> * xyz 0 1
| 33> C  -21.048   26.222   46.251
| 34> C  -20.361   27.558   45.944
| 35> C  -20.329   28.222   47.341
| 36> C  -20.110   27.022   48.296
| 37> O  -20.473   25.807   47.535
| 38> H  -20.833   25.428   45.533
| 39> H  -19.344   27.382   45.576
| 40> H  -20.898   28.157   45.201
| 41> H  -19.543   28.978   47.434
| 42> H  -21.289   28.710   47.548
| 43> H  -20.733   27.082   49.195
| 44> H  -19.064   26.913   48.597
| 45> C  -23.210   27.459   45.431
| 46> H  -22.970   28.461   45.808
| 47> H  -22.796   27.364   44.419
| 48> O  -22.586   26.394   46.375
| 49> C  -24.755   27.334   45.324
| 50> C  -25.431   27.622   46.669
| 51> C  -25.404   29.169   46.709
| 52> C  -25.608   29.562   45.224
| 53> O  -25.290   28.361   44.423
| 54> H  -25.006   26.365   44.889
| 55> H  -26.464   27.254   46.657
| 56> O  -24.695   26.975   47.873
| 57> H  -26.175   29.590   47.362
| 58> H  -24.430   29.518   47.072
| 59> H  -24.953   30.383   44.914
| 60> H  -26.643   29.834   45.002
| 61> H  -23.659   27.330   47.905
| 62> *
| 63>
| 64>                          ****END OF INPUT****
 Total Charge           Charge          ....    0
 Multiplicity           Mult            ....    1
 Number of Electrons    NEL             ....  102
FINAL SINGLE POINT ENERGY      -652.824069746115
FINAL SINGLE POINT ENERGY      -652.848441618660
FINAL SINGLE POINT ENERGY      -652.855591358978
FINAL SINGLE POINT ENERGY      -652.858417393734
FINAL SINGLE POINT ENERGY      -652.860201590047
FINAL SINGLE POINT ENERGY      -652.861391934987
FINAL SINGLE POINT ENERGY      -652.862063924503
FINAL SINGLE POINT ENERGY      -652.862261972397
FINAL SINGLE POINT ENERGY      -652.862292752843
FINAL SINGLE POINT ENERGY      -652.862299040178
                    ***********************HURRAY********************

CARTESIAN COORDINATES (ANGSTROEM)
---------------------------------
  C    -21.127670   26.284112   46.234373
  C    -20.244653   27.492550   45.927956
  C    -20.252495   28.249016   47.280466
  C    -20.287663   27.103062   48.312359
  O    -20.744653   25.902128   47.559661
  H    -20.983471   25.415440   45.588609
  H    -19.237942   27.130796   45.691635
  H    -20.587184   28.101910   45.088024
  H    -19.376190   28.892399   47.401651
  H    -21.147345   28.875025   47.363543
  H    -20.982582   27.281831   49.136060
  H    -19.300657   26.858684   48.713753
  C    -23.136611   27.579235   45.355028
  H    -22.867728   28.594695   45.671890
  H    -22.780266   27.426073   44.329265
  O    -22.563675   26.589670   46.267086
  C    -24.654784   27.373374   45.389435
  C    -25.314572   27.629515   46.754669
  C    -25.409833   29.183516   46.772917
  C    -25.685928   29.534100   45.296390
  O    -25.292414   28.336044   44.494896
  H    -24.884640   26.376923   45.003074
  H    -26.325248   27.204467   46.733135
  O    -24.632733   27.096901   47.905831
  H    -26.194800   29.534004   47.448009
  H    -24.456504   29.591064   47.125573
  H    -25.115912   30.397170   44.938827
  H    -26.747131   29.705981   45.094810
  H    -23.764716   26.716315   47.628076

 Multiplicity           Mult            ....    1
 Number of Electrons    NEL             ....  102
 Basis Dimension        Dim             ....  149

ORBITAL ENERGIES
----------------

  NO   OCC          E(Eh)            E(eV)
   0   2.0000     -19.161864      -521.4208
   1   2.0000     -19.153017      -521.1801
   2   2.0000     -19.140819      -520.8482
   3   2.0000     -19.108526      -519.9694
   4   2.0000     -10.294747      -280.1343
   5   2.0000     -10.241955      -278.6978
   6   2.0000     -10.235710      -278.5278
   7   2.0000     -10.234354      -278.4909
   8   2.0000     -10.228436      -278.3299
   9   2.0000     -10.226907      -278.2883
  10   2.0000     -10.202636      -277.6279
  11   2.0000     -10.200778      -277.5773
  12   2.0000     -10.178770      -276.9784
  13   2.0000      -1.067302       -29.0428
  14   2.0000      -1.026145       -27.9228
  15   2.0000      -1.008179       -27.4339
  16   2.0000      -0.988231       -26.8911
  17   2.0000      -0.800472       -21.7820
  18   2.0000      -0.776536       -21.1306
  19   2.0000      -0.768040       -20.8994
  20   2.0000      -0.739511       -20.1231
  21   2.0000      -0.683251       -18.5922
  22   2.0000      -0.614044       -16.7090
  23   2.0000      -0.600032       -16.3277
  24   2.0000      -0.596048       -16.2193
  25   2.0000      -0.577991       -15.7279
  26   2.0000      -0.528009       -14.3679
  27   2.0000      -0.523223       -14.2376
  28   2.0000      -0.509653       -13.8684
  29   2.0000      -0.488560       -13.2944
  30   2.0000      -0.478093       -13.0096
  31   2.0000      -0.461396       -12.5552
  32   2.0000      -0.447284       -12.1712
  33   2.0000      -0.436020       -11.8647
  34   2.0000      -0.429507       -11.6875
  35   2.0000      -0.419279       -11.4092
  36   2.0000      -0.411542       -11.1986
  37   2.0000      -0.391031       -10.6405
  38   2.0000      -0.385080       -10.4786
  39   2.0000      -0.372864       -10.1462
  40   2.0000      -0.368337       -10.0230
  41   2.0000      -0.364760        -9.9256
  42   2.0000      -0.350150        -9.5281
  43   2.0000      -0.341187        -9.2842
  44   2.0000      -0.323410        -8.8004
  45   2.0000      -0.314704        -8.5635
  46   2.0000      -0.288133        -7.8405
  47   2.0000      -0.275487        -7.4964
  48   2.0000      -0.267811        -7.2875
  49   2.0000      -0.248034        -6.7493
  50   2.0000      -0.240328        -6.5397
  51   0.0000       0.054317         1.4780
  52   0.0000       0.067518         1.8373
  53   0.0000       0.089534         2.4363
  54   0.0000       0.094599         2.5742
  55   0.0000       0.102717         2.7951

MULLIKEN ATOMIC CHARGES
-----------------------
   0 C :    0.326127
   1 C :   -0.294198
   2 C :   -0.304802
   3 C :   -0.008950
   4 O :   -0.497597
   5 H :    0.160188
   6 H :    0.158156
   7 H :    0.150820
   8 H :    0.150527
   9 H :    0.157295
  10 H :    0.164082
  11 H :    0.150460
  12 C :   -0.010089
  13 H :    0.134748
  14 H :    0.153656
  15 O :   -0.567726
  16 C :    0.054457
  17 C :    0.123034
  18 C :   -0.297011
  19 C :   -0.019005
  20 O :   -0.524686
  21 H :    0.160887
  22 H :    0.144447
  23 O :   -0.646832
  24 H :    0.153315
  25 H :    0.138761
  26 H :    0.138420
  27 H :    0.148160
  28 H :    0.403355
Sum of atomic charges:    0.0000000

LOEWDIN ATOMIC CHARGES
----------------------
   0 C :    0.187466
   1 C :   -0.231678
   2 C :   -0.217185
   3 C :   -0.027295
   4 O :   -0.302330
   5 H :    0.108102
   6 H :    0.123088
   7 H :    0.118107
   8 H :    0.118929
   9 H :    0.113776
  10 H :    0.113897
  11 H :    0.107467
  12 C :   -0.043996
  13 H :    0.093767
  14 H :    0.107059
  15 O :   -0.347751
  16 C :    0.020418
  17 C :    0.042985
  18 C :   -0.234563
  19 C :   -0.032446
  20 O :   -0.325406
  21 H :    0.116459
  22 H :    0.103377
  23 O :   -0.439564
  24 H :    0.121916
  25 H :    0.107993
  26 H :    0.100084
  27 H :    0.105965
  28 H :    0.291360

  Mayer bond orders larger than 0.100000
B(  0-C ,  1-C ) :   0.9353 B(  0-C ,  4-O ) :   0.9469 B(  0-C ,  5-H ) :   0.9254
B(  0-C , 15-O ) :   0.7901 B(  1-C ,  2-C ) :   0.9478 B(  1-C ,  6-H ) :   0.9330
B(  1-C ,  7-H ) :   0.9272 B(  2-C ,  3-C ) :   0.9525 B(  2-C ,  8-H ) :   0.9447
B(  2-C ,  9-H ) :   0.9423 B(  3-C ,  4-O ) :   0.8280 B(  3-C , 10-H ) :   0.9328
B(  3-C , 11-H ) :   0.9392 B( 12-C , 13-H ) :   0.9143 B( 12-C , 14-H ) :   0.9226
B( 12-C , 15-O ) :   0.7891 B( 12-C , 16-C ) :   0.8996 B( 16-C , 17-C ) :   0.9139
B( 16-C , 20-O ) :   0.8545 B( 16-C , 21-H ) :   0.9295 B( 17-C , 18-C ) :   0.9025
B( 17-C , 22-H ) :   0.9279 B( 17-C , 23-O ) :   0.9388 B( 18-C , 19-C ) :   0.9390
B( 18-C , 24-H ) :   0.9446 B( 18-C , 25-H ) :   0.9435 B( 19-C , 20-O ) :   0.8334
B( 19-C , 26-H ) :   0.9348 B( 19-C , 27-H ) :   0.9390 B( 23-O , 28-H ) :   0.7145

FINAL SINGLE POINT ENERGY      -652.862299984474

DIPOLE MOMENT
-------------
                                X             Y             Z
Electronic contribution:     -2.26748      -5.61342      -0.48384
Nuclear contribution   :      3.49475       6.75933      -0.05198
                        -----------------------------------------
Total Dipole Moment    :      1.22727       1.14591      -0.53582
                        -----------------------------------------
Magnitude (a.u.)       :      1.76250
Magnitude (Debye)      :      4.47991

Rotational constants in cm-1:     0.051587     0.014697     0.013935
Rotational constants in MHz :  1546.552776   440.593814   417.748829

                             ****ORCA TERMINATED NORMALLY****
TOTAL RUN TIME: 0 days 1 hours 7 minutes 37 seconds 751 msec
