                         Program Version 4.2.0 -  RELEASE  -
|  1> # Test redundant internal optimization
|  2> #
|  3> ! RKS B3LYP  Opt TightSCF SmallPrint
|  4>
|  5> %basis
|  6>         Basis "6-31G"
|  7> end
|  8>
|  9> %geom
| 10> Constraints
| 11> { D 4  0  15  12  105.0   C } # D for Dihedral angle
| 12> { D 0  15  12  16  210.0   C } # D for Dihedral angle
| 13> { D 0  4  3  2   C } # D for Dihedral angle
| 14> { D 4  3  2  1   C } # D for Dihedral angle
| 15> { D 3  2  1  0   C } # D for Dihedral angle
| 16> { D 2  1  0  4   C } # D for Dihedral angle
| 17> { D 1  0  4  3   C } # D for Dihedral angle
| 18> { D 16  20  19  18   C } # D for Dihedral angle
| 19> { D 20  19  18  17   C } # D for Dihedral angle
| 20> { D 19  18  17  16   C } # D for Dihedral angle
| 21> { D 18  17  16  20   C } # D for Dihedral angle
| 22> { D 17  16  20  19   C } # D for Dihedral angle
| 23> { D 15  12  16  20   C } # D for Dihedral angle
| 24> end
| 25> end
| 26>
| 27>
| 28> #%pal
| 29> #nprocs 8
| 30> #end
| 31>
| 32> * xyz 0 1
| 33> C  -21.048   26.222   46.251
| 34> C  -20.361   27.558   45.944
| 35> C  -20.329   28.222   47.341
| 36> C  -20.110   27.022   48.296
| 37> O  -20.473   25.807   47.535
| 38> H  -20.833   25.428   45.533
| 39> H  -19.344   27.382   45.576
| 40> H  -20.898   28.157   45.201
| 41> H  -19.543   28.978   47.434
| 42> H  -21.289   28.710   47.548
| 43> H  -20.733   27.082   49.195
| 44> H  -19.064   26.913   48.597
| 45> C  -23.085   27.864   46.420
| 46> H  -22.309   28.496   46.872
| 47> H  -23.280   28.235   45.406
| 48> O  -22.586   26.394   46.375
| 49> C  -24.391   28.030   47.245
| 50> C  -25.499   27.106   46.724
| 51> C  -25.094   25.750   47.350
| 52> C  -24.502   26.158   48.722
| 53> O  -24.182   27.599   48.630
| 54> H  -24.662   29.087   47.276
| 55> H  -26.472   27.434   47.108
| 56> O  -25.574   27.056   45.174
| 57> H  -25.938   25.059   47.448
| 58> H  -24.333   25.262   46.730
| 59> H  -23.591   25.602   48.968
| 60> H  -25.220   26.039   49.539
| 61> H  -24.610   26.730   44.769
| 62> *
| 63>
| 64>                          ****END OF INPUT****
 Total Charge           Charge          ....    0
 Multiplicity           Mult            ....    1
 Number of Electrons    NEL             ....  102
FINAL SINGLE POINT ENERGY      -652.807520263582
FINAL SINGLE POINT ENERGY      -652.837427278025
FINAL SINGLE POINT ENERGY      -652.852396351070
FINAL SINGLE POINT ENERGY      -652.855270834684
FINAL SINGLE POINT ENERGY      -652.855695521388
FINAL SINGLE POINT ENERGY      -652.855754406908
FINAL SINGLE POINT ENERGY      -652.855763130871
FINAL SINGLE POINT ENERGY      -652.855747622799
                    ***********************HURRAY********************

CARTESIAN COORDINATES (ANGSTROEM)
---------------------------------
  C    -21.163005   26.407807   46.357591
  C    -20.217867   27.545624   45.947916
  C    -19.966778   28.267080   47.305895
  C    -19.967246   27.088869   48.312223
  O    -20.629655   25.957394   47.619435
  H    -21.106385   25.538233   45.700062
  H    -19.290013   27.104495   45.571336
  H    -20.628726   28.201088   45.174304
  H    -19.013581   28.805307   47.311728
  H    -20.752385   28.989785   47.535065
  H    -20.516224   27.311192   49.230859
  H    -18.957022   26.755283   48.565227
  C    -23.180404   28.007572   46.455216
  H    -22.530720   28.731161   46.951544
  H    -23.376637   28.355840   45.432078
  O    -22.582183   26.679754   46.421009
  C    -24.495288   27.959428   47.232288
  C    -25.566366   27.009515   46.666532
  C    -25.146291   25.644199   47.294082
  C    -24.611174   26.058803   48.681284
  O    -24.324155   27.517445   48.606515
  H    -24.871223   28.989212   47.278952
  H    -26.555983   27.319256   47.008283
  O    -25.649667   27.003346   45.219565
  H    -25.987475   24.947061   47.358435
  H    -24.350513   25.205238   46.689281
  H    -23.686225   25.540177   48.944822
  H    -25.350999   25.924726   49.476632
  H    -24.878809   26.517108   44.858838

 Multiplicity           Mult            ....    1
 Number of Electrons    NEL             ....  102
 Basis Dimension        Dim             ....  149

ORBITAL ENERGIES
----------------

  NO   OCC          E(Eh)            E(eV)
   0   2.0000     -19.148357      -521.0533
   1   2.0000     -19.142417      -520.8917
   2   2.0000     -19.136110      -520.7200
   3   2.0000     -19.129304      -520.5348
   4   2.0000     -10.285564      -279.8844
   5   2.0000     -10.233290      -278.4620
   6   2.0000     -10.232293      -278.4348
   7   2.0000     -10.228874      -278.3418
   8   2.0000     -10.227960      -278.3169
   9   2.0000     -10.214620      -277.9539
  10   2.0000     -10.198956      -277.5277
  11   2.0000     -10.196502      -277.4609
  12   2.0000     -10.172817      -276.8164
  13   2.0000      -1.054612       -28.6975
  14   2.0000      -1.023351       -27.8468
  15   2.0000      -1.006017       -27.3751
  16   2.0000      -0.996370       -27.1126
  17   2.0000      -0.792918       -21.5764
  18   2.0000      -0.774625       -21.0786
  19   2.0000      -0.761831       -20.7305
  20   2.0000      -0.733555       -19.9611
  21   2.0000      -0.680225       -18.5099
  22   2.0000      -0.609504       -16.5855
  23   2.0000      -0.599995       -16.3267
  24   2.0000      -0.596059       -16.2196
  25   2.0000      -0.561250       -15.2724
  26   2.0000      -0.528419       -14.3790
  27   2.0000      -0.508670       -13.8416
  28   2.0000      -0.500463       -13.6183
  29   2.0000      -0.488052       -13.2806
  30   2.0000      -0.468444       -12.7470
  31   2.0000      -0.458537       -12.4774
  32   2.0000      -0.444675       -12.1002
  33   2.0000      -0.427140       -11.6231
  34   2.0000      -0.421236       -11.4624
  35   2.0000      -0.417054       -11.3486
  36   2.0000      -0.401755       -10.9323
  37   2.0000      -0.396214       -10.7815
  38   2.0000      -0.389397       -10.5960
  39   2.0000      -0.367124        -9.9899
  40   2.0000      -0.363438        -9.8896
  41   2.0000      -0.355445        -9.6721
  42   2.0000      -0.346913        -9.4400
  43   2.0000      -0.322435        -8.7739
  44   2.0000      -0.314382        -8.5548
  45   2.0000      -0.304839        -8.2951
  46   2.0000      -0.294306        -8.0085
  47   2.0000      -0.276126        -7.5138
  48   2.0000      -0.257961        -7.0195
  49   2.0000      -0.256241        -6.9727
  50   2.0000      -0.234447        -6.3796
  51   0.0000       0.063529         1.7287
  52   0.0000       0.085452         2.3253
  53   0.0000       0.091679         2.4947
  54   0.0000       0.096211         2.6180
  55   0.0000       0.105739         2.8773

MULLIKEN ATOMIC CHARGES
-----------------------
   0 C :    0.319924
   1 C :   -0.297825
   2 C :   -0.314922
   3 C :   -0.007423
   4 O :   -0.498633
   5 H :    0.158800
   6 H :    0.159803
   7 H :    0.148308
   8 H :    0.146867
   9 H :    0.160243
  10 H :    0.159921
  11 H :    0.145698
  12 C :   -0.016566
  13 H :    0.141984
  14 H :    0.136769
  15 O :   -0.548098
  16 C :    0.097228
  17 C :    0.090899
  18 C :   -0.316824
  19 C :   -0.007133
  20 O :   -0.526263
  21 H :    0.143608
  22 H :    0.156956
  23 O :   -0.609487
  24 H :    0.142411
  25 H :    0.172750
  26 H :    0.161194
  27 H :    0.137165
  28 H :    0.362644
Sum of atomic charges:   -0.0000000

LOEWDIN ATOMIC CHARGES
----------------------
   0 C :    0.179476
   1 C :   -0.230304
   2 C :   -0.221853
   3 C :   -0.030773
   4 O :   -0.317191
   5 H :    0.107253
   6 H :    0.124979
   7 H :    0.116991
   8 H :    0.116629
   9 H :    0.112067
  10 H :    0.111424
  11 H :    0.104297
  12 C :   -0.046910
  13 H :    0.103643
  14 H :    0.099073
  15 O :   -0.335272
  16 C :    0.019253
  17 C :    0.038753
  18 C :   -0.244416
  19 C :   -0.025404
  20 O :   -0.326070
  21 H :    0.111376
  22 H :    0.114345
  23 O :   -0.413686
  24 H :    0.113568
  25 H :    0.125398
  26 H :    0.112887
  27 H :    0.098866
  28 H :    0.281601

  Mayer bond orders larger than 0.100000
B(  0-C ,  1-C ) :   0.9303 B(  0-C ,  4-O ) :   0.9172 B(  0-C ,  5-H ) :   0.9354
B(  0-C , 15-O ) :   0.8712 B(  1-C ,  2-C ) :   0.9529 B(  1-C ,  6-H ) :   0.9344
B(  1-C ,  7-H ) :   0.9337 B(  2-C ,  3-C ) :   0.9483 B(  2-C ,  8-H ) :   0.9446
B(  2-C ,  9-H ) :   0.9333 B(  3-C ,  4-O ) :   0.8414 B(  3-C , 10-H ) :   0.9324
B(  3-C , 11-H ) :   0.9392 B( 12-C , 13-H ) :   0.9056 B( 12-C , 14-H ) :   0.9094
B( 12-C , 15-O ) :   0.8274 B( 12-C , 16-C ) :   0.9052 B( 16-C , 17-C ) :   0.8879
B( 16-C , 20-O ) :   0.8851 B( 16-C , 21-H ) :   0.9282 B( 17-C , 18-C ) :   0.9347
B( 17-C , 22-H ) :   0.9375 B( 17-C , 23-O ) :   0.8968 B( 18-C , 19-C ) :   0.9483
B( 18-C , 24-H ) :   0.9409 B( 18-C , 25-H ) :   0.9240 B( 19-C , 20-O ) :   0.8296
B( 19-C , 26-H ) :   0.9290 B( 19-C , 27-H ) :   0.9379 B( 23-O , 28-H ) :   0.7936

FINAL SINGLE POINT ENERGY      -652.855742992063

DIPOLE MOMENT
-------------
                                X             Y             Z
Electronic contribution:     -3.12328      -1.60919      -0.27608
Nuclear contribution   :      4.18958       2.03180      -0.10353
                        -----------------------------------------
Total Dipole Moment    :      1.06630       0.42261      -0.37961
                        -----------------------------------------
Magnitude (a.u.)       :      1.20818
Magnitude (Debye)      :      3.07095

Rotational constants in cm-1:     0.048552     0.016623     0.015194
Rotational constants in MHz :  1455.561538   498.338501   455.518144

                             ****ORCA TERMINATED NORMALLY****
TOTAL RUN TIME: 0 days 0 hours 38 minutes 55 seconds 96 msec
