                         Program Version 4.2.0 -  RELEASE  -
|  1> # Test redundant internal optimization
|  2> #
|  3> ! RKS B3LYP  Opt TightSCF SmallPrint
|  4>
|  5> %basis
|  6>         Basis "6-31G"
|  7> end
|  8>
|  9> %geom
| 10> Constraints
| 11> { D 4  0  15  12  135.0   C } # D for Dihedral angle
| 12> { D 0  15  12  16  135.0   C } # D for Dihedral angle
| 13> { D 0  4  3  2   C } # D for Dihedral angle
| 14> { D 4  3  2  1   C } # D for Dihedral angle
| 15> { D 3  2  1  0   C } # D for Dihedral angle
| 16> { D 2  1  0  4   C } # D for Dihedral angle
| 17> { D 1  0  4  3   C } # D for Dihedral angle
| 18> { D 16  20  19  18   C } # D for Dihedral angle
| 19> { D 20  19  18  17   C } # D for Dihedral angle
| 20> { D 19  18  17  16   C } # D for Dihedral angle
| 21> { D 18  17  16  20   C } # D for Dihedral angle
| 22> { D 17  16  20  19   C } # D for Dihedral angle
| 23> { D 15  12  16  20   C } # D for Dihedral angle
| 24> end
| 25> end
| 26>
| 27>
| 28> #%pal
| 29> #nprocs 8
| 30> #end
| 31>
| 32> * xyz 0 1
| 33> C  -21.048   26.222   46.251
| 34> C  -20.361   27.558   45.944
| 35> C  -20.329   28.222   47.341
| 36> C  -20.110   27.022   48.296
| 37> O  -20.473   25.807   47.535
| 38> H  -20.833   25.428   45.533
| 39> H  -19.344   27.382   45.576
| 40> H  -20.898   28.157   45.201
| 41> H  -19.543   28.978   47.434
| 42> H  -21.289   28.710   47.548
| 43> H  -20.733   27.082   49.195
| 44> H  -19.064   26.913   48.597
| 45> C  -23.162   27.680   45.721
| 46> H  -23.410   28.405   46.505
| 47> H  -22.419   28.136   45.053
| 48> O  -22.586   26.394   46.375
| 49> C  -24.443   27.406   44.885
| 50> C  -25.594   26.923   45.775
| 51> C  -26.093   28.252   46.391
| 52> C  -25.893   29.270   45.241
| 53> O  -24.943   28.651   44.292
| 54> H  -24.196   26.735   44.061
| 55> H  -26.377   26.464   45.160
| 56> O  -25.146   25.892   46.846
| 57> H  -27.134   28.200   46.726
| 58> H  -25.476   28.520   47.257
| 59> H  -25.481   30.222   45.591
| 60> H  -26.817   29.466   44.691
| 61> H  -24.363   26.331   47.474
| 62> *
| 63>
| 64>                          ****END OF INPUT****
 Total Charge           Charge          ....    0
 Multiplicity           Mult            ....    1
 Number of Electrons    NEL             ....  102
FINAL SINGLE POINT ENERGY      -652.817216186626
FINAL SINGLE POINT ENERGY      -652.842738898449
FINAL SINGLE POINT ENERGY      -652.852303307517
FINAL SINGLE POINT ENERGY      -652.855608774130
FINAL SINGLE POINT ENERGY      -652.857433025420
FINAL SINGLE POINT ENERGY      -652.858518726171
FINAL SINGLE POINT ENERGY      -652.859089652643
FINAL SINGLE POINT ENERGY      -652.859241265474
FINAL SINGLE POINT ENERGY      -652.859265667463
FINAL SINGLE POINT ENERGY      -652.859269677807
                    ***********************HURRAY********************

CARTESIAN COORDINATES (ANGSTROEM)
---------------------------------
  C    -21.160881   26.325121   46.264899
  C    -20.195391   27.467249   45.949528
  C    -20.116653   28.208582   47.308876
  C    -20.216349   27.055332   48.330379
  O    -20.777659   25.901807   47.580338
  H    -21.079571   25.449909   45.618851
  H    -19.225861   27.024956   45.695165
  H    -20.492859   28.110138   45.118546
  H    -19.191132   28.781726   47.415182
  H    -20.957163   28.902878   47.415986
  H    -20.875424   27.279238   49.172689
  H    -19.241036   26.736578   48.707756
  C    -23.154112   27.894642   45.695769
  H    -23.370464   28.623350   46.485516
  H    -22.475621   28.355724   44.972924
  O    -22.580027   26.692630   46.303364
  C    -24.431239   27.472545   44.959541
  C    -25.541467   26.904962   45.860749
  C    -26.167263   28.204631   46.445955
  C    -26.056768   29.205199   45.278198
  O    -25.037490   28.647412   44.336785
  H    -24.164748   26.784706   44.152016
  H    -26.279959   26.402302   45.224750
  O    -25.126280   25.966156   46.868879
  H    -27.197547   28.045579   46.774074
  H    -25.582152   28.516873   47.317881
  H    -25.735126   30.204225   45.588687
  H    -26.986497   29.295406   44.709223
  H    -24.141261   25.968145   46.942495

 Multiplicity           Mult            ....    1
 Number of Electrons    NEL             ....  102
 Basis Dimension        Dim             ....  149

ORBITAL ENERGIES
----------------

  NO   OCC          E(Eh)            E(eV)
   0   2.0000     -19.159600      -521.3592
   1   2.0000     -19.150816      -521.1202
   2   2.0000     -19.140477      -520.8389
   3   2.0000     -19.107143      -519.9318
   4   2.0000     -10.295305      -280.1495
   5   2.0000     -10.241875      -278.6956
   6   2.0000     -10.235805      -278.5304
   7   2.0000     -10.233280      -278.4617
   8   2.0000     -10.227605      -278.3073
   9   2.0000     -10.226143      -278.2675
  10   2.0000     -10.204189      -277.6701
  11   2.0000     -10.201926      -277.6085
  12   2.0000     -10.177241      -276.9368
  13   2.0000      -1.064110       -28.9559
  14   2.0000      -1.024900       -27.8889
  15   2.0000      -1.005961       -27.3736
  16   2.0000      -0.987102       -26.8604
  17   2.0000      -0.800981       -21.7958
  18   2.0000      -0.776593       -21.1322
  19   2.0000      -0.767002       -20.8712
  20   2.0000      -0.739626       -20.1262
  21   2.0000      -0.684108       -18.6155
  22   2.0000      -0.614194       -16.7131
  23   2.0000      -0.600957       -16.3529
  24   2.0000      -0.595328       -16.1997
  25   2.0000      -0.575781       -15.6678
  26   2.0000      -0.531903       -14.4738
  27   2.0000      -0.518999       -14.1227
  28   2.0000      -0.510266       -13.8850
  29   2.0000      -0.487401       -13.2629
  30   2.0000      -0.477237       -12.9863
  31   2.0000      -0.463083       -12.6011
  32   2.0000      -0.443270       -12.0620
  33   2.0000      -0.434084       -11.8120
  34   2.0000      -0.429066       -11.6755
  35   2.0000      -0.422752       -11.5037
  36   2.0000      -0.410442       -11.1687
  37   2.0000      -0.391058       -10.6412
  38   2.0000      -0.385916       -10.5013
  39   2.0000      -0.373069       -10.1517
  40   2.0000      -0.367011        -9.9869
  41   2.0000      -0.362551        -9.8655
  42   2.0000      -0.347242        -9.4489
  43   2.0000      -0.341423        -9.2906
  44   2.0000      -0.321955        -8.7608
  45   2.0000      -0.312543        -8.5047
  46   2.0000      -0.285078        -7.7574
  47   2.0000      -0.276108        -7.5133
  48   2.0000      -0.270304        -7.3553
  49   2.0000      -0.245506        -6.6805
  50   2.0000      -0.237728        -6.4689
  51   0.0000       0.056409         1.5350
  52   0.0000       0.070737         1.9249
  53   0.0000       0.090803         2.4709
  54   0.0000       0.096629         2.6294
  55   0.0000       0.101407         2.7594

MULLIKEN ATOMIC CHARGES
-----------------------
   0 C :    0.329524
   1 C :   -0.302326
   2 C :   -0.307244
   3 C :   -0.004426
   4 O :   -0.493067
   5 H :    0.163976
   6 H :    0.161138
   7 H :    0.152915
   8 H :    0.150501
   9 H :    0.155954
  10 H :    0.156362
  11 H :    0.149958
  12 C :   -0.019282
  13 H :    0.146791
  14 H :    0.153138
  15 O :   -0.573877
  16 C :    0.058541
  17 C :    0.119873
  18 C :   -0.298563
  19 C :   -0.021744
  20 O :   -0.523922
  21 H :    0.154680
  22 H :    0.145756
  23 O :   -0.640155
  24 H :    0.151299
  25 H :    0.143850
  26 H :    0.139030
  27 H :    0.150171
  28 H :    0.401151
Sum of atomic charges:   -0.0000000

LOEWDIN ATOMIC CHARGES
----------------------
   0 C :    0.188065
   1 C :   -0.230857
   2 C :   -0.218154
   3 C :   -0.027394
   4 O :   -0.305126
   5 H :    0.110011
   6 H :    0.124973
   7 H :    0.118048
   8 H :    0.119036
   9 H :    0.113227
  10 H :    0.110324
  11 H :    0.107046
  12 C :   -0.044077
  13 H :    0.101134
  14 H :    0.108917
  15 O :   -0.348651
  16 C :    0.015525
  17 C :    0.042013
  18 C :   -0.236716
  19 C :   -0.032705
  20 O :   -0.327411
  21 H :    0.113156
  22 H :    0.103814
  23 O :   -0.434689
  24 H :    0.121766
  25 H :    0.110547
  26 H :    0.100416
  27 H :    0.106184
  28 H :    0.291578

  Mayer bond orders larger than 0.100000
B(  0-C ,  1-C ) :   0.9399 B(  0-C ,  4-O ) :   0.9411 B(  0-C ,  5-H ) :   0.9281
B(  0-C , 15-O ) :   0.8019 B(  1-C ,  2-C ) :   0.9475 B(  1-C ,  6-H ) :   0.9323
B(  1-C ,  7-H ) :   0.9247 B(  2-C ,  3-C ) :   0.9518 B(  2-C ,  8-H ) :   0.9448
B(  2-C ,  9-H ) :   0.9437 B(  3-C ,  4-O ) :   0.8339 B(  3-C , 10-H ) :   0.9342
B(  3-C , 11-H ) :   0.9391 B( 12-C , 13-H ) :   0.9246 B( 12-C , 14-H ) :   0.9150
B( 12-C , 15-O ) :   0.7895 B( 12-C , 16-C ) :   0.8907 B( 16-C , 17-C ) :   0.9146
B( 16-C , 20-O ) :   0.8537 B( 16-C , 21-H ) :   0.9304 B( 17-C , 18-C ) :   0.9020
B( 17-C , 22-H ) :   0.9294 B( 17-C , 23-O ) :   0.9417 B( 18-C , 19-C ) :   0.9382
B( 18-C , 24-H ) :   0.9444 B( 18-C , 25-H ) :   0.9430 B( 19-C , 20-O ) :   0.8318
B( 19-C , 26-H ) :   0.9349 B( 19-C , 27-H ) :   0.9385 B( 23-O , 28-H ) :   0.7183

FINAL SINGLE POINT ENERGY      -652.859269886169

DIPOLE MOMENT
-------------
                                X             Y             Z
Electronic contribution:     -1.60471      -4.86156      -1.28711
Nuclear contribution   :      2.82553       6.18730       1.16175
                        -----------------------------------------
Total Dipole Moment    :      1.22083       1.32574      -0.12536
                        -----------------------------------------
Magnitude (a.u.)       :      1.80658
Magnitude (Debye)      :      4.59195

Rotational constants in cm-1:     0.053740     0.013747     0.012601
Rotational constants in MHz :  1611.075893   412.138509   377.753846

                             ****ORCA TERMINATED NORMALLY****
TOTAL RUN TIME: 0 days 0 hours 23 minutes 9 seconds 250 msec
