                         Program Version 4.2.0 -  RELEASE  -
|  1> # Test redundant internal optimization
|  2> #
|  3> ! RKS B3LYP  Opt TightSCF SmallPrint
|  4>
|  5> %basis
|  6>         Basis "6-31G"
|  7> end
|  8>
|  9> %geom
| 10> Constraints
| 11> { D 4  0  15  12  30.0   C } # D for Dihedral angle
| 12> { D 0  15  12  16  225.0   C } # D for Dihedral angle
| 13> { D 0  4  3  2   C } # D for Dihedral angle
| 14> { D 4  3  2  1   C } # D for Dihedral angle
| 15> { D 3  2  1  0   C } # D for Dihedral angle
| 16> { D 2  1  0  4   C } # D for Dihedral angle
| 17> { D 1  0  4  3   C } # D for Dihedral angle
| 18> { D 16  20  19  18   C } # D for Dihedral angle
| 19> { D 20  19  18  17   C } # D for Dihedral angle
| 20> { D 19  18  17  16   C } # D for Dihedral angle
| 21> { D 18  17  16  20   C } # D for Dihedral angle
| 22> { D 17  16  20  19   C } # D for Dihedral angle
| 23> { D 15  12  16  20   C } # D for Dihedral angle
| 24> end
| 25> end
| 26>
| 27>
| 28> #%pal
| 29> #nprocs 8
| 30> #end
| 31>
| 32> * xyz 0 1
| 33> C  -21.048   26.222   46.251
| 34> C  -20.361   27.558   45.944
| 35> C  -20.329   28.222   47.341
| 36> C  -20.110   27.022   48.296
| 37> O  -20.473   25.807   47.535
| 38> H  -20.833   25.428   45.533
| 39> H  -19.344   27.382   45.576
| 40> H  -20.898   28.157   45.201
| 41> H  -19.543   28.978   47.434
| 42> H  -21.289   28.710   47.548
| 43> H  -20.733   27.082   49.195
| 44> H  -19.064   26.913   48.597
| 45> C  -23.091   26.824   47.779
| 46> H  -22.287   26.683   48.512
| 47> H  -23.372   27.885   47.778
| 48> O  -22.586   26.394   46.375
| 49> C  -24.328   26.009   48.248
| 50> C  -24.869   26.536   49.582
| 51> C  -25.669   27.780   49.127
| 52> C  -26.246   27.345   47.756
| 53> O  -25.443   26.185   47.312
| 54> H  -24.077   24.946   48.250
| 55> O  -25.812   25.484   50.228
| 56> H  -24.079   26.778   50.301
| 57> H  -26.451   28.065   49.837
| 58> H  -24.996   28.637   49.008
| 59> H  -26.179   28.137   47.002
| 60> H  -27.285   27.010   47.828
| 61> H  -26.612   25.226   49.525
| 62> *
| 63>
| 64>                          ****END OF INPUT****
 Total Charge           Charge          ....    0
 Multiplicity           Mult            ....    1
 Number of Electrons    NEL             ....  102
FINAL SINGLE POINT ENERGY      -652.822591665988
FINAL SINGLE POINT ENERGY      -652.847031385606
FINAL SINGLE POINT ENERGY      -652.852728849654
FINAL SINGLE POINT ENERGY      -652.855447339038
FINAL SINGLE POINT ENERGY      -652.855738138503
FINAL SINGLE POINT ENERGY      -652.855785606239
FINAL SINGLE POINT ENERGY      -652.855790785594
                    ***********************HURRAY********************

CARTESIAN COORDINATES (ANGSTROEM)
---------------------------------
  C    -21.182473   26.274925   46.428006
  C    -20.411955   27.506496   45.939257
  C    -20.068172   28.220239   47.274179
  C    -19.827697   27.038747   48.243928
  O    -20.457781   25.851953   47.605366
  H    -21.154298   25.438316   45.728330
  H    -19.500509   27.178383   45.426911
  H    -21.004824   28.118958   45.256579
  H    -19.190767   28.868802   47.192754
  H    -20.911063   28.837828   47.603049
  H    -20.268688   27.190140   49.233954
  H    -18.766211   26.801698   48.361479
  C    -23.112886   26.946105   47.908366
  H    -22.369552   26.780994   48.695684
  H    -23.354099   28.016284   47.853703
  O    -22.602118   26.502807   46.623484
  C    -24.351905   26.118338   48.246805
  C    -25.023505   26.519464   49.568431
  C    -25.892013   27.728245   49.128225
  C    -26.336978   27.333506   47.697416
  O    -25.412746   26.266847   47.247352
  H    -24.070522   25.061240   48.242996
  O    -25.841770   25.433903   50.084994
  H    -24.322738   26.759405   50.369535
  H    -26.730148   27.870580   49.814657
  H    -25.291125   28.645046   49.120372
  H    -26.287215   28.169437   46.992491
  H    -27.348955   26.917147   47.672948
  H    -26.314286   25.009168   49.337747

 Multiplicity           Mult            ....    1
 Number of Electrons    NEL             ....  102
 Basis Dimension        Dim             ....  149

ORBITAL ENERGIES
----------------

  NO   OCC          E(Eh)            E(eV)
   0   2.0000     -19.150874      -521.1218
   1   2.0000     -19.137856      -520.7675
   2   2.0000     -19.137552      -520.7593
   3   2.0000     -19.136986      -520.7439
   4   2.0000     -10.278646      -279.6962
   5   2.0000     -10.241402      -278.6827
   6   2.0000     -10.235653      -278.5263
   7   2.0000     -10.231578      -278.4154
   8   2.0000     -10.230359      -278.3822
   9   2.0000     -10.228035      -278.3190
  10   2.0000     -10.195603      -277.4365
  11   2.0000     -10.188753      -277.2501
  12   2.0000     -10.187450      -277.2146
  13   2.0000      -1.055293       -28.7160
  14   2.0000      -1.034026       -28.1373
  15   2.0000      -1.004602       -27.3366
  16   2.0000      -0.993125       -27.0243
  17   2.0000      -0.792162       -21.5558
  18   2.0000      -0.783383       -21.3169
  19   2.0000      -0.768865       -20.9219
  20   2.0000      -0.734848       -19.9962
  21   2.0000      -0.674940       -18.3661
  22   2.0000      -0.606563       -16.5054
  23   2.0000      -0.603865       -16.4320
  24   2.0000      -0.597653       -16.2630
  25   2.0000      -0.575210       -15.6523
  26   2.0000      -0.523892       -14.2558
  27   2.0000      -0.511694       -13.9239
  28   2.0000      -0.501850       -13.6560
  29   2.0000      -0.491013       -13.3611
  30   2.0000      -0.476420       -12.9640
  31   2.0000      -0.463095       -12.6015
  32   2.0000      -0.451492       -12.2857
  33   2.0000      -0.437032       -11.8922
  34   2.0000      -0.423533       -11.5249
  35   2.0000      -0.418443       -11.3864
  36   2.0000      -0.398406       -10.8412
  37   2.0000      -0.391559       -10.6549
  38   2.0000      -0.379635       -10.3304
  39   2.0000      -0.370579       -10.0840
  40   2.0000      -0.363190        -9.8829
  41   2.0000      -0.357635        -9.7317
  42   2.0000      -0.352161        -9.5828
  43   2.0000      -0.329898        -8.9770
  44   2.0000      -0.327679        -8.9166
  45   2.0000      -0.311787        -8.4841
  46   2.0000      -0.300441        -8.1754
  47   2.0000      -0.269519        -7.3340
  48   2.0000      -0.266102        -7.2410
  49   2.0000      -0.256545        -6.9809
  50   2.0000      -0.235387        -6.4052
  51   0.0000       0.065995         1.7958
  52   0.0000       0.075452         2.0532
  53   0.0000       0.085032         2.3138
  54   0.0000       0.098039         2.6678
  55   0.0000       0.101803         2.7702

MULLIKEN ATOMIC CHARGES
-----------------------
   0 C :    0.292529
   1 C :   -0.259227
   2 C :   -0.311085
   3 C :   -0.022535
   4 O :   -0.508696
   5 H :    0.166843
   6 H :    0.147655
   7 H :    0.158379
   8 H :    0.148693
   9 H :    0.149461
  10 H :    0.141527
  11 H :    0.153486
  12 C :   -0.012872
  13 H :    0.147470
  14 H :    0.128426
  15 O :   -0.513528
  16 C :    0.071026
  17 C :    0.077867
  18 C :   -0.299303
  19 C :   -0.028194
  20 O :   -0.508403
  21 H :    0.170701
  22 O :   -0.601965
  23 H :    0.148013
  24 H :    0.163997
  25 H :    0.139333
  26 H :    0.148883
  27 H :    0.144829
  28 H :    0.366692
Sum of atomic charges:   -0.0000000

LOEWDIN ATOMIC CHARGES
----------------------
   0 C :    0.179418
   1 C :   -0.225963
   2 C :   -0.222462
   3 C :   -0.036020
   4 O :   -0.319637
   5 H :    0.112945
   6 H :    0.116276
   7 H :    0.124114
   8 H :    0.118024
   9 H :    0.110654
  10 H :    0.098911
  11 H :    0.107635
  12 C :   -0.046166
  13 H :    0.108559
  14 H :    0.093381
  15 O :   -0.319141
  16 C :    0.016014
  17 C :    0.034456
  18 C :   -0.242292
  19 C :   -0.038437
  20 O :   -0.319963
  21 H :    0.122434
  22 O :   -0.414511
  23 H :    0.113316
  24 H :    0.126952
  25 H :    0.110101
  26 H :    0.105040
  27 H :    0.102036
  28 H :    0.284325

  Mayer bond orders larger than 0.100000
B(  0-C ,  1-C ) :   0.9153 B(  0-C ,  4-O ) :   0.9026 B(  0-C ,  5-H ) :   0.9332
B(  0-C , 15-O ) :   0.8806 B(  1-C ,  2-C ) :   0.9552 B(  1-C ,  6-H ) :   0.9347
B(  1-C ,  7-H ) :   0.9370 B(  2-C ,  3-C ) :   0.9496 B(  2-C ,  8-H ) :   0.9447
B(  2-C ,  9-H ) :   0.9441 B(  3-C ,  4-O ) :   0.8361 B(  3-C , 10-H ) :   0.9300
B(  3-C , 11-H ) :   0.9398 B( 12-C , 13-H ) :   0.8999 B( 12-C , 14-H ) :   0.9212
B( 12-C , 15-O ) :   0.8440 B( 12-C , 16-C ) :   0.8947 B( 16-C , 17-C ) :   0.8988
B( 16-C , 20-O ) :   0.8659 B( 16-C , 21-H ) :   0.9234 B( 17-C , 18-C ) :   0.9087
B( 17-C , 22-O ) :   0.8962 B( 17-C , 23-H ) :   0.9333 B( 18-C , 19-C ) :   0.9414
B( 18-C , 24-H ) :   0.9371 B( 18-C , 25-H ) :   0.9350 B( 19-C , 20-O ) :   0.8526
B( 19-C , 26-H ) :   0.9339 B( 19-C , 27-H ) :   0.9379 B( 22-O , 28-H ) :   0.7930

FINAL SINGLE POINT ENERGY      -652.855779897138

DIPOLE MOMENT
-------------
                                X             Y             Z
Electronic contribution:     -2.52626      -5.98954      -1.00173
Nuclear contribution   :      3.12447       7.47589       1.12047
                        -----------------------------------------
Total Dipole Moment    :      0.59821       1.48635       0.11875
                        -----------------------------------------
Magnitude (a.u.)       :      1.60661
Magnitude (Debye)      :      4.08368

Rotational constants in cm-1:     0.056568     0.012687     0.012083
Rotational constants in MHz :  1695.870256   380.343400   362.248350

                             ****ORCA TERMINATED NORMALLY****
TOTAL RUN TIME: 0 days 0 hours 35 minutes 33 seconds 219 msec
