                         Program Version 4.2.0 -  RELEASE  -
|  1> # Test redundant internal optimization
|  2> #
|  3> ! RKS B3LYP  Opt TightSCF SmallPrint
|  4>
|  5> %basis
|  6>         Basis "6-31G"
|  7> end
|  8>
|  9> %geom
| 10> Constraints
| 11> { D 4  0  15  12  105.0   C } # D for Dihedral angle
| 12> { D 0  15  12  16  210.0   C } # D for Dihedral angle
| 13> { D 0  4  3  2   C } # D for Dihedral angle
| 14> { D 4  3  2  1   C } # D for Dihedral angle
| 15> { D 3  2  1  0   C } # D for Dihedral angle
| 16> { D 2  1  0  4   C } # D for Dihedral angle
| 17> { D 1  0  4  3   C } # D for Dihedral angle
| 18> { D 16  20  19  18   C } # D for Dihedral angle
| 19> { D 20  19  18  17   C } # D for Dihedral angle
| 20> { D 19  18  17  16   C } # D for Dihedral angle
| 21> { D 18  17  16  20   C } # D for Dihedral angle
| 22> { D 17  16  20  19   C } # D for Dihedral angle
| 23> { D 15  12  16  20   C } # D for Dihedral angle
| 24> end
| 25> end
| 26>
| 27>
| 28> #%pal
| 29> #nprocs 8
| 30> #end
| 31>
| 32> * xyz 0 1
| 33> C  -21.048   26.222   46.251
| 34> C  -20.361   27.558   45.944
| 35> C  -20.329   28.222   47.341
| 36> C  -20.110   27.022   48.296
| 37> O  -20.473   25.807   47.535
| 38> H  -20.833   25.428   45.533
| 39> H  -19.344   27.382   45.576
| 40> H  -20.898   28.157   45.201
| 41> H  -19.543   28.978   47.434
| 42> H  -21.289   28.710   47.548
| 43> H  -20.733   27.082   49.195
| 44> H  -19.064   26.913   48.597
| 45> C  -23.085   27.864   46.420
| 46> H  -22.309   28.496   46.872
| 47> H  -23.280   28.235   45.406
| 48> O  -22.586   26.394   46.375
| 49> C  -24.391   28.030   47.245
| 50> C  -24.163   27.695   48.723
| 51> C  -23.491   28.989   49.238
| 52> C  -24.193   30.101   48.418
| 53> O  -24.816   29.434   47.254
| 54> H  -25.190   27.458   46.769
| 55> O  -25.525   27.464   49.432
| 56> H  -23.542   26.805   48.872
| 57> H  -23.610   29.129   50.317
| 58> H  -22.416   28.968   49.020
| 59> H  -23.493   30.864   48.062
| 60> H  -24.995   30.589   48.978
| 61> H  -26.165   28.344   49.297
| 62> *
| 63>
| 64>                          ****END OF INPUT****
 Total Charge           Charge          ....    0
 Multiplicity           Mult            ....    1
 Number of Electrons    NEL             ....  102
FINAL SINGLE POINT ENERGY      -652.804636174918
FINAL SINGLE POINT ENERGY      -652.836088582780
FINAL SINGLE POINT ENERGY      -652.851854665353
FINAL SINGLE POINT ENERGY      -652.854348796578
FINAL SINGLE POINT ENERGY      -652.854761633236
FINAL SINGLE POINT ENERGY      -652.854830298530
FINAL SINGLE POINT ENERGY      -652.854838098753
FINAL SINGLE POINT ENERGY      -652.854827519324
                    ***********************HURRAY********************

CARTESIAN COORDINATES (ANGSTROEM)
---------------------------------
  C    -21.217327   26.346389   46.380391
  C    -20.204471   27.383640   45.874256
  C    -19.847050   28.154929   47.180132
  C    -19.898302   27.035571   48.251236
  O    -20.670052   25.923086   47.649586
  H    -21.242079   25.439101   45.774458
  H    -19.328151   26.851444   45.491878
  H    -20.594467   28.026258   45.079793
  H    -18.857837   28.620243   47.125748
  H    -20.569599   28.947825   47.389131
  H    -20.384921   27.350115   49.179179
  H    -18.905926   26.641240   48.487285
  C    -23.118233   28.078940   46.441572
  H    -22.409406   28.798973   46.860162
  H    -23.346359   28.381737   45.413116
  O    -22.610911   26.714677   46.462764
  C    -24.406222   28.075850   47.268256
  C    -24.229381   27.713601   48.750010
  C    -23.727750   29.054972   49.343273
  C    -24.494168   30.116477   48.515351
  O    -24.977627   29.427851   47.291143
  H    -25.141377   27.419033   46.795811
  O    -25.500290   27.316541   49.336007
  H    -23.551699   26.875700   48.903776
  H    -23.949634   29.108303   50.412378
  H    -22.643677   29.151610   49.214966
  H    -23.868291   30.965120   48.221945
  H    -25.376534   30.498590   49.037349
  H    -26.203260   27.922185   49.018049

 Multiplicity           Mult            ....    1
 Number of Electrons    NEL             ....  102
 Basis Dimension        Dim             ....  149

ORBITAL ENERGIES
----------------

  NO   OCC          E(Eh)            E(eV)
   0   2.0000     -19.146380      -520.9995
   1   2.0000     -19.145720      -520.9815
   2   2.0000     -19.143820      -520.9298
   3   2.0000     -19.132902      -520.6327
   4   2.0000     -10.283942      -279.8403
   5   2.0000     -10.235572      -278.5241
   6   2.0000     -10.233534      -278.4686
   7   2.0000     -10.233308      -278.4625
   8   2.0000     -10.233236      -278.4605
   9   2.0000     -10.232433      -278.4387
  10   2.0000     -10.200693      -277.5750
  11   2.0000     -10.199872      -277.5526
  12   2.0000     -10.189474      -277.2697
  13   2.0000      -1.054138       -28.6846
  14   2.0000      -1.035718       -28.1833
  15   2.0000      -1.003184       -27.2980
  16   2.0000      -0.999331       -27.1932
  17   2.0000      -0.795305       -21.6413
  18   2.0000      -0.782624       -21.2963
  19   2.0000      -0.772073       -21.0092
  20   2.0000      -0.735177       -20.0052
  21   2.0000      -0.682289       -18.5660
  22   2.0000      -0.611218       -16.6321
  23   2.0000      -0.604139       -16.4395
  24   2.0000      -0.597804       -16.2671
  25   2.0000      -0.577606       -15.7175
  26   2.0000      -0.526795       -14.3348
  27   2.0000      -0.512859       -13.9556
  28   2.0000      -0.507670       -13.8144
  29   2.0000      -0.495810       -13.4917
  30   2.0000      -0.475841       -12.9483
  31   2.0000      -0.456274       -12.4158
  32   2.0000      -0.452618       -12.3164
  33   2.0000      -0.440717       -11.9925
  34   2.0000      -0.430725       -11.7206
  35   2.0000      -0.417957       -11.3732
  36   2.0000      -0.411476       -11.1968
  37   2.0000      -0.392364       -10.6768
  38   2.0000      -0.389283       -10.5929
  39   2.0000      -0.370138       -10.0720
  40   2.0000      -0.366231        -9.9657
  41   2.0000      -0.362217        -9.8564
  42   2.0000      -0.353183        -9.6106
  43   2.0000      -0.332750        -9.0546
  44   2.0000      -0.319242        -8.6870
  45   2.0000      -0.305454        -8.3118
  46   2.0000      -0.296076        -8.0566
  47   2.0000      -0.277950        -7.5634
  48   2.0000      -0.265260        -7.2181
  49   2.0000      -0.257086        -6.9957
  50   2.0000      -0.246151        -6.6981
  51   0.0000       0.048252         1.3130
  52   0.0000       0.064892         1.7658
  53   0.0000       0.086793         2.3618
  54   0.0000       0.094766         2.5787
  55   0.0000       0.101629         2.7655

MULLIKEN ATOMIC CHARGES
-----------------------
   0 C :    0.312545
   1 C :   -0.295729
   2 C :   -0.314665
   3 C :   -0.008836
   4 O :   -0.496640
   5 H :    0.166520
   6 H :    0.161831
   7 H :    0.150956
   8 H :    0.148306
   9 H :    0.148934
  10 H :    0.145199
  11 H :    0.149800
  12 C :   -0.006591
  13 H :    0.124546
  14 H :    0.151131
  15 O :   -0.531316
  16 C :    0.057570
  17 C :    0.084003
  18 C :   -0.309958
  19 C :   -0.029171
  20 O :   -0.527466
  21 H :    0.172305
  22 O :   -0.600956
  23 H :    0.188596
  24 H :    0.166022
  25 H :    0.140811
  26 H :    0.142038
  27 H :    0.148265
  28 H :    0.361952
Sum of atomic charges:   -0.0000000

LOEWDIN ATOMIC CHARGES
----------------------
   0 C :    0.178637
   1 C :   -0.230086
   2 C :   -0.222691
   3 C :   -0.033221
   4 O :   -0.317212
   5 H :    0.111187
   6 H :    0.125957
   7 H :    0.118445
   8 H :    0.117461
   9 H :    0.105850
  10 H :    0.102296
  11 H :    0.106152
  12 C :   -0.038609
  13 H :    0.092195
  14 H :    0.106709
  15 O :   -0.327017
  16 C :    0.017352
  17 C :    0.037174
  18 C :   -0.244988
  19 C :   -0.038786
  20 O :   -0.331689
  21 H :    0.121057
  22 O :   -0.412666
  23 H :    0.132962
  24 H :    0.128178
  25 H :    0.108921
  26 H :    0.101759
  27 H :    0.103876
  28 H :    0.280799

  Mayer bond orders larger than 0.100000
B(  0-C ,  1-C ) :   0.9275 B(  0-C ,  4-O ) :   0.9048 B(  0-C ,  5-H ) :   0.9339
B(  0-C , 15-O ) :   0.8869 B(  1-C ,  2-C ) :   0.9514 B(  1-C ,  6-H ) :   0.9342
B(  1-C ,  7-H ) :   0.9338 B(  2-C ,  3-C ) :   0.9467 B(  2-C ,  8-H ) :   0.9445
B(  2-C ,  9-H ) :   0.9352 B(  3-C ,  4-O ) :   0.8490 B(  3-C , 10-H ) :   0.9323
B(  3-C , 11-H ) :   0.9383 B( 12-C , 13-H ) :   0.9046 B( 12-C , 14-H ) :   0.9227
B( 12-C , 15-O ) :   0.8239 B( 12-C , 16-C ) :   0.9033 B( 16-C , 17-C ) :   0.9120
B( 16-C , 20-O ) :   0.8426 B( 16-C , 21-H ) :   0.9240 B( 17-C , 18-C ) :   0.9114
B( 17-C , 22-O ) :   0.8885 B( 17-C , 23-H ) :   0.9175 B( 18-C , 19-C ) :   0.9414
B( 18-C , 24-H ) :   0.9371 B( 18-C , 25-H ) :   0.9335 B( 19-C , 20-O ) :   0.8445
B( 19-C , 26-H ) :   0.9359 B( 19-C , 27-H ) :   0.9381 B( 22-O , 28-H ) :   0.7959

FINAL SINGLE POINT ENERGY      -652.854824632472

DIPOLE MOMENT
-------------
                                X             Y             Z
Electronic contribution:     -5.29618      -4.50839      -0.91463
Nuclear contribution   :      6.56416       5.92298       0.64078
                        -----------------------------------------
Total Dipole Moment    :      1.26797       1.41459      -0.27385
                        -----------------------------------------
Magnitude (a.u.)       :      1.91933
Magnitude (Debye)      :      4.87854

Rotational constants in cm-1:     0.046633     0.015141     0.014997
Rotational constants in MHz :  1398.029576   453.929681   449.589715

                             ****ORCA TERMINATED NORMALLY****
TOTAL RUN TIME: 0 days 1 hours 13 minutes 3 seconds 947 msec
