                         Program Version 4.2.0 -  RELEASE  -
|  1> # Test redundant internal optimization
|  2> #
|  3> ! RKS B3LYP  Opt TightSCF SmallPrint
|  4>
|  5> %basis
|  6>         Basis "6-31G"
|  7> end
|  8>
|  9> %geom
| 10> Constraints
| 11> { D 4  0  15  12  270.0   C } # D for Dihedral angle
| 12> { D 0  15  12  16  270.0   C } # D for Dihedral angle
| 13> { D 0  4  3  2   C } # D for Dihedral angle
| 14> { D 4  3  2  1   C } # D for Dihedral angle
| 15> { D 3  2  1  0   C } # D for Dihedral angle
| 16> { D 2  1  0  4   C } # D for Dihedral angle
| 17> { D 1  0  4  3   C } # D for Dihedral angle
| 18> { D 16  20  19  18   C } # D for Dihedral angle
| 19> { D 20  19  18  17   C } # D for Dihedral angle
| 20> { D 19  18  17  16   C } # D for Dihedral angle
| 21> { D 18  17  16  20   C } # D for Dihedral angle
| 22> { D 17  16  20  19   C } # D for Dihedral angle
| 23> { D 15  12  16  20   C } # D for Dihedral angle
| 24> end
| 25> end
| 26>
| 27>
| 28> #%pal
| 29> #nprocs 8
| 30> #end
| 31>
| 32> * xyz 0 1
| 33> C  -21.048   26.222   46.251
| 34> C  -20.361   27.558   45.944
| 35> C  -20.329   28.222   47.341
| 36> C  -20.110   27.022   48.296
| 37> O  -20.473   25.807   47.535
| 38> H  -20.833   25.428   45.533
| 39> H  -19.344   27.382   45.576
| 40> H  -20.898   28.157   45.201
| 41> H  -19.543   28.978   47.434
| 42> H  -21.289   28.710   47.548
| 43> H  -20.733   27.082   49.195
| 44> H  -19.064   26.913   48.597
| 45> C  -23.420   25.119   46.072
| 46> H  -22.837   24.231   46.348
| 47> H  -24.346   25.117   46.661
| 48> O  -22.586   26.394   46.375
| 49> C  -23.812   24.999   44.573
| 50> C  -24.728   23.795   44.332
| 51> C  -26.096   24.342   44.806
| 52> C  -26.042   25.833   44.388
| 53> O  -24.617   26.154   44.161
| 54> H  -22.905   25.007   43.965
| 55> O  -24.770   23.451   42.818
| 56> H  -24.416   22.900   44.881
| 57> H  -26.943   23.813   44.356
| 58> H  -26.182   24.249   45.895
| 59> H  -26.440   26.499   45.161
| 60> H  -26.570   26.023   43.449
| 61> H  -25.081   24.334   42.248
| 62> *
| 63>
| 64>                          ****END OF INPUT****
 Total Charge           Charge          ....    0
 Multiplicity           Mult            ....    1
 Number of Electrons    NEL             ....  102
FINAL SINGLE POINT ENERGY      -652.834635718811
FINAL SINGLE POINT ENERGY      -652.858350755385
FINAL SINGLE POINT ENERGY      -652.862502051561
FINAL SINGLE POINT ENERGY      -652.863284307100
FINAL SINGLE POINT ENERGY      -652.863399749575
FINAL SINGLE POINT ENERGY      -652.863409892306
                    ***********************HURRAY********************

CARTESIAN COORDINATES (ANGSTROEM)
---------------------------------
  C    -21.097239   26.148749   46.197340
  C    -20.494629   27.521287   45.897241
  C    -20.455533   28.164068   47.302681
  C    -20.144137   26.965394   48.226531
  O    -20.470508   25.749562   47.439538
  H    -20.876002   25.360564   45.471641
  H    -19.482487   27.393214   45.496082
  H    -21.096852   28.083021   45.180698
  H    -19.705398   28.956892   47.382980
  H    -21.436070   28.587690   47.538249
  H    -20.741684   26.963683   49.141597
  H    -19.083793   26.893290   48.487241
  C    -23.347517   25.152934   46.117943
  H    -22.813891   24.241950   46.425734
  H    -24.217229   25.275465   46.769687
  O    -22.522436   26.327064   46.354577
  C    -23.778921   25.043244   44.654237
  C    -24.696421   23.846174   44.369441
  C    -26.080847   24.400024   44.800794
  C    -25.999621   25.893786   44.397962
  O    -24.561079   26.206050   44.224513
  H    -22.893950   25.014563   44.009844
  O    -24.671236   23.495841   42.958084
  H    -24.413067   22.933363   44.895546
  H    -26.885412   23.862501   44.293659
  H    -26.216503   24.283470   45.881987
  H    -26.419666   26.561099   45.156534
  H    -26.492866   26.098205   43.442447
  H    -24.721005   24.317854   42.425190

 Multiplicity           Mult            ....    1
 Number of Electrons    NEL             ....  102
 Basis Dimension        Dim             ....  149

ORBITAL ENERGIES
----------------

  NO   OCC          E(Eh)            E(eV)
   0   2.0000     -19.142401      -520.8912
   1   2.0000     -19.141188      -520.8582
   2   2.0000     -19.141035      -520.8541
   3   2.0000     -19.134752      -520.6831
   4   2.0000     -10.275713      -279.6164
   5   2.0000     -10.245586      -278.7966
   6   2.0000     -10.235770      -278.5295
   7   2.0000     -10.232078      -278.4290
   8   2.0000     -10.231988      -278.4266
   9   2.0000     -10.220817      -278.1226
  10   2.0000     -10.192254      -277.3453
  11   2.0000     -10.180394      -277.0226
  12   2.0000     -10.180009      -277.0121
  13   2.0000      -1.051055       -28.6006
  14   2.0000      -1.037520       -28.2323
  15   2.0000      -1.008072       -27.4310
  16   2.0000      -0.990768       -26.9602
  17   2.0000      -0.788907       -21.4672
  18   2.0000      -0.780721       -21.2445
  19   2.0000      -0.766382       -20.8543
  20   2.0000      -0.730007       -19.8645
  21   2.0000      -0.673732       -18.3332
  22   2.0000      -0.607054       -16.5188
  23   2.0000      -0.601908       -16.3788
  24   2.0000      -0.593011       -16.1366
  25   2.0000      -0.575264       -15.6537
  26   2.0000      -0.528730       -14.3875
  27   2.0000      -0.511533       -13.9195
  28   2.0000      -0.492259       -13.3950
  29   2.0000      -0.490251       -13.3404
  30   2.0000      -0.472485       -12.8570
  31   2.0000      -0.455006       -12.3813
  32   2.0000      -0.452696       -12.3185
  33   2.0000      -0.438942       -11.9442
  34   2.0000      -0.426660       -11.6100
  35   2.0000      -0.410942       -11.1823
  36   2.0000      -0.398105       -10.8330
  37   2.0000      -0.394941       -10.7469
  38   2.0000      -0.374716       -10.1965
  39   2.0000      -0.368594       -10.0300
  40   2.0000      -0.357898        -9.7389
  41   2.0000      -0.351817        -9.5734
  42   2.0000      -0.345569        -9.4034
  43   2.0000      -0.334098        -9.0913
  44   2.0000      -0.322203        -8.7676
  45   2.0000      -0.309568        -8.4238
  46   2.0000      -0.298260        -8.1161
  47   2.0000      -0.274041        -7.4570
  48   2.0000      -0.271496        -7.3878
  49   2.0000      -0.250549        -6.8178
  50   2.0000      -0.238028        -6.4771
  51   0.0000       0.064360         1.7513
  52   0.0000       0.086362         2.3500
  53   0.0000       0.089190         2.4270
  54   0.0000       0.095964         2.6113
  55   0.0000       0.100872         2.7449

MULLIKEN ATOMIC CHARGES
-----------------------
   0 C :    0.277151
   1 C :   -0.256369
   2 C :   -0.300248
   3 C :   -0.000881
   4 O :   -0.511339
   5 H :    0.138266
   6 H :    0.141982
   7 H :    0.162970
   8 H :    0.139434
   9 H :    0.165426
  10 H :    0.146521
  11 H :    0.140182
  12 C :   -0.019684
  13 H :    0.141083
  14 H :    0.151303
  15 O :   -0.499380
  16 C :    0.065487
  17 C :    0.075958
  18 C :   -0.298831
  19 C :   -0.028486
  20 O :   -0.511173
  21 H :    0.156716
  22 O :   -0.600006
  23 H :    0.153216
  24 H :    0.163526
  25 H :    0.145433
  26 H :    0.152110
  27 H :    0.145148
  28 H :    0.364486
Sum of atomic charges:   -0.0000000

LOEWDIN ATOMIC CHARGES
----------------------
   0 C :    0.170121
   1 C :   -0.215709
   2 C :   -0.216158
   3 C :   -0.027058
   4 O :   -0.329558
   5 H :    0.095383
   6 H :    0.112308
   7 H :    0.126841
   8 H :    0.112623
   9 H :    0.120667
  10 H :    0.105256
  11 H :    0.101392
  12 C :   -0.043139
  13 H :    0.104445
  14 H :    0.112533
  15 O :   -0.315138
  16 C :    0.005834
  17 C :    0.034526
  18 C :   -0.241324
  19 C :   -0.038062
  20 O :   -0.323530
  21 H :    0.112400
  22 O :   -0.413573
  23 H :    0.115844
  24 H :    0.127361
  25 H :    0.113548
  26 H :    0.106968
  27 H :    0.102104
  28 H :    0.283094

  Mayer bond orders larger than 0.100000
B(  0-C ,  1-C ) :   0.9477 B(  0-C ,  4-O ) :   0.9118 B(  0-C ,  5-H ) :   0.9177
B(  0-C , 15-O ) :   0.8606 B(  1-C ,  2-C ) :   0.9574 B(  1-C ,  6-H ) :   0.9402
B(  1-C ,  7-H ) :   0.9350 B(  2-C ,  3-C ) :   0.9550 B(  2-C ,  8-H ) :   0.9454
B(  2-C ,  9-H ) :   0.9437 B(  3-C ,  4-O ) :   0.8384 B(  3-C , 10-H ) :   0.9358
B(  3-C , 11-H ) :   0.9403 B( 12-C , 13-H ) :   0.9128 B( 12-C , 14-H ) :   0.9381
B( 12-C , 15-O ) :   0.8594 B( 12-C , 16-C ) :   0.8795 B( 16-C , 17-C ) :   0.8976
B( 16-C , 20-O ) :   0.8658 B( 16-C , 21-H ) :   0.9248 B( 17-C , 18-C ) :   0.9122
B( 17-C , 22-O ) :   0.8936 B( 17-C , 23-H ) :   0.9328 B( 18-C , 19-C ) :   0.9402
B( 18-C , 24-H ) :   0.9376 B( 18-C , 25-H ) :   0.9342 B( 19-C , 20-O ) :   0.8488
B( 19-C , 26-H ) :   0.9335 B( 19-C , 27-H ) :   0.9378 B( 22-O , 28-H ) :   0.7943

FINAL SINGLE POINT ENERGY      -652.863411745012

DIPOLE MOMENT
-------------
                                X             Y             Z
Electronic contribution:     -0.15782      -2.28738      -2.14273
Nuclear contribution   :     -0.15294       2.63799       2.35509
                        -----------------------------------------
Total Dipole Moment    :     -0.31075       0.35061       0.21237
                        -----------------------------------------
Magnitude (a.u.)       :      0.51439
Magnitude (Debye)      :      1.30747

Rotational constants in cm-1:     0.066794     0.011322     0.010978
Rotational constants in MHz :  2002.437295   339.436120   329.103523

                             ****ORCA TERMINATED NORMALLY****
TOTAL RUN TIME: 0 days 0 hours 19 minutes 51 seconds 449 msec
