                         Program Version 4.2.0 -  RELEASE  -
|  1> # Test redundant internal optimization
|  2> #
|  3> ! RKS B3LYP  Opt TightSCF SmallPrint
|  4>
|  5> %basis
|  6>         Basis "6-31G"
|  7> end
|  8>
|  9> %geom
| 10> Constraints
| 11> { D 4  0  15  12  300.0   C } # D for Dihedral angle
| 12> { D 0  15  12  16  45.0   C } # D for Dihedral angle
| 13> { D 0  4  3  2   C } # D for Dihedral angle
| 14> { D 4  3  2  1   C } # D for Dihedral angle
| 15> { D 3  2  1  0   C } # D for Dihedral angle
| 16> { D 2  1  0  4   C } # D for Dihedral angle
| 17> { D 1  0  4  3   C } # D for Dihedral angle
| 18> { D 16  20  19  18   C } # D for Dihedral angle
| 19> { D 20  19  18  17   C } # D for Dihedral angle
| 20> { D 19  18  17  16   C } # D for Dihedral angle
| 21> { D 18  17  16  20   C } # D for Dihedral angle
| 22> { D 17  16  20  19   C } # D for Dihedral angle
| 23> { D 15  12  16  20   C } # D for Dihedral angle
| 24> end
| 25> end
| 26>
| 27>
| 28> #%pal
| 29> #nprocs 8
| 30> #end
| 31>
| 32> * xyz 0 1
| 33> C  -21.048   26.222   46.251
| 34> C  -20.361   27.558   45.944
| 35> C  -20.329   28.222   47.341
| 36> C  -20.110   27.022   48.296
| 37> O  -20.473   25.807   47.535
| 38> H  -20.833   25.428   45.533
| 39> H  -19.344   27.382   45.576
| 40> H  -20.898   28.157   45.201
| 41> H  -19.543   28.978   47.434
| 42> H  -21.289   28.710   47.548
| 43> H  -20.733   27.082   49.195
| 44> H  -19.064   26.913   48.597
| 45> C  -23.362   25.116   46.798
| 46> H  -24.377   25.395   47.106
| 47> H  -23.438   24.417   45.955
| 48> O  -22.586   26.394   46.375
| 49> C  -22.683   24.364   47.976
| 50> C  -23.408   23.051   48.289
| 51> C  -22.865   22.120   47.179
| 52> C  -21.403   22.598   47.003
| 53> O  -21.326   23.947   47.604
| 54> H  -22.587   25.042   48.826
| 55> H  -23.114   22.684   49.279
| 56> O  -24.955   23.186   48.258
| 57> H  -22.929   21.059   47.445
| 58> H  -23.434   22.267   46.253
| 59> H  -21.104   22.657   45.950
| 60> H  -20.689   21.965   47.539
| 61> H  -25.275   23.551   47.276
| 62> *
| 63>
| 64>                          ****END OF INPUT****
 Total Charge           Charge          ....    0
 Multiplicity           Mult            ....    1
 Number of Electrons    NEL             ....  102
FINAL SINGLE POINT ENERGY      -652.793637908755
FINAL SINGLE POINT ENERGY      -652.825402264083
FINAL SINGLE POINT ENERGY      -652.845266166034
FINAL SINGLE POINT ENERGY      -652.848782897246
FINAL SINGLE POINT ENERGY      -652.849372616658
FINAL SINGLE POINT ENERGY      -652.849490844277
FINAL SINGLE POINT ENERGY      -652.849502013266
FINAL SINGLE POINT ENERGY      -652.849504623531
                    ***********************HURRAY********************

CARTESIAN COORDINATES (ANGSTROEM)
---------------------------------
  C    -20.870020   26.317914   46.232999
  C    -20.510242   27.775842   45.948948
  C    -20.453121   28.371519   47.374559
  C    -19.888262   27.208666   48.217706
  O    -20.091464   25.981269   47.401363
  H    -20.575867   25.592101   45.467927
  H    -19.527196   27.812290   45.465212
  H    -21.244211   28.265168   45.305598
  H    -19.830005   29.269386   47.431332
  H    -21.464219   28.630222   47.701329
  H    -20.398391   27.084754   49.176647
  H    -18.811252   27.291846   48.392772
  C    -23.080467   25.126734   46.819323
  H    -24.047407   25.552974   47.103140
  H    -23.235372   24.508255   45.916553
  O    -22.302084   26.286703   46.420306
  C    -22.621121   24.215845   47.962660
  C    -23.576984   23.032964   48.198616
  C    -23.058175   21.988710   47.161152
  C    -21.535230   22.236738   47.162798
  O    -21.321409   23.582843   47.760530
  H    -22.504615   24.822826   48.866048
  H    -23.436917   22.659380   49.215021
  O    -24.990282   23.336371   48.111998
  H    -23.326177   20.966067   47.439433
  H    -23.499763   22.197612   46.177849
  H    -21.097719   22.217815   46.159961
  H    -20.999349   21.520750   47.792788
  H    -25.262677   23.440436   47.177432

 Multiplicity           Mult            ....    1
 Number of Electrons    NEL             ....  102
 Basis Dimension        Dim             ....  149

ORBITAL ENERGIES
----------------

  NO   OCC          E(Eh)            E(eV)
   0   2.0000     -19.149979      -521.0974
   1   2.0000     -19.135307      -520.6982
   2   2.0000     -19.132582      -520.6240
   3   2.0000     -19.127267      -520.4794
   4   2.0000     -10.269975      -279.4602
   5   2.0000     -10.244695      -278.7723
   6   2.0000     -10.229783      -278.3665
   7   2.0000     -10.227760      -278.3115
   8   2.0000     -10.226415      -278.2749
   9   2.0000     -10.215244      -277.9709
  10   2.0000     -10.193889      -277.3898
  11   2.0000     -10.177020      -276.9308
  12   2.0000     -10.176877      -276.9269
  13   2.0000      -1.041767       -28.3479
  14   2.0000      -1.031485       -28.0681
  15   2.0000      -1.011249       -27.5175
  16   2.0000      -0.984228       -26.7822
  17   2.0000      -0.783432       -21.3183
  18   2.0000      -0.778935       -21.1959
  19   2.0000      -0.762164       -20.7395
  20   2.0000      -0.726834       -19.7782
  21   2.0000      -0.676628       -18.4120
  22   2.0000      -0.610037       -16.5999
  23   2.0000      -0.596173       -16.2227
  24   2.0000      -0.588917       -16.0252
  25   2.0000      -0.562977       -15.3194
  26   2.0000      -0.523030       -14.2324
  27   2.0000      -0.510129       -13.8813
  28   2.0000      -0.493265       -13.4224
  29   2.0000      -0.477332       -12.9889
  30   2.0000      -0.460089       -12.5197
  31   2.0000      -0.454480       -12.3670
  32   2.0000      -0.443708       -12.0739
  33   2.0000      -0.427303       -11.6275
  34   2.0000      -0.422234       -11.4896
  35   2.0000      -0.411997       -11.2110
  36   2.0000      -0.404377       -11.0037
  37   2.0000      -0.391151       -10.6438
  38   2.0000      -0.379710       -10.3324
  39   2.0000      -0.362392        -9.8612
  40   2.0000      -0.352790        -9.5999
  41   2.0000      -0.348592        -9.4857
  42   2.0000      -0.338177        -9.2023
  43   2.0000      -0.330160        -8.9841
  44   2.0000      -0.320359        -8.7174
  45   2.0000      -0.310533        -8.4500
  46   2.0000      -0.278974        -7.5913
  47   2.0000      -0.269707        -7.3391
  48   2.0000      -0.256157        -6.9704
  49   2.0000      -0.250994        -6.8299
  50   2.0000      -0.228710        -6.2235
  51   0.0000       0.051231         1.3941
  52   0.0000       0.076994         2.0951
  53   0.0000       0.089873         2.4456
  54   0.0000       0.097273         2.6469
  55   0.0000       0.110644         3.0108

MULLIKEN ATOMIC CHARGES
-----------------------
   0 C :    0.310520
   1 C :   -0.261680
   2 C :   -0.296846
   3 C :   -0.011856
   4 O :   -0.482566
   5 H :    0.136375
   6 H :    0.142562
   7 H :    0.154038
   8 H :    0.136129
   9 H :    0.158087
  10 H :    0.142473
  11 H :    0.142236
  12 C :    0.008351
  13 H :    0.155336
  14 H :    0.105617
  15 O :   -0.544879
  16 C :    0.081643
  17 C :    0.084258
  18 C :   -0.318390
  19 C :   -0.015359
  20 O :   -0.485867
  21 H :    0.157500
  22 H :    0.167545
  23 O :   -0.600995
  24 H :    0.154736
  25 H :    0.132038
  26 H :    0.141443
  27 H :    0.150466
  28 H :    0.357086
Sum of atomic charges:   -0.0000000

LOEWDIN ATOMIC CHARGES
----------------------
   0 C :    0.182010
   1 C :   -0.215321
   2 C :   -0.217191
   3 C :   -0.032407
   4 O :   -0.306078
   5 H :    0.093774
   6 H :    0.112373
   7 H :    0.122421
   8 H :    0.111187
   9 H :    0.117019
  10 H :    0.102232
  11 H :    0.102133
  12 C :   -0.042790
  13 H :    0.118249
  14 H :    0.079959
  15 O :   -0.334612
  16 C :    0.008662
  17 C :    0.036744
  18 C :   -0.241245
  19 C :   -0.033443
  20 O :   -0.302172
  21 H :    0.115209
  22 H :    0.119660
  23 O :   -0.407595
  24 H :    0.121372
  25 H :    0.102965
  26 H :    0.101589
  27 H :    0.106499
  28 H :    0.278798

  Mayer bond orders larger than 0.100000
B(  0-C ,  1-C ) :   0.9439 B(  0-C ,  4-O ) :   0.9199 B(  0-C ,  5-H ) :   0.9249
B(  0-C , 15-O ) :   0.8374 B(  1-C ,  2-C ) :   0.9581 B(  1-C ,  6-H ) :   0.9407
B(  1-C ,  7-H ) :   0.9365 B(  2-C ,  3-C ) :   0.9529 B(  2-C ,  8-H ) :   0.9455
B(  2-C ,  9-H ) :   0.9448 B(  3-C ,  4-O ) :   0.8469 B(  3-C , 10-H ) :   0.9349
B(  3-C , 11-H ) :   0.9400 B( 12-C , 13-H ) :   0.9194 B( 12-C , 14-H ) :   0.9234
B( 12-C , 15-O ) :   0.8606 B( 12-C , 16-C ) :   0.8902 B( 16-C , 17-C ) :   0.8661
B( 16-C , 20-O ) :   0.8666 B( 16-C , 21-H ) :   0.9295 B( 17-C , 18-C ) :   0.9217
B( 17-C , 22-H ) :   0.9340 B( 17-C , 23-O ) :   0.8973 B( 18-C , 19-C ) :   0.9366
B( 18-C , 24-H ) :   0.9425 B( 18-C , 25-H ) :   0.9400 B( 19-C , 20-O ) :   0.8559
B( 19-C , 26-H ) :   0.9318 B( 19-C , 27-H ) :   0.9370 B( 23-O , 28-H ) :   0.7977

FINAL SINGLE POINT ENERGY      -652.849504891641

DIPOLE MOMENT
-------------
                                X             Y             Z
Electronic contribution:     -1.04040      -1.55857       1.09740
Nuclear contribution   :      0.92734       1.37390      -1.75266
                        -----------------------------------------
Total Dipole Moment    :     -0.11307      -0.18467      -0.65526
                        -----------------------------------------
Magnitude (a.u.)       :      0.69011
Magnitude (Debye)      :      1.75412

Rotational constants in cm-1:     0.055493     0.014567     0.013388
Rotational constants in MHz :  1663.632720   436.714690   401.375842

                             ****ORCA TERMINATED NORMALLY****
TOTAL RUN TIME: 0 days 0 hours 26 minutes 24 seconds 540 msec
