                         Program Version 4.2.0 -  RELEASE  -
|  1> # Test redundant internal optimization
|  2> #
|  3> ! RKS B3LYP  Opt TightSCF SmallPrint
|  4>
|  5> %basis
|  6>         Basis "6-31G"
|  7> end
|  8>
|  9> %geom
| 10> Constraints
| 11> { D 4  0  15  12  240.0   C } # D for Dihedral angle
| 12> { D 0  15  12  16  285.0   C } # D for Dihedral angle
| 13> { D 0  4  3  2   C } # D for Dihedral angle
| 14> { D 4  3  2  1   C } # D for Dihedral angle
| 15> { D 3  2  1  0   C } # D for Dihedral angle
| 16> { D 2  1  0  4   C } # D for Dihedral angle
| 17> { D 1  0  4  3   C } # D for Dihedral angle
| 18> { D 16  20  19  18   C } # D for Dihedral angle
| 19> { D 20  19  18  17   C } # D for Dihedral angle
| 20> { D 19  18  17  16   C } # D for Dihedral angle
| 21> { D 18  17  16  20   C } # D for Dihedral angle
| 22> { D 17  16  20  19   C } # D for Dihedral angle
| 23> { D 15  12  16  20   C } # D for Dihedral angle
| 24> end
| 25> end
| 26>
| 27>
| 28> #%pal
| 29> #nprocs 8
| 30> #end
| 31>
| 32> * xyz 0 1
| 33> C  -21.048   26.222   46.251
| 34> C  -20.361   27.558   45.944
| 35> C  -20.329   28.222   47.341
| 36> C  -20.110   27.022   48.296
| 37> O  -20.473   25.807   47.535
| 38> H  -20.833   25.428   45.533
| 39> H  -19.344   27.382   45.576
| 40> H  -20.898   28.157   45.201
| 41> H  -19.543   28.978   47.434
| 42> H  -21.289   28.710   47.548
| 43> H  -20.733   27.082   49.195
| 44> H  -19.064   26.913   48.597
| 45> C  -23.430   25.483   45.442
| 46> H  -23.033   24.460   45.479
| 47> H  -24.476   25.457   45.774
| 48> O  -22.586   26.394   46.375
| 49> C  -23.415   25.959   43.963
| 50> C  -22.008   25.864   43.362
| 51> C  -21.906   24.355   43.039
| 52> C  -23.351   23.987   42.618
| 53> O  -24.225   25.065   43.129
| 54> H  -23.867   26.951   43.902
| 55> O  -21.926   26.711   42.063
| 56> H  -21.223   26.206   44.046
| 57> H  -21.175   24.137   42.254
| 58> H  -21.610   23.797   43.935
| 59> H  -23.679   23.030   43.037
| 60> H  -23.475   23.958   41.532
| 61> H  -22.703   26.385   41.361
| 62> *
| 63>
| 64>                          ****END OF INPUT****
 Total Charge           Charge          ....    0
 Multiplicity           Mult            ....    1
 Number of Electrons    NEL             ....  102
FINAL SINGLE POINT ENERGY      -652.826608567988
FINAL SINGLE POINT ENERGY      -652.851165682466
FINAL SINGLE POINT ENERGY      -652.856449979921
FINAL SINGLE POINT ENERGY      -652.858664236884
FINAL SINGLE POINT ENERGY      -652.858925096386
FINAL SINGLE POINT ENERGY      -652.858958976137
                    ***********************HURRAY********************

CARTESIAN COORDINATES (ANGSTROEM)
---------------------------------
  C    -20.983566   26.204280   46.269621
  C    -20.307369   27.551852   46.017788
  C    -20.401030   28.221274   47.410014
  C    -20.231690   27.029364   48.378131
  O    -20.510665   25.812437   47.574586
  H    -20.710188   25.391056   45.591979
  H    -19.260392   27.388759   45.734634
  H    -20.801004   28.127806   45.232331
  H    -19.639319   28.992315   47.558385
  H    -21.387738   28.678067   47.530316
  H    -20.926514   27.059173   49.221223
  H    -19.209061   26.928951   48.754326
  C    -23.271213   25.582318   45.441283
  H    -23.006592   24.518697   45.546115
  H    -24.281287   25.714233   45.833292
  O    -22.420531   26.387230   46.301218
  C    -23.285697   25.961230   43.947873
  C    -21.981119   25.844450   43.142352
  C    -21.910896   24.315998   42.871320
  C    -23.400910   23.928940   42.691596
  O    -24.200246   25.026185   43.283101
  H    -23.705888   26.964989   43.830505
  O    -22.087758   26.605175   41.906136
  H    -21.098854   26.241194   43.637098
  H    -21.305111   24.105692   41.986706
  H    -21.465574   23.795873   43.726774
  H    -23.659930   22.990670   43.190935
  H    -23.688149   23.852707   41.638194
  H    -22.974709   26.459084   41.514166

 Multiplicity           Mult            ....    1
 Number of Electrons    NEL             ....  102
 Basis Dimension        Dim             ....  149

ORBITAL ENERGIES
----------------

  NO   OCC          E(Eh)            E(eV)
   0   2.0000     -19.151042      -521.1264
   1   2.0000     -19.143184      -520.9125
   2   2.0000     -19.143026      -520.9082
   3   2.0000     -19.138245      -520.7781
   4   2.0000     -10.282156      -279.7917
   5   2.0000     -10.247400      -278.8459
   6   2.0000     -10.238626      -278.6072
   7   2.0000     -10.237223      -278.5690
   8   2.0000     -10.233959      -278.4802
   9   2.0000     -10.223582      -278.1978
  10   2.0000     -10.195341      -277.4293
  11   2.0000     -10.186126      -277.1786
  12   2.0000     -10.184978      -277.1474
  13   2.0000      -1.053105       -28.6564
  14   2.0000      -1.043475       -28.3944
  15   2.0000      -1.011909       -27.5354
  16   2.0000      -0.994998       -27.0753
  17   2.0000      -0.787452       -21.4277
  18   2.0000      -0.784458       -21.3462
  19   2.0000      -0.769939       -20.9511
  20   2.0000      -0.736231       -20.0339
  21   2.0000      -0.678140       -18.4531
  22   2.0000      -0.610434       -16.6107
  23   2.0000      -0.601580       -16.3698
  24   2.0000      -0.597816       -16.2674
  25   2.0000      -0.585726       -15.9384
  26   2.0000      -0.527459       -14.3529
  27   2.0000      -0.520125       -14.1533
  28   2.0000      -0.502569       -13.6756
  29   2.0000      -0.486156       -13.2290
  30   2.0000      -0.476250       -12.9594
  31   2.0000      -0.460738       -12.5373
  32   2.0000      -0.446271       -12.1437
  33   2.0000      -0.440749       -11.9934
  34   2.0000      -0.426836       -11.6148
  35   2.0000      -0.424607       -11.5541
  36   2.0000      -0.401982       -10.9385
  37   2.0000      -0.399024       -10.8580
  38   2.0000      -0.378806       -10.3078
  39   2.0000      -0.375022       -10.2049
  40   2.0000      -0.358293        -9.7497
  41   2.0000      -0.357155        -9.7187
  42   2.0000      -0.352144        -9.5823
  43   2.0000      -0.337864        -9.1938
  44   2.0000      -0.316213        -8.6046
  45   2.0000      -0.313768        -8.5381
  46   2.0000      -0.306006        -8.3268
  47   2.0000      -0.277779        -7.5587
  48   2.0000      -0.272357        -7.4112
  49   2.0000      -0.255904        -6.9635
  50   2.0000      -0.241000        -6.5579
  51   0.0000       0.061073         1.6619
  52   0.0000       0.065254         1.7757
  53   0.0000       0.090451         2.4613
  54   0.0000       0.093666         2.5488
  55   0.0000       0.099486         2.7071

MULLIKEN ATOMIC CHARGES
-----------------------
   0 C :    0.282311
   1 C :   -0.256444
   2 C :   -0.302465
   3 C :   -0.001692
   4 O :   -0.507444
   5 H :    0.138162
   6 H :    0.143569
   7 H :    0.155234
   8 H :    0.142285
   9 H :    0.165662
  10 H :    0.152864
  11 H :    0.140210
  12 C :   -0.014449
  13 H :    0.131162
  14 H :    0.172545
  15 O :   -0.516041
  16 C :    0.050252
  17 C :    0.081221
  18 C :   -0.303302
  19 C :   -0.026709
  20 O :   -0.524509
  21 H :    0.163189
  22 O :   -0.605234
  23 H :    0.158527
  24 H :    0.166851
  25 H :    0.149845
  26 H :    0.150012
  27 H :    0.148219
  28 H :    0.366168
Sum of atomic charges:   -0.0000000

LOEWDIN ATOMIC CHARGES
----------------------
   0 C :    0.170740
   1 C :   -0.223669
   2 C :   -0.215653
   3 C :   -0.026027
   4 O :   -0.316142
   5 H :    0.094635
   6 H :    0.113208
   7 H :    0.120540
   8 H :    0.114441
   9 H :    0.120817
  10 H :    0.108352
  11 H :    0.101576
  12 C :   -0.037543
  13 H :    0.095290
  14 H :    0.126301
  15 O :   -0.330632
  16 C :    0.004417
  17 C :    0.031566
  18 C :   -0.242068
  19 C :   -0.037209
  20 O :   -0.327542
  21 H :    0.115856
  22 O :   -0.414359
  23 H :    0.117612
  24 H :    0.128714
  25 H :    0.113419
  26 H :    0.106118
  27 H :    0.103542
  28 H :    0.283702

  Mayer bond orders larger than 0.100000
B(  0-C ,  1-C ) :   0.9365 B(  0-C ,  4-O ) :   0.9227 B(  0-C ,  5-H ) :   0.9141
B(  0-C , 15-O ) :   0.8383 B(  1-C ,  2-C ) :   0.9539 B(  1-C ,  6-H ) :   0.9361
B(  1-C ,  7-H ) :   0.9343 B(  2-C ,  3-C ) :   0.9540 B(  2-C ,  8-H ) :   0.9449
B(  2-C ,  9-H ) :   0.9431 B(  3-C ,  4-O ) :   0.8373 B(  3-C , 10-H ) :   0.9347
B(  3-C , 11-H ) :   0.9399 B( 12-C , 13-H ) :   0.9238 B( 12-C , 14-H ) :   0.9344
B( 12-C , 15-O ) :   0.8530 B( 12-C , 16-C ) :   0.8753 B( 16-C , 17-C ) :   0.9125
B( 16-C , 20-O ) :   0.8298 B( 16-C , 21-H ) :   0.9249 B( 17-C , 18-C ) :   0.9114
B( 17-C , 22-O ) :   0.8842 B( 17-C , 23-H ) :   0.9206 B( 18-C , 19-C ) :   0.9383
B( 18-C , 24-H ) :   0.9368 B( 18-C , 25-H ) :   0.9303 B( 19-C , 20-O ) :   0.8396
B( 19-C , 26-H ) :   0.9352 B( 19-C , 27-H ) :   0.9381 B( 22-O , 28-H ) :   0.7932

FINAL SINGLE POINT ENERGY      -652.858963193034

DIPOLE MOMENT
-------------
                                X             Y             Z
Electronic contribution:     -3.19972      -0.74060      -0.77397
Nuclear contribution   :      3.58676       0.63568       0.51057
                        -----------------------------------------
Total Dipole Moment    :      0.38704      -0.10492      -0.26340
                        -----------------------------------------
Magnitude (a.u.)       :      0.47978
Magnitude (Debye)      :      1.21950

Rotational constants in cm-1:     0.056548     0.013547     0.012678
Rotational constants in MHz :  1695.275931   406.125295   380.078991

                             ****ORCA TERMINATED NORMALLY****
TOTAL RUN TIME: 0 days 0 hours 29 minutes 59 seconds 577 msec
