                         Program Version 4.2.0 -  RELEASE  -
|  1> # Test redundant internal optimization
|  2> #
|  3> ! RKS B3LYP  Opt TightSCF SmallPrint
|  4>
|  5> %basis
|  6>         Basis "6-31G"
|  7> end
|  8>
|  9> %geom
| 10> Constraints
| 11> { D 4  0  15  12  90.0   C } # D for Dihedral angle
| 12> { D 0  15  12  16  120.0   C } # D for Dihedral angle
| 13> { D 0  4  3  2   C } # D for Dihedral angle
| 14> { D 4  3  2  1   C } # D for Dihedral angle
| 15> { D 3  2  1  0   C } # D for Dihedral angle
| 16> { D 2  1  0  4   C } # D for Dihedral angle
| 17> { D 1  0  4  3   C } # D for Dihedral angle
| 18> { D 16  20  19  18   C } # D for Dihedral angle
| 19> { D 20  19  18  17   C } # D for Dihedral angle
| 20> { D 19  18  17  16   C } # D for Dihedral angle
| 21> { D 18  17  16  20   C } # D for Dihedral angle
| 22> { D 17  16  20  19   C } # D for Dihedral angle
| 23> { D 15  12  16  20   C } # D for Dihedral angle
| 24> end
| 25> end
| 26>
| 27>
| 28> #%pal
| 29> #nprocs 8
| 30> #end
| 31>
| 32> * xyz 0 1
| 33> C  -21.048   26.222   46.251
| 34> C  -20.361   27.558   45.944
| 35> C  -20.329   28.222   47.341
| 36> C  -20.110   27.022   48.296
| 37> O  -20.473   25.807   47.535
| 38> H  -20.833   25.428   45.533
| 39> H  -19.344   27.382   45.576
| 40> H  -20.898   28.157   45.201
| 41> H  -19.543   28.978   47.434
| 42> H  -21.289   28.710   47.548
| 43> H  -20.733   27.082   49.195
| 44> H  -19.064   26.913   48.597
| 45> C  -23.061   27.816   46.783
| 46> H  -23.613   27.755   47.730
| 47> H  -22.200   28.481   46.930
| 48> O  -22.586   26.394   46.375
| 49> C  -23.986   28.468   45.719
| 50> C  -24.341   29.910   46.099
| 51> C  -23.061   30.670   45.676
| 52> C  -22.602   29.907   44.409
| 53> O  -23.284   28.595   44.438
| 54> H  -24.848   27.820   45.549
| 55> O  -25.563   30.394   45.273
| 56> H  -24.573   30.030   47.163
| 57> H  -23.242   31.732   45.482
| 58> H  -22.303   30.599   46.466
| 59> H  -21.518   29.747   44.385
| 60> H  -22.906   30.409   43.486
| 61> H  -25.352   30.284   44.203
| 62> *
| 63>
| 64>                          ****END OF INPUT****
 Total Charge           Charge          ....    0
 Multiplicity           Mult            ....    1
 Number of Electrons    NEL             ....  102
FINAL SINGLE POINT ENERGY      -652.788574914348
FINAL SINGLE POINT ENERGY      -652.828367830745
FINAL SINGLE POINT ENERGY      -652.847875134036
FINAL SINGLE POINT ENERGY      -652.851892597667
FINAL SINGLE POINT ENERGY      -652.852553776786
FINAL SINGLE POINT ENERGY      -652.852680542467
FINAL SINGLE POINT ENERGY      -652.852695783242
FINAL SINGLE POINT ENERGY      -652.852697639782
                    ***********************HURRAY********************

CARTESIAN COORDINATES (ANGSTROEM)
---------------------------------
  C    -21.203100   26.341431   46.376250
  C    -20.180131   27.423304   45.997546
  C    -19.839546   28.050822   47.382231
  C    -19.908802   26.822759   48.327885
  O    -20.673048   25.784099   47.602930
  H    -21.216366   25.507574   45.673085
  H    -19.298574   26.932855   45.573716
  H    -20.578452   28.130526   45.266991
  H    -18.846225   28.511617   47.393218
  H    -20.557910   28.822562   47.669229
  H    -20.406632   27.039373   49.278305
  H    -18.919014   26.404817   48.533841
  C    -23.141624   27.969107   46.834873
  H    -23.807500   27.796918   47.689669
  H    -22.364620   28.673301   47.143917
  O    -22.598231   26.685880   46.432664
  C    -23.945411   28.541941   45.667740
  C    -24.575092   29.920054   45.921126
  C    -23.389439   30.868943   45.607040
  C    -22.657577   30.148611   44.448229
  O    -23.117458   28.736563   44.470651
  H    -24.705721   27.806871   45.387055
  O    -25.700300   30.150453   45.031546
  H    -24.972215   30.046971   46.929548
  H    -23.752669   31.861703   45.331398
  H    -22.742628   30.971314   46.486212
  H    -21.567896   30.173162   44.554425
  H    -22.919672   30.556583   43.467255
  H    -25.478146   29.811887   44.138422

 Multiplicity           Mult            ....    1
 Number of Electrons    NEL             ....  102
 Basis Dimension        Dim             ....  149

ORBITAL ENERGIES
----------------

  NO   OCC          E(Eh)            E(eV)
   0   2.0000     -19.149421      -521.0823
   1   2.0000     -19.142896      -520.9047
   2   2.0000     -19.139494      -520.8121
   3   2.0000     -19.136272      -520.7244
   4   2.0000     -10.275608      -279.6135
   5   2.0000     -10.248227      -278.8684
   6   2.0000     -10.237926      -278.5881
   7   2.0000     -10.236696      -278.5547
   8   2.0000     -10.236536      -278.5503
   9   2.0000     -10.227417      -278.3022
  10   2.0000     -10.196128      -277.4507
  11   2.0000     -10.194779      -277.4140
  12   2.0000     -10.189038      -277.2578
  13   2.0000      -1.049220       -28.5507
  14   2.0000      -1.039783       -28.2939
  15   2.0000      -1.011387       -27.5212
  16   2.0000      -0.993313       -27.0294
  17   2.0000      -0.791021       -21.5248
  18   2.0000      -0.787203       -21.4209
  19   2.0000      -0.775387       -21.0993
  20   2.0000      -0.733609       -19.9625
  21   2.0000      -0.683426       -18.5970
  22   2.0000      -0.610223       -16.6050
  23   2.0000      -0.604168       -16.4403
  24   2.0000      -0.602957       -16.4073
  25   2.0000      -0.576979       -15.7004
  26   2.0000      -0.529240       -14.4014
  27   2.0000      -0.510841       -13.9007
  28   2.0000      -0.505785       -13.7631
  29   2.0000      -0.489574       -13.3220
  30   2.0000      -0.479867       -13.0578
  31   2.0000      -0.462296       -12.5797
  32   2.0000      -0.456222       -12.4144
  33   2.0000      -0.437705       -11.9106
  34   2.0000      -0.432288       -11.7632
  35   2.0000      -0.415907       -11.3174
  36   2.0000      -0.407107       -11.0780
  37   2.0000      -0.399073       -10.8593
  38   2.0000      -0.382388       -10.4053
  39   2.0000      -0.377926       -10.2839
  40   2.0000      -0.365610        -9.9488
  41   2.0000      -0.359155        -9.7731
  42   2.0000      -0.351298        -9.5593
  43   2.0000      -0.336400        -9.1539
  44   2.0000      -0.313478        -8.5302
  45   2.0000      -0.312226        -8.4961
  46   2.0000      -0.293139        -7.9767
  47   2.0000      -0.276038        -7.5114
  48   2.0000      -0.267819        -7.2877
  49   2.0000      -0.258001        -7.0206
  50   2.0000      -0.242664        -6.6032
  51   0.0000       0.050124         1.3640
  52   0.0000       0.074126         2.0171
  53   0.0000       0.081204         2.2097
  54   0.0000       0.096329         2.6212
  55   0.0000       0.099326         2.7028

MULLIKEN ATOMIC CHARGES
-----------------------
   0 C :    0.313849
   1 C :   -0.302310
   2 C :   -0.317929
   3 C :   -0.005507
   4 O :   -0.500750
   5 H :    0.168953
   6 H :    0.156818
   7 H :    0.170449
   8 H :    0.143674
   9 H :    0.143130
  10 H :    0.142539
  11 H :    0.146746
  12 C :   -0.010671
  13 H :    0.150391
  14 H :    0.120591
  15 O :   -0.516894
  16 C :    0.071041
  17 C :    0.078734
  18 C :   -0.295083
  19 C :   -0.034814
  20 O :   -0.514007
  21 H :    0.173701
  22 O :   -0.601516
  23 H :    0.152137
  24 H :    0.166254
  25 H :    0.141197
  26 H :    0.142767
  27 H :    0.149108
  28 H :    0.367403
Sum of atomic charges:   -0.0000000

LOEWDIN ATOMIC CHARGES
----------------------
   0 C :    0.180581
   1 C :   -0.232874
   2 C :   -0.224992
   3 C :   -0.033046
   4 O :   -0.321253
   5 H :    0.114488
   6 H :    0.123841
   7 H :    0.125731
   8 H :    0.114585
   9 H :    0.102975
  10 H :    0.101765
  11 H :    0.104200
  12 C :   -0.041040
  13 H :    0.110915
  14 H :    0.093332
  15 O :   -0.312639
  16 C :    0.012085
  17 C :    0.035523
  18 C :   -0.241018
  19 C :   -0.040980
  20 O :   -0.325386
  21 H :    0.122306
  22 O :   -0.413074
  23 H :    0.115752
  24 H :    0.128725
  25 H :    0.110761
  26 H :    0.099680
  27 H :    0.104271
  28 H :    0.284785

  Mayer bond orders larger than 0.100000
B(  0-C ,  1-C ) :   0.9225 B(  0-C ,  4-O ) :   0.8996 B(  0-C ,  5-H ) :   0.9352
B(  0-C , 15-O ) :   0.8971 B(  1-C ,  2-C ) :   0.9534 B(  1-C ,  6-H ) :   0.9354
B(  1-C ,  7-H ) :   0.9200 B(  2-C ,  3-C ) :   0.9457 B(  2-C ,  8-H ) :   0.9451
B(  2-C ,  9-H ) :   0.9365 B(  3-C ,  4-O ) :   0.8533 B(  3-C , 10-H ) :   0.9344
B(  3-C , 11-H ) :   0.9388 B( 12-C , 13-H ) :   0.9230 B( 12-C , 14-H ) :   0.9057
B( 12-C , 15-O ) :   0.8481 B( 12-C , 16-C ) :   0.8937 B( 16-C , 17-C ) :   0.8965
B( 16-C , 20-O ) :   0.8608 B( 16-C , 21-H ) :   0.9226 B( 17-C , 18-C ) :   0.9085
B( 17-C , 22-O ) :   0.8935 B( 17-C , 23-H ) :   0.9338 B( 18-C , 19-C ) :   0.9406
B( 18-C , 24-H ) :   0.9368 B( 18-C , 25-H ) :   0.9346 B( 19-C , 20-O ) :   0.8509
B( 19-C , 26-H ) :   0.9291 B( 19-C , 27-H ) :   0.9389 B( 22-O , 28-H ) :   0.7932

FINAL SINGLE POINT ENERGY      -652.852695919811

DIPOLE MOMENT
-------------
                                X             Y             Z
Electronic contribution:     -4.83150      -4.91403      -1.82753
Nuclear contribution   :      5.87077       6.35727       1.99317
                        -----------------------------------------
Total Dipole Moment    :      1.03927       1.44324       0.16564
                        -----------------------------------------
Magnitude (a.u.)       :      1.78618
Magnitude (Debye)      :      4.54012

Rotational constants in cm-1:     0.058183     0.013944     0.013178
Rotational constants in MHz :  1744.294430   418.030818   395.066758

                             ****ORCA TERMINATED NORMALLY****
TOTAL RUN TIME: 0 days 0 hours 30 minutes 29 seconds 696 msec
