                         Program Version 4.2.0 -  RELEASE  -
|  1> # Test redundant internal optimization
|  2> #
|  3> ! RKS B3LYP  Opt TightSCF SmallPrint
|  4>
|  5> %basis
|  6>         Basis "6-31G"
|  7> end
|  8>
|  9> %geom
| 10> Constraints
| 11> { D 4  0  15  12  15.0   C } # D for Dihedral angle
| 12> { D 0  15  12  16  165.0   C } # D for Dihedral angle
| 13> { D 0  4  3  2   C } # D for Dihedral angle
| 14> { D 4  3  2  1   C } # D for Dihedral angle
| 15> { D 3  2  1  0   C } # D for Dihedral angle
| 16> { D 2  1  0  4   C } # D for Dihedral angle
| 17> { D 1  0  4  3   C } # D for Dihedral angle
| 18> { D 16  20  19  18   C } # D for Dihedral angle
| 19> { D 20  19  18  17   C } # D for Dihedral angle
| 20> { D 19  18  17  16   C } # D for Dihedral angle
| 21> { D 18  17  16  20   C } # D for Dihedral angle
| 22> { D 17  16  20  19   C } # D for Dihedral angle
| 23> { D 15  12  16  20   C } # D for Dihedral angle
| 24> end
| 25> end
| 26>
| 27>
| 28> #%pal
| 29> #nprocs 8
| 30> #end
| 31>
| 32> * xyz 0 1
| 33> C  -21.048   26.222   46.251
| 34> C  -20.361   27.558   45.944
| 35> C  -20.329   28.222   47.341
| 36> C  -20.110   27.022   48.296
| 37> O  -20.473   25.807   47.535
| 38> H  -20.833   25.428   45.533
| 39> H  -19.344   27.382   45.576
| 40> H  -20.898   28.157   45.201
| 41> H  -19.543   28.978   47.434
| 42> H  -21.289   28.710   47.548
| 43> H  -20.733   27.082   49.195
| 44> H  -19.064   26.913   48.597
| 45> C  -23.128   26.462   47.829
| 46> H  -23.107   25.458   48.271
| 47> H  -22.499   27.120   48.443
| 48> O  -22.586   26.394   46.375
| 49> C  -24.584   26.998   47.903
| 50> C  -25.045   27.161   49.356
| 51> C  -24.370   28.496   49.750
| 52> C  -24.426   29.320   48.439
| 53> O  -24.661   28.353   47.346
| 54> H  -25.230   26.364   47.292
| 55> O  -26.591   27.291   49.414
| 56> H  -24.744   26.327   49.998
| 57> H  -24.876   28.999   50.581
| 58> H  -23.330   28.318   50.051
| 59> H  -23.493   29.861   48.244
| 60> H  -25.258   30.029   48.427
| 61> H  -26.916   28.121   48.777
| 62> *
| 63>
| 64>                          ****END OF INPUT****
 Total Charge           Charge          ....    0
 Multiplicity           Mult            ....    1
 Number of Electrons    NEL             ....  102
FINAL SINGLE POINT ENERGY      -652.826441289996
FINAL SINGLE POINT ENERGY      -652.850221059285
FINAL SINGLE POINT ENERGY      -652.855088225516
FINAL SINGLE POINT ENERGY      -652.856545815523
FINAL SINGLE POINT ENERGY      -652.856700971302
FINAL SINGLE POINT ENERGY      -652.856733780607
                    ***********************HURRAY********************

CARTESIAN COORDINATES (ANGSTROEM)
---------------------------------
  C    -21.175334   26.263800   46.351870
  C    -20.489767   27.569494   45.940968
  C    -20.144066   28.193558   47.315977
  C    -19.808583   26.959028   48.184764
  O    -20.392779   25.790113   47.472525
  H    -21.131349   25.481053   45.591505
  H    -19.580830   27.337123   45.373816
  H    -21.143994   28.198386   45.333914
  H    -19.308607   28.898289   47.262569
  H    -21.013825   28.731004   47.708839
  H    -20.229546   27.006248   49.193696
  H    -18.732541   26.774120   48.257299
  C    -23.075479   26.478043   47.990554
  H    -23.097206   25.466825   48.418344
  H    -22.440225   27.101421   48.631036
  O    -22.589595   26.445828   46.626022
  C    -24.489454   27.049821   47.936889
  C    -25.167526   27.198087   49.307347
  C    -24.595560   28.555296   49.795702
  C    -24.479848   29.377265   48.488233
  O    -24.521777   28.403027   47.372130
  H    -25.088716   26.428462   47.264411
  O    -26.613562   27.242878   49.168540
  H    -24.968136   26.373730   49.993603
  H    -25.262813   29.012223   50.531165
  H    -23.616461   28.408750   50.265500
  H    -23.548671   29.950485   48.430012
  H    -25.319707   30.065752   48.349696
  H    -26.843043   27.792893   48.390073

 Multiplicity           Mult            ....    1
 Number of Electrons    NEL             ....  102
 Basis Dimension        Dim             ....  149

ORBITAL ENERGIES
----------------

  NO   OCC          E(Eh)            E(eV)
   0   2.0000     -19.149803      -521.0926
   1   2.0000     -19.141516      -520.8671
   2   2.0000     -19.138872      -520.7952
   3   2.0000     -19.135636      -520.7071
   4   2.0000     -10.277789      -279.6729
   5   2.0000     -10.244001      -278.7534
   6   2.0000     -10.234291      -278.4892
   7   2.0000     -10.233415      -278.4654
   8   2.0000     -10.232363      -278.4368
   9   2.0000     -10.231968      -278.4260
  10   2.0000     -10.192827      -277.3609
  11   2.0000     -10.191764      -277.3320
  12   2.0000     -10.184137      -277.1245
  13   2.0000      -1.054455       -28.6932
  14   2.0000      -1.036657       -28.2089
  15   2.0000      -1.007019       -27.4024
  16   2.0000      -0.991850       -26.9896
  17   2.0000      -0.791396       -21.5350
  18   2.0000      -0.784633       -21.3509
  19   2.0000      -0.771102       -20.9828
  20   2.0000      -0.734287       -19.9810
  21   2.0000      -0.674891       -18.3647
  22   2.0000      -0.606222       -16.4961
  23   2.0000      -0.604679       -16.4541
  24   2.0000      -0.594909       -16.1883
  25   2.0000      -0.579148       -15.7594
  26   2.0000      -0.528109       -14.3706
  27   2.0000      -0.508743       -13.8436
  28   2.0000      -0.499143       -13.5824
  29   2.0000      -0.492914       -13.4129
  30   2.0000      -0.477391       -12.9905
  31   2.0000      -0.461582       -12.5603
  32   2.0000      -0.453793       -12.3483
  33   2.0000      -0.441178       -12.0051
  34   2.0000      -0.417674       -11.3655
  35   2.0000      -0.414249       -11.2723
  36   2.0000      -0.405243       -11.0272
  37   2.0000      -0.395336       -10.7576
  38   2.0000      -0.375891       -10.2285
  39   2.0000      -0.372515       -10.1367
  40   2.0000      -0.361266        -9.8305
  41   2.0000      -0.359569        -9.7844
  42   2.0000      -0.349931        -9.5221
  43   2.0000      -0.339427        -9.2363
  44   2.0000      -0.324581        -8.8323
  45   2.0000      -0.310569        -8.4510
  46   2.0000      -0.305702        -8.3186
  47   2.0000      -0.271947        -7.4000
  48   2.0000      -0.263180        -7.1615
  49   2.0000      -0.247238        -6.7277
  50   2.0000      -0.243848        -6.6355
  51   0.0000       0.048853         1.3293
  52   0.0000       0.076351         2.0776
  53   0.0000       0.090319         2.4577
  54   0.0000       0.097136         2.6432
  55   0.0000       0.102289         2.7834

MULLIKEN ATOMIC CHARGES
-----------------------
   0 C :    0.296775
   1 C :   -0.254729
   2 C :   -0.316032
   3 C :   -0.018510
   4 O :   -0.510036
   5 H :    0.160927
   6 H :    0.144070
   7 H :    0.168080
   8 H :    0.147741
   9 H :    0.156192
  10 H :    0.139583
  11 H :    0.152242
  12 C :    0.018832
  13 H :    0.141966
  14 H :    0.119474
  15 O :   -0.529847
  16 C :    0.057165
  17 C :    0.079597
  18 C :   -0.300558
  19 C :   -0.029113
  20 O :   -0.510036
  21 H :    0.173043
  22 O :   -0.601516
  23 H :    0.152948
  24 H :    0.165271
  25 H :    0.140556
  26 H :    0.142174
  27 H :    0.147569
  28 H :    0.366170
Sum of atomic charges:    0.0000000

LOEWDIN ATOMIC CHARGES
----------------------
   0 C :    0.182328
   1 C :   -0.222168
   2 C :   -0.221943
   3 C :   -0.035322
   4 O :   -0.320137
   5 H :    0.108499
   6 H :    0.113860
   7 H :    0.129509
   8 H :    0.117542
   9 H :    0.112437
  10 H :    0.098300
  11 H :    0.107255
  12 C :   -0.033303
  13 H :    0.103341
  14 H :    0.089190
  15 O :   -0.328580
  16 C :    0.016299
  17 C :    0.036131
  18 C :   -0.243333
  19 C :   -0.039360
  20 O :   -0.321004
  21 H :    0.122270
  22 O :   -0.413459
  23 H :    0.115967
  24 H :    0.127451
  25 H :    0.110657
  26 H :    0.100492
  27 H :    0.103008
  28 H :    0.284072

  Mayer bond orders larger than 0.100000
B(  0-C ,  1-C ) :   0.9231 B(  0-C ,  4-O ) :   0.9081 B(  0-C ,  5-H ) :   0.9325
B(  0-C , 15-O ) :   0.8569 B(  1-C ,  2-C ) :   0.9530 B(  1-C ,  6-H ) :   0.9350
B(  1-C ,  7-H ) :   0.9344 B(  2-C ,  3-C ) :   0.9505 B(  2-C ,  8-H ) :   0.9444
B(  2-C ,  9-H ) :   0.9415 B(  3-C ,  4-O ) :   0.8352 B(  3-C , 10-H ) :   0.9306
B(  3-C , 11-H ) :   0.9389 B( 12-C , 13-H ) :   0.9136 B( 12-C , 14-H ) :   0.9100
B( 12-C , 15-O ) :   0.8322 B( 12-C , 16-C ) :   0.8989 B( 16-C , 17-C ) :   0.9018
B( 16-C , 20-O ) :   0.8619 B( 16-C , 21-H ) :   0.9213 B( 17-C , 18-C ) :   0.9110
B( 17-C , 22-O ) :   0.8945 B( 17-C , 23-H ) :   0.9325 B( 18-C , 19-C ) :   0.9402
B( 18-C , 24-H ) :   0.9367 B( 18-C , 25-H ) :   0.9341 B( 19-C , 20-O ) :   0.8555
B( 19-C , 26-H ) :   0.9326 B( 19-C , 27-H ) :   0.9371 B( 22-O , 28-H ) :   0.7933

FINAL SINGLE POINT ENERGY      -652.856736809407

DIPOLE MOMENT
-------------
                                X             Y             Z
Electronic contribution:     -4.03909      -4.15938      -2.69074
Nuclear contribution   :      4.96709       5.13843       3.23789
                        -----------------------------------------
Total Dipole Moment    :      0.92801       0.97906       0.54715
                        -----------------------------------------
Magnitude (a.u.)       :      1.45572
Magnitude (Debye)      :      3.70014

Rotational constants in cm-1:     0.054493     0.013978     0.013456
Rotational constants in MHz :  1633.645720   419.064634   403.387087

                             ****ORCA TERMINATED NORMALLY****
TOTAL RUN TIME: 0 days 2 hours 4 minutes 29 seconds 796 msec
