                         Program Version 4.2.0 -  RELEASE  -
|  1> # Test redundant internal optimization
|  2> #
|  3> ! RKS B3LYP  Opt TightSCF SmallPrint
|  4>
|  5> %basis
|  6>         Basis "6-31G"
|  7> end
|  8>
|  9> %geom
| 10> Constraints
| 11> { D 4  0  15  12  315.0   C } # D for Dihedral angle
| 12> { D 0  15  12  16  195.0   C } # D for Dihedral angle
| 13> { D 0  4  3  2   C } # D for Dihedral angle
| 14> { D 4  3  2  1   C } # D for Dihedral angle
| 15> { D 3  2  1  0   C } # D for Dihedral angle
| 16> { D 2  1  0  4   C } # D for Dihedral angle
| 17> { D 1  0  4  3   C } # D for Dihedral angle
| 18> { D 16  20  19  18   C } # D for Dihedral angle
| 19> { D 20  19  18  17   C } # D for Dihedral angle
| 20> { D 19  18  17  16   C } # D for Dihedral angle
| 21> { D 18  17  16  20   C } # D for Dihedral angle
| 22> { D 17  16  20  19   C } # D for Dihedral angle
| 23> { D 15  12  16  20   C } # D for Dihedral angle
| 24> end
| 25> end
| 26>
| 27>
| 28> #%pal
| 29> #nprocs 8
| 30> #end
| 31>
| 32> * xyz 0 1
| 33> C  -21.048   26.222   46.251
| 34> C  -20.361   27.558   45.944
| 35> C  -20.329   28.222   47.341
| 36> C  -20.110   27.022   48.296
| 37> O  -20.473   25.807   47.535
| 38> H  -20.833   25.428   45.533
| 39> H  -19.344   27.382   45.576
| 40> H  -20.898   28.157   45.201
| 41> H  -19.543   28.978   47.434
| 42> H  -21.289   28.710   47.548
| 43> H  -20.733   27.082   49.195
| 44> H  -19.064   26.913   48.597
| 45> C  -23.319   25.255   47.135
| 46> H  -22.935   24.286   46.792
| 47> H  -23.136   25.333   48.214
| 48> O  -22.586   26.394   46.375
| 49> C  -24.857   25.277   46.914
| 50> C  -25.212   25.003   45.448
| 51> C  -25.069   23.464   45.374
| 52> C  -25.553   22.998   46.770
| 53> O  -25.497   24.183   47.652
| 54> H  -25.261   26.210   47.310
| 55> H  -26.247   25.305   45.249
| 56> O  -24.285   25.744   44.446
| 57> H  -25.653   23.022   44.560
| 58> H  -24.018   23.191   45.218
| 59> H  -24.923   22.208   47.190
| 60> H  -26.591   22.654   46.758
| 61> H  -23.243   25.456   44.627
| 62> *
| 63>
| 64>                          ****END OF INPUT****
 Total Charge           Charge          ....    0
 Multiplicity           Mult            ....    1
 Number of Electrons    NEL             ....  102
FINAL SINGLE POINT ENERGY      -652.831874303466
FINAL SINGLE POINT ENERGY      -652.857775725116
FINAL SINGLE POINT ENERGY      -652.864453097419
FINAL SINGLE POINT ENERGY      -652.867225967690
FINAL SINGLE POINT ENERGY      -652.868772079453
FINAL SINGLE POINT ENERGY      -652.869856150180
FINAL SINGLE POINT ENERGY      -652.870412139448
FINAL SINGLE POINT ENERGY      -652.870575625134
FINAL SINGLE POINT ENERGY      -652.870605520174
FINAL SINGLE POINT ENERGY      -652.870609623192
                    ***********************HURRAY********************

CARTESIAN COORDINATES (ANGSTROEM)
---------------------------------
  C    -21.061178   26.106491   46.297048
  C    -20.470736   27.468366   45.938752
  C    -20.464587   28.178910   47.309233
  C    -20.155799   27.038122   48.301209
  O    -20.456348   25.775344   47.563149
  H    -20.828205   25.278242   45.620636
  H    -19.453361   27.325750   45.558094
  H    -21.059565   27.995342   45.184471
  H    -19.724921   28.983636   47.360443
  H    -21.452325   28.605770   47.505490
  H    -20.769389   27.069482   49.204648
  H    -19.100286   26.985684   48.581067
  C    -23.195240   25.204181   47.171049
  H    -22.795267   24.220522   46.891425
  H    -23.019046   25.351718   48.238923
  O    -22.507282   26.252159   46.397142
  C    -24.692798   25.295038   46.860888
  C    -25.085726   25.017030   45.399598
  C    -25.038702   23.461444   45.350910
  C    -25.529312   23.053195   46.755972
  O    -25.386414   24.259244   47.623152
  H    -25.077379   26.257536   47.209665
  H    -26.118546   25.352578   45.248802
  O    -24.268184   25.648263   44.394787
  H    -25.663868   23.059739   44.549514
  H    -24.007364   23.144283   45.164093
  H    -24.951902   22.234796   47.196257
  H    -26.589522   22.784617   46.770446
  H    -23.486749   26.056517   44.836136

 Multiplicity           Mult            ....    1
 Number of Electrons    NEL             ....  102
 Basis Dimension        Dim             ....  149

ORBITAL ENERGIES
----------------

  NO   OCC          E(Eh)            E(eV)
   0   2.0000     -19.165803      -521.5280
   1   2.0000     -19.156028      -521.2620
   2   2.0000     -19.138996      -520.7986
   3   2.0000     -19.113358      -520.1009
   4   2.0000     -10.292534      -280.0741
   5   2.0000     -10.236333      -278.5448
   6   2.0000     -10.234159      -278.4856
   7   2.0000     -10.232955      -278.4529
   8   2.0000     -10.229281      -278.3529
   9   2.0000     -10.225227      -278.2426
  10   2.0000     -10.196167      -277.4518
  11   2.0000     -10.194694      -277.4117
  12   2.0000     -10.178076      -276.9595
  13   2.0000      -1.069455       -29.1013
  14   2.0000      -1.025122       -27.8950
  15   2.0000      -1.007767       -27.4227
  16   2.0000      -0.992486       -27.0069
  17   2.0000      -0.799837       -21.7647
  18   2.0000      -0.772675       -21.0255
  19   2.0000      -0.766932       -20.8693
  20   2.0000      -0.736488       -20.0409
  21   2.0000      -0.676672       -18.4132
  22   2.0000      -0.610224       -16.6050
  23   2.0000      -0.599518       -16.3137
  24   2.0000      -0.593031       -16.1372
  25   2.0000      -0.578165       -15.7327
  26   2.0000      -0.531906       -14.4739
  27   2.0000      -0.518388       -14.1061
  28   2.0000      -0.503595       -13.7035
  29   2.0000      -0.486567       -13.2402
  30   2.0000      -0.475485       -12.9386
  31   2.0000      -0.458411       -12.4740
  32   2.0000      -0.440917       -11.9979
  33   2.0000      -0.432210       -11.7610
  34   2.0000      -0.427545       -11.6341
  35   2.0000      -0.416876       -11.3438
  36   2.0000      -0.411180       -11.1888
  37   2.0000      -0.387907       -10.5555
  38   2.0000      -0.381416       -10.3789
  39   2.0000      -0.368655       -10.0316
  40   2.0000      -0.365777        -9.9533
  41   2.0000      -0.361166        -9.8278
  42   2.0000      -0.355433        -9.6718
  43   2.0000      -0.341137        -9.2828
  44   2.0000      -0.330376        -8.9900
  45   2.0000      -0.313938        -8.5427
  46   2.0000      -0.292927        -7.9709
  47   2.0000      -0.275808        -7.5051
  48   2.0000      -0.269649        -7.3375
  49   2.0000      -0.247937        -6.7467
  50   2.0000      -0.242670        -6.6034
  51   0.0000       0.059908         1.6302
  52   0.0000       0.079741         2.1699
  53   0.0000       0.090245         2.4557
  54   0.0000       0.099132         2.6975
  55   0.0000       0.105023         2.8578

MULLIKEN ATOMIC CHARGES
-----------------------
   0 C :    0.295070
   1 C :   -0.264931
   2 C :   -0.300129
   3 C :   -0.012023
   4 O :   -0.510475
   5 H :    0.156849
   6 H :    0.152206
   7 H :    0.162578
   8 H :    0.147921
   9 H :    0.164129
  10 H :    0.152367
  11 H :    0.151097
  12 C :   -0.002625
  13 H :    0.140719
  14 H :    0.171231
  15 O :   -0.563045
  16 C :    0.050001
  17 C :    0.121723
  18 C :   -0.296616
  19 C :   -0.021287
  20 O :   -0.522646
  21 H :    0.155860
  22 H :    0.144075
  23 O :   -0.644297
  24 H :    0.150974
  25 H :    0.141132
  26 H :    0.143281
  27 H :    0.148869
  28 H :    0.387990
Sum of atomic charges:   -0.0000000

LOEWDIN ATOMIC CHARGES
----------------------
   0 C :    0.175494
   1 C :   -0.214294
   2 C :   -0.215995
   3 C :   -0.028219
   4 O :   -0.320616
   5 H :    0.102259
   6 H :    0.118196
   7 H :    0.126386
   8 H :    0.117398
   9 H :    0.120099
  10 H :    0.107848
  11 H :    0.107467
  12 C :   -0.042006
  13 H :    0.101146
  14 H :    0.117677
  15 O :   -0.342226
  16 C :    0.018242
  17 C :    0.041896
  18 C :   -0.234589
  19 C :   -0.032702
  20 O :   -0.323424
  21 H :    0.114006
  22 H :    0.103367
  23 O :   -0.438703
  24 H :    0.121009
  25 H :    0.109673
  26 H :    0.102444
  27 H :    0.105895
  28 H :    0.282272

  Mayer bond orders larger than 0.100000
B(  0-C ,  1-C ) :   0.9510 B(  0-C ,  4-O ) :   0.9157 B(  0-C ,  5-H ) :   0.9202
B(  0-C , 15-O ) :   0.8039 B(  1-C ,  2-C ) :   0.9526 B(  1-C ,  6-H ) :   0.9372
B(  1-C ,  7-H ) :   0.9351 B(  2-C ,  3-C ) :   0.9554 B(  2-C ,  8-H ) :   0.9442
B(  2-C ,  9-H ) :   0.9441 B(  3-C ,  4-O ) :   0.8267 B(  3-C , 10-H ) :   0.9348
B(  3-C , 11-H ) :   0.9400 B( 12-C , 13-H ) :   0.9214 B( 12-C , 14-H ) :   0.9242
B( 12-C , 15-O ) :   0.7720 B( 12-C , 16-C ) :   0.9069 B( 15-O , 28-H ) :   0.1000
B( 16-C , 17-C ) :   0.9138 B( 16-C , 20-O ) :   0.8547 B( 16-C , 21-H ) :   0.9294
B( 17-C , 18-C ) :   0.9022 B( 17-C , 22-H ) :   0.9295 B( 17-C , 23-O ) :   0.9291
B( 18-C , 19-C ) :   0.9409 B( 18-C , 24-H ) :   0.9449 B( 18-C , 25-H ) :   0.9437
B( 19-C , 20-O ) :   0.8323 B( 19-C , 26-H ) :   0.9339 B( 19-C , 27-H ) :   0.9383
B( 23-O , 28-H ) :   0.7230

FINAL SINGLE POINT ENERGY      -652.870610685355

DIPOLE MOMENT
-------------
                                X             Y             Z
Electronic contribution:     -1.95200      -0.77575       0.13469
Nuclear contribution   :      2.87305       1.13073       0.13729
                        -----------------------------------------
Total Dipole Moment    :      0.92105       0.35498       0.27198
                        -----------------------------------------
Magnitude (a.u.)       :      1.02387
Magnitude (Debye)      :      2.60247

Rotational constants in cm-1:     0.057698     0.013606     0.012290
Rotational constants in MHz :  1729.748426   407.883383   368.452088

                             ****ORCA TERMINATED NORMALLY****
TOTAL RUN TIME: 0 days 0 hours 33 minutes 48 seconds 619 msec
