                         Program Version 4.2.0 -  RELEASE  -
|  1> # Test redundant internal optimization
|  2> #
|  3> ! RKS B3LYP  Opt TightSCF SmallPrint
|  4>
|  5> %basis
|  6>         Basis "6-31G"
|  7> end
|  8>
|  9> %geom
| 10> Constraints
| 11> { D 4  0  15  12  285.0   C } # D for Dihedral angle
| 12> { D 0  15  12  16  255.0   C } # D for Dihedral angle
| 13> { D 0  4  3  2   C } # D for Dihedral angle
| 14> { D 4  3  2  1   C } # D for Dihedral angle
| 15> { D 3  2  1  0   C } # D for Dihedral angle
| 16> { D 2  1  0  4   C } # D for Dihedral angle
| 17> { D 1  0  4  3   C } # D for Dihedral angle
| 18> { D 16  20  19  18   C } # D for Dihedral angle
| 19> { D 20  19  18  17   C } # D for Dihedral angle
| 20> { D 19  18  17  16   C } # D for Dihedral angle
| 21> { D 18  17  16  20   C } # D for Dihedral angle
| 22> { D 17  16  20  19   C } # D for Dihedral angle
| 23> { D 15  12  16  20   C } # D for Dihedral angle
| 24> end
| 25> end
| 26>
| 27>
| 28> #%pal
| 29> #nprocs 8
| 30> #end
| 31>
| 32> * xyz 0 1
| 33> C  -21.048   26.222   46.251
| 34> C  -20.361   27.558   45.944
| 35> C  -20.329   28.222   47.341
| 36> C  -20.110   27.022   48.296
| 37> O  -20.473   25.807   47.535
| 38> H  -20.833   25.428   45.533
| 39> H  -19.344   27.382   45.576
| 40> H  -20.898   28.157   45.201
| 41> H  -19.543   28.978   47.434
| 42> H  -21.289   28.710   47.548
| 43> H  -20.733   27.082   49.195
| 44> H  -19.064   26.913   48.597
| 45> C  -23.396   25.070   46.435
| 46> H  -22.715   24.239   46.655
| 47> H  -24.149   25.116   47.232
| 48> O  -22.586   26.394   46.375
| 49> C  -24.135   24.757   45.105
| 50> C  -25.042   25.919   44.685
| 51> C  -24.022   26.904   44.065
| 52> C  -22.989   25.966   43.394
| 53> O  -23.175   24.631   44.003
| 54> H  -24.645   23.796   45.196
| 55> O  -26.060   25.440   43.614
| 56> H  -25.599   26.355   45.521
| 57> H  -24.480   27.598   43.353
| 58> H  -23.547   27.500   44.854
| 59> H  -21.956   26.293   43.555
| 60> H  -23.161   25.856   42.319
| 61> H  -25.524   25.000   42.766
| 62> *
| 63>
| 64>                          ****END OF INPUT****
 Total Charge           Charge          ....    0
 Multiplicity           Mult            ....    1
 Number of Electrons    NEL             ....  102
FINAL SINGLE POINT ENERGY      -652.839321036607
FINAL SINGLE POINT ENERGY      -652.863242595727
FINAL SINGLE POINT ENERGY      -652.867615082116
FINAL SINGLE POINT ENERGY      -652.869257467753
FINAL SINGLE POINT ENERGY      -652.869407868581
FINAL SINGLE POINT ENERGY      -652.869430067826
FINAL SINGLE POINT ENERGY      -652.869430365549
                    ***********************HURRAY********************

CARTESIAN COORDINATES (ANGSTROEM)
---------------------------------
  C    -21.044115   26.176047   46.266584
  C    -20.389652   27.531745   46.001883
  C    -20.371325   28.156954   47.416033
  C    -20.125562   26.937927   48.332746
  O    -20.468005   25.743410   47.519202
  H    -20.846549   25.385365   45.539461
  H    -19.371565   27.371671   45.629070
  H    -20.944185   28.127772   45.273854
  H    -19.598055   28.923186   47.528010
  H    -21.343598   28.610601   47.629362
  H    -20.748274   26.944269   49.230844
  H    -19.076212   26.827730   48.621790
  C    -23.281879   25.184735   46.440542
  H    -22.641989   24.331755   46.691220
  H    -24.004150   25.318907   47.254056
  O    -22.472917   26.400548   46.382062
  C    -24.021931   24.897399   45.136121
  C    -25.022551   25.952979   44.641197
  C    -24.092281   26.938311   43.885384
  C    -23.020952   26.006886   43.267062
  O    -23.093607   24.725592   44.011991
  H    -24.539087   23.937286   45.260591
  O    -26.018289   25.349370   43.768519
  H    -25.591720   26.425930   45.441679
  H    -24.651009   27.503127   43.134179
  H    -23.638457   27.625733   44.602095
  H    -22.009203   26.413469   43.355998
  H    -23.214313   25.775774   42.213865
  H    -25.564570   24.790521   43.102601

 Multiplicity           Mult            ....    1
 Number of Electrons    NEL             ....  102
 Basis Dimension        Dim             ....  149

ORBITAL ENERGIES
----------------

  NO   OCC          E(Eh)            E(eV)
   0   2.0000     -19.147409      -521.0275
   1   2.0000     -19.143515      -520.9215
   2   2.0000     -19.140384      -520.8363
   3   2.0000     -19.136188      -520.7221
   4   2.0000     -10.277853      -279.6746
   5   2.0000     -10.238153      -278.5943
   6   2.0000     -10.233565      -278.4695
   7   2.0000     -10.230117      -278.3756
   8   2.0000     -10.229033      -278.3462
   9   2.0000     -10.225792      -278.2579
  10   2.0000     -10.187731      -277.2223
  11   2.0000     -10.186628      -277.1923
  12   2.0000     -10.180126      -277.0153
  13   2.0000      -1.055553       -28.7231
  14   2.0000      -1.034388       -28.1471
  15   2.0000      -1.005279       -27.3550
  16   2.0000      -0.993185       -27.0259
  17   2.0000      -0.790959       -21.5231
  18   2.0000      -0.776368       -21.1260
  19   2.0000      -0.766307       -20.8523
  20   2.0000      -0.731391       -19.9022
  21   2.0000      -0.674495       -18.3539
  22   2.0000      -0.601754       -16.3745
  23   2.0000      -0.600192       -16.3321
  24   2.0000      -0.597194       -16.2505
  25   2.0000      -0.575765       -15.6674
  26   2.0000      -0.525304       -14.2943
  27   2.0000      -0.507245       -13.8028
  28   2.0000      -0.497275       -13.5316
  29   2.0000      -0.489421       -13.3178
  30   2.0000      -0.468547       -12.7498
  31   2.0000      -0.461164       -12.5489
  32   2.0000      -0.448185       -12.1957
  33   2.0000      -0.439459       -11.9583
  34   2.0000      -0.421993       -11.4830
  35   2.0000      -0.411987       -11.2107
  36   2.0000      -0.398726       -10.8499
  37   2.0000      -0.391963       -10.6659
  38   2.0000      -0.377999       -10.2859
  39   2.0000      -0.364373        -9.9151
  40   2.0000      -0.361251        -9.8301
  41   2.0000      -0.357079        -9.7166
  42   2.0000      -0.346767        -9.4360
  43   2.0000      -0.334269        -9.0959
  44   2.0000      -0.325539        -8.8584
  45   2.0000      -0.306707        -8.3459
  46   2.0000      -0.300400        -8.1743
  47   2.0000      -0.278948        -7.5906
  48   2.0000      -0.266084        -7.2405
  49   2.0000      -0.255736        -6.9589
  50   2.0000      -0.241363        -6.5678
  51   0.0000       0.063052         1.7157
  52   0.0000       0.084733         2.3057
  53   0.0000       0.090331         2.4580
  54   0.0000       0.103450         2.8150
  55   0.0000       0.107337         2.9208

MULLIKEN ATOMIC CHARGES
-----------------------
   0 C :    0.276456
   1 C :   -0.266671
   2 C :   -0.300114
   3 C :   -0.002067
   4 O :   -0.512144
   5 H :    0.168541
   6 H :    0.147752
   7 H :    0.151566
   8 H :    0.141734
   9 H :    0.161920
  10 H :    0.147745
  11 H :    0.143060
  12 C :   -0.020008
  13 H :    0.164454
  14 H :    0.145195
  15 O :   -0.523794
  16 C :    0.068195
  17 C :    0.083030
  18 C :   -0.288003
  19 C :   -0.030039
  20 O :   -0.529142
  21 H :    0.155166
  22 O :   -0.603020
  23 H :    0.153368
  24 H :    0.149386
  25 H :    0.172381
  26 H :    0.141297
  27 H :    0.141436
  28 H :    0.362318
Sum of atomic charges:    0.0000000

LOEWDIN ATOMIC CHARGES
----------------------
   0 C :    0.168221
   1 C :   -0.216248
   2 C :   -0.216210
   3 C :   -0.027026
   4 O :   -0.327030
   5 H :    0.108917
   6 H :    0.115516
   7 H :    0.119032
   8 H :    0.113577
   9 H :    0.118853
  10 H :    0.105867
  11 H :    0.103050
  12 C :   -0.039731
  13 H :    0.117342
  14 H :    0.110598
  15 O :   -0.332508
  16 C :    0.006506
  17 C :    0.040095
  18 C :   -0.241387
  19 C :   -0.036680
  20 O :   -0.334809
  21 H :    0.115538
  22 O :   -0.416490
  23 H :    0.117106
  24 H :    0.119369
  25 H :    0.127705
  26 H :    0.100416
  27 H :    0.098659
  28 H :    0.281754

  Mayer bond orders larger than 0.100000
B(  0-C ,  1-C ) :   0.9473 B(  0-C ,  4-O ) :   0.9028 B(  0-C ,  5-H ) :   0.9113
B(  0-C , 15-O ) :   0.8443 B(  1-C ,  2-C ) :   0.9544 B(  1-C ,  6-H ) :   0.9402
B(  1-C ,  7-H ) :   0.9361 B(  2-C ,  3-C ) :   0.9558 B(  2-C ,  8-H ) :   0.9452
B(  2-C ,  9-H ) :   0.9443 B(  3-C ,  4-O ) :   0.8368 B(  3-C , 10-H ) :   0.9357
B(  3-C , 11-H ) :   0.9404 B( 12-C , 13-H ) :   0.9171 B( 12-C , 14-H ) :   0.9273
B( 12-C , 15-O ) :   0.8547 B( 12-C , 16-C ) :   0.8927 B( 16-C , 17-C ) :   0.9094
B( 16-C , 20-O ) :   0.8602 B( 16-C , 21-H ) :   0.9185 B( 17-C , 18-C ) :   0.9219
B( 17-C , 22-O ) :   0.8910 B( 17-C , 23-H ) :   0.9358 B( 18-C , 19-C ) :   0.9445
B( 18-C , 24-H ) :   0.9372 B( 18-C , 25-H ) :   0.9192 B( 19-C , 20-O ) :   0.8404
B( 19-C , 26-H ) :   0.9318 B( 19-C , 27-H ) :   0.9372 B( 22-O , 28-H ) :   0.7966

FINAL SINGLE POINT ENERGY      -652.869428250382

DIPOLE MOMENT
-------------
                                X             Y             Z
Electronic contribution:     -2.80011      -4.92245      -0.71352
Nuclear contribution   :      3.41384       5.74546       0.73887
                        -----------------------------------------
Total Dipole Moment    :      0.61373       0.82301       0.02535
                        -----------------------------------------
Magnitude (a.u.)       :      1.02696
Magnitude (Debye)      :      2.61032

Rotational constants in cm-1:     0.062465     0.013936     0.013312
Rotational constants in MHz :  1872.645912   417.776976   399.092240

                             ****ORCA TERMINATED NORMALLY****
TOTAL RUN TIME: 0 days 0 hours 37 minutes 32 seconds 46 msec
