                         Program Version 4.2.0 -  RELEASE  -
|  1> # Test redundant internal optimization
|  2> #
|  3> ! RKS B3LYP  Opt TightSCF SmallPrint
|  4>
|  5> %basis
|  6>         Basis "6-31G"
|  7> end
|  8>
|  9> %geom
| 10> Constraints
| 11> { D 4  0  15  12  15.0   C } # D for Dihedral angle
| 12> { D 0  15  12  16  180.0   C } # D for Dihedral angle
| 13> { D 0  4  3  2   C } # D for Dihedral angle
| 14> { D 4  3  2  1   C } # D for Dihedral angle
| 15> { D 3  2  1  0   C } # D for Dihedral angle
| 16> { D 2  1  0  4   C } # D for Dihedral angle
| 17> { D 1  0  4  3   C } # D for Dihedral angle
| 18> { D 16  20  19  18   C } # D for Dihedral angle
| 19> { D 20  19  18  17   C } # D for Dihedral angle
| 20> { D 19  18  17  16   C } # D for Dihedral angle
| 21> { D 18  17  16  20   C } # D for Dihedral angle
| 22> { D 17  16  20  19   C } # D for Dihedral angle
| 23> { D 15  12  16  20   C } # D for Dihedral angle
| 24> end
| 25> end
| 26>
| 27>
| 28> #%pal
| 29> #nprocs 8
| 30> #end
| 31>
| 32> * xyz 0 1
| 33> C  -21.048   26.222   46.251
| 34> C  -20.361   27.558   45.944
| 35> C  -20.329   28.222   47.341
| 36> C  -20.110   27.022   48.296
| 37> O  -20.473   25.807   47.535
| 38> H  -20.833   25.428   45.533
| 39> H  -19.344   27.382   45.576
| 40> H  -20.898   28.157   45.201
| 41> H  -19.543   28.978   47.434
| 42> H  -21.289   28.710   47.548
| 43> H  -20.733   27.082   49.195
| 44> H  -19.064   26.913   48.597
| 45> C  -23.128   26.462   47.829
| 46> H  -22.864   25.538   48.358
| 47> H  -22.677   27.306   48.368
| 48> O  -22.586   26.394   46.375
| 49> C  -24.671   26.634   47.888
| 50> C  -25.125   27.863   47.090
| 51> C  -25.085   27.326   45.639
| 52> C  -25.519   25.848   45.799
| 53> O  -25.338   25.508   47.227
| 54> H  -24.992   26.629   48.931
| 55> H  -26.147   28.137   47.373
| 56> O  -24.209   29.099   47.300
| 57> H  -25.741   27.883   44.962
| 58> H  -24.065   27.389   45.242
| 59> H  -24.918   25.166   45.188
| 60> H  -26.577   25.695   45.563
| 61> H  -23.180   28.847   47.023
| 62> *
| 63>
| 64>                          ****END OF INPUT****
 Total Charge           Charge          ....    0
 Multiplicity           Mult            ....    1
 Number of Electrons    NEL             ....  102
FINAL SINGLE POINT ENERGY      -652.828802332742
FINAL SINGLE POINT ENERGY      -652.852145352302
FINAL SINGLE POINT ENERGY      -652.857361907227
FINAL SINGLE POINT ENERGY      -652.859344736082
FINAL SINGLE POINT ENERGY      -652.859537295677
FINAL SINGLE POINT ENERGY      -652.859575186317
FINAL SINGLE POINT ENERGY      -652.859576129226
                    ***********************HURRAY********************

CARTESIAN COORDINATES (ANGSTROEM)
---------------------------------
  C    -21.093641   26.221088   46.400714
  C    -20.414434   27.532142   45.996015
  C    -20.221098   28.229527   47.367626
  C    -19.930530   27.045942   48.318660
  O    -20.407974   25.828238   47.606592
  H    -20.960422   25.407663   45.685322
  H    -19.446433   27.306294   45.534522
  H    -21.014089   28.111697   45.290194
  H    -19.405004   28.958316   47.357074
  H    -21.133953   28.758016   47.662996
  H    -20.449913   27.118648   49.277758
  H    -18.861713   26.901311   48.498645
  C    -23.114043   26.439334   47.885732
  H    -22.868975   25.526745   48.437775
  H    -22.724683   27.301317   48.442738
  O    -22.539351   26.365232   46.545395
  C    -24.629730   26.587340   47.799940
  C    -25.134811   27.840789   47.062790
  C    -25.139055   27.361961   45.578281
  C    -25.541683   25.876417   45.706121
  O    -25.299411   25.490045   47.118767
  H    -24.994770   26.570750   48.834629
  H    -26.141380   28.092604   47.403010
  O    -24.344837   29.034337   47.302368
  H    -25.836176   27.938033   44.962784
  H    -24.129955   27.454769   45.171195
  H    -24.949361   25.223770   45.059684
  H    -26.605836   25.712068   45.511091
  H    -23.513743   28.970608   46.787580

 Multiplicity           Mult            ....    1
 Number of Electrons    NEL             ....  102
 Basis Dimension        Dim             ....  149

ORBITAL ENERGIES
----------------

  NO   OCC          E(Eh)            E(eV)
   0   2.0000     -19.155871      -521.2577
   1   2.0000     -19.146288      -520.9970
   2   2.0000     -19.141119      -520.8563
   3   2.0000     -19.129731      -520.5464
   4   2.0000     -10.286128      -279.8998
   5   2.0000     -10.238537      -278.6048
   6   2.0000     -10.235400      -278.5194
   7   2.0000     -10.228185      -278.3231
   8   2.0000     -10.227448      -278.3030
   9   2.0000     -10.218313      -278.0544
  10   2.0000     -10.200703      -277.5752
  11   2.0000     -10.195739      -277.4402
  12   2.0000     -10.178127      -276.9609
  13   2.0000      -1.061219       -28.8772
  14   2.0000      -1.026455       -27.9313
  15   2.0000      -1.008582       -27.4449
  16   2.0000      -0.996148       -27.1066
  17   2.0000      -0.798377       -21.7249
  18   2.0000      -0.774421       -21.0731
  19   2.0000      -0.765202       -20.8222
  20   2.0000      -0.737057       -20.0563
  21   2.0000      -0.676516       -18.4089
  22   2.0000      -0.612154       -16.6575
  23   2.0000      -0.601808       -16.3760
  24   2.0000      -0.599670       -16.3178
  25   2.0000      -0.562401       -15.3037
  26   2.0000      -0.526373       -14.3233
  27   2.0000      -0.517147       -14.0723
  28   2.0000      -0.502609       -13.6767
  29   2.0000      -0.491405       -13.3718
  30   2.0000      -0.469879       -12.7861
  31   2.0000      -0.454500       -12.3676
  32   2.0000      -0.447767       -12.1844
  33   2.0000      -0.426437       -11.6040
  34   2.0000      -0.425076       -11.5669
  35   2.0000      -0.421593       -11.4721
  36   2.0000      -0.399814       -10.8795
  37   2.0000      -0.398723       -10.8498
  38   2.0000      -0.381463       -10.3801
  39   2.0000      -0.373746       -10.1701
  40   2.0000      -0.369314       -10.0496
  41   2.0000      -0.359307        -9.7773
  42   2.0000      -0.349888        -9.5209
  43   2.0000      -0.334290        -9.0965
  44   2.0000      -0.322911        -8.7869
  45   2.0000      -0.311943        -8.4884
  46   2.0000      -0.307351        -8.3634
  47   2.0000      -0.269888        -7.3440
  48   2.0000      -0.262374        -7.1396
  49   2.0000      -0.253828        -6.9070
  50   2.0000      -0.236343        -6.4312
  51   0.0000       0.042997         1.1700
  52   0.0000       0.079809         2.1717
  53   0.0000       0.091894         2.5006
  54   0.0000       0.098185         2.6718
  55   0.0000       0.102510         2.7894

MULLIKEN ATOMIC CHARGES
-----------------------
   0 C :    0.305318
   1 C :   -0.260800
   2 C :   -0.319928
   3 C :   -0.016725
   4 O :   -0.506777
   5 H :    0.164659
   6 H :    0.151235
   7 H :    0.148221
   8 H :    0.153548
   9 H :    0.152623
  10 H :    0.151090
  11 H :    0.154449
  12 C :   -0.009454
  13 H :    0.168840
  14 H :    0.127946
  15 O :   -0.552684
  16 C :    0.090428
  17 C :    0.081719
  18 C :   -0.314939
  19 C :    0.002586
  20 O :   -0.520252
  21 H :    0.148472
  22 H :    0.159967
  23 O :   -0.610620
  24 H :    0.143071
  25 H :    0.160519
  26 H :    0.148731
  27 H :    0.137483
  28 H :    0.361274
Sum of atomic charges:   -0.0000000

LOEWDIN ATOMIC CHARGES
----------------------
   0 C :    0.182029
   1 C :   -0.224664
   2 C :   -0.222730
   3 C :   -0.032702
   4 O :   -0.313594
   5 H :    0.110894
   6 H :    0.117881
   7 H :    0.117782
   8 H :    0.120361
   9 H :    0.109880
  10 H :    0.105426
  11 H :    0.109121
  12 C :   -0.044481
  13 H :    0.116492
  14 H :    0.093290
  15 O :   -0.346218
  16 C :    0.020905
  17 C :    0.036907
  18 C :   -0.243772
  19 C :   -0.023322
  20 O :   -0.321094
  21 H :    0.113763
  22 H :    0.115361
  23 O :   -0.413622
  24 H :    0.114222
  25 H :    0.119310
  26 H :    0.106646
  27 H :    0.099427
  28 H :    0.276499

  Mayer bond orders larger than 0.100000
B(  0-C ,  1-C ) :   0.9240 B(  0-C ,  4-O ) :   0.9166 B(  0-C ,  5-H ) :   0.9324
B(  0-C , 15-O ) :   0.8411 B(  1-C ,  2-C ) :   0.9511 B(  1-C ,  6-H ) :   0.9337
B(  1-C ,  7-H ) :   0.9376 B(  2-C ,  3-C ) :   0.9506 B(  2-C ,  8-H ) :   0.9438
B(  2-C ,  9-H ) :   0.9388 B(  3-C ,  4-O ) :   0.8300 B(  3-C , 10-H ) :   0.9312
B(  3-C , 11-H ) :   0.9393 B( 12-C , 13-H ) :   0.9188 B( 12-C , 14-H ) :   0.8964
B( 12-C , 15-O ) :   0.8165 B( 12-C , 16-C ) :   0.9156 B( 16-C , 17-C ) :   0.8838
B( 16-C , 20-O ) :   0.8811 B( 16-C , 21-H ) :   0.9296 B( 17-C , 18-C ) :   0.9367
B( 17-C , 22-H ) :   0.9363 B( 17-C , 23-O ) :   0.8951 B( 18-C , 19-C ) :   0.9480
B( 18-C , 24-H ) :   0.9407 B( 18-C , 25-H ) :   0.9259 B( 19-C , 20-O ) :   0.8394
B( 19-C , 26-H ) :   0.9320 B( 19-C , 27-H ) :   0.9382 B( 23-O , 28-H ) :   0.7887

FINAL SINGLE POINT ENERGY      -652.859574550438

DIPOLE MOMENT
-------------
                                X             Y             Z
Electronic contribution:     -2.35515      -3.55809       1.19124
Nuclear contribution   :      3.29248       4.36879      -1.66156
                        -----------------------------------------
Total Dipole Moment    :      0.93734       0.81071      -0.47032
                        -----------------------------------------
Magnitude (a.u.)       :      1.32554
Magnitude (Debye)      :      3.36925

Rotational constants in cm-1:     0.048585     0.016492     0.015293
Rotational constants in MHz :  1456.550031   494.410103   458.460923

                             ****ORCA TERMINATED NORMALLY****
TOTAL RUN TIME: 0 days 0 hours 30 minutes 16 seconds 936 msec
