                         Program Version 4.2.0 -  RELEASE  -
|  1> # Test redundant internal optimization
|  2> #
|  3> ! RKS B3LYP  Opt TightSCF SmallPrint
|  4>
|  5> %basis
|  6>         Basis "6-31G"
|  7> end
|  8>
|  9> %geom
| 10> Constraints
| 11> { D 4  0  15  12  210.0   C } # D for Dihedral angle
| 12> { D 0  15  12  16  30.0   C } # D for Dihedral angle
| 13> { D 0  4  3  2   C } # D for Dihedral angle
| 14> { D 4  3  2  1   C } # D for Dihedral angle
| 15> { D 3  2  1  0   C } # D for Dihedral angle
| 16> { D 2  1  0  4   C } # D for Dihedral angle
| 17> { D 1  0  4  3   C } # D for Dihedral angle
| 18> { D 16  20  19  18   C } # D for Dihedral angle
| 19> { D 20  19  18  17   C } # D for Dihedral angle
| 20> { D 19  18  17  16   C } # D for Dihedral angle
| 21> { D 18  17  16  20   C } # D for Dihedral angle
| 22> { D 17  16  20  19   C } # D for Dihedral angle
| 23> { D 15  12  16  20   C } # D for Dihedral angle
| 24> end
| 25> end
| 26>
| 27>
| 28> #%pal
| 29> #nprocs 8
| 30> #end
| 31>
| 32> * xyz 0 1
| 33> C  -21.048   26.222   46.251
| 34> C  -20.361   27.558   45.944
| 35> C  -20.329   28.222   47.341
| 36> C  -20.110   27.022   48.296
| 37> O  -20.473   25.807   47.535
| 38> H  -20.833   25.428   45.533
| 39> H  -19.344   27.382   45.576
| 40> H  -20.898   28.157   45.201
| 41> H  -19.543   28.978   47.434
| 42> H  -21.289   28.710   47.548
| 43> H  -20.733   27.082   49.195
| 44> H  -19.064   26.913   48.597
| 45> C  -23.389   26.110   45.076
| 46> H  -24.388   25.742   45.341
| 47> H  -23.508   27.030   44.489
| 48> O  -22.586   26.394   46.375
| 49> C  -22.705   25.054   44.165
| 50> C  -23.461   24.884   42.844
| 51> C  -22.975   26.116   42.043
| 52> C  -21.503   26.272   42.500
| 53> O  -21.371   25.512   43.761
| 54> H  -22.568   24.129   44.730
| 55> H  -23.154   23.956   42.349
| 56> O  -25.004   24.855   43.023
| 57> H  -23.063   25.980   40.960
| 58> H  -23.561   27.000   42.319
| 59> H  -21.229   27.318   42.681
| 60> H  -20.796   25.839   41.787
| 61> H  -25.336   25.775   43.515
| 62> *
| 63>
| 64>                          ****END OF INPUT****
 Total Charge           Charge          ....    0
 Multiplicity           Mult            ....    1
 Number of Electrons    NEL             ....  102
FINAL SINGLE POINT ENERGY      -652.819648277290
FINAL SINGLE POINT ENERGY      -652.841945958225
FINAL SINGLE POINT ENERGY      -652.850865358259
FINAL SINGLE POINT ENERGY      -652.852735363193
FINAL SINGLE POINT ENERGY      -652.853057110177
FINAL SINGLE POINT ENERGY      -652.853109485339
FINAL SINGLE POINT ENERGY      -652.853114134966
                    ***********************HURRAY********************

CARTESIAN COORDINATES (ANGSTROEM)
---------------------------------
  C    -20.872921   26.227930   46.260279
  C    -20.218279   27.593470   46.059888
  C    -20.406530   28.246582   47.450267
  C    -20.261797   27.048866   48.414203
  O    -20.465273   25.836223   47.582188
  H    -20.556717   25.452998   45.568383
  H    -19.154794   27.456814   45.829905
  H    -20.677672   28.164570   45.248682
  H    -19.674662   29.035046   47.650365
  H    -21.410029   28.676353   47.521167
  H    -21.002504   27.051694   49.218422
  H    -19.258920   26.969417   48.845550
  C    -23.156918   26.119666   45.115163
  H    -24.115027   25.771128   45.513744
  H    -23.328318   27.082533   44.603520
  O    -22.329312   26.362970   46.281454
  C    -22.657748   25.092510   44.095914
  C    -23.584676   24.932246   42.877581
  C    -23.116522   26.107054   41.962777
  C    -21.596447   26.166504   42.235525
  O    -21.361180   25.437613   43.512181
  H    -22.503772   24.136100   44.606277
  H    -23.384676   23.972307   42.397072
  O    -25.000400   24.905828   43.167696
  H    -23.352618   25.928698   40.910684
  H    -23.615976   27.033946   42.271897
  H    -21.219879   27.188668   42.336101
  H    -21.015981   25.650331   41.465813
  H    -25.322451   25.798934   43.406303

 Multiplicity           Mult            ....    1
 Number of Electrons    NEL             ....  102
 Basis Dimension        Dim             ....  149

ORBITAL ENERGIES
----------------

  NO   OCC          E(Eh)            E(eV)
   0   2.0000     -19.156730      -521.2811
   1   2.0000     -19.152250      -521.1592
   2   2.0000     -19.129227      -520.5327
   3   2.0000     -19.127094      -520.4747
   4   2.0000     -10.262538      -279.2579
   5   2.0000     -10.253858      -279.0217
   6   2.0000     -10.241110      -278.6748
   7   2.0000     -10.239342      -278.6267
   8   2.0000     -10.233188      -278.4592
   9   2.0000     -10.214448      -277.9493
  10   2.0000     -10.203490      -277.6511
  11   2.0000     -10.176285      -276.9108
  12   2.0000     -10.174360      -276.8584
  13   2.0000      -1.045540       -28.4506
  14   2.0000      -1.036884       -28.2151
  15   2.0000      -1.025355       -27.9013
  16   2.0000      -0.981028       -26.6951
  17   2.0000      -0.791740       -21.5443
  18   2.0000      -0.777094       -21.1458
  19   2.0000      -0.768828       -20.9209
  20   2.0000      -0.727622       -19.7996
  21   2.0000      -0.681715       -18.5504
  22   2.0000      -0.621282       -16.9060
  23   2.0000      -0.601670       -16.3723
  24   2.0000      -0.587701       -15.9922
  25   2.0000      -0.561779       -15.2868
  26   2.0000      -0.538288       -14.6476
  27   2.0000      -0.513007       -13.9596
  28   2.0000      -0.494446       -13.4546
  29   2.0000      -0.477024       -12.9805
  30   2.0000      -0.474102       -12.9010
  31   2.0000      -0.455731       -12.4011
  32   2.0000      -0.441479       -12.0133
  33   2.0000      -0.438489       -11.9319
  34   2.0000      -0.431741       -11.7483
  35   2.0000      -0.423425       -11.5220
  36   2.0000      -0.405866       -11.0442
  37   2.0000      -0.394939       -10.7468
  38   2.0000      -0.388777       -10.5792
  39   2.0000      -0.367579       -10.0023
  40   2.0000      -0.358011        -9.7420
  41   2.0000      -0.347438        -9.4543
  42   2.0000      -0.343435        -9.3453
  43   2.0000      -0.335503        -9.1295
  44   2.0000      -0.326590        -8.8870
  45   2.0000      -0.301201        -8.1961
  46   2.0000      -0.300219        -8.1694
  47   2.0000      -0.280130        -7.6227
  48   2.0000      -0.255256        -6.9459
  49   2.0000      -0.250485        -6.8160
  50   2.0000      -0.233137        -6.3440
  51   0.0000       0.044683         1.2159
  52   0.0000       0.063527         1.7287
  53   0.0000       0.084037         2.2868
  54   0.0000       0.094036         2.5589
  55   0.0000       0.102299         2.7837

MULLIKEN ATOMIC CHARGES
-----------------------
   0 C :    0.282275
   1 C :   -0.255118
   2 C :   -0.299321
   3 C :    0.000321
   4 O :   -0.504262
   5 H :    0.185448
   6 H :    0.141942
   7 H :    0.133399
   8 H :    0.135379
   9 H :    0.156572
  10 H :    0.149071
  11 H :    0.136891
  12 C :    0.016102
  13 H :    0.155357
  14 H :    0.107550
  15 O :   -0.533479
  16 C :    0.052666
  17 C :    0.090451
  18 C :   -0.320506
  19 C :   -0.011790
  20 O :   -0.524367
  21 H :    0.171782
  22 H :    0.170717
  23 O :   -0.597044
  24 H :    0.161371
  25 H :    0.135996
  26 H :    0.146853
  27 H :    0.156373
  28 H :    0.359370
Sum of atomic charges:   -0.0000000

LOEWDIN ATOMIC CHARGES
----------------------
   0 C :    0.176534
   1 C :   -0.222864
   2 C :   -0.218633
   3 C :   -0.026588
   4 O :   -0.309161
   5 H :    0.117847
   6 H :    0.112573
   7 H :    0.110381
   8 H :    0.110762
   9 H :    0.116296
  10 H :    0.106237
  11 H :    0.099585
  12 C :   -0.043486
  13 H :    0.117263
  14 H :    0.079989
  15 O :   -0.337031
  16 C :    0.002955
  17 C :    0.040533
  18 C :   -0.240221
  19 C :   -0.029911
  20 O :   -0.325663
  21 H :    0.120420
  22 H :    0.121161
  23 O :   -0.403225
  24 H :    0.124688
  25 H :    0.105579
  26 H :    0.104045
  27 H :    0.109531
  28 H :    0.280405

  Mayer bond orders larger than 0.100000
B(  0-C ,  1-C ) :   0.9360 B(  0-C ,  4-O ) :   0.9186 B(  0-C ,  5-H ) :   0.9009
B(  0-C , 15-O ) :   0.8154 B(  1-C ,  2-C ) :   0.9529 B(  1-C ,  6-H ) :   0.9368
B(  1-C ,  7-H ) :   0.9413 B(  2-C ,  3-C ) :   0.9550 B(  2-C ,  8-H ) :   0.9459
B(  2-C ,  9-H ) :   0.9447 B(  3-C ,  4-O ) :   0.8424 B(  3-C , 10-H ) :   0.9351
B(  3-C , 11-H ) :   0.9402 B( 12-C , 13-H ) :   0.9158 B( 12-C , 14-H ) :   0.9183
B( 12-C , 15-O ) :   0.8679 B( 12-C , 16-C ) :   0.8997 B( 16-C , 17-C ) :   0.8742
B( 16-C , 20-O ) :   0.8362 B( 16-C , 21-H ) :   0.9252 B( 17-C , 18-C ) :   0.9205
B( 17-C , 22-H ) :   0.9330 B( 17-C , 23-O ) :   0.9063 B( 18-C , 19-C ) :   0.9400
B( 18-C , 24-H ) :   0.9411 B( 18-C , 25-H ) :   0.9400 B( 19-C , 20-O ) :   0.8365
B( 19-C , 26-H ) :   0.9317 B( 19-C , 27-H ) :   0.9372 B( 23-O , 28-H ) :   0.7961

FINAL SINGLE POINT ENERGY      -652.853114183581

DIPOLE MOMENT
-------------
                                X             Y             Z
Electronic contribution:     -1.56879      -5.19612       1.19007
Nuclear contribution   :      1.48042       6.48009      -2.41471
                        -----------------------------------------
Total Dipole Moment    :     -0.08837       1.28397      -1.22464
                        -----------------------------------------
Magnitude (a.u.)       :      1.77655
Magnitude (Debye)      :      4.51563

Rotational constants in cm-1:     0.059461     0.013421     0.012320
Rotational constants in MHz :  1782.610058   402.357921   369.356083

                             ****ORCA TERMINATED NORMALLY****
TOTAL RUN TIME: 0 days 1 hours 11 minutes 32 seconds 481 msec
