                         Program Version 4.2.0 -  RELEASE  -
|  1> # Test redundant internal optimization
|  2> #
|  3> ! RKS B3LYP  Opt TightSCF SmallPrint
|  4>
|  5> %basis
|  6>         Basis "6-31G"
|  7> end
|  8>
|  9> %geom
| 10> Constraints
| 11> { D 4  0  15  12  0.0   C } # D for Dihedral angle
| 12> { D 0  15  12  16  165.0   C } # D for Dihedral angle
| 13> { D 0  4  3  2   C } # D for Dihedral angle
| 14> { D 4  3  2  1   C } # D for Dihedral angle
| 15> { D 3  2  1  0   C } # D for Dihedral angle
| 16> { D 2  1  0  4   C } # D for Dihedral angle
| 17> { D 1  0  4  3   C } # D for Dihedral angle
| 18> { D 16  20  19  18   C } # D for Dihedral angle
| 19> { D 20  19  18  17   C } # D for Dihedral angle
| 20> { D 19  18  17  16   C } # D for Dihedral angle
| 21> { D 18  17  16  20   C } # D for Dihedral angle
| 22> { D 17  16  20  19   C } # D for Dihedral angle
| 23> { D 15  12  16  20   C } # D for Dihedral angle
| 24> end
| 25> end
| 26>
| 27>
| 28> #%pal
| 29> #nprocs 8
| 30> #end
| 31>
| 32> * xyz 0 1
| 33> C  -21.048   26.222   46.251
| 34> C  -20.361   27.558   45.944
| 35> C  -20.329   28.222   47.341
| 36> C  -20.110   27.022   48.296
| 37> O  -20.473   25.807   47.535
| 38> H  -20.833   25.428   45.533
| 39> H  -19.344   27.382   45.576
| 40> H  -20.898   28.157   45.201
| 41> H  -19.543   28.978   47.434
| 42> H  -21.289   28.710   47.548
| 43> H  -20.733   27.082   49.195
| 44> H  -19.064   26.913   48.597
| 45> C  -23.172   26.101   47.783
| 46> H  -23.182   25.017   47.953
| 47> H  -22.551   26.564   48.561
| 48> O  -22.586   26.394   46.375
| 49> C  -24.621   26.635   47.954
| 50> C  -25.124   26.432   49.388
| 51> C  -24.439   27.605   50.129
| 52> C  -24.440   28.737   49.073
| 53> O  -24.657   28.089   47.762
| 54> H  -25.258   26.194   47.185
| 55> O  -26.669   26.580   49.437
| 56> H  -24.857   25.454   49.802
| 57> H  -24.963   27.890   51.048
| 58> H  -23.412   27.330   50.401
| 59> H  -23.493   29.288   49.048
| 60> H  -25.259   29.447   49.222
| 61> H  -26.959   27.554   49.026
| 62> *
| 63>
| 64>                          ****END OF INPUT****
 Total Charge           Charge          ....    0
 Multiplicity           Mult            ....    1
 Number of Electrons    NEL             ....  102
FINAL SINGLE POINT ENERGY      -652.829419802691
FINAL SINGLE POINT ENERGY      -652.852801227127
FINAL SINGLE POINT ENERGY      -652.857440499499
FINAL SINGLE POINT ENERGY      -652.858203177487
FINAL SINGLE POINT ENERGY      -652.858309833373
FINAL SINGLE POINT ENERGY      -652.858324639377
                    ***********************HURRAY********************

CARTESIAN COORDINATES (ANGSTROEM)
---------------------------------
  C    -21.152357   26.234986   46.328116
  C    -20.548430   27.590504   45.959310
  C    -20.273986   28.202779   47.351930
  C    -19.874085   26.978100   48.204491
  O    -20.364169   25.786844   47.455390
  H    -21.052639   25.463822   45.560349
  H    -19.616500   27.433742   45.403301
  H    -21.233155   28.188878   45.355092
  H    -19.491090   28.967045   47.332096
  H    -21.192083   28.662426   47.733153
  H    -20.320570   26.976895   49.203641
  H    -18.790395   26.860498   48.299315
  C    -23.090136   26.072790   47.921701
  H    -23.138447   24.986698   48.084119
  H    -22.453584   26.499667   48.704507
  O    -22.574225   26.375267   46.601974
  C    -24.493015   26.667711   47.989979
  C    -25.193312   26.481276   49.344439
  C    -24.604228   27.656976   50.167449
  C    -24.447480   28.779688   49.112526
  O    -24.487385   28.120660   47.785282
  H    -25.090022   26.249971   47.173620
  O    -26.635623   26.594044   49.202922
  H    -25.023331   25.505784   49.802939
  H    -25.274909   27.928767   50.986170
  H    -23.636559   27.371532   50.594897
  H    -23.504458   29.326832   49.213528
  H    -25.270879   29.500873   49.141527
  H    -26.839948   27.326945   48.584239

 Multiplicity           Mult            ....    1
 Number of Electrons    NEL             ....  102
 Basis Dimension        Dim             ....  149

ORBITAL ENERGIES
----------------

  NO   OCC          E(Eh)            E(eV)
   0   2.0000     -19.150178      -521.1028
   1   2.0000     -19.141303      -520.8613
   2   2.0000     -19.138620      -520.7883
   3   2.0000     -19.135267      -520.6971
   4   2.0000     -10.277728      -279.6712
   5   2.0000     -10.243608      -278.7428
   6   2.0000     -10.233659      -278.4720
   7   2.0000     -10.232896      -278.4513
   8   2.0000     -10.232110      -278.4299
   9   2.0000     -10.230618      -278.3893
  10   2.0000     -10.191041      -277.3123
  11   2.0000     -10.189918      -277.2818
  12   2.0000     -10.183078      -277.0956
  13   2.0000      -1.054533       -28.6953
  14   2.0000      -1.036244       -28.1976
  15   2.0000      -1.006607       -27.3912
  16   2.0000      -0.990841       -26.9622
  17   2.0000      -0.791502       -21.5379
  18   2.0000      -0.783628       -21.3236
  19   2.0000      -0.769984       -20.9523
  20   2.0000      -0.733726       -19.9657
  21   2.0000      -0.673448       -18.3254
  22   2.0000      -0.605703       -16.4820
  23   2.0000      -0.603449       -16.4207
  24   2.0000      -0.593393       -16.1471
  25   2.0000      -0.578627       -15.7452
  26   2.0000      -0.528286       -14.3754
  27   2.0000      -0.509074       -13.8526
  28   2.0000      -0.497259       -13.5311
  29   2.0000      -0.492076       -13.3901
  30   2.0000      -0.477475       -12.9928
  31   2.0000      -0.461029       -12.5452
  32   2.0000      -0.452369       -12.3096
  33   2.0000      -0.442616       -12.0442
  34   2.0000      -0.416875       -11.3437
  35   2.0000      -0.410122       -11.1600
  36   2.0000      -0.404808       -11.0154
  37   2.0000      -0.395086       -10.7508
  38   2.0000      -0.374424       -10.1886
  39   2.0000      -0.371090       -10.0979
  40   2.0000      -0.361889        -9.8475
  41   2.0000      -0.358908        -9.7664
  42   2.0000      -0.349003        -9.4969
  43   2.0000      -0.339839        -9.2475
  44   2.0000      -0.324899        -8.8410
  45   2.0000      -0.308823        -8.4035
  46   2.0000      -0.305070        -8.3014
  47   2.0000      -0.271718        -7.3938
  48   2.0000      -0.263300        -7.1648
  49   2.0000      -0.247155        -6.7254
  50   2.0000      -0.244174        -6.6443
  51   0.0000       0.050119         1.3638
  52   0.0000       0.077289         2.1031
  53   0.0000       0.092298         2.5115
  54   0.0000       0.096972         2.6387
  55   0.0000       0.101825         2.7708

MULLIKEN ATOMIC CHARGES
-----------------------
   0 C :    0.299540
   1 C :   -0.252830
   2 C :   -0.315522
   3 C :   -0.021386
   4 O :   -0.512053
   5 H :    0.156218
   6 H :    0.142112
   7 H :    0.168462
   8 H :    0.146688
   9 H :    0.166223
  10 H :    0.138708
  11 H :    0.152470
  12 C :    0.017644
  13 H :    0.137055
  14 H :    0.127330
  15 O :   -0.533560
  16 C :    0.062327
  17 C :    0.077000
  18 C :   -0.292716
  19 C :   -0.032942
  20 O :   -0.510939
  21 H :    0.171683
  22 O :   -0.601635
  23 H :    0.152064
  24 H :    0.163486
  25 H :    0.139701
  26 H :    0.141285
  27 H :    0.147670
  28 H :    0.365916
Sum of atomic charges:   -0.0000000

LOEWDIN ATOMIC CHARGES
----------------------
   0 C :    0.183690
   1 C :   -0.219185
   2 C :   -0.221609
   3 C :   -0.034795
   4 O :   -0.321015
   5 H :    0.104746
   6 H :    0.112355
   7 H :    0.129973
   8 H :    0.117213
   9 H :    0.118294
  10 H :    0.097492
  11 H :    0.107284
  12 C :   -0.032950
  13 H :    0.100355
  14 H :    0.093212
  15 O :   -0.332667
  16 C :    0.017142
  17 C :    0.036090
  18 C :   -0.241161
  19 C :   -0.040398
  20 O :   -0.322004
  21 H :    0.121520
  22 O :   -0.413700
  23 H :    0.115590
  24 H :    0.126949
  25 H :    0.110612
  26 H :    0.100067
  27 H :    0.102918
  28 H :    0.283984

  Mayer bond orders larger than 0.100000
B(  0-C ,  1-C ) :   0.9314 B(  0-C ,  4-O ) :   0.9084 B(  0-C ,  5-H ) :   0.9293
B(  0-C , 15-O ) :   0.8448 B(  1-C ,  2-C ) :   0.9524 B(  1-C ,  6-H ) :   0.9358
B(  1-C ,  7-H ) :   0.9343 B(  2-C ,  3-C ) :   0.9529 B(  2-C ,  8-H ) :   0.9444
B(  2-C ,  9-H ) :   0.9394 B(  3-C ,  4-O ) :   0.8322 B(  3-C , 10-H ) :   0.9299
B(  3-C , 11-H ) :   0.9397 B( 12-C , 13-H ) :   0.9147 B( 12-C , 14-H ) :   0.9122
B( 12-C , 15-O ) :   0.8340 B( 12-C , 16-C ) :   0.8962 B( 16-C , 17-C ) :   0.9007
B( 16-C , 20-O ) :   0.8596 B( 16-C , 21-H ) :   0.9220 B( 17-C , 18-C ) :   0.9099
B( 17-C , 22-O ) :   0.8952 B( 17-C , 23-H ) :   0.9335 B( 18-C , 19-C ) :   0.9396
B( 18-C , 24-H ) :   0.9376 B( 18-C , 25-H ) :   0.9344 B( 19-C , 20-O ) :   0.8558
B( 19-C , 26-H ) :   0.9324 B( 19-C , 27-H ) :   0.9375 B( 22-O , 28-H ) :   0.7934

FINAL SINGLE POINT ENERGY      -652.858327452255

DIPOLE MOMENT
-------------
                                X             Y             Z
Electronic contribution:     -3.75995      -3.53580      -2.95240
Nuclear contribution   :      4.62060       4.32321       3.56342
                        -----------------------------------------
Total Dipole Moment    :      0.86065       0.78741       0.61102
                        -----------------------------------------
Magnitude (a.u.)       :      1.31684
Magnitude (Debye)      :      3.34715

Rotational constants in cm-1:     0.054789     0.014157     0.013546
Rotational constants in MHz :  1642.534786   424.412779   406.095936

                             ****ORCA TERMINATED NORMALLY****
TOTAL RUN TIME: 0 days 1 hours 23 minutes 5 seconds 217 msec
