                         Program Version 4.2.0 -  RELEASE  -
|  1> # Test redundant internal optimization
|  2> #
|  3> ! RKS B3LYP  Opt TightSCF SmallPrint
|  4>
|  5> %basis
|  6>         Basis "6-31G"
|  7> end
|  8>
|  9> %geom
| 10> Constraints
| 11> { D 4  0  15  12  15.0   C } # D for Dihedral angle
| 12> { D 0  15  12  16  255.0   C } # D for Dihedral angle
| 13> { D 0  4  3  2   C } # D for Dihedral angle
| 14> { D 4  3  2  1   C } # D for Dihedral angle
| 15> { D 3  2  1  0   C } # D for Dihedral angle
| 16> { D 2  1  0  4   C } # D for Dihedral angle
| 17> { D 1  0  4  3   C } # D for Dihedral angle
| 18> { D 16  20  19  18   C } # D for Dihedral angle
| 19> { D 20  19  18  17   C } # D for Dihedral angle
| 20> { D 19  18  17  16   C } # D for Dihedral angle
| 21> { D 18  17  16  20   C } # D for Dihedral angle
| 22> { D 17  16  20  19   C } # D for Dihedral angle
| 23> { D 15  12  16  20   C } # D for Dihedral angle
| 24> end
| 25> end
| 26>
| 27>
| 28> #%pal
| 29> #nprocs 8
| 30> #end
| 31>
| 32> * xyz 0 1
| 33> C  -21.048   26.222   46.251
| 34> C  -20.361   27.558   45.944
| 35> C  -20.329   28.222   47.341
| 36> C  -20.110   27.022   48.296
| 37> O  -20.473   25.807   47.535
| 38> H  -20.833   25.428   45.533
| 39> H  -19.344   27.382   45.576
| 40> H  -20.898   28.157   45.201
| 41> H  -19.543   28.978   47.434
| 42> H  -21.289   28.710   47.548
| 43> H  -20.733   27.082   49.195
| 44> H  -19.064   26.913   48.597
| 45> C  -23.128   26.462   47.829
| 46> H  -22.295   26.652   48.517
| 47> H  -23.850   27.282   47.932
| 48> O  -22.586   26.394   46.375
| 49> C  -23.836   25.151   48.268
| 50> C  -24.458   25.294   49.662
| 51> C  -25.757   26.072   49.347
| 52> C  -26.177   25.510   47.966
| 53> O  -24.977   24.866   47.392
| 54> H  -23.138   24.316   48.168
| 55> H  -24.689   24.305   50.075
| 56> O  -23.538   26.040   50.667
| 57> H  -26.532   25.930   50.108
| 58> H  -25.546   27.146   49.280
| 59> H  -26.524   26.294   47.282
| 60> H  -26.950   24.741   48.045
| 61> H  -23.293   27.033   50.276
| 62> *
| 63>
| 64>                          ****END OF INPUT****
 Total Charge           Charge          ....    0
 Multiplicity           Mult            ....    1
 Number of Electrons    NEL             ....  102
FINAL SINGLE POINT ENERGY      -652.820260710073
FINAL SINGLE POINT ENERGY      -652.844092740873
FINAL SINGLE POINT ENERGY      -652.848911394434
FINAL SINGLE POINT ENERGY      -652.851481644858
FINAL SINGLE POINT ENERGY      -652.851744509533
FINAL SINGLE POINT ENERGY      -652.851846367991
FINAL SINGLE POINT ENERGY      -652.851858330346
FINAL SINGLE POINT ENERGY      -652.851863049061
                    ***********************HURRAY********************

CARTESIAN COORDINATES (ANGSTROEM)
---------------------------------
  C    -21.112940   26.250352   46.373960
  C    -20.417350   27.537991   45.924001
  C    -20.147410   28.244448   47.276984
  C    -19.847378   27.064508   48.230899
  O    -20.385836   25.851325   47.556872
  H    -21.023146   25.427074   45.662851
  H    -19.477440   27.283046   45.421069
  H    -21.040294   28.123405   45.244697
  H    -19.316636   28.954662   47.225891
  H    -21.039840   28.793224   47.598549
  H    -20.316447   27.163984   49.214335
  H    -18.775242   26.893936   48.365778
  C    -23.119026   26.541250   47.887196
  H    -22.355782   26.742199   48.642979
  H    -23.818291   27.385100   47.842559
  O    -22.544807   26.433485   46.557581
  C    -23.841441   25.248794   48.273737
  C    -24.517772   25.309002   49.655134
  C    -25.868592   26.011852   49.320752
  C    -26.197234   25.459055   47.915866
  O    -24.932750   24.914668   47.364129
  H    -23.123659   24.426802   48.202297
  H    -24.693919   24.294319   50.018516
  O    -23.744070   25.945657   50.704028
  H    -26.644507   25.791930   50.059322
  H    -25.719824   27.100528   49.298362
  H    -26.583842   26.225251   47.236014
  H    -26.912412   24.631540   47.955709
  H    -23.781112   26.919614   50.609931

 Multiplicity           Mult            ....    1
 Number of Electrons    NEL             ....  102
 Basis Dimension        Dim             ....  149

ORBITAL ENERGIES
----------------

  NO   OCC          E(Eh)            E(eV)
   0   2.0000     -19.149344      -521.0801
   1   2.0000     -19.148123      -521.0469
   2   2.0000     -19.133072      -520.6374
   3   2.0000     -19.131309      -520.5894
   4   2.0000     -10.276035      -279.6251
   5   2.0000     -10.242108      -278.7019
   6   2.0000     -10.233008      -278.4543
   7   2.0000     -10.227070      -278.2927
   8   2.0000     -10.226715      -278.2831
   9   2.0000     -10.222554      -278.1698
  10   2.0000     -10.194712      -277.4122
  11   2.0000     -10.192964      -277.3646
  12   2.0000     -10.184564      -277.1361
  13   2.0000      -1.052368       -28.6364
  14   2.0000      -1.030705       -28.0469
  15   2.0000      -1.011832       -27.5333
  16   2.0000      -0.989352       -26.9216
  17   2.0000      -0.789859       -21.4932
  18   2.0000      -0.779656       -21.2155
  19   2.0000      -0.766444       -20.8560
  20   2.0000      -0.732642       -19.9362
  21   2.0000      -0.677551       -18.4371
  22   2.0000      -0.608948       -16.5703
  23   2.0000      -0.604061       -16.4373
  24   2.0000      -0.597260       -16.2523
  25   2.0000      -0.564512       -15.3611
  26   2.0000      -0.523026       -14.2322
  27   2.0000      -0.512808       -13.9542
  28   2.0000      -0.500475       -13.6186
  29   2.0000      -0.494040       -13.4435
  30   2.0000      -0.467128       -12.7112
  31   2.0000      -0.459342       -12.4993
  32   2.0000      -0.439157       -11.9501
  33   2.0000      -0.430424       -11.7124
  34   2.0000      -0.422351       -11.4928
  35   2.0000      -0.417718       -11.3667
  36   2.0000      -0.412469       -11.2239
  37   2.0000      -0.396559       -10.7909
  38   2.0000      -0.376324       -10.2403
  39   2.0000      -0.372169       -10.1272
  40   2.0000      -0.360684        -9.8147
  41   2.0000      -0.352462        -9.5910
  42   2.0000      -0.348581        -9.4854
  43   2.0000      -0.328307        -8.9337
  44   2.0000      -0.325669        -8.8619
  45   2.0000      -0.313304        -8.5254
  46   2.0000      -0.302856        -8.2411
  47   2.0000      -0.268435        -7.3045
  48   2.0000      -0.262650        -7.1471
  49   2.0000      -0.254996        -6.9388
  50   2.0000      -0.227150        -6.1811
  51   0.0000       0.049236         1.3398
  52   0.0000       0.074614         2.0304
  53   0.0000       0.086409         2.3513
  54   0.0000       0.092350         2.5130
  55   0.0000       0.103996         2.8299

MULLIKEN ATOMIC CHARGES
-----------------------
   0 C :    0.295662
   1 C :   -0.255516
   2 C :   -0.309243
   3 C :   -0.023694
   4 O :   -0.510499
   5 H :    0.164599
   6 H :    0.145068
   7 H :    0.159110
   8 H :    0.148568
   9 H :    0.147638
  10 H :    0.147311
  11 H :    0.153059
  12 C :   -0.022496
  13 H :    0.142030
  14 H :    0.129178
  15 O :   -0.522335
  16 C :    0.099544
  17 C :    0.079126
  18 C :   -0.331893
  19 C :   -0.011479
  20 O :   -0.503992
  21 H :    0.171262
  22 H :    0.168387
  23 O :   -0.597737
  24 H :    0.158367
  25 H :    0.132509
  26 H :    0.145432
  27 H :    0.150278
  28 H :    0.351757
Sum of atomic charges:   -0.0000000

LOEWDIN ATOMIC CHARGES
----------------------
   0 C :    0.181665
   1 C :   -0.223155
   2 C :   -0.221851
   3 C :   -0.035978
   4 O :   -0.318962
   5 H :    0.110106
   6 H :    0.114426
   7 H :    0.124715
   8 H :    0.117978
   9 H :    0.110338
  10 H :    0.101305
  11 H :    0.107756
  12 C :   -0.050374
  13 H :    0.105954
  14 H :    0.097825
  15 O :   -0.324688
  16 C :    0.014480
  17 C :    0.033331
  18 C :   -0.244298
  19 C :   -0.031069
  20 O :   -0.313378
  21 H :    0.122610
  22 H :    0.119850
  23 O :   -0.408068
  24 H :    0.122356
  25 H :    0.102911
  26 H :    0.103303
  27 H :    0.105921
  28 H :    0.274990

  Mayer bond orders larger than 0.100000
B(  0-C ,  1-C ) :   0.9219 B(  0-C ,  4-O ) :   0.9054 B(  0-C ,  5-H ) :   0.9311
B(  0-C , 15-O ) :   0.8626 B(  1-C ,  2-C ) :   0.9534 B(  1-C ,  6-H ) :   0.9349
B(  1-C ,  7-H ) :   0.9368 B(  2-C ,  3-C ) :   0.9508 B(  2-C ,  8-H ) :   0.9449
B(  2-C ,  9-H ) :   0.9458 B(  3-C ,  4-O ) :   0.8329 B(  3-C , 10-H ) :   0.9278
B(  3-C , 11-H ) :   0.9397 B( 12-C , 13-H ) :   0.8943 B( 12-C , 14-H ) :   0.9357
B( 12-C , 15-O ) :   0.8526 B( 12-C , 16-C ) :   0.8906 B( 16-C , 17-C ) :   0.8685
B( 16-C , 20-O ) :   0.8676 B( 16-C , 21-H ) :   0.9290 B( 17-C , 18-C ) :   0.9279
B( 17-C , 22-H ) :   0.9323 B( 17-C , 23-O ) :   0.8907 B( 18-C , 19-C ) :   0.9407
B( 18-C , 24-H ) :   0.9412 B( 18-C , 25-H ) :   0.9398 B( 19-C , 20-O ) :   0.8546
B( 19-C , 26-H ) :   0.9305 B( 19-C , 27-H ) :   0.9373 B( 23-O , 28-H ) :   0.8006

FINAL SINGLE POINT ENERGY      -652.851863968904

DIPOLE MOMENT
-------------
                                X             Y             Z
Electronic contribution:     -0.57778      -4.78775      -0.96251
Nuclear contribution   :      0.54237       6.26478       1.37999
                        -----------------------------------------
Total Dipole Moment    :     -0.03541       1.47703       0.41748
                        -----------------------------------------
Magnitude (a.u.)       :      1.53530
Magnitude (Debye)      :      3.90243

Rotational constants in cm-1:     0.051826     0.014440     0.012717
Rotational constants in MHz :  1553.690801   432.911821   381.243840

                             ****ORCA TERMINATED NORMALLY****
TOTAL RUN TIME: 0 days 0 hours 25 minutes 55 seconds 336 msec
