                         Program Version 4.2.0 -  RELEASE  -
|  1> # Test redundant internal optimization
|  2> #
|  3> ! RKS B3LYP  Opt TightSCF SmallPrint
|  4>
|  5> %basis
|  6>         Basis "6-31G"
|  7> end
|  8>
|  9> %geom
| 10> Constraints
| 11> { D 4  0  15  12  285.0   C } # D for Dihedral angle
| 12> { D 0  15  12  16  240.0   C } # D for Dihedral angle
| 13> { D 0  4  3  2   C } # D for Dihedral angle
| 14> { D 4  3  2  1   C } # D for Dihedral angle
| 15> { D 3  2  1  0   C } # D for Dihedral angle
| 16> { D 2  1  0  4   C } # D for Dihedral angle
| 17> { D 1  0  4  3   C } # D for Dihedral angle
| 18> { D 16  20  19  18   C } # D for Dihedral angle
| 19> { D 20  19  18  17   C } # D for Dihedral angle
| 20> { D 19  18  17  16   C } # D for Dihedral angle
| 21> { D 18  17  16  20   C } # D for Dihedral angle
| 22> { D 17  16  20  19   C } # D for Dihedral angle
| 23> { D 15  12  16  20   C } # D for Dihedral angle
| 24> end
| 25> end
| 26>
| 27>
| 28> #%pal
| 29> #nprocs 8
| 30> #end
| 31>
| 32> * xyz 0 1
| 33> C  -21.048   26.222   46.251
| 34> C  -20.361   27.558   45.944
| 35> C  -20.329   28.222   47.341
| 36> C  -20.110   27.022   48.296
| 37> O  -20.473   25.807   47.535
| 38> H  -20.833   25.428   45.533
| 39> H  -19.344   27.382   45.576
| 40> H  -20.898   28.157   45.201
| 41> H  -19.543   28.978   47.434
| 42> H  -21.289   28.710   47.548
| 43> H  -20.733   27.082   49.195
| 44> H  -19.064   26.913   48.597
| 45> C  -23.396   25.070   46.435
| 46> H  -22.704   24.220   46.386
| 47> H  -23.954   25.004   47.378
| 48> O  -22.586   26.394   46.375
| 49> C  -24.417   24.937   45.272
| 50> C  -25.277   23.678   45.427
| 51> C  -26.309   24.131   46.486
| 52> C  -26.531   25.626   46.144
| 53> O  -25.383   26.040   45.309
| 54> H  -23.886   25.008   44.320
| 55> O  -25.980   23.344   44.083
| 56> H  -24.701   22.801   45.743
| 57> H  -27.238   23.552   46.449
| 58> H  -25.888   24.024   47.493
| 59> H  -26.572   26.259   47.037
| 60> H  -27.436   25.789   45.552
| 61> H  -26.563   24.209   43.748
| 62> *
| 63>
| 64>                          ****END OF INPUT****
 Total Charge           Charge          ....    0
 Multiplicity           Mult            ....    1
 Number of Electrons    NEL             ....  102
FINAL SINGLE POINT ENERGY      -652.835376081007
FINAL SINGLE POINT ENERGY      -652.859212051010
FINAL SINGLE POINT ENERGY      -652.863307908003
FINAL SINGLE POINT ENERGY      -652.864043370934
FINAL SINGLE POINT ENERGY      -652.864133308873
FINAL SINGLE POINT ENERGY      -652.864143201161
                    ***********************HURRAY********************

CARTESIAN COORDINATES (ANGSTROEM)
---------------------------------
  C    -21.113916   26.128647   46.232070
  C    -20.538992   27.507273   45.906161
  C    -20.486576   28.165791   47.303303
  C    -20.139916   26.983607   48.236083
  O    -20.459496   25.752530   47.468743
  H    -20.890048   25.331036   45.516125
  H    -19.533064   27.388636   45.487522
  H    -21.162155   28.052429   45.194684
  H    -19.747879   28.971241   47.362110
  H    -21.469616   28.576468   47.550198
  H    -20.721077   26.983840   49.161758
  H    -19.074319   26.931566   48.479427
  C    -23.312341   25.060661   46.511498
  H    -22.650420   24.183989   46.479567
  H    -23.806346   25.075475   47.489125
  O    -22.536427   26.287811   46.393473
  C    -24.335195   24.979074   45.380512
  C    -25.238950   23.739377   45.448945
  C    -26.318028   24.190540   46.468179
  C    -26.477993   25.700588   46.161329
  O    -25.271565   26.106445   45.401086
  H    -23.812211   25.033606   44.420209
  O    -25.817393   23.449516   44.146398
  H    -24.721235   22.825513   45.743766
  H    -27.241723   23.624012   46.327502
  H    -25.965773   24.025722   47.492647
  H    -26.551268   26.311359   47.065759
  H    -27.344992   25.909731   45.526967
  H    -26.107086   24.290515   43.732854

 Multiplicity           Mult            ....    1
 Number of Electrons    NEL             ....  102
 Basis Dimension        Dim             ....  149

ORBITAL ENERGIES
----------------

  NO   OCC          E(Eh)            E(eV)
   0   2.0000     -19.141782      -520.8744
   1   2.0000     -19.140717      -520.8454
   2   2.0000     -19.139678      -520.8171
   3   2.0000     -19.136635      -520.7343
   4   2.0000     -10.276756      -279.6448
   5   2.0000     -10.243611      -278.7428
   6   2.0000     -10.233983      -278.4808
   7   2.0000     -10.231225      -278.4058
   8   2.0000     -10.230000      -278.3725
   9   2.0000     -10.222385      -278.1652
  10   2.0000     -10.190152      -277.2881
  11   2.0000     -10.181630      -277.0562
  12   2.0000     -10.181420      -277.0505
  13   2.0000      -1.052498       -28.6399
  14   2.0000      -1.036110       -28.1940
  15   2.0000      -1.006376       -27.3849
  16   2.0000      -0.991202       -26.9720
  17   2.0000      -0.789271       -21.4772
  18   2.0000      -0.780665       -21.2430
  19   2.0000      -0.766164       -20.8484
  20   2.0000      -0.729233       -19.8434
  21   2.0000      -0.673162       -18.3177
  22   2.0000      -0.605305       -16.4712
  23   2.0000      -0.598542       -16.2871
  24   2.0000      -0.592671       -16.1274
  25   2.0000      -0.578422       -15.7397
  26   2.0000      -0.527969       -14.3668
  27   2.0000      -0.509765       -13.8714
  28   2.0000      -0.493764       -13.4360
  29   2.0000      -0.489606       -13.3229
  30   2.0000      -0.472502       -12.8574
  31   2.0000      -0.456098       -12.4111
  32   2.0000      -0.450881       -12.2691
  33   2.0000      -0.440286       -11.9808
  34   2.0000      -0.422749       -11.5036
  35   2.0000      -0.411041       -11.1850
  36   2.0000      -0.398871       -10.8538
  37   2.0000      -0.393867       -10.7177
  38   2.0000      -0.372956       -10.1486
  39   2.0000      -0.367245        -9.9932
  40   2.0000      -0.358059        -9.7433
  41   2.0000      -0.353317        -9.6142
  42   2.0000      -0.345214        -9.3938
  43   2.0000      -0.333962        -9.0876
  44   2.0000      -0.323994        -8.8163
  45   2.0000      -0.308092        -8.3836
  46   2.0000      -0.296333        -8.0636
  47   2.0000      -0.272029        -7.4023
  48   2.0000      -0.271644        -7.3918
  49   2.0000      -0.252596        -6.8735
  50   2.0000      -0.238411        -6.4875
  51   0.0000       0.066318         1.8046
  52   0.0000       0.086036         2.3412
  53   0.0000       0.089238         2.4283
  54   0.0000       0.101478         2.7614
  55   0.0000       0.102720         2.7952

MULLIKEN ATOMIC CHARGES
-----------------------
   0 C :    0.275232
   1 C :   -0.259277
   2 C :   -0.299286
   3 C :   -0.002660
   4 O :   -0.513493
   5 H :    0.139643
   6 H :    0.143422
   7 H :    0.162060
   8 H :    0.139649
   9 H :    0.166232
  10 H :    0.145106
  11 H :    0.141511
  12 C :   -0.002899
  13 H :    0.138989
  14 H :    0.144815
  15 O :   -0.504937
  16 C :    0.069147
  17 C :    0.080184
  18 C :   -0.297273
  19 C :   -0.026808
  20 O :   -0.511391
  21 H :    0.157857
  22 O :   -0.603501
  23 H :    0.150786
  24 H :    0.163900
  25 H :    0.142742
  26 H :    0.150468
  27 H :    0.143924
  28 H :    0.365857
Sum of atomic charges:    0.0000000

LOEWDIN ATOMIC CHARGES
----------------------
   0 C :    0.169705
   1 C :   -0.214844
   2 C :   -0.216000
   3 C :   -0.027818
   4 O :   -0.333727
   5 H :    0.094286
   6 H :    0.113239
   7 H :    0.126641
   8 H :    0.112692
   9 H :    0.121111
  10 H :    0.104474
  11 H :    0.101955
  12 C :   -0.039582
  13 H :    0.105734
  14 H :    0.106244
  15 O :   -0.315947
  16 C :    0.011359
  17 C :    0.034985
  18 C :   -0.240479
  19 C :   -0.037847
  20 O :   -0.322428
  21 H :    0.115174
  22 O :   -0.415085
  23 H :    0.114951
  24 H :    0.127013
  25 H :    0.112366
  26 H :    0.106281
  27 H :    0.101742
  28 H :    0.283805

  Mayer bond orders larger than 0.100000
B(  0-C ,  1-C ) :   0.9499 B(  0-C ,  4-O ) :   0.9030 B(  0-C ,  5-H ) :   0.9183
B(  0-C , 15-O ) :   0.8725 B(  1-C ,  2-C ) :   0.9570 B(  1-C ,  6-H ) :   0.9405
B(  1-C ,  7-H ) :   0.9352 B(  2-C ,  3-C ) :   0.9554 B(  2-C ,  8-H ) :   0.9453
B(  2-C ,  9-H ) :   0.9436 B(  3-C ,  4-O ) :   0.8381 B(  3-C , 10-H ) :   0.9362
B(  3-C , 11-H ) :   0.9404 B( 12-C , 13-H ) :   0.9130 B( 12-C , 14-H ) :   0.9323
B( 12-C , 15-O ) :   0.8367 B( 12-C , 16-C ) :   0.8910 B( 16-C , 17-C ) :   0.8982
B( 16-C , 20-O ) :   0.8635 B( 16-C , 21-H ) :   0.9271 B( 17-C , 18-C ) :   0.9103
B( 17-C , 22-O ) :   0.8900 B( 17-C , 23-H ) :   0.9335 B( 18-C , 19-C ) :   0.9404
B( 18-C , 24-H ) :   0.9373 B( 18-C , 25-H ) :   0.9349 B( 19-C , 20-O ) :   0.8519
B( 19-C , 26-H ) :   0.9337 B( 19-C , 27-H ) :   0.9380 B( 22-O , 28-H ) :   0.7935

FINAL SINGLE POINT ENERGY      -652.864145392313

DIPOLE MOMENT
-------------
                                X             Y             Z
Electronic contribution:     -1.15010      -2.09927      -2.79873
Nuclear contribution   :      1.16458       2.39800       3.26744
                        -----------------------------------------
Total Dipole Moment    :      0.01448       0.29873       0.46871
                        -----------------------------------------
Magnitude (a.u.)       :      0.55600
Magnitude (Debye)      :      1.41324

Rotational constants in cm-1:     0.065985     0.011107     0.010889
Rotational constants in MHz :  1978.166306   332.983426   326.436244

                             ****ORCA TERMINATED NORMALLY****
TOTAL RUN TIME: 0 days 2 hours 1 minutes 59 seconds 789 msec
