                         Program Version 4.2.0 -  RELEASE  -
|  1> # Test redundant internal optimization
|  2> #
|  3> ! RKS B3LYP  Opt TightSCF SmallPrint
|  4>
|  5> %basis
|  6>         Basis "6-31G"
|  7> end
|  8>
|  9> %geom
| 10> Constraints
| 11> { D 4  0  15  12  225.0   C } # D for Dihedral angle
| 12> { D 0  15  12  16  225.0   C } # D for Dihedral angle
| 13> { D 0  4  3  2   C } # D for Dihedral angle
| 14> { D 4  3  2  1   C } # D for Dihedral angle
| 15> { D 3  2  1  0   C } # D for Dihedral angle
| 16> { D 2  1  0  4   C } # D for Dihedral angle
| 17> { D 1  0  4  3   C } # D for Dihedral angle
| 18> { D 16  20  19  18   C } # D for Dihedral angle
| 19> { D 20  19  18  17   C } # D for Dihedral angle
| 20> { D 19  18  17  16   C } # D for Dihedral angle
| 21> { D 18  17  16  20   C } # D for Dihedral angle
| 22> { D 17  16  20  19   C } # D for Dihedral angle
| 23> { D 15  12  16  20   C } # D for Dihedral angle
| 24> end
| 25> end
| 26>
| 27>
| 28> #%pal
| 29> #nprocs 8
| 30> #end
| 31>
| 32> * xyz 0 1
| 33> C  -21.048   26.222   46.251
| 34> C  -20.361   27.558   45.944
| 35> C  -20.329   28.222   47.341
| 36> C  -20.110   27.022   48.296
| 37> O  -20.473   25.807   47.535
| 38> H  -20.833   25.428   45.533
| 39> H  -19.344   27.382   45.576
| 40> H  -20.898   28.157   45.201
| 41> H  -19.543   28.978   47.434
| 42> H  -21.289   28.710   47.548
| 43> H  -20.733   27.082   49.195
| 44> H  -19.064   26.913   48.597
| 45> C  -23.415   25.773   45.218
| 46> H  -22.748   25.541   44.378
| 47> H  -23.892   24.840   45.545
| 48> O  -22.586   26.394   46.375
| 49> C  -24.534   26.721   44.705
| 50> C  -23.945   27.986   44.070
| 51> C  -23.527   27.470   42.672
| 52> C  -24.630   26.435   42.336
| 53> O  -25.284   26.086   43.615
| 54> H  -25.243   26.909   45.514
| 55> H  -24.718   28.758   43.983
| 56> O  -22.754   28.574   44.876
| 57> H  -23.463   28.269   41.927
| 58> H  -22.546   26.985   42.728
| 59> H  -24.226   25.525   41.880
| 60> H  -25.402   26.846   41.680
| 61> H  -21.968   27.818   44.976
| 62> *
| 63>
| 64>                          ****END OF INPUT****
 Total Charge           Charge          ....    0
 Multiplicity           Mult            ....    1
 Number of Electrons    NEL             ....  102
FINAL SINGLE POINT ENERGY      -652.799139550380
FINAL SINGLE POINT ENERGY      -652.832900740428
FINAL SINGLE POINT ENERGY      -652.847148795124
FINAL SINGLE POINT ENERGY      -652.851414722652
FINAL SINGLE POINT ENERGY      -652.853799821709
FINAL SINGLE POINT ENERGY      -652.855723159884
FINAL SINGLE POINT ENERGY      -652.857511228872
FINAL SINGLE POINT ENERGY      -652.858786442175
FINAL SINGLE POINT ENERGY      -652.859548067394
FINAL SINGLE POINT ENERGY      -652.859844238239
FINAL SINGLE POINT ENERGY      -652.859892804235
FINAL SINGLE POINT ENERGY      -652.859905213850
                    ***********************HURRAY********************

CARTESIAN COORDINATES (ANGSTROEM)
---------------------------------
  C    -21.058154   26.174472   46.233837
  C    -20.290895   27.451951   45.897339
  C    -20.287291   28.193712   47.257473
  C    -20.177197   27.038600   48.275042
  O    -20.575717   25.812959   47.534550
  H    -20.863641   25.329951   45.566897
  H    -19.269047   27.170947   45.615766
  H    -20.733047   28.029416   45.085194
  H    -19.460309   28.904974   47.340935
  H    -21.221363   28.749009   47.394996
  H    -20.839377   27.152935   49.136658
  H    -19.153141   26.874363   48.622189
  C    -23.328632   25.767166   45.245769
  H    -22.674866   25.449670   44.423186
  H    -23.829388   24.880085   45.645678
  O    -22.518819   26.372207   46.316889
  C    -24.402571   26.727094   44.709233
  C    -23.930991   28.025595   44.039990
  C    -23.526109   27.522862   42.628376
  C    -24.556784   26.409914   42.342847
  O    -25.139817   26.027989   43.659433
  H    -25.120950   26.934474   45.508549
  H    -24.791142   28.701436   43.952525
  O    -22.874298   28.716397   44.742436
  H    -23.551746   28.323147   41.883090
  H    -22.502599   27.135673   42.668760
  H    -24.114478   25.522288   41.880155
  H    -25.388361   26.754513   41.721394
  H    -22.725269   28.257201   45.599815

 Multiplicity           Mult            ....    1
 Number of Electrons    NEL             ....  102
 Basis Dimension        Dim             ....  149

ORBITAL ENERGIES
----------------

  NO   OCC          E(Eh)            E(eV)
   0   2.0000     -19.156264      -521.2684
   1   2.0000     -19.146473      -521.0020
   2   2.0000     -19.144469      -520.9475
   3   2.0000     -19.135864      -520.7133
   4   2.0000     -10.287265      -279.9307
   5   2.0000     -10.241511      -278.6857
   6   2.0000     -10.239522      -278.6316
   7   2.0000     -10.238268      -278.5974
   8   2.0000     -10.233454      -278.4665
   9   2.0000     -10.227992      -278.3178
  10   2.0000     -10.190009      -277.2843
  11   2.0000     -10.189078      -277.2589
  12   2.0000     -10.185595      -277.1641
  13   2.0000      -1.057270       -28.7698
  14   2.0000      -1.033982       -28.1361
  15   2.0000      -1.013266       -27.5724
  16   2.0000      -0.998559       -27.1722
  17   2.0000      -0.790630       -21.5141
  18   2.0000      -0.779991       -21.2246
  19   2.0000      -0.770969       -20.9791
  20   2.0000      -0.735278       -20.0079
  21   2.0000      -0.682555       -18.5733
  22   2.0000      -0.604566       -16.4511
  23   2.0000      -0.602693       -16.4001
  24   2.0000      -0.593730       -16.1562
  25   2.0000      -0.589822       -16.0499
  26   2.0000      -0.528041       -14.3687
  27   2.0000      -0.518461       -14.1080
  28   2.0000      -0.501241       -13.6395
  29   2.0000      -0.492967       -13.4143
  30   2.0000      -0.471559       -12.8318
  31   2.0000      -0.460098       -12.5199
  32   2.0000      -0.448668       -12.2089
  33   2.0000      -0.437780       -11.9126
  34   2.0000      -0.427528       -11.6336
  35   2.0000      -0.426323       -11.6008
  36   2.0000      -0.404905       -11.0180
  37   2.0000      -0.392189       -10.6720
  38   2.0000      -0.384172       -10.4539
  39   2.0000      -0.376932       -10.2568
  40   2.0000      -0.360481        -9.8092
  41   2.0000      -0.357399        -9.7253
  42   2.0000      -0.352213        -9.5842
  43   2.0000      -0.344011        -9.3610
  44   2.0000      -0.321700        -8.7539
  45   2.0000      -0.316588        -8.6148
  46   2.0000      -0.298671        -8.1273
  47   2.0000      -0.275081        -7.4853
  48   2.0000      -0.265676        -7.2294
  49   2.0000      -0.261626        -7.1192
  50   2.0000      -0.244370        -6.6496
  51   0.0000       0.050087         1.3629
  52   0.0000       0.070944         1.9305
  53   0.0000       0.088029         2.3954
  54   0.0000       0.095825         2.6075
  55   0.0000       0.105714         2.8766

MULLIKEN ATOMIC CHARGES
-----------------------
   0 C :    0.297608
   1 C :   -0.309545
   2 C :   -0.305409
   3 C :   -0.002544
   4 O :   -0.498811
   5 H :    0.145028
   6 H :    0.148207
   7 H :    0.183535
   8 H :    0.148719
   9 H :    0.156693
  10 H :    0.154830
  11 H :    0.144552
  12 C :   -0.003924
  13 H :    0.130402
  14 H :    0.169267
  15 O :   -0.541409
  16 C :    0.035973
  17 C :    0.109061
  18 C :   -0.300618
  19 C :   -0.022111
  20 O :   -0.516891
  21 H :    0.164657
  22 H :    0.150616
  23 O :   -0.635463
  24 H :    0.156258
  25 H :    0.146175
  26 H :    0.145670
  27 H :    0.153580
  28 H :    0.395894
Sum of atomic charges:   -0.0000000

LOEWDIN ATOMIC CHARGES
----------------------
   0 C :    0.180023
   1 C :   -0.241593
   2 C :   -0.216451
   3 C :   -0.026417
   4 O :   -0.305903
   5 H :    0.100213
   6 H :    0.117254
   7 H :    0.132182
   8 H :    0.118173
   9 H :    0.113769
  10 H :    0.109485
  11 H :    0.103993
  12 C :   -0.041493
  13 H :    0.096835
  14 H :    0.117882
  15 O :   -0.350207
  16 C :    0.012122
  17 C :    0.038516
  18 C :   -0.232507
  19 C :   -0.031890
  20 O :   -0.319681
  21 H :    0.115917
  22 H :    0.104375
  23 O :   -0.425434
  24 H :    0.122847
  25 H :    0.111945
  26 H :    0.103645
  27 H :    0.107882
  28 H :    0.284516

  Mayer bond orders larger than 0.100000
B(  0-C ,  1-C ) :   0.9376 B(  0-C ,  4-O ) :   0.9435 B(  0-C ,  5-H ) :   0.9204
B(  0-C , 15-O ) :   0.8098 B(  1-C ,  2-C ) :   0.9510 B(  1-C ,  6-H ) :   0.9335
B(  1-C ,  7-H ) :   0.9030 B(  2-C ,  3-C ) :   0.9507 B(  2-C ,  8-H ) :   0.9451
B(  2-C ,  9-H ) :   0.9433 B(  3-C ,  4-O ) :   0.8334 B(  3-C , 10-H ) :   0.9346
B(  3-C , 11-H ) :   0.9395 B( 12-C , 13-H ) :   0.9214 B( 12-C , 14-H ) :   0.9254
B( 12-C , 15-O ) :   0.8086 B( 12-C , 16-C ) :   0.9052 B( 16-C , 17-C ) :   0.9179
B( 16-C , 20-O ) :   0.8527 B( 16-C , 21-H ) :   0.9273 B( 17-C , 18-C ) :   0.9158
B( 17-C , 22-H ) :   0.9232 B( 17-C , 23-O ) :   0.9083 B( 18-C , 19-C ) :   0.9395
B( 18-C , 24-H ) :   0.9433 B( 18-C , 25-H ) :   0.9420 B( 19-C , 20-O ) :   0.8344
B( 19-C , 26-H ) :   0.9333 B( 19-C , 27-H ) :   0.9372 B( 23-O , 28-H ) :   0.7187

FINAL SINGLE POINT ENERGY      -652.859907139697

DIPOLE MOMENT
-------------
                                X             Y             Z
Electronic contribution:     -3.13391      -2.59539       2.09256
Nuclear contribution   :      3.72364       2.91672      -2.66626
                        -----------------------------------------
Total Dipole Moment    :      0.58973       0.32133      -0.57370
                        -----------------------------------------
Magnitude (a.u.)       :      0.88327
Magnitude (Debye)      :      2.24510

Rotational constants in cm-1:     0.059963     0.014340     0.012976
Rotational constants in MHz :  1797.642355   429.902046   389.010975

                             ****ORCA TERMINATED NORMALLY****
TOTAL RUN TIME: 0 days 0 hours 55 minutes 42 seconds 898 msec
