                         Program Version 4.2.0 -  RELEASE  -
|  1> # Test redundant internal optimization
|  2> #
|  3> ! RKS B3LYP  Opt TightSCF SmallPrint
|  4>
|  5> %basis
|  6>         Basis "6-31G"
|  7> end
|  8>
|  9> %geom
| 10> Constraints
| 11> { D 4  0  15  12  195.0   C } # D for Dihedral angle
| 12> { D 0  15  12  16  180.0   C } # D for Dihedral angle
| 13> { D 0  4  3  2   C } # D for Dihedral angle
| 14> { D 4  3  2  1   C } # D for Dihedral angle
| 15> { D 3  2  1  0   C } # D for Dihedral angle
| 16> { D 2  1  0  4   C } # D for Dihedral angle
| 17> { D 1  0  4  3   C } # D for Dihedral angle
| 18> { D 16  20  19  18   C } # D for Dihedral angle
| 19> { D 20  19  18  17   C } # D for Dihedral angle
| 20> { D 19  18  17  16   C } # D for Dihedral angle
| 21> { D 18  17  16  20   C } # D for Dihedral angle
| 22> { D 17  16  20  19   C } # D for Dihedral angle
| 23> { D 15  12  16  20   C } # D for Dihedral angle
| 24> end
| 25> end
| 26>
| 27>
| 28> #%pal
| 29> #nprocs 8
| 30> #end
| 31>
| 32> * xyz 0 1
| 33> C  -21.048   26.222   46.251
| 34> C  -20.361   27.558   45.944
| 35> C  -20.329   28.222   47.341
| 36> C  -20.110   27.022   48.296
| 37> O  -20.473   25.807   47.535
| 38> H  -20.833   25.428   45.533
| 39> H  -19.344   27.382   45.576
| 40> H  -20.898   28.157   45.201
| 41> H  -19.543   28.978   47.434
| 42> H  -21.289   28.710   47.548
| 43> H  -20.733   27.082   49.195
| 44> H  -19.064   26.913   48.597
| 45> C  -23.353   26.472   45.026
| 46> H  -22.979   27.325   44.447
| 47> H  -23.189   25.560   44.438
| 48> O  -22.586   26.394   46.375
| 49> C  -24.885   26.644   45.216
| 50> C  -25.466   25.531   46.097
| 51> C  -25.080   26.020   47.513
| 52> C  -25.199   27.560   47.398
| 53> O  -25.176   27.877   45.954
| 54> H  -25.358   26.738   44.237
| 55> H  -26.555   25.493   45.984
| 56> O  -24.889   24.128   45.767
| 57> H  -25.727   25.609   48.295
| 58> H  -24.049   25.728   47.745
| 59> H  -24.374   28.083   47.894
| 60> H  -26.146   27.937   47.795
| 61> H  -23.798   24.143   45.873
| 62> *
| 63>
| 64>                          ****END OF INPUT****
 Total Charge           Charge          ....    0
 Multiplicity           Mult            ....    1
 Number of Electrons    NEL             ....  102
FINAL SINGLE POINT ENERGY      -652.833645670581
FINAL SINGLE POINT ENERGY      -652.857333978404
FINAL SINGLE POINT ENERGY      -652.862062918927
FINAL SINGLE POINT ENERGY      -652.863534077529
FINAL SINGLE POINT ENERGY      -652.863700896445
FINAL SINGLE POINT ENERGY      -652.863724959805
FINAL SINGLE POINT ENERGY      -652.863725519727
                    ***********************HURRAY********************

CARTESIAN COORDINATES (ANGSTROEM)
---------------------------------
  C    -21.064917   26.240051   46.164350
  C    -20.355755   27.565420   45.895891
  C    -20.386551   28.233453   47.291331
  C    -20.225758   27.036838   48.250882
  O    -20.568909   25.831325   47.446183
  H    -20.848810   25.437375   45.450230
  H    -19.326250   27.364478   45.577172
  H    -20.842141   28.169903   45.125666
  H    -19.595292   28.978413   47.416924
  H    -21.352293   28.724859   47.441599
  H    -20.893969   27.079556   49.114205
  H    -19.196494   26.898192   48.593541
  C    -23.234412   26.492169   45.025329
  H    -22.879233   27.348272   44.435440
  H    -23.081755   25.575052   44.436208
  O    -22.507132   26.412097   46.284410
  C    -24.725861   26.670792   45.288216
  C    -25.387481   25.540331   46.097618
  C    -25.093680   25.982149   47.564909
  C    -25.181726   27.520471   47.477596
  O    -25.049777   27.874395   46.039941
  H    -25.205263   26.783886   44.308467
  H    -26.460323   25.518902   45.894747
  O    -24.911127   24.213762   45.765206
  H    -25.812734   25.558245   48.271987
  H    -24.084085   25.666435   47.835406
  H    -24.384006   28.019590   48.034678
  H    -26.150665   27.906953   47.808442
  H    -24.027600   24.079635   46.168422

 Multiplicity           Mult            ....    1
 Number of Electrons    NEL             ....  102
 Basis Dimension        Dim             ....  149

ORBITAL ENERGIES
----------------

  NO   OCC          E(Eh)            E(eV)
   0   2.0000     -19.151031      -521.1260
   1   2.0000     -19.147649      -521.0340
   2   2.0000     -19.137103      -520.7470
   3   2.0000     -19.132684      -520.6268
   4   2.0000     -10.286880      -279.9202
   5   2.0000     -10.234114      -278.4844
   6   2.0000     -10.233568      -278.4695
   7   2.0000     -10.230577      -278.3882
   8   2.0000     -10.230392      -278.3831
   9   2.0000     -10.219768      -278.0940
  10   2.0000     -10.191712      -277.3306
  11   2.0000     -10.190442      -277.2960
  12   2.0000     -10.175249      -276.8826
  13   2.0000      -1.061554       -28.8863
  14   2.0000      -1.025718       -27.9112
  15   2.0000      -1.007859       -27.4252
  16   2.0000      -0.999623       -27.2011
  17   2.0000      -0.791541       -21.5389
  18   2.0000      -0.772465       -21.0198
  19   2.0000      -0.763790       -20.7838
  20   2.0000      -0.734815       -19.9953
  21   2.0000      -0.678241       -18.4559
  22   2.0000      -0.605697       -16.4818
  23   2.0000      -0.600509       -16.3407
  24   2.0000      -0.595859       -16.2142
  25   2.0000      -0.569820       -15.5056
  26   2.0000      -0.530874       -14.4458
  27   2.0000      -0.505568       -13.7572
  28   2.0000      -0.500560       -13.6209
  29   2.0000      -0.488411       -13.2903
  30   2.0000      -0.474624       -12.9152
  31   2.0000      -0.456616       -12.4252
  32   2.0000      -0.450744       -12.2654
  33   2.0000      -0.430243       -11.7075
  34   2.0000      -0.422354       -11.4928
  35   2.0000      -0.410470       -11.1695
  36   2.0000      -0.403545       -10.9810
  37   2.0000      -0.399960       -10.8835
  38   2.0000      -0.379098       -10.3158
  39   2.0000      -0.371007       -10.0956
  40   2.0000      -0.360494        -9.8095
  41   2.0000      -0.356391        -9.6979
  42   2.0000      -0.351439        -9.5631
  43   2.0000      -0.324630        -8.8336
  44   2.0000      -0.317487        -8.6393
  45   2.0000      -0.310933        -8.4609
  46   2.0000      -0.305715        -8.3189
  47   2.0000      -0.267490        -7.2788
  48   2.0000      -0.263427        -7.1682
  49   2.0000      -0.258232        -7.0269
  50   2.0000      -0.238672        -6.4946
  51   0.0000       0.063744         1.7346
  52   0.0000       0.080294         2.1849
  53   0.0000       0.093170         2.5353
  54   0.0000       0.098263         2.6739
  55   0.0000       0.100817         2.7434

MULLIKEN ATOMIC CHARGES
-----------------------
   0 C :    0.302917
   1 C :   -0.271754
   2 C :   -0.301470
   3 C :   -0.003545
   4 O :   -0.507795
   5 H :    0.139981
   6 H :    0.147689
   7 H :    0.151336
   8 H :    0.144931
   9 H :    0.167510
  10 H :    0.152009
  11 H :    0.144989
  12 C :   -0.023021
  13 H :    0.142123
  14 H :    0.136618
  15 O :   -0.525380
  16 C :    0.090830
  17 C :    0.085454
  18 C :   -0.312194
  19 C :   -0.000834
  20 O :   -0.523688
  21 H :    0.148255
  22 H :    0.160467
  23 O :   -0.609196
  24 H :    0.142131
  25 H :    0.174607
  26 H :    0.143760
  27 H :    0.137566
  28 H :    0.365706
Sum of atomic charges:    0.0000000

LOEWDIN ATOMIC CHARGES
----------------------
   0 C :    0.178308
   1 C :   -0.228378
   2 C :   -0.216605
   3 C :   -0.025103
   4 O :   -0.307581
   5 H :    0.096308
   6 H :    0.115708
   7 H :    0.118139
   8 H :    0.116061
   9 H :    0.120910
  10 H :    0.108187
  11 H :    0.104172
  12 C :   -0.050769
  13 H :    0.099613
  14 H :    0.098925
  15 O :   -0.337878
  16 C :    0.020689
  17 C :    0.037690
  18 C :   -0.243212
  19 C :   -0.023846
  20 O :   -0.324477
  21 H :    0.114008
  22 H :    0.115173
  23 O :   -0.413116
  24 H :    0.114232
  25 H :    0.126828
  26 H :    0.103039
  27 H :    0.099386
  28 H :    0.283587

  Mayer bond orders larger than 0.100000
B(  0-C ,  1-C ) :   0.9318 B(  0-C ,  4-O ) :   0.9381 B(  0-C ,  5-H ) :   0.9195
B(  0-C , 15-O ) :   0.8239 B(  1-C ,  2-C ) :   0.9520 B(  1-C ,  6-H ) :   0.9339
B(  1-C ,  7-H ) :   0.9325 B(  2-C ,  3-C ) :   0.9561 B(  2-C ,  8-H ) :   0.9446
B(  2-C ,  9-H ) :   0.9421 B(  3-C ,  4-O ) :   0.8318 B(  3-C , 10-H ) :   0.9350
B(  3-C , 11-H ) :   0.9396 B( 12-C , 13-H ) :   0.9147 B( 12-C , 14-H ) :   0.9006
B( 12-C , 15-O ) :   0.8306 B( 12-C , 16-C ) :   0.9155 B( 16-C , 17-C ) :   0.8869
B( 16-C , 20-O ) :   0.8825 B( 16-C , 21-H ) :   0.9287 B( 17-C , 18-C ) :   0.9351
B( 17-C , 22-H ) :   0.9360 B( 17-C , 23-O ) :   0.9016 B( 18-C , 19-C ) :   0.9458
B( 18-C , 24-H ) :   0.9409 B( 18-C , 25-H ) :   0.9230 B( 19-C , 20-O ) :   0.8353
B( 19-C , 26-H ) :   0.9326 B( 19-C , 27-H ) :   0.9386 B( 23-O , 28-H ) :   0.7915

FINAL SINGLE POINT ENERGY      -652.863713923917

DIPOLE MOMENT
-------------
                                X             Y             Z
Electronic contribution:     -2.45016      -3.17201      -1.59228
Nuclear contribution   :      3.32967       3.81894       1.69349
                        -----------------------------------------
Total Dipole Moment    :      0.87951       0.64694       0.10121
                        -----------------------------------------
Magnitude (a.u.)       :      1.09650
Magnitude (Debye)      :      2.78708

Rotational constants in cm-1:     0.045540     0.016112     0.015331
Rotational constants in MHz :  1365.264943   483.020615   459.626109

                             ****ORCA TERMINATED NORMALLY****
TOTAL RUN TIME: 0 days 0 hours 45 minutes 11 seconds 472 msec
