                         Program Version 4.2.0 -  RELEASE  -
|  1> # Test redundant internal optimization
|  2> #
|  3> ! RKS B3LYP  Opt TightSCF SmallPrint
|  4>
|  5> %basis
|  6>         Basis "6-31G"
|  7> end
|  8>
|  9> %geom
| 10> Constraints
| 11> { D 4  0  15  12  315.0   C } # D for Dihedral angle
| 12> { D 0  15  12  16  255.0   C } # D for Dihedral angle
| 13> { D 0  4  3  2   C } # D for Dihedral angle
| 14> { D 4  3  2  1   C } # D for Dihedral angle
| 15> { D 3  2  1  0   C } # D for Dihedral angle
| 16> { D 2  1  0  4   C } # D for Dihedral angle
| 17> { D 1  0  4  3   C } # D for Dihedral angle
| 18> { D 16  20  19  18   C } # D for Dihedral angle
| 19> { D 20  19  18  17   C } # D for Dihedral angle
| 20> { D 19  18  17  16   C } # D for Dihedral angle
| 21> { D 18  17  16  20   C } # D for Dihedral angle
| 22> { D 17  16  20  19   C } # D for Dihedral angle
| 23> { D 15  12  16  20   C } # D for Dihedral angle
| 24> end
| 25> end
| 26>
| 27>
| 28> #%pal
| 29> #nprocs 8
| 30> #end
| 31>
| 32> * xyz 0 1
| 33> C  -21.048   26.222   46.251
| 34> C  -20.361   27.558   45.944
| 35> C  -20.329   28.222   47.341
| 36> C  -20.110   27.022   48.296
| 37> O  -20.473   25.807   47.535
| 38> H  -20.833   25.428   45.533
| 39> H  -19.344   27.382   45.576
| 40> H  -20.898   28.157   45.201
| 41> H  -19.543   28.978   47.434
| 42> H  -21.289   28.710   47.548
| 43> H  -20.733   27.082   49.195
| 44> H  -19.064   26.913   48.597
| 45> C  -23.319   25.255   47.135
| 46> H  -22.584   24.660   47.692
| 47> H  -24.037   25.672   47.853
| 48> O  -22.586   26.394   46.375
| 49> C  -24.098   24.304   46.185
| 50> C  -24.901   23.264   46.974
| 51> C  -26.135   24.088   47.414
| 52> C  -26.372   25.035   46.211
| 53> O  -25.114   25.049   45.434
| 54> H  -23.406   23.881   45.455
| 55> O  -25.325   22.097   46.041
| 56> H  -24.347   22.845   47.821
| 57> H  -27.008   23.463   47.631
| 58> H  -25.902   24.662   48.318
| 59> H  -26.612   26.057   46.523
| 60> H  -27.159   24.674   45.544
| 61> H  -25.882   22.493   45.186
| 62> *
| 63>
| 64>                          ****END OF INPUT****
 Total Charge           Charge          ....    0
 Multiplicity           Mult            ....    1
 Number of Electrons    NEL             ....  102
FINAL SINGLE POINT ENERGY      -652.836484634922
FINAL SINGLE POINT ENERGY      -652.859610693602
FINAL SINGLE POINT ENERGY      -652.863577639323
FINAL SINGLE POINT ENERGY      -652.864292025158
FINAL SINGLE POINT ENERGY      -652.864386365273
FINAL SINGLE POINT ENERGY      -652.864399006609
                    ***********************HURRAY********************

CARTESIAN COORDINATES (ANGSTROEM)
---------------------------------
  C    -21.111252   26.131675   46.271663
  C    -20.502899   27.493623   45.939242
  C    -20.428571   28.152211   47.333399
  C    -20.108715   26.967914   48.271483
  O    -20.463507   25.739251   47.506605
  H    -20.902575   25.327237   45.559444
  H    -19.503842   27.348340   45.513066
  H    -21.117633   28.052175   45.230551
  H    -19.669366   28.938750   47.387333
  H    -21.399399   28.590163   47.582179
  H    -20.685287   26.984576   49.199879
  H    -19.044280   26.886158   48.509431
  C    -23.257333   25.297552   47.170731
  H    -22.550255   24.712721   47.770337
  H    -23.926853   25.839569   47.847135
  O    -22.540410   26.322065   46.418734
  C    -24.058445   24.387964   46.239026
  C    -24.880088   23.318863   46.973928
  C    -26.145072   24.119208   47.383606
  C    -26.345170   25.089216   46.191882
  O    -25.054796   25.136144   45.464922
  H    -23.384498   23.928819   45.508100
  O    -25.209657   22.216230   46.084454
  H    -24.362661   22.862824   47.818894
  H    -26.992698   23.446821   47.537093
  H    -25.965615   24.665070   48.316900
  H    -26.611657   26.101243   46.510927
  H    -27.103377   24.736742   45.484885
  H    -25.486090   22.580876   45.217171

 Multiplicity           Mult            ....    1
 Number of Electrons    NEL             ....  102
 Basis Dimension        Dim             ....  149

ORBITAL ENERGIES
----------------

  NO   OCC          E(Eh)            E(eV)
   0   2.0000     -19.145451      -520.9742
   1   2.0000     -19.139306      -520.8070
   2   2.0000     -19.137970      -520.7706
   3   2.0000     -19.137048      -520.7455
   4   2.0000     -10.276979      -279.6508
   5   2.0000     -10.241144      -278.6757
   6   2.0000     -10.230879      -278.3964
   7   2.0000     -10.228471      -278.3309
   8   2.0000     -10.228191      -278.3232
   9   2.0000     -10.225085      -278.2387
  10   2.0000     -10.188817      -277.2518
  11   2.0000     -10.185565      -277.1633
  12   2.0000     -10.183767      -277.1144
  13   2.0000      -1.053827       -28.6761
  14   2.0000      -1.033838       -28.1322
  15   2.0000      -1.004072       -27.3222
  16   2.0000      -0.990117       -26.9424
  17   2.0000      -0.790531       -21.5115
  18   2.0000      -0.780221       -21.2309
  19   2.0000      -0.764152       -20.7936
  20   2.0000      -0.731841       -19.9144
  21   2.0000      -0.670889       -18.2558
  22   2.0000      -0.603375       -16.4187
  23   2.0000      -0.600948       -16.3526
  24   2.0000      -0.595624       -16.2078
  25   2.0000      -0.572200       -15.5703
  26   2.0000      -0.525122       -14.2893
  27   2.0000      -0.507802       -13.8180
  28   2.0000      -0.495029       -13.4704
  29   2.0000      -0.491618       -13.3776
  30   2.0000      -0.472874       -12.8676
  31   2.0000      -0.455874       -12.4050
  32   2.0000      -0.452862       -12.3230
  33   2.0000      -0.435357       -11.8467
  34   2.0000      -0.423800       -11.5322
  35   2.0000      -0.408021       -11.1028
  36   2.0000      -0.399860       -10.8807
  37   2.0000      -0.391851       -10.6628
  38   2.0000      -0.370739       -10.0883
  39   2.0000      -0.369601       -10.0574
  40   2.0000      -0.357663        -9.7325
  41   2.0000      -0.355308        -9.6684
  42   2.0000      -0.347252        -9.4492
  43   2.0000      -0.336469        -9.1558
  44   2.0000      -0.327454        -8.9105
  45   2.0000      -0.306597        -8.3429
  46   2.0000      -0.294496        -8.0136
  47   2.0000      -0.269273        -7.3273
  48   2.0000      -0.269001        -7.3199
  49   2.0000      -0.258856        -7.0438
  50   2.0000      -0.235585        -6.4106
  51   0.0000       0.068047         1.8517
  52   0.0000       0.086429         2.3519
  53   0.0000       0.090111         2.4520
  54   0.0000       0.100510         2.7350
  55   0.0000       0.106476         2.8974

MULLIKEN ATOMIC CHARGES
-----------------------
   0 C :    0.285610
   1 C :   -0.260414
   2 C :   -0.300009
   3 C :   -0.008968
   4 O :   -0.515304
   5 H :    0.147570
   6 H :    0.143971
   7 H :    0.165687
   8 H :    0.142567
   9 H :    0.162217
  10 H :    0.144517
  11 H :    0.146582
  12 C :   -0.020940
  13 H :    0.161779
  14 H :    0.138517
  15 O :   -0.511990
  16 C :    0.062431
  17 C :    0.079370
  18 C :   -0.296268
  19 C :   -0.030022
  20 O :   -0.509808
  21 H :    0.160338
  22 O :   -0.602505
  23 H :    0.151866
  24 H :    0.162938
  25 H :    0.141265
  26 H :    0.148651
  27 H :    0.145200
  28 H :    0.365153
Sum of atomic charges:   -0.0000000

LOEWDIN ATOMIC CHARGES
----------------------
   0 C :    0.173984
   1 C :   -0.213603
   2 C :   -0.216649
   3 C :   -0.029378
   4 O :   -0.329234
   5 H :    0.096524
   6 H :    0.113585
   7 H :    0.128709
   8 H :    0.114402
   9 H :    0.119226
  10 H :    0.103815
  11 H :    0.104774
  12 C :   -0.050206
  13 H :    0.115657
  14 H :    0.105201
  15 O :   -0.321809
  16 C :    0.009022
  17 C :    0.035335
  18 C :   -0.241338
  19 C :   -0.039015
  20 O :   -0.323479
  21 H :    0.115154
  22 O :   -0.415066
  23 H :    0.115543
  24 H :    0.126697
  25 H :    0.111701
  26 H :    0.105417
  27 H :    0.101789
  28 H :    0.283244

  Mayer bond orders larger than 0.100000
B(  0-C ,  1-C ) :   0.9485 B(  0-C ,  4-O ) :   0.8944 B(  0-C ,  5-H ) :   0.9199
B(  0-C , 15-O ) :   0.8643 B(  1-C ,  2-C ) :   0.9544 B(  1-C ,  6-H ) :   0.9393
B(  1-C ,  7-H ) :   0.9344 B(  2-C ,  3-C ) :   0.9564 B(  2-C ,  8-H ) :   0.9449
B(  2-C ,  9-H ) :   0.9442 B(  3-C ,  4-O ) :   0.8318 B(  3-C , 10-H ) :   0.9362
B(  3-C , 11-H ) :   0.9406 B( 12-C , 13-H ) :   0.9022 B( 12-C , 14-H ) :   0.9371
B( 12-C , 15-O ) :   0.8444 B( 12-C , 16-C ) :   0.8894 B( 16-C , 17-C ) :   0.8976
B( 16-C , 20-O ) :   0.8617 B( 16-C , 21-H ) :   0.9274 B( 17-C , 18-C ) :   0.9125
B( 17-C , 22-O ) :   0.8916 B( 17-C , 23-H ) :   0.9330 B( 18-C , 19-C ) :   0.9393
B( 18-C , 24-H ) :   0.9374 B( 18-C , 25-H ) :   0.9348 B( 19-C , 20-O ) :   0.8533
B( 19-C , 26-H ) :   0.9340 B( 19-C , 27-H ) :   0.9372 B( 22-O , 28-H ) :   0.7935

FINAL SINGLE POINT ENERGY      -652.864400368302

DIPOLE MOMENT
-------------
                                X             Y             Z
Electronic contribution:     -0.78449      -3.67423      -2.90406
Nuclear contribution   :      0.84429       4.44658       3.51229
                        -----------------------------------------
Total Dipole Moment    :      0.05980       0.77235       0.60823
                        -----------------------------------------
Magnitude (a.u.)       :      0.98491
Magnitude (Debye)      :      2.50344

Rotational constants in cm-1:     0.064244     0.011633     0.011166
Rotational constants in MHz :  1925.983738   348.740269   334.741749

                             ****ORCA TERMINATED NORMALLY****
TOTAL RUN TIME: 0 days 0 hours 18 minutes 19 seconds 232 msec
