                         Program Version 4.2.0 -  RELEASE  -
|  1> # Test redundant internal optimization
|  2> #
|  3> ! RKS B3LYP  Opt TightSCF SmallPrint
|  4>
|  5> %basis
|  6>         Basis "6-31G"
|  7> end
|  8>
|  9> %geom
| 10> Constraints
| 11> { D 4  0  15  12  150.0   C } # D for Dihedral angle
| 12> { D 0  15  12  16  150.0   C } # D for Dihedral angle
| 13> { D 0  4  3  2   C } # D for Dihedral angle
| 14> { D 4  3  2  1   C } # D for Dihedral angle
| 15> { D 3  2  1  0   C } # D for Dihedral angle
| 16> { D 2  1  0  4   C } # D for Dihedral angle
| 17> { D 1  0  4  3   C } # D for Dihedral angle
| 18> { D 16  20  19  18   C } # D for Dihedral angle
| 19> { D 20  19  18  17   C } # D for Dihedral angle
| 20> { D 19  18  17  16   C } # D for Dihedral angle
| 21> { D 18  17  16  20   C } # D for Dihedral angle
| 22> { D 17  16  20  19   C } # D for Dihedral angle
| 23> { D 15  12  16  20   C } # D for Dihedral angle
| 24> end
| 25> end
| 26>
| 27>
| 28> #%pal
| 29> #nprocs 8
| 30> #end
| 31>
| 32> * xyz 0 1
| 33> C  -21.048   26.222   46.251
| 34> C  -20.361   27.558   45.944
| 35> C  -20.329   28.222   47.341
| 36> C  -20.110   27.022   48.296
| 37> O  -20.473   25.807   47.535
| 38> H  -20.833   25.428   45.533
| 39> H  -19.344   27.382   45.576
| 40> H  -20.898   28.157   45.201
| 41> H  -19.543   28.978   47.434
| 42> H  -21.289   28.710   47.548
| 43> H  -20.733   27.082   49.195
| 44> H  -19.064   26.913   48.597
| 45> C  -23.210   27.459   45.431
| 46> H  -23.207   28.434   45.934
| 47> H  -22.621   27.547   44.509
| 48> O  -22.586   26.394   46.375
| 49> C  -24.672   27.121   45.028
| 50> C  -25.214   28.128   44.008
| 51> C  -24.572   27.622   42.695
| 52> C  -24.559   26.084   42.880
| 53> O  -24.726   25.833   44.327
| 54> H  -25.278   27.020   45.931
| 55> O  -26.763   28.030   43.934
| 56> H  -24.945   29.164   44.241
| 57> H  -25.128   27.930   41.804
| 58> H  -23.550   28.008   42.602
| 59> H  -23.621   25.629   42.543
| 60> H  -25.394   25.595   42.369
| 61> H  -27.056   27.000   43.701
| 62> *
| 63>
| 64>                          ****END OF INPUT****
 Total Charge           Charge          ....    0
 Multiplicity           Mult            ....    1
 Number of Electrons    NEL             ....  102
FINAL SINGLE POINT ENERGY      -652.823946322809
FINAL SINGLE POINT ENERGY      -652.847249339430
FINAL SINGLE POINT ENERGY      -652.851632530240
FINAL SINGLE POINT ENERGY      -652.852493539779
FINAL SINGLE POINT ENERGY      -652.852606409020
FINAL SINGLE POINT ENERGY      -652.852620753019
                    ***********************HURRAY********************

CARTESIAN COORDINATES (ANGSTROEM)
---------------------------------
  C    -21.087348   26.294465   46.189397
  C    -20.223614   27.538897   45.979645
  C    -20.289141   28.218427   47.373427
  C    -20.327660   27.010045   48.333475
  O    -20.731667   25.847778   47.505924
  H    -20.887294   25.465115   45.506500
  H    -19.200209   27.215729   45.756848
  H    -20.551063   28.191660   45.167079
  H    -19.432434   28.873150   47.558936
  H    -21.202142   28.816694   47.462255
  H    -21.048238   27.129352   49.146550
  H    -19.345626   26.770571   48.751884
  C    -23.095281   27.560562   45.327171
  H    -23.126358   28.535729   45.835661
  H    -22.507516   27.673667   44.405450
  O    -22.525686   26.548963   46.191842
  C    -24.514996   27.118044   44.976026
  C    -25.255863   28.066848   44.023343
  C    -24.723108   27.607112   42.640756
  C    -24.555362   26.078262   42.822381
  O    -24.535360   25.827371   44.283832
  H    -25.072719   26.972396   45.906127
  O    -26.694732   27.889713   44.130095
  H    -25.080496   29.125335   44.222195
  H    -25.429518   27.870253   41.849637
  H    -23.764717   28.091387   42.421096
  H    -23.629088   25.697266   42.380648
  H    -25.395184   25.511451   42.408158
  H    -26.894580   26.932758   44.206666

 Multiplicity           Mult            ....    1
 Number of Electrons    NEL             ....  102
 Basis Dimension        Dim             ....  149

ORBITAL ENERGIES
----------------

  NO   OCC          E(Eh)            E(eV)
   0   2.0000     -19.140999      -520.8531
   1   2.0000     -19.139931      -520.8240
   2   2.0000     -19.138602      -520.7878
   3   2.0000     -19.135942      -520.7154
   4   2.0000     -10.279238      -279.7123
   5   2.0000     -10.244880      -278.7774
   6   2.0000     -10.236509      -278.5496
   7   2.0000     -10.234340      -278.4905
   8   2.0000     -10.231373      -278.4098
   9   2.0000     -10.225877      -278.2603
  10   2.0000     -10.193025      -277.3663
  11   2.0000     -10.192434      -277.3502
  12   2.0000     -10.192043      -277.3396
  13   2.0000      -1.051669       -28.6174
  14   2.0000      -1.036912       -28.2158
  15   2.0000      -1.007313       -27.4104
  16   2.0000      -0.990784       -26.9606
  17   2.0000      -0.790201       -21.5025
  18   2.0000      -0.786233       -21.3945
  19   2.0000      -0.770262       -20.9599
  20   2.0000      -0.733206       -19.9515
  21   2.0000      -0.679443       -18.4886
  22   2.0000      -0.606604       -16.5065
  23   2.0000      -0.604683       -16.4543
  24   2.0000      -0.594862       -16.1870
  25   2.0000      -0.579047       -15.7567
  26   2.0000      -0.528054       -14.3691
  27   2.0000      -0.509106       -13.8535
  28   2.0000      -0.498873       -13.5750
  29   2.0000      -0.494055       -13.4439
  30   2.0000      -0.479825       -13.0567
  31   2.0000      -0.462411       -12.5828
  32   2.0000      -0.449871       -12.2416
  33   2.0000      -0.448354       -12.2003
  34   2.0000      -0.423767       -11.5313
  35   2.0000      -0.413330       -11.2473
  36   2.0000      -0.403405       -10.9772
  37   2.0000      -0.395280       -10.7561
  38   2.0000      -0.380418       -10.3517
  39   2.0000      -0.374201       -10.1825
  40   2.0000      -0.367526       -10.0009
  41   2.0000      -0.358595        -9.7579
  42   2.0000      -0.352830        -9.6010
  43   2.0000      -0.333324        -9.0702
  44   2.0000      -0.313026        -8.5179
  45   2.0000      -0.307003        -8.3540
  46   2.0000      -0.295613        -8.0440
  47   2.0000      -0.272612        -7.4181
  48   2.0000      -0.260886        -7.0991
  49   2.0000      -0.253560        -6.8997
  50   2.0000      -0.241459        -6.5704
  51   0.0000       0.061413         1.6711
  52   0.0000       0.076980         2.0947
  53   0.0000       0.083186         2.2636
  54   0.0000       0.097605         2.6560
  55   0.0000       0.104659         2.8479

MULLIKEN ATOMIC CHARGES
-----------------------
   0 C :    0.314759
   1 C :   -0.293763
   2 C :   -0.302971
   3 C :    0.000351
   4 O :   -0.494898
   5 H :    0.154150
   6 H :    0.152413
   7 H :    0.140871
   8 H :    0.144907
   9 H :    0.153377
  10 H :    0.154065
  11 H :    0.143089
  12 C :   -0.002008
  13 H :    0.125171
  14 H :    0.123503
  15 O :   -0.510342
  16 C :    0.064071
  17 C :    0.077050
  18 C :   -0.294038
  19 C :   -0.030111
  20 O :   -0.504998
  21 H :    0.175323
  22 O :   -0.601260
  23 H :    0.149089
  24 H :    0.163736
  25 H :    0.138267
  26 H :    0.144062
  27 H :    0.148810
  28 H :    0.367325
Sum of atomic charges:   -0.0000000

LOEWDIN ATOMIC CHARGES
----------------------
   0 C :    0.186118
   1 C :   -0.235127
   2 C :   -0.217561
   3 C :   -0.026769
   4 O :   -0.302661
   5 H :    0.104450
   6 H :    0.119659
   7 H :    0.112413
   8 H :    0.115589
   9 H :    0.112244
  10 H :    0.109174
  11 H :    0.103239
  12 C :   -0.042067
  13 H :    0.093120
  14 H :    0.090093
  15 O :   -0.327434
  16 C :    0.016864
  17 C :    0.034985
  18 C :   -0.241881
  19 C :   -0.039074
  20 O :   -0.317335
  21 H :    0.123325
  22 O :   -0.413795
  23 H :    0.113880
  24 H :    0.127224
  25 H :    0.109698
  26 H :    0.103067
  27 H :    0.103648
  28 H :    0.284916

  Mayer bond orders larger than 0.100000
B(  0-C ,  1-C ) :   0.9309 B(  0-C ,  4-O ) :   0.9336 B(  0-C ,  5-H ) :   0.9237
B(  0-C , 15-O ) :   0.8424 B(  1-C ,  2-C ) :   0.9488 B(  1-C ,  6-H ) :   0.9340
B(  1-C ,  7-H ) :   0.9285 B(  2-C ,  3-C ) :   0.9539 B(  2-C ,  8-H ) :   0.9452
B(  2-C ,  9-H ) :   0.9449 B(  3-C ,  4-O ) :   0.8394 B(  3-C , 10-H ) :   0.9341
B(  3-C , 11-H ) :   0.9396 B( 12-C , 13-H ) :   0.9078 B( 12-C , 14-H ) :   0.9135
B( 12-C , 15-O ) :   0.8555 B( 12-C , 16-C ) :   0.8897 B( 16-C , 17-C ) :   0.8982
B( 16-C , 20-O ) :   0.8685 B( 16-C , 21-H ) :   0.9221 B( 17-C , 18-C ) :   0.9107
B( 17-C , 22-O ) :   0.8973 B( 17-C , 23-H ) :   0.9330 B( 18-C , 19-C ) :   0.9388
B( 18-C , 24-H ) :   0.9375 B( 18-C , 25-H ) :   0.9344 B( 19-C , 20-O ) :   0.8528
B( 19-C , 26-H ) :   0.9348 B( 19-C , 27-H ) :   0.9373 B( 22-O , 28-H ) :   0.7924

FINAL SINGLE POINT ENERGY      -652.852623472136

DIPOLE MOMENT
-------------
                                X             Y             Z
Electronic contribution:     -3.99453      -4.67841       1.81925
Nuclear contribution   :      4.99263       5.88411      -2.67701
                        -----------------------------------------
Total Dipole Moment    :      0.99810       1.20569      -0.85776
                        -----------------------------------------
Magnitude (a.u.)       :      1.78484
Magnitude (Debye)      :      4.53669

Rotational constants in cm-1:     0.064827     0.011544     0.011281
Rotational constants in MHz :  1943.455649   346.086626   338.206820

                             ****ORCA TERMINATED NORMALLY****
TOTAL RUN TIME: 0 days 1 hours 4 minutes 38 seconds 56 msec
