                         Program Version 4.2.0 -  RELEASE  -
|  1> # Test redundant internal optimization
|  2> #
|  3> ! RKS B3LYP  Opt TightSCF SmallPrint
|  4>
|  5> %basis
|  6>         Basis "6-31G"
|  7> end
|  8>
|  9> %geom
| 10> Constraints
| 11> { D 4  0  15  12  30.0   C } # D for Dihedral angle
| 12> { D 0  15  12  16  165.0   C } # D for Dihedral angle
| 13> { D 0  4  3  2   C } # D for Dihedral angle
| 14> { D 4  3  2  1   C } # D for Dihedral angle
| 15> { D 3  2  1  0   C } # D for Dihedral angle
| 16> { D 2  1  0  4   C } # D for Dihedral angle
| 17> { D 1  0  4  3   C } # D for Dihedral angle
| 18> { D 16  20  19  18   C } # D for Dihedral angle
| 19> { D 20  19  18  17   C } # D for Dihedral angle
| 20> { D 19  18  17  16   C } # D for Dihedral angle
| 21> { D 18  17  16  20   C } # D for Dihedral angle
| 22> { D 17  16  20  19   C } # D for Dihedral angle
| 23> { D 15  12  16  20   C } # D for Dihedral angle
| 24> end
| 25> end
| 26>
| 27>
| 28> #%pal
| 29> #nprocs 8
| 30> #end
| 31>
| 32> * xyz 0 1
| 33> C  -21.048   26.222   46.251
| 34> C  -20.361   27.558   45.944
| 35> C  -20.329   28.222   47.341
| 36> C  -20.110   27.022   48.296
| 37> O  -20.473   25.807   47.535
| 38> H  -20.833   25.428   45.533
| 39> H  -19.344   27.382   45.576
| 40> H  -20.898   28.157   45.201
| 41> H  -19.543   28.978   47.434
| 42> H  -21.289   28.710   47.548
| 43> H  -20.733   27.082   49.195
| 44> H  -19.064   26.913   48.597
| 45> C  -23.091   26.824   47.779
| 46> H  -23.035   25.967   48.462
| 47> H  -22.463   27.628   48.184
| 48> O  -22.586   26.394   46.375
| 49> C  -24.558   27.336   47.759
| 50> C  -24.984   27.859   49.135
| 51> C  -24.332   29.262   49.154
| 52> C  -24.442   29.720   47.678
| 53> O  -24.682   28.501   46.876
| 54> H  -25.204   26.555   47.352
| 55> H  -26.076   27.939   49.187
| 56> O  -24.505   26.957   50.306
| 57> H  -24.829   29.952   49.843
| 58> H  -23.281   29.185   49.457
| 59> H  -23.529   30.209   47.322
| 60> H  -25.291   30.389   47.510
| 61> H  -23.414   26.862   50.276
| 62> *
| 63>
| 64>                          ****END OF INPUT****
 Total Charge           Charge          ....    0
 Multiplicity           Mult            ....    1
 Number of Electrons    NEL             ....  102
FINAL SINGLE POINT ENERGY      -652.816910207848
FINAL SINGLE POINT ENERGY      -652.842063850300
FINAL SINGLE POINT ENERGY      -652.849097909883
FINAL SINGLE POINT ENERGY      -652.851422150390
FINAL SINGLE POINT ENERGY      -652.851674869598
FINAL SINGLE POINT ENERGY      -652.851728643883
FINAL SINGLE POINT ENERGY      -652.851735636722
FINAL SINGLE POINT ENERGY      -652.851725811027
                    ***********************HURRAY********************

CARTESIAN COORDINATES (ANGSTROEM)
---------------------------------
  C    -21.147761   26.296000   46.349123
  C    -20.386882   27.550911   45.904536
  C    -19.995713   28.187809   47.265701
  C    -19.729982   26.951594   48.159052
  O    -20.385480   25.804921   47.478306
  H    -21.135665   25.501250   45.600593
  H    -19.495808   27.247520   45.343666
  H    -21.002642   28.202273   45.280748
  H    -19.112825   28.830506   47.190140
  H    -20.817945   28.798894   47.649819
  H    -20.140789   27.047057   49.169033
  H    -18.665620   26.708611   48.230389
  C    -23.028966   26.852963   47.927449
  H    -23.011406   25.973943   48.583964
  H    -22.408646   27.637745   48.380430
  O    -22.556247   26.497249   46.603535
  C    -24.463820   27.349690   47.760846
  C    -25.127817   27.815116   49.067573
  C    -24.600795   29.276401   49.192487
  C    -24.536910   29.740678   47.721012
  O    -24.556777   28.513923   46.884046
  H    -25.037029   26.561499   47.265220
  H    -26.212661   27.812259   48.942225
  O    -24.895338   26.976963   50.224541
  H    -25.253500   29.899851   49.809291
  H    -23.605997   29.266944   49.657899
  H    -23.633074   30.315917   47.493180
  H    -25.410230   30.336318   47.436932
  H    -23.970672   27.065193   50.534263

 Multiplicity           Mult            ....    1
 Number of Electrons    NEL             ....  102
 Basis Dimension        Dim             ....  149

ORBITAL ENERGIES
----------------

  NO   OCC          E(Eh)            E(eV)
   0   2.0000     -19.150681      -521.1165
   1   2.0000     -19.147655      -521.0342
   2   2.0000     -19.137096      -520.7469
   3   2.0000     -19.136875      -520.7408
   4   2.0000     -10.276966      -279.6505
   5   2.0000     -10.245968      -278.8070
   6   2.0000     -10.234488      -278.4946
   7   2.0000     -10.232129      -278.4304
   8   2.0000     -10.230823      -278.3949
   9   2.0000     -10.229645      -278.3628
  10   2.0000     -10.197168      -277.4790
  11   2.0000     -10.194726      -277.4126
  12   2.0000     -10.185607      -277.1645
  13   2.0000      -1.053495       -28.6670
  14   2.0000      -1.034151       -28.1407
  15   2.0000      -1.016158       -27.6511
  16   2.0000      -0.992835       -27.0164
  17   2.0000      -0.790089       -21.4994
  18   2.0000      -0.783839       -21.3293
  19   2.0000      -0.772351       -21.0168
  20   2.0000      -0.733703       -19.9651
  21   2.0000      -0.681914       -18.5558
  22   2.0000      -0.612336       -16.6625
  23   2.0000      -0.605734       -16.4829
  24   2.0000      -0.595658       -16.2087
  25   2.0000      -0.573754       -15.6126
  26   2.0000      -0.529040       -14.3959
  27   2.0000      -0.509268       -13.8579
  28   2.0000      -0.503265       -13.6945
  29   2.0000      -0.495822       -13.4920
  30   2.0000      -0.469939       -12.7877
  31   2.0000      -0.459864       -12.5135
  32   2.0000      -0.450742       -12.2653
  33   2.0000      -0.433026       -11.7832
  34   2.0000      -0.427746       -11.6396
  35   2.0000      -0.417693       -11.3660
  36   2.0000      -0.409401       -11.1404
  37   2.0000      -0.403088       -10.9686
  38   2.0000      -0.380403       -10.3513
  39   2.0000      -0.374982       -10.2038
  40   2.0000      -0.361573        -9.8389
  41   2.0000      -0.357197        -9.7198
  42   2.0000      -0.346421        -9.4266
  43   2.0000      -0.338136        -9.2012
  44   2.0000      -0.322719        -8.7816
  45   2.0000      -0.314036        -8.5453
  46   2.0000      -0.308900        -8.4056
  47   2.0000      -0.271519        -7.3884
  48   2.0000      -0.262753        -7.1499
  49   2.0000      -0.246538        -6.7086
  50   2.0000      -0.241731        -6.5778
  51   0.0000       0.043339         1.1793
  52   0.0000       0.058396         1.5890
  53   0.0000       0.085257         2.3200
  54   0.0000       0.092319         2.5121
  55   0.0000       0.104669         2.8482

MULLIKEN ATOMIC CHARGES
-----------------------
   0 C :    0.296775
   1 C :   -0.258907
   2 C :   -0.318852
   3 C :   -0.014443
   4 O :   -0.509468
   5 H :    0.164778
   6 H :    0.147408
   7 H :    0.166049
   8 H :    0.146863
   9 H :    0.152158
  10 H :    0.135587
  11 H :    0.151958
  12 C :   -0.001452
  13 H :    0.151518
  14 H :    0.104508
  15 O :   -0.522544
  16 C :    0.089851
  17 C :    0.077297
  18 C :   -0.323866
  19 C :   -0.013857
  20 O :   -0.504091
  21 H :    0.169886
  22 H :    0.173446
  23 O :   -0.596621
  24 H :    0.160466
  25 H :    0.128505
  26 H :    0.140261
  27 H :    0.151315
  28 H :    0.355471
Sum of atomic charges:   -0.0000000

LOEWDIN ATOMIC CHARGES
----------------------
   0 C :    0.179978
   1 C :   -0.224737
   2 C :   -0.223792
   3 C :   -0.035340
   4 O :   -0.321291
   5 H :    0.111575
   6 H :    0.116354
   7 H :    0.128162
   8 H :    0.116611
   9 H :    0.108881
  10 H :    0.097178
  11 H :    0.107186
  12 C :   -0.046384
  13 H :    0.107091
  14 H :    0.081457
  15 O :   -0.318162
  16 C :    0.021608
  17 C :    0.034170
  18 C :   -0.243124
  19 C :   -0.032093
  20 O :   -0.313106
  21 H :    0.122729
  22 H :    0.121736
  23 O :   -0.405621
  24 H :    0.123616
  25 H :    0.101391
  26 H :    0.099831
  27 H :    0.106606
  28 H :    0.277490

  Mayer bond orders larger than 0.100000
B(  0-C ,  1-C ) :   0.9168 B(  0-C ,  4-O ) :   0.9007 B(  0-C ,  5-H ) :   0.9347
B(  0-C , 15-O ) :   0.8775 B(  1-C ,  2-C ) :   0.9537 B(  1-C ,  6-H ) :   0.9349
B(  1-C ,  7-H ) :   0.9348 B(  2-C ,  3-C ) :   0.9494 B(  2-C ,  8-H ) :   0.9442
B(  2-C ,  9-H ) :   0.9405 B(  3-C ,  4-O ) :   0.8415 B(  3-C , 10-H ) :   0.9329
B(  3-C , 11-H ) :   0.9386 B( 12-C , 13-H ) :   0.9058 B( 12-C , 14-H ) :   0.9054
B( 12-C , 15-O ) :   0.8370 B( 12-C , 16-C ) :   0.9079 B( 16-C , 17-C ) :   0.8745
B( 16-C , 20-O ) :   0.8672 B( 16-C , 21-H ) :   0.9265 B( 17-C , 18-C ) :   0.9218
B( 17-C , 22-H ) :   0.9321 B( 17-C , 23-O ) :   0.9006 B( 18-C , 19-C ) :   0.9378
B( 18-C , 24-H ) :   0.9410 B( 18-C , 25-H ) :   0.9413 B( 19-C , 20-O ) :   0.8529
B( 19-C , 26-H ) :   0.9311 B( 19-C , 27-H ) :   0.9371 B( 23-O , 28-H ) :   0.7979

FINAL SINGLE POINT ENERGY      -652.851723077910

DIPOLE MOMENT
-------------
                                X             Y             Z
Electronic contribution:     -3.53039      -5.17871      -1.69290
Nuclear contribution   :      4.46053       6.54861       2.34749
                        -----------------------------------------
Total Dipole Moment    :      0.93014       1.36990       0.65459
                        -----------------------------------------
Magnitude (a.u.)       :      1.78053
Magnitude (Debye)      :      4.52574

Rotational constants in cm-1:     0.044976     0.015282     0.014343
Rotational constants in MHz :  1348.343168   458.133109   429.987950

                             ****ORCA TERMINATED NORMALLY****
TOTAL RUN TIME: 0 days 2 hours 38 minutes 12 seconds 195 msec
