                         Program Version 4.2.0 -  RELEASE  -
|  1> # Test redundant internal optimization
|  2> #
|  3> ! RKS B3LYP  Opt TightSCF SmallPrint
|  4>
|  5> %basis
|  6>         Basis "6-31G"
|  7> end
|  8>
|  9> %geom
| 10> Constraints
| 11> { D 4  0  15  12  330.0   C } # D for Dihedral angle
| 12> { D 0  15  12  16  240.0   C } # D for Dihedral angle
| 13> { D 0  4  3  2   C } # D for Dihedral angle
| 14> { D 4  3  2  1   C } # D for Dihedral angle
| 15> { D 3  2  1  0   C } # D for Dihedral angle
| 16> { D 2  1  0  4   C } # D for Dihedral angle
| 17> { D 1  0  4  3   C } # D for Dihedral angle
| 18> { D 16  20  19  18   C } # D for Dihedral angle
| 19> { D 20  19  18  17   C } # D for Dihedral angle
| 20> { D 19  18  17  16   C } # D for Dihedral angle
| 21> { D 18  17  16  20   C } # D for Dihedral angle
| 22> { D 17  16  20  19   C } # D for Dihedral angle
| 23> { D 15  12  16  20   C } # D for Dihedral angle
| 24> end
| 25> end
| 26>
| 27>
| 28> #%pal
| 29> #nprocs 8
| 30> #end
| 31>
| 32> * xyz 0 1
| 33> C  -21.048   26.222   46.251
| 34> C  -20.361   27.558   45.944
| 35> C  -20.329   28.222   47.341
| 36> C  -20.110   27.022   48.296
| 37> O  -20.473   25.807   47.535
| 38> H  -20.833   25.428   45.533
| 39> H  -19.344   27.382   45.576
| 40> H  -20.898   28.157   45.201
| 41> H  -19.543   28.978   47.434
| 42> H  -21.289   28.710   47.548
| 43> H  -20.733   27.082   49.195
| 44> H  -19.064   26.913   48.597
| 45> C  -23.271   25.476   47.424
| 46> H  -22.510   24.854   47.912
| 47> H  -23.768   26.078   48.195
| 48> O  -22.586   26.394   46.375
| 49> C  -24.339   24.538   46.795
| 50> C  -25.391   25.336   46.016
| 51> C  -24.645   25.628   44.692
| 52> C  -23.795   24.351   44.478
| 53> O  -23.726   23.667   45.788
| 54> H  -24.748   23.890   47.573
| 55> H  -26.274   24.715   45.833
| 56> O  -25.844   26.628   46.749
| 57> H  -25.324   25.823   43.856
| 58> H  -23.999   26.507   44.810
| 59> H  -22.779   24.575   44.136
| 60> H  -24.259   23.654   43.774
| 61> H  -24.974   27.266   46.943
| 62> *
| 63>
| 64>                          ****END OF INPUT****
 Total Charge           Charge          ....    0
 Multiplicity           Mult            ....    1
 Number of Electrons    NEL             ....  102
FINAL SINGLE POINT ENERGY      -652.836198733336
FINAL SINGLE POINT ENERGY      -652.859281755230
FINAL SINGLE POINT ENERGY      -652.863810052405
FINAL SINGLE POINT ENERGY      -652.865283160691
FINAL SINGLE POINT ENERGY      -652.865426444164
FINAL SINGLE POINT ENERGY      -652.865457395008
FINAL SINGLE POINT ENERGY      -652.865458728826
                    ***********************HURRAY********************

CARTESIAN COORDINATES (ANGSTROEM)
---------------------------------
  C    -21.030641   26.193814   46.320116
  C    -20.423414   27.561469   46.012417
  C    -20.355134   28.199407   47.417651
  C    -20.037081   27.000867   48.336684
  O    -20.389269   25.785327   47.546075
  H    -20.825374   25.400494   45.597035
  H    -19.421955   27.423334   45.589270
  H    -21.031212   28.134499   45.308695
  H    -19.597500   28.986002   47.486078
  H    -21.326359   28.634764   47.671599
  H    -20.617527   26.997210   49.262595
  H    -18.973763   26.913792   48.575829
  C    -23.175539   25.523303   47.424287
  H    -22.448580   24.898996   47.949464
  H    -23.658915   26.187762   48.151304
  O    -22.475547   26.359127   46.445576
  C    -24.234385   24.641275   46.771765
  C    -25.356115   25.381826   46.021365
  C    -24.710604   25.605697   44.618987
  C    -23.864607   24.328687   44.428780
  O    -23.690377   23.725771   45.775767
  H    -24.652924   24.012342   47.567969
  H    -26.241737   24.746399   45.953292
  O    -25.813478   26.594140   46.668038
  H    -25.463043   25.735686   43.835567
  H    -24.073815   26.492739   44.662156
  H    -22.877766   24.533890   44.003143
  H    -24.369809   23.579451   43.810631
  H    -25.120533   27.282930   46.587864

 Multiplicity           Mult            ....    1
 Number of Electrons    NEL             ....  102
 Basis Dimension        Dim             ....  149

ORBITAL ENERGIES
----------------

  NO   OCC          E(Eh)            E(eV)
   0   2.0000     -19.152645      -521.1700
   1   2.0000     -19.145703      -520.9811
   2   2.0000     -19.137065      -520.7460
   3   2.0000     -19.131939      -520.6065
   4   2.0000     -10.283194      -279.8199
   5   2.0000     -10.233971      -278.4805
   6   2.0000     -10.233278      -278.4617
   7   2.0000     -10.224692      -278.2280
   8   2.0000     -10.222301      -278.1630
   9   2.0000     -10.221341      -278.1368
  10   2.0000     -10.192962      -277.3646
  11   2.0000     -10.191000      -277.3112
  12   2.0000     -10.177751      -276.9507
  13   2.0000      -1.058739       -28.8097
  14   2.0000      -1.024461       -27.8770
  15   2.0000      -1.006973       -27.4011
  16   2.0000      -0.993211       -27.0266
  17   2.0000      -0.795340       -21.6423
  18   2.0000      -0.769666       -20.9437
  19   2.0000      -0.763712       -20.7816
  20   2.0000      -0.734185       -19.9782
  21   2.0000      -0.674204       -18.3460
  22   2.0000      -0.606903       -16.5147
  23   2.0000      -0.599294       -16.3076
  24   2.0000      -0.597235       -16.2516
  25   2.0000      -0.561875       -15.2894
  26   2.0000      -0.527156       -14.3446
  27   2.0000      -0.509836       -13.8733
  28   2.0000      -0.494865       -13.4659
  29   2.0000      -0.492078       -13.3901
  30   2.0000      -0.465500       -12.6669
  31   2.0000      -0.461301       -12.5526
  32   2.0000      -0.441845       -12.0232
  33   2.0000      -0.429527       -11.6880
  34   2.0000      -0.421689       -11.4748
  35   2.0000      -0.413843       -11.2612
  36   2.0000      -0.399768       -10.8782
  37   2.0000      -0.393420       -10.7055
  38   2.0000      -0.379906       -10.3378
  39   2.0000      -0.368347       -10.0232
  40   2.0000      -0.362882        -9.8745
  41   2.0000      -0.355472        -9.6729
  42   2.0000      -0.349592        -9.5129
  43   2.0000      -0.335240        -9.1224
  44   2.0000      -0.322169        -8.7667
  45   2.0000      -0.306559        -8.3419
  46   2.0000      -0.299351        -8.1458
  47   2.0000      -0.270682        -7.3656
  48   2.0000      -0.266577        -7.2539
  49   2.0000      -0.256663        -6.9841
  50   2.0000      -0.233620        -6.3571
  51   0.0000       0.067165         1.8276
  52   0.0000       0.080568         2.1924
  53   0.0000       0.093579         2.5464
  54   0.0000       0.102052         2.7770
  55   0.0000       0.106070         2.8863

MULLIKEN ATOMIC CHARGES
-----------------------
   0 C :    0.302870
   1 C :   -0.261503
   2 C :   -0.301110
   3 C :   -0.013111
   4 O :   -0.509264
   5 H :    0.161180
   6 H :    0.147571
   7 H :    0.155517
   8 H :    0.146900
   9 H :    0.155778
  10 H :    0.148883
  11 H :    0.151201
  12 C :   -0.046061
  13 H :    0.184445
  14 H :    0.136845
  15 O :   -0.553396
  16 C :    0.103644
  17 C :    0.082710
  18 C :   -0.310796
  19 C :   -0.009181
  20 O :   -0.523970
  21 H :    0.145584
  22 H :    0.161472
  23 O :   -0.605967
  24 H :    0.143206
  25 H :    0.161286
  26 H :    0.138992
  27 H :    0.143119
  28 H :    0.363157
Sum of atomic charges:    0.0000000

LOEWDIN ATOMIC CHARGES
----------------------
   0 C :    0.181771
   1 C :   -0.216765
   2 C :   -0.216923
   3 C :   -0.030028
   4 O :   -0.317029
   5 H :    0.104422
   6 H :    0.115383
   7 H :    0.123219
   8 H :    0.116747
   9 H :    0.115936
  10 H :    0.105884
  11 H :    0.107529
  12 C :   -0.055940
  13 H :    0.126262
  14 H :    0.102821
  15 O :   -0.352582
  16 C :    0.015095
  17 C :    0.035954
  18 C :   -0.243496
  19 C :   -0.026807
  20 O :   -0.325528
  21 H :    0.112573
  22 H :    0.115507
  23 O :   -0.411287
  24 H :    0.114753
  25 H :    0.119674
  26 H :    0.099723
  27 H :    0.101236
  28 H :    0.281894

  Mayer bond orders larger than 0.100000
B(  0-C ,  1-C ) :   0.9434 B(  0-C ,  4-O ) :   0.9092 B(  0-C ,  5-H ) :   0.9213
B(  0-C , 15-O ) :   0.8301 B(  1-C ,  2-C ) :   0.9528 B(  1-C ,  6-H ) :   0.9370
B(  1-C ,  7-H ) :   0.9364 B(  2-C ,  3-C ) :   0.9558 B(  2-C ,  8-H ) :   0.9446
B(  2-C ,  9-H ) :   0.9455 B(  3-C ,  4-O ) :   0.8282 B(  3-C , 10-H ) :   0.9350
B(  3-C , 11-H ) :   0.9402 B( 12-C , 13-H ) :   0.9087 B( 12-C , 14-H ) :   0.9179
B( 12-C , 15-O ) :   0.8325 B( 12-C , 16-C ) :   0.9011 B( 16-C , 17-C ) :   0.8864
B( 16-C , 20-O ) :   0.8732 B( 16-C , 21-H ) :   0.9260 B( 17-C , 18-C ) :   0.9331
B( 17-C , 22-H ) :   0.9362 B( 17-C , 23-O ) :   0.9005 B( 18-C , 19-C ) :   0.9449
B( 18-C , 24-H ) :   0.9410 B( 18-C , 25-H ) :   0.9283 B( 19-C , 20-O ) :   0.8416
B( 19-C , 26-H ) :   0.9316 B( 19-C , 27-H ) :   0.9376 B( 23-O , 28-H ) :   0.7938

FINAL SINGLE POINT ENERGY      -652.865456733870

DIPOLE MOMENT
-------------
                                X             Y             Z
Electronic contribution:     -2.27349      -3.84894       0.92729
Nuclear contribution   :      3.05935       4.92058      -1.15166
                        -----------------------------------------
Total Dipole Moment    :      0.78586       1.07165      -0.22437
                        -----------------------------------------
Magnitude (a.u.)       :      1.34772
Magnitude (Debye)      :      3.42563

Rotational constants in cm-1:     0.049728     0.015291     0.014570
Rotational constants in MHz :  1490.806200   458.414067   436.810085

                             ****ORCA TERMINATED NORMALLY****
TOTAL RUN TIME: 0 days 0 hours 40 minutes 20 seconds 18 msec
