                         Program Version 4.2.0 -  RELEASE  -
|  1> # Test redundant internal optimization
|  2> #
|  3> ! RKS B3LYP  Opt TightSCF SmallPrint
|  4>
|  5> %basis
|  6>         Basis "6-31G"
|  7> end
|  8>
|  9> %geom
| 10> Constraints
| 11> { D 4  0  15  12  180.0   C } # D for Dihedral angle
| 12> { D 0  15  12  16  75.0   C } # D for Dihedral angle
| 13> { D 0  4  3  2   C } # D for Dihedral angle
| 14> { D 4  3  2  1   C } # D for Dihedral angle
| 15> { D 3  2  1  0   C } # D for Dihedral angle
| 16> { D 2  1  0  4   C } # D for Dihedral angle
| 17> { D 1  0  4  3   C } # D for Dihedral angle
| 18> { D 16  20  19  18   C } # D for Dihedral angle
| 19> { D 20  19  18  17   C } # D for Dihedral angle
| 20> { D 19  18  17  16   C } # D for Dihedral angle
| 21> { D 18  17  16  20   C } # D for Dihedral angle
| 22> { D 17  16  20  19   C } # D for Dihedral angle
| 23> { D 15  12  16  20   C } # D for Dihedral angle
| 24> end
| 25> end
| 26>
| 27>
| 28> #%pal
| 29> #nprocs 8
| 30> #end
| 31>
| 32> * xyz 0 1
| 33> C  -21.048   26.222   46.251
| 34> C  -20.361   27.558   45.944
| 35> C  -20.329   28.222   47.341
| 36> C  -20.110   27.022   48.296
| 37> O  -20.473   25.807   47.535
| 38> H  -20.833   25.428   45.533
| 39> H  -19.344   27.382   45.576
| 40> H  -20.898   28.157   45.201
| 41> H  -19.543   28.978   47.434
| 42> H  -21.289   28.710   47.548
| 43> H  -20.733   27.082   49.195
| 44> H  -19.064   26.913   48.597
| 45> C  -23.309   26.834   45.072
| 46> H  -24.316   27.191   45.320
| 47> H  -22.763   27.654   44.589
| 48> O  -22.586   26.394   46.375
| 49> C  -23.440   25.680   44.040
| 50> C  -24.336   24.556   44.572
| 51> C  -25.748   25.139   44.330
| 52> C  -25.579   25.933   43.010
| 53> O  -24.128   26.149   42.832
| 54> H  -22.442   25.358   43.735
| 55> H  -24.187   23.645   43.980
| 56> O  -24.070   24.219   46.065
| 57> H  -26.520   24.367   44.257
| 58> H  -26.023   25.811   45.153
| 59> H  -26.086   26.903   43.037
| 60> H  -25.932   25.374   42.140
| 61> H  -24.213   25.117   46.676
| 62> *
| 63>
| 64>                          ****END OF INPUT****
 Total Charge           Charge          ....    0
 Multiplicity           Mult            ....    1
 Number of Electrons    NEL             ....  102
FINAL SINGLE POINT ENERGY      -652.827756612344
FINAL SINGLE POINT ENERGY      -652.852740886770
FINAL SINGLE POINT ENERGY      -652.859411489098
FINAL SINGLE POINT ENERGY      -652.861733186268
FINAL SINGLE POINT ENERGY      -652.862775891061
FINAL SINGLE POINT ENERGY      -652.863258147521
FINAL SINGLE POINT ENERGY      -652.863381145946
FINAL SINGLE POINT ENERGY      -652.863401240230
                    ***********************HURRAY********************

CARTESIAN COORDINATES (ANGSTROEM)
---------------------------------
  C    -21.086796   26.223638   46.197272
  C    -20.305906   27.505619   45.920834
  C    -20.370485   28.223581   47.290870
  C    -20.309851   27.054726   48.293698
  O    -20.671103   25.840184   47.510070
  H    -20.883623   25.385658   45.527251
  H    -19.274093   27.237846   45.665843
  H    -20.708273   28.108384   45.102712
  H    -19.549621   28.933797   47.427588
  H    -21.315875   28.765884   47.383949
  H    -21.015712   27.154242   49.121287
  H    -19.305245   26.879288   48.688051
  C    -23.243826   26.879165   45.057043
  H    -24.202735   27.261501   45.413561
  H    -22.719253   27.694613   44.546939
  O    -22.536900   26.465642   46.275370
  C    -23.441165   25.710502   44.081303
  C    -24.329165   24.575815   44.620999
  C    -25.754333   25.163686   44.409150
  C    -25.613416   25.967365   43.100562
  O    -24.148457   26.189907   42.894362
  H    -22.472776   25.339704   43.731206
  H    -24.203677   23.694711   43.982758
  O    -24.054999   24.151555   45.969522
  H    -26.509447   24.375954   44.343642
  H    -26.011699   25.802077   45.261282
  H    -26.113662   26.940067   43.129756
  H    -25.968139   25.414807   42.225752
  H    -23.582767   24.865080   46.461366

 Multiplicity           Mult            ....    1
 Number of Electrons    NEL             ....  102
 Basis Dimension        Dim             ....  149

ORBITAL ENERGIES
----------------

  NO   OCC          E(Eh)            E(eV)
   0   2.0000     -19.161943      -521.4230
   1   2.0000     -19.150686      -521.1167
   2   2.0000     -19.142664      -520.8984
   3   2.0000     -19.114938      -520.1439
   4   2.0000     -10.291771      -280.0533
   5   2.0000     -10.239750      -278.6378
   6   2.0000     -10.236303      -278.5440
   7   2.0000     -10.232559      -278.4421
   8   2.0000     -10.232243      -278.4335
   9   2.0000     -10.228778      -278.3392
  10   2.0000     -10.197599      -277.4908
  11   2.0000     -10.194752      -277.4133
  12   2.0000     -10.180907      -277.0366
  13   2.0000      -1.065486       -28.9934
  14   2.0000      -1.027123       -27.9494
  15   2.0000      -1.006650       -27.3923
  16   2.0000      -0.993031       -27.0218
  17   2.0000      -0.795826       -21.6555
  18   2.0000      -0.774359       -21.0714
  19   2.0000      -0.768456       -20.9108
  20   2.0000      -0.740643       -20.1539
  21   2.0000      -0.683389       -18.5960
  22   2.0000      -0.610093       -16.6015
  23   2.0000      -0.606585       -16.5060
  24   2.0000      -0.597069       -16.2471
  25   2.0000      -0.573457       -15.6046
  26   2.0000      -0.534084       -14.5332
  27   2.0000      -0.520547       -14.1648
  28   2.0000      -0.501990       -13.6598
  29   2.0000      -0.489484       -13.3195
  30   2.0000      -0.473417       -12.8823
  31   2.0000      -0.463619       -12.6157
  32   2.0000      -0.449779       -12.2391
  33   2.0000      -0.430240       -11.7074
  34   2.0000      -0.424569       -11.5531
  35   2.0000      -0.421587       -11.4720
  36   2.0000      -0.408992       -11.1292
  37   2.0000      -0.392288       -10.6747
  38   2.0000      -0.385240       -10.4829
  39   2.0000      -0.372713       -10.1420
  40   2.0000      -0.364899        -9.9294
  41   2.0000      -0.363885        -9.9018
  42   2.0000      -0.350129        -9.5275
  43   2.0000      -0.339510        -9.2385
  44   2.0000      -0.325983        -8.8704
  45   2.0000      -0.316702        -8.6179
  46   2.0000      -0.293989        -7.9998
  47   2.0000      -0.276472        -7.5232
  48   2.0000      -0.268323        -7.3014
  49   2.0000      -0.248744        -6.7687
  50   2.0000      -0.239940        -6.5291
  51   0.0000       0.057138         1.5548
  52   0.0000       0.075501         2.0545
  53   0.0000       0.090048         2.4503
  54   0.0000       0.091678         2.4947
  55   0.0000       0.102728         2.7954

MULLIKEN ATOMIC CHARGES
-----------------------
   0 C :    0.300533
   1 C :   -0.283287
   2 C :   -0.296712
   3 C :   -0.004181
   4 O :   -0.499867
   5 H :    0.158084
   6 H :    0.155429
   7 H :    0.149526
   8 H :    0.146701
   9 H :    0.160367
  10 H :    0.158673
  11 H :    0.147718
  12 C :   -0.044843
  13 H :    0.162425
  14 H :    0.152073
  15 O :   -0.535186
  16 C :    0.049915
  17 C :    0.120686
  18 C :   -0.305952
  19 C :   -0.022154
  20 O :   -0.522032
  21 H :    0.149082
  22 H :    0.149023
  23 O :   -0.635155
  24 H :    0.156254
  25 H :    0.144592
  26 H :    0.143463
  27 H :    0.149860
  28 H :    0.394965
Sum of atomic charges:   -0.0000000

LOEWDIN ATOMIC CHARGES
----------------------
   0 C :    0.178778
   1 C :   -0.229065
   2 C :   -0.215731
   3 C :   -0.024192
   4 O :   -0.299210
   5 H :    0.103939
   6 H :    0.120100
   7 H :    0.116542
   8 H :    0.116774
   9 H :    0.117850
  10 H :    0.112000
  11 H :    0.105893
  12 C :   -0.053839
  13 H :    0.116650
  14 H :    0.106199
  15 O :   -0.338111
  16 C :    0.004178
  17 C :    0.041728
  18 C :   -0.239153
  19 C :   -0.032310
  20 O :   -0.325614
  21 H :    0.108067
  22 H :    0.106968
  23 O :   -0.430206
  24 H :    0.123255
  25 H :    0.110972
  26 H :    0.102462
  27 H :    0.106510
  28 H :    0.288566

  Mayer bond orders larger than 0.100000
B(  0-C ,  1-C ) :   0.9351 B(  0-C ,  4-O ) :   0.9450 B(  0-C ,  5-H ) :   0.9179
B(  0-C , 15-O ) :   0.7894 B(  1-C ,  2-C ) :   0.9489 B(  1-C ,  6-H ) :   0.9337
B(  1-C ,  7-H ) :   0.9292 B(  2-C ,  3-C ) :   0.9558 B(  2-C ,  8-H ) :   0.9445
B(  2-C ,  9-H ) :   0.9450 B(  3-C ,  4-O ) :   0.8280 B(  3-C , 10-H ) :   0.9344
B(  3-C , 11-H ) :   0.9395 B( 12-C , 13-H ) :   0.9366 B( 12-C , 14-H ) :   0.9180
B( 12-C , 15-O ) :   0.8112 B( 12-C , 16-C ) :   0.8823 B( 16-C , 17-C ) :   0.9092
B( 16-C , 20-O ) :   0.8515 B( 16-C , 21-H ) :   0.9307 B( 17-C , 18-C ) :   0.9002
B( 17-C , 22-H ) :   0.9321 B( 17-C , 23-O ) :   0.9397 B( 18-C , 19-C ) :   0.9396
B( 18-C , 24-H ) :   0.9436 B( 18-C , 25-H ) :   0.9432 B( 19-C , 20-O ) :   0.8294
B( 19-C , 26-H ) :   0.9340 B( 19-C , 27-H ) :   0.9390 B( 23-O , 28-H ) :   0.7233

FINAL SINGLE POINT ENERGY      -652.863402003832

DIPOLE MOMENT
-------------
                                X             Y             Z
Electronic contribution:      0.00519      -3.85834       0.06104
Nuclear contribution   :      0.37735       5.26960      -0.30304
                        -----------------------------------------
Total Dipole Moment    :      0.38254       1.41126      -0.24200
                        -----------------------------------------
Magnitude (a.u.)       :      1.48207
Magnitude (Debye)      :      3.76713

Rotational constants in cm-1:     0.061798     0.013477     0.012088
Rotational constants in MHz :  1852.659673   404.019326   362.392176

                             ****ORCA TERMINATED NORMALLY****
TOTAL RUN TIME: 0 days 0 hours 32 minutes 8 seconds 506 msec
