                         Program Version 4.2.0 -  RELEASE  -
|  1> # Test redundant internal optimization
|  2> #
|  3> ! RKS B3LYP  Opt TightSCF SmallPrint
|  4>
|  5> %basis
|  6>         Basis "6-31G"
|  7> end
|  8>
|  9> %geom
| 10> Constraints
| 11> { D 4  0  15  12  315.0   C } # D for Dihedral angle
| 12> { D 0  15  12  16  120.0   C } # D for Dihedral angle
| 13> { D 0  4  3  2   C } # D for Dihedral angle
| 14> { D 4  3  2  1   C } # D for Dihedral angle
| 15> { D 3  2  1  0   C } # D for Dihedral angle
| 16> { D 2  1  0  4   C } # D for Dihedral angle
| 17> { D 1  0  4  3   C } # D for Dihedral angle
| 18> { D 16  20  19  18   C } # D for Dihedral angle
| 19> { D 20  19  18  17   C } # D for Dihedral angle
| 20> { D 19  18  17  16   C } # D for Dihedral angle
| 21> { D 18  17  16  20   C } # D for Dihedral angle
| 22> { D 17  16  20  19   C } # D for Dihedral angle
| 23> { D 15  12  16  20   C } # D for Dihedral angle
| 24> end
| 25> end
| 26>
| 27>
| 28> #%pal
| 29> #nprocs 8
| 30> #end
| 31>
| 32> * xyz 0 1
| 33> C  -21.048   26.222   46.251
| 34> C  -20.361   27.558   45.944
| 35> C  -20.329   28.222   47.341
| 36> C  -20.110   27.022   48.296
| 37> O  -20.473   25.807   47.535
| 38> H  -20.833   25.428   45.533
| 39> H  -19.344   27.382   45.576
| 40> H  -20.898   28.157   45.201
| 41> H  -19.543   28.978   47.434
| 42> H  -21.289   28.710   47.548
| 43> H  -20.733   27.082   49.195
| 44> H  -19.064   26.913   48.597
| 45> C  -23.319   25.255   47.135
| 46> H  -24.047   24.782   46.464
| 47> H  -22.604   24.488   47.460
| 48> O  -22.586   26.394   46.375
| 49> C  -24.073   25.762   48.395
| 50> C  -25.211   26.716   48.016
| 51> C  -26.313   25.726   47.566
| 52> C  -26.107   24.517   48.513
| 53> O  -24.745   24.648   49.073
| 54> H  -23.351   26.176   49.101
| 55> O  -25.671   27.518   49.265
| 56> H  -24.934   27.428   47.233
| 57> H  -27.319   26.149   47.641
| 58> H  -26.150   25.432   46.522
| 59> H  -26.190   23.558   47.992
| 60> H  -26.805   24.523   49.355
| 61> H  -25.956   26.824   50.065
| 62> *
| 63>
| 64>                          ****END OF INPUT****
 Total Charge           Charge          ....    0
 Multiplicity           Mult            ....    1
 Number of Electrons    NEL             ....  102
FINAL SINGLE POINT ENERGY      -652.841690687336
FINAL SINGLE POINT ENERGY      -652.864663533920
FINAL SINGLE POINT ENERGY      -652.868172560903
FINAL SINGLE POINT ENERGY      -652.868766095798
FINAL SINGLE POINT ENERGY      -652.868844463106
FINAL SINGLE POINT ENERGY      -652.868856938043
FINAL SINGLE POINT ENERGY      -652.868859383629
                    ***********************HURRAY********************

CARTESIAN COORDINATES (ANGSTROEM)
---------------------------------
  C    -21.106325   26.158489   46.297930
  C    -20.568377   27.562262   46.021787
  C    -20.569546   28.183288   47.436299
  C    -20.207615   26.991291   48.348673
  O    -20.471534   25.768103   47.537277
  H    -20.833152   25.388461   45.569722
  H    -19.551323   27.484297   45.621673
  H    -21.191517   28.109050   45.311056
  H    -19.857454   29.008440   47.533197
  H    -21.568667   28.560707   47.671419
  H    -20.807250   26.946539   49.261057
  H    -19.146908   26.961260   48.613191
  C    -23.229793   25.154175   47.093304
  H    -23.917592   24.681977   46.381859
  H    -22.510771   24.411003   47.447475
  O    -22.548447   26.248774   46.400038
  C    -23.977596   25.731510   48.293869
  C    -25.081774   26.739555   47.948394
  C    -26.251499   25.800295   47.559066
  C    -26.069859   24.592686   48.512892
  O    -24.674593   24.660379   49.016172
  H    -23.255617   26.167101   48.990289
  O    -25.408414   27.565972   49.101525
  H    -24.792926   27.432703   47.160271
  H    -27.212435   26.305187   47.687845
  H    -26.161887   25.496835   46.510573
  H    -26.222033   23.630420   48.014791
  H    -26.729146   24.641897   49.385358
  H    -25.481946   26.994342   49.894998

 Multiplicity           Mult            ....    1
 Number of Electrons    NEL             ....  102
 Basis Dimension        Dim             ....  149

ORBITAL ENERGIES
----------------

  NO   OCC          E(Eh)            E(eV)
   0   2.0000     -19.146418      -521.0005
   1   2.0000     -19.145143      -520.9658
   2   2.0000     -19.142406      -520.8913
   3   2.0000     -19.134179      -520.6675
   4   2.0000     -10.280243      -279.7396
   5   2.0000     -10.233580      -278.4699
   6   2.0000     -10.230001      -278.3725
   7   2.0000     -10.229014      -278.3456
   8   2.0000     -10.228502      -278.3317
   9   2.0000     -10.225087      -278.2388
  10   2.0000     -10.186483      -277.1883
  11   2.0000     -10.186358      -277.1849
  12   2.0000     -10.186101      -277.1779
  13   2.0000      -1.055999       -28.7352
  14   2.0000      -1.033468       -28.1221
  15   2.0000      -1.002440       -27.2778
  16   2.0000      -0.994241       -27.0547
  17   2.0000      -0.791474       -21.5371
  18   2.0000      -0.777166       -21.1478
  19   2.0000      -0.765304       -20.8250
  20   2.0000      -0.730249       -19.8711
  21   2.0000      -0.671788       -18.2803
  22   2.0000      -0.601950       -16.3799
  23   2.0000      -0.600830       -16.3494
  24   2.0000      -0.592716       -16.1286
  25   2.0000      -0.577532       -15.7155
  26   2.0000      -0.522285       -14.2121
  27   2.0000      -0.511812       -13.9271
  28   2.0000      -0.496278       -13.5044
  29   2.0000      -0.488792       -13.3007
  30   2.0000      -0.472123       -12.8471
  31   2.0000      -0.455963       -12.4074
  32   2.0000      -0.452898       -12.3240
  33   2.0000      -0.434041       -11.8109
  34   2.0000      -0.420143       -11.4327
  35   2.0000      -0.411843       -11.2068
  36   2.0000      -0.401321       -10.9205
  37   2.0000      -0.390584       -10.6283
  38   2.0000      -0.373668       -10.1680
  39   2.0000      -0.364265        -9.9121
  40   2.0000      -0.359314        -9.7774
  41   2.0000      -0.356919        -9.7123
  42   2.0000      -0.349800        -9.5185
  43   2.0000      -0.336196        -9.1483
  44   2.0000      -0.325432        -8.8555
  45   2.0000      -0.307174        -8.3586
  46   2.0000      -0.296813        -8.0767
  47   2.0000      -0.276699        -7.5294
  48   2.0000      -0.263802        -7.1784
  49   2.0000      -0.259551        -7.0627
  50   2.0000      -0.241444        -6.5700
  51   0.0000       0.065649         1.7864
  52   0.0000       0.076533         2.0826
  53   0.0000       0.092731         2.5233
  54   0.0000       0.100268         2.7284
  55   0.0000       0.104861         2.8534

MULLIKEN ATOMIC CHARGES
-----------------------
   0 C :    0.290384
   1 C :   -0.262232
   2 C :   -0.301900
   3 C :   -0.013367
   4 O :   -0.513131
   5 H :    0.149125
   6 H :    0.146042
   7 H :    0.160056
   8 H :    0.143728
   9 H :    0.167010
  10 H :    0.149966
  11 H :    0.147881
  12 C :   -0.024743
  13 H :    0.134686
  14 H :    0.177100
  15 O :   -0.533185
  16 C :    0.059342
  17 C :    0.091912
  18 C :   -0.304237
  19 C :   -0.027518
  20 O :   -0.526662
  21 H :    0.161333
  22 O :   -0.605945
  23 H :    0.173714
  24 H :    0.160384
  25 H :    0.149096
  26 H :    0.143971
  27 H :    0.145820
  28 H :    0.361370
Sum of atomic charges:   -0.0000000

LOEWDIN ATOMIC CHARGES
----------------------
   0 C :    0.175751
   1 C :   -0.214719
   2 C :   -0.217000
   3 C :   -0.029931
   4 O :   -0.327561
   5 H :    0.097651
   6 H :    0.114777
   7 H :    0.125801
   8 H :    0.115327
   9 H :    0.120779
  10 H :    0.104794
  11 H :    0.105554
  12 C :   -0.045027
  13 H :    0.099095
  14 H :    0.123622
  15 O :   -0.337867
  16 C :    0.013028
  17 C :    0.036665
  18 C :   -0.242281
  19 C :   -0.037937
  20 O :   -0.331098
  21 H :    0.114201
  22 O :   -0.417157
  23 H :    0.126202
  24 H :    0.125749
  25 H :    0.115417
  26 H :    0.103220
  27 H :    0.102094
  28 H :    0.280853

  Mayer bond orders larger than 0.100000
B(  0-C ,  1-C ) :   0.9487 B(  0-C ,  4-O ) :   0.9029 B(  0-C ,  5-H ) :   0.9223
B(  0-C , 15-O ) :   0.8530 B(  1-C ,  2-C ) :   0.9539 B(  1-C ,  6-H ) :   0.9390
B(  1-C ,  7-H ) :   0.9356 B(  2-C ,  3-C ) :   0.9556 B(  2-C ,  8-H ) :   0.9447
B(  2-C ,  9-H ) :   0.9424 B(  3-C ,  4-O ) :   0.8304 B(  3-C , 10-H ) :   0.9322
B(  3-C , 11-H ) :   0.9403 B( 12-C , 13-H ) :   0.9326 B( 12-C , 14-H ) :   0.9122
B( 12-C , 15-O ) :   0.8174 B( 12-C , 16-C ) :   0.8970 B( 16-C , 17-C ) :   0.9119
B( 16-C , 20-O ) :   0.8418 B( 16-C , 21-H ) :   0.9241 B( 17-C , 18-C ) :   0.9127
B( 17-C , 22-O ) :   0.8874 B( 17-C , 23-H ) :   0.9242 B( 18-C , 19-C ) :   0.9415
B( 18-C , 24-H ) :   0.9382 B( 18-C , 25-H ) :   0.9342 B( 19-C , 20-O ) :   0.8454
B( 19-C , 26-H ) :   0.9363 B( 19-C , 27-H ) :   0.9375 B( 22-O , 28-H ) :   0.7968

FINAL SINGLE POINT ENERGY      -652.868859614227

DIPOLE MOMENT
-------------
                                X             Y             Z
Electronic contribution:     -0.34212      -2.14144       1.25577
Nuclear contribution   :      0.39275       2.22386      -1.70929
                        -----------------------------------------
Total Dipole Moment    :      0.05063       0.08243      -0.45352
                        -----------------------------------------
Magnitude (a.u.)       :      0.46373
Magnitude (Debye)      :      1.17870

Rotational constants in cm-1:     0.052374     0.014226     0.013551
Rotational constants in MHz :  1570.136566   426.489404   406.259149

                             ****ORCA TERMINATED NORMALLY****
TOTAL RUN TIME: 0 days 0 hours 26 minutes 24 seconds 611 msec
