                         Program Version 4.2.0 -  RELEASE  -
|  1> # Test redundant internal optimization
|  2> #
|  3> ! RKS B3LYP  Opt TightSCF SmallPrint
|  4>
|  5> %basis
|  6>         Basis "6-31G"
|  7> end
|  8>
|  9> %geom
| 10> Constraints
| 11> { D 4  0  15  12  0.0   C } # D for Dihedral angle
| 12> { D 0  15  12  16  165.0   C } # D for Dihedral angle
| 13> { D 0  4  3  2   C } # D for Dihedral angle
| 14> { D 4  3  2  1   C } # D for Dihedral angle
| 15> { D 3  2  1  0   C } # D for Dihedral angle
| 16> { D 2  1  0  4   C } # D for Dihedral angle
| 17> { D 1  0  4  3   C } # D for Dihedral angle
| 18> { D 16  20  19  18   C } # D for Dihedral angle
| 19> { D 20  19  18  17   C } # D for Dihedral angle
| 20> { D 19  18  17  16   C } # D for Dihedral angle
| 21> { D 18  17  16  20   C } # D for Dihedral angle
| 22> { D 17  16  20  19   C } # D for Dihedral angle
| 23> { D 15  12  16  20   C } # D for Dihedral angle
| 24> end
| 25> end
| 26>
| 27>
| 28> #%pal
| 29> #nprocs 8
| 30> #end
| 31>
| 32> * xyz 0 1
| 33> C  -21.048   26.222   46.251
| 34> C  -20.361   27.558   45.944
| 35> C  -20.329   28.222   47.341
| 36> C  -20.110   27.022   48.296
| 37> O  -20.473   25.807   47.535
| 38> H  -20.833   25.428   45.533
| 39> H  -19.344   27.382   45.576
| 40> H  -20.898   28.157   45.201
| 41> H  -19.543   28.978   47.434
| 42> H  -21.289   28.710   47.548
| 43> H  -20.733   27.082   49.195
| 44> H  -19.064   26.913   48.597
| 45> C  -23.172   26.101   47.783
| 46> H  -23.182   25.017   47.953
| 47> H  -22.551   26.564   48.561
| 48> O  -22.586   26.394   46.375
| 49> C  -24.621   26.635   47.954
| 50> C  -24.702   28.135   47.644
| 51> C  -24.720   28.133   46.096
| 52> C  -25.525   26.854   45.755
| 53> O  -25.516   26.014   46.972
| 54> H  -24.990   26.359   48.943
| 55> O  -26.023   28.725   48.207
| 56> H  -23.864   28.706   48.058
| 57> H  -25.174   29.036   45.676
| 58> H  -23.697   28.061   45.707
| 59> H  -25.085   26.290   44.926
| 60> H  -26.572   27.070   45.521
| 61> H  -26.876   28.167   47.805
| 62> *
| 63>
| 64>                          ****END OF INPUT****
 Total Charge           Charge          ....    0
 Multiplicity           Mult            ....    1
 Number of Electrons    NEL             ....  102
FINAL SINGLE POINT ENERGY      -652.832496203974
FINAL SINGLE POINT ENERGY      -652.854587935821
FINAL SINGLE POINT ENERGY      -652.859157774678
FINAL SINGLE POINT ENERGY      -652.860390202675
FINAL SINGLE POINT ENERGY      -652.860518170851
FINAL SINGLE POINT ENERGY      -652.860538310278
                    ***********************HURRAY********************

CARTESIAN COORDINATES (ANGSTROEM)
---------------------------------
  C    -21.105273   26.186035   46.383434
  C    -20.465101   27.515020   45.978959
  C    -20.300310   28.218305   47.348016
  C    -19.978230   27.048875   48.305436
  O    -20.414515   25.814225   47.594369
  H    -20.943390   25.369100   45.676380
  H    -19.489567   27.317214   45.520194
  H    -21.081489   28.076099   45.273443
  H    -19.510956   28.975953   47.340710
  H    -21.236467   28.710465   47.632668
  H    -20.503502   27.110666   49.262847
  H    -18.906769   26.935795   48.492797
  C    -23.166287   26.087523   47.826475
  H    -23.201403   25.010274   48.025493
  H    -22.596368   26.561990   48.633973
  O    -22.551429   26.324495   46.527048
  C    -24.590106   26.637671   47.842629
  C    -24.760013   28.145058   47.599331
  C    -24.775442   28.215539   46.048314
  C    -25.503239   26.907036   45.649681
  O    -25.443327   26.015948   46.831064
  H    -25.018816   26.370777   48.817081
  O    -26.002531   28.623355   48.187333
  H    -23.977322   28.754388   48.052960
  H    -25.296442   29.114255   45.706290
  H    -23.752688   28.214222   45.671167
  H    -25.019363   26.404599   44.808605
  H    -26.561881   27.061942   45.416124
  H    -26.728775   28.015176   47.934178

 Multiplicity           Mult            ....    1
 Number of Electrons    NEL             ....  102
 Basis Dimension        Dim             ....  149

ORBITAL ENERGIES
----------------

  NO   OCC          E(Eh)            E(eV)
   0   2.0000     -19.155753      -521.2545
   1   2.0000     -19.143445      -520.9196
   2   2.0000     -19.134854      -520.6859
   3   2.0000     -19.134072      -520.6646
   4   2.0000     -10.284673      -279.8602
   5   2.0000     -10.238162      -278.5945
   6   2.0000     -10.235937      -278.5340
   7   2.0000     -10.231779      -278.4209
   8   2.0000     -10.230194      -278.3777
   9   2.0000     -10.220118      -278.1035
  10   2.0000     -10.197907      -277.4992
  11   2.0000     -10.192628      -277.3555
  12   2.0000     -10.175371      -276.8859
  13   2.0000      -1.060149       -28.8481
  14   2.0000      -1.031133       -28.0585
  15   2.0000      -1.003012       -27.2933
  16   2.0000      -0.993662       -27.0389
  17   2.0000      -0.797049       -21.6888
  18   2.0000      -0.777927       -21.1685
  19   2.0000      -0.763838       -20.7851
  20   2.0000      -0.737108       -20.0577
  21   2.0000      -0.672905       -18.3107
  22   2.0000      -0.610651       -16.6167
  23   2.0000      -0.600968       -16.3532
  24   2.0000      -0.595590       -16.2068
  25   2.0000      -0.570045       -15.5117
  26   2.0000      -0.525097       -14.2886
  27   2.0000      -0.514252       -13.9935
  28   2.0000      -0.501004       -13.6330
  29   2.0000      -0.491414       -13.3720
  30   2.0000      -0.471588       -12.8326
  31   2.0000      -0.458846       -12.4858
  32   2.0000      -0.448436       -12.2026
  33   2.0000      -0.432672       -11.7736
  34   2.0000      -0.423791       -11.5319
  35   2.0000      -0.414919       -11.2905
  36   2.0000      -0.405361       -11.0304
  37   2.0000      -0.385296       -10.4844
  38   2.0000      -0.379056       -10.3146
  39   2.0000      -0.368812       -10.0359
  40   2.0000      -0.366814        -9.9815
  41   2.0000      -0.360303        -9.8043
  42   2.0000      -0.350281        -9.5316
  43   2.0000      -0.340435        -9.2637
  44   2.0000      -0.322812        -8.7842
  45   2.0000      -0.311834        -8.4854
  46   2.0000      -0.300570        -8.1789
  47   2.0000      -0.269884        -7.3439
  48   2.0000      -0.265050        -7.2124
  49   2.0000      -0.252785        -6.8786
  50   2.0000      -0.238990        -6.5033
  51   0.0000       0.054496         1.4829
  52   0.0000       0.076326         2.0769
  53   0.0000       0.090019         2.4495
  54   0.0000       0.095627         2.6021
  55   0.0000       0.102980         2.8022

MULLIKEN ATOMIC CHARGES
-----------------------
   0 C :    0.307090
   1 C :   -0.260079
   2 C :   -0.313558
   3 C :   -0.021088
   4 O :   -0.509318
   5 H :    0.160635
   6 H :    0.148227
   7 H :    0.158001
   8 H :    0.151763
   9 H :    0.155959
  10 H :    0.147848
  11 H :    0.154477
  12 C :    0.023549
  13 H :    0.154749
  14 H :    0.124936
  15 O :   -0.548498
  16 C :    0.066139
  17 C :    0.076292
  18 C :   -0.282671
  19 C :   -0.018948
  20 O :   -0.526204
  21 H :    0.151832
  22 O :   -0.605523
  23 H :    0.142050
  24 H :    0.143885
  25 H :    0.166216
  26 H :    0.152015
  27 H :    0.136389
  28 H :    0.363832
Sum of atomic charges:    0.0000000

LOEWDIN ATOMIC CHARGES
----------------------
   0 C :    0.184439
   1 C :   -0.220620
   2 C :   -0.220818
   3 C :   -0.033904
   4 O :   -0.316368
   5 H :    0.106805
   6 H :    0.115936
   7 H :    0.122556
   8 H :    0.119666
   9 H :    0.112520
  10 H :    0.102333
  11 H :    0.108833
  12 C :   -0.029166
  13 H :    0.109584
  14 H :    0.096056
  15 O :   -0.343449
  16 C :    0.014649
  17 C :    0.038353
  18 C :   -0.240399
  19 C :   -0.032714
  20 O :   -0.329064
  21 H :    0.114210
  22 O :   -0.418099
  23 H :    0.110074
  24 H :    0.116449
  25 H :    0.124428
  26 H :    0.108891
  27 H :    0.096193
  28 H :    0.282626

  Mayer bond orders larger than 0.100000
B(  0-C ,  1-C ) :   0.9305 B(  0-C ,  4-O ) :   0.9128 B(  0-C ,  5-H ) :   0.9291
B(  0-C , 15-O ) :   0.8365 B(  1-C ,  2-C ) :   0.9519 B(  1-C ,  6-H ) :   0.9347
B(  1-C ,  7-H ) :   0.9352 B(  2-C ,  3-C ) :   0.9522 B(  2-C ,  8-H ) :   0.9443
B(  2-C ,  9-H ) :   0.9424 B(  3-C ,  4-O ) :   0.8300 B(  3-C , 10-H ) :   0.9293
B(  3-C , 11-H ) :   0.9396 B( 12-C , 13-H ) :   0.9213 B( 12-C , 14-H ) :   0.9048
B( 12-C , 15-O ) :   0.8290 B( 12-C , 16-C ) :   0.9073 B( 16-C , 17-C ) :   0.9072
B( 16-C , 20-O ) :   0.8697 B( 16-C , 21-H ) :   0.9235 B( 17-C , 18-C ) :   0.9232
B( 17-C , 22-O ) :   0.8896 B( 17-C , 23-H ) :   0.9344 B( 18-C , 19-C ) :   0.9471
B( 18-C , 24-H ) :   0.9378 B( 18-C , 25-H ) :   0.9188 B( 19-C , 20-O ) :   0.8413
B( 19-C , 26-H ) :   0.9341 B( 19-C , 27-H ) :   0.9367 B( 22-O , 28-H ) :   0.7950

FINAL SINGLE POINT ENERGY      -652.860538261583

DIPOLE MOMENT
-------------
                                X             Y             Z
Electronic contribution:     -3.40298      -4.12351       0.93299
Nuclear contribution   :      4.36785       4.80868      -1.19899
                        -----------------------------------------
Total Dipole Moment    :      0.96487       0.68517      -0.26601
                        -----------------------------------------
Magnitude (a.u.)       :      1.21293
Magnitude (Debye)      :      3.08302

Rotational constants in cm-1:     0.050552     0.015190     0.014715
Rotational constants in MHz :  1515.508309   455.387317   441.129955

                             ****ORCA TERMINATED NORMALLY****
TOTAL RUN TIME: 0 days 1 hours 13 minutes 44 seconds 78 msec
