                         Program Version 4.2.0 -  RELEASE  -
|  1> # Test redundant internal optimization
|  2> #
|  3> ! RKS B3LYP  Opt TightSCF SmallPrint
|  4>
|  5> %basis
|  6>         Basis "6-31G"
|  7> end
|  8>
|  9> %geom
| 10> Constraints
| 11> { D 4  0  15  12  225.0   C } # D for Dihedral angle
| 12> { D 0  15  12  16  255.0   C } # D for Dihedral angle
| 13> { D 0  4  3  2   C } # D for Dihedral angle
| 14> { D 4  3  2  1   C } # D for Dihedral angle
| 15> { D 3  2  1  0   C } # D for Dihedral angle
| 16> { D 2  1  0  4   C } # D for Dihedral angle
| 17> { D 1  0  4  3   C } # D for Dihedral angle
| 18> { D 16  20  19  18   C } # D for Dihedral angle
| 19> { D 20  19  18  17   C } # D for Dihedral angle
| 20> { D 19  18  17  16   C } # D for Dihedral angle
| 21> { D 18  17  16  20   C } # D for Dihedral angle
| 22> { D 17  16  20  19   C } # D for Dihedral angle
| 23> { D 15  12  16  20   C } # D for Dihedral angle
| 24> end
| 25> end
| 26>
| 27>
| 28> #%pal
| 29> #nprocs 8
| 30> #end
| 31>
| 32> * xyz 0 1
| 33> C  -21.048   26.222   46.251
| 34> C  -20.361   27.558   45.944
| 35> C  -20.329   28.222   47.341
| 36> C  -20.110   27.022   48.296
| 37> O  -20.473   25.807   47.535
| 38> H  -20.833   25.428   45.533
| 39> H  -19.344   27.382   45.576
| 40> H  -20.898   28.157   45.201
| 41> H  -19.543   28.978   47.434
| 42> H  -21.289   28.710   47.548
| 43> H  -20.733   27.082   49.195
| 44> H  -19.064   26.913   48.597
| 45> C  -23.415   25.773   45.218
| 46> H  -22.782   25.080   44.650
| 47> H  -24.269   25.209   45.617
| 48> O  -22.586   26.394   46.375
| 49> C  -23.972   26.842   44.237
| 50> C  -22.838   27.566   43.502
| 51> C  -22.463   26.536   42.410
| 52> C  -23.826   25.894   42.050
| 53> O  -24.744   26.202   43.167
| 54> H  -24.655   27.500   44.775
| 55> O  -23.372   28.876   42.860
| 56> H  -21.996   27.821   44.154
| 57> H  -21.975   26.994   41.544
| 58> H  -21.778   25.785   42.822
| 59> H  -23.759   24.807   41.930
| 60> H  -24.263   26.323   41.144
| 61> H  -24.217   28.646   42.201
| 62> *
| 63>
| 64>                          ****END OF INPUT****
 Total Charge           Charge          ....    0
 Multiplicity           Mult            ....    1
 Number of Electrons    NEL             ....  102
FINAL SINGLE POINT ENERGY      -652.828244378805
FINAL SINGLE POINT ENERGY      -652.851157835381
FINAL SINGLE POINT ENERGY      -652.855283129615
FINAL SINGLE POINT ENERGY      -652.857098629627
FINAL SINGLE POINT ENERGY      -652.857277232839
FINAL SINGLE POINT ENERGY      -652.857307244751
                    ***********************HURRAY********************

CARTESIAN COORDINATES (ANGSTROEM)
---------------------------------
  C    -21.007014   26.198300   46.233299
  C    -20.268827   27.514539   45.985121
  C    -20.344055   28.197222   47.377199
  C    -20.236229   26.997010   48.343073
  O    -20.562591   25.797337   47.538217
  H    -20.769769   25.386300   45.537116
  H    -19.227671   27.294180   45.719005
  H    -20.705057   28.125793   45.196510
  H    -19.548284   28.931895   47.529501
  H    -21.310110   28.698641   47.487057
  H    -20.935938   27.054976   49.180603
  H    -19.221930   26.852316   48.727338
  C    -23.299874   25.857848   45.236560
  H    -22.761133   25.068507   44.689210
  H    -24.152820   25.388944   45.734332
  O    -22.448774   26.390645   46.289206
  C    -23.857686   26.882338   44.234157
  C    -22.858331   27.647184   43.352362
  C    -22.508348   26.585199   42.275388
  C    -23.847283   25.827031   42.088261
  O    -24.675572   26.128515   43.276621
  H    -24.521295   27.582652   44.749763
  O    -23.489515   28.819427   42.765933
  H    -21.994647   28.027294   43.887133
  H    -22.157220   27.063067   41.358054
  H    -21.718918   25.916764   42.638376
  H    -23.715114   24.743342   42.011258
  H    -24.403219   26.172650   41.211168
  H    -24.387774   28.579085   42.455179

 Multiplicity           Mult            ....    1
 Number of Electrons    NEL             ....  102
 Basis Dimension        Dim             ....  149

ORBITAL ENERGIES
----------------

  NO   OCC          E(Eh)            E(eV)
   0   2.0000     -19.150536      -521.1126
   1   2.0000     -19.142695      -520.8992
   2   2.0000     -19.141765      -520.8739
   3   2.0000     -19.140161      -520.8303
   4   2.0000     -10.284502      -279.8555
   5   2.0000     -10.244657      -278.7713
   6   2.0000     -10.237324      -278.5718
   7   2.0000     -10.237093      -278.5655
   8   2.0000     -10.234075      -278.4833
   9   2.0000     -10.224794      -278.2308
  10   2.0000     -10.195127      -277.4235
  11   2.0000     -10.188989      -277.2565
  12   2.0000     -10.186798      -277.1969
  13   2.0000      -1.054081       -28.6830
  14   2.0000      -1.042846       -28.3773
  15   2.0000      -1.011046       -27.5120
  16   2.0000      -0.995046       -27.0766
  17   2.0000      -0.787895       -21.4397
  18   2.0000      -0.784342       -21.3430
  19   2.0000      -0.770919       -20.9778
  20   2.0000      -0.735803       -20.0222
  21   2.0000      -0.678172       -18.4540
  22   2.0000      -0.610926       -16.6241
  23   2.0000      -0.601984       -16.3808
  24   2.0000      -0.597869       -16.2688
  25   2.0000      -0.585487       -15.9319
  26   2.0000      -0.526383       -14.3236
  27   2.0000      -0.521373       -14.1873
  28   2.0000      -0.500851       -13.6289
  29   2.0000      -0.490193       -13.3388
  30   2.0000      -0.476425       -12.9642
  31   2.0000      -0.459374       -12.5002
  32   2.0000      -0.454818       -12.3762
  33   2.0000      -0.440635       -11.9903
  34   2.0000      -0.424754       -11.5582
  35   2.0000      -0.421559       -11.4712
  36   2.0000      -0.407637       -11.0924
  37   2.0000      -0.396692       -10.7945
  38   2.0000      -0.380010       -10.3406
  39   2.0000      -0.374609       -10.1936
  40   2.0000      -0.363662        -9.8957
  41   2.0000      -0.355078        -9.6622
  42   2.0000      -0.352725        -9.5981
  43   2.0000      -0.336203        -9.1485
  44   2.0000      -0.314829        -8.5669
  45   2.0000      -0.312220        -8.4959
  46   2.0000      -0.305019        -8.3000
  47   2.0000      -0.276719        -7.5299
  48   2.0000      -0.270626        -7.3641
  49   2.0000      -0.259894        -7.0721
  50   2.0000      -0.239833        -6.5262
  51   0.0000       0.061816         1.6821
  52   0.0000       0.064443         1.7536
  53   0.0000       0.084338         2.2949
  54   0.0000       0.092905         2.5281
  55   0.0000       0.099614         2.7106

MULLIKEN ATOMIC CHARGES
-----------------------
   0 C :    0.295038
   1 C :   -0.277143
   2 C :   -0.299721
   3 C :    0.000567
   4 O :   -0.499248
   5 H :    0.135964
   6 H :    0.145409
   7 H :    0.157044
   8 H :    0.143139
   9 H :    0.165268
  10 H :    0.154771
  11 H :    0.140698
  12 C :   -0.003981
  13 H :    0.119064
  14 H :    0.169897
  15 O :   -0.520362
  16 C :    0.053867
  17 C :    0.076261
  18 C :   -0.298930
  19 C :   -0.030529
  20 O :   -0.522607
  21 H :    0.167010
  22 O :   -0.601809
  23 H :    0.159619
  24 H :    0.164648
  25 H :    0.140826
  26 H :    0.150668
  27 H :    0.148874
  28 H :    0.365698
Sum of atomic charges:   -0.0000000

LOEWDIN ATOMIC CHARGES
----------------------
   0 C :    0.180242
   1 C :   -0.228113
   2 C :   -0.215852
   3 C :   -0.025634
   4 O :   -0.307771
   5 H :    0.094970
   6 H :    0.114121
   7 H :    0.114617
   8 H :    0.114974
   9 H :    0.120596
  10 H :    0.109483
  11 H :    0.101705
  12 C :   -0.035761
  13 H :    0.091537
  14 H :    0.121386
  15 O :   -0.336298
  16 C :    0.008161
  17 C :    0.034256
  18 C :   -0.241353
  19 C :   -0.039201
  20 O :   -0.327758
  21 H :    0.118086
  22 O :   -0.414080
  23 H :    0.115847
  24 H :    0.127954
  25 H :    0.111043
  26 H :    0.105713
  27 H :    0.103862
  28 H :    0.283267

  Mayer bond orders larger than 0.100000
B(  0-C ,  1-C ) :   0.9352 B(  0-C ,  4-O ) :   0.9364 B(  0-C ,  5-H ) :   0.9172
B(  0-C , 15-O ) :   0.8371 B(  1-C ,  2-C ) :   0.9541 B(  1-C ,  6-H ) :   0.9338
B(  1-C ,  7-H ) :   0.9155 B(  2-C ,  3-C ) :   0.9543 B(  2-C ,  8-H ) :   0.9447
B(  2-C ,  9-H ) :   0.9429 B(  3-C ,  4-O ) :   0.8346 B(  3-C , 10-H ) :   0.9344
B(  3-C , 11-H ) :   0.9397 B( 12-C , 13-H ) :   0.9232 B( 12-C , 14-H ) :   0.9295
B( 12-C , 15-O ) :   0.8487 B( 12-C , 16-C ) :   0.8814 B( 16-C , 17-C ) :   0.9113
B( 16-C , 20-O ) :   0.8313 B( 16-C , 21-H ) :   0.9258 B( 17-C , 18-C ) :   0.9140
B( 17-C , 22-O ) :   0.8944 B( 17-C , 23-H ) :   0.9084 B( 18-C , 19-C ) :   0.9409
B( 18-C , 24-H ) :   0.9377 B( 18-C , 25-H ) :   0.9343 B( 19-C , 20-O ) :   0.8417
B( 19-C , 26-H ) :   0.9342 B( 19-C , 27-H ) :   0.9378 B( 22-O , 28-H ) :   0.7934

FINAL SINGLE POINT ENERGY      -652.857310033084

DIPOLE MOMENT
-------------
                                X             Y             Z
Electronic contribution:     -3.97485      -1.31648       0.88556
Nuclear contribution   :      4.64306       1.38292      -1.57523
                        -----------------------------------------
Total Dipole Moment    :      0.66821       0.06645      -0.68966
                        -----------------------------------------
Magnitude (a.u.)       :      0.96258
Magnitude (Debye)      :      2.44668

Rotational constants in cm-1:     0.055559     0.013477     0.012376
Rotational constants in MHz :  1665.615692   404.029995   371.036482

                             ****ORCA TERMINATED NORMALLY****
TOTAL RUN TIME: 0 days 1 hours 39 minutes 20 seconds 898 msec
