                         Program Version 4.2.0 -  RELEASE  -
|  1> # Test redundant internal optimization
|  2> #
|  3> ! RKS B3LYP  Opt TightSCF SmallPrint
|  4>
|  5> %basis
|  6>         Basis "6-31G"
|  7> end
|  8>
|  9> %geom
| 10> Constraints
| 11> { D 4  0  15  12  270.0   C } # D for Dihedral angle
| 12> { D 0  15  12  16  90.0   C } # D for Dihedral angle
| 13> { D 0  4  3  2   C } # D for Dihedral angle
| 14> { D 4  3  2  1   C } # D for Dihedral angle
| 15> { D 3  2  1  0   C } # D for Dihedral angle
| 16> { D 2  1  0  4   C } # D for Dihedral angle
| 17> { D 1  0  4  3   C } # D for Dihedral angle
| 18> { D 16  20  19  18   C } # D for Dihedral angle
| 19> { D 20  19  18  17   C } # D for Dihedral angle
| 20> { D 19  18  17  16   C } # D for Dihedral angle
| 21> { D 18  17  16  20   C } # D for Dihedral angle
| 22> { D 17  16  20  19   C } # D for Dihedral angle
| 23> { D 15  12  16  20   C } # D for Dihedral angle
| 24> end
| 25> end
| 26>
| 27>
| 28> #%pal
| 29> #nprocs 8
| 30> #end
| 31>
| 32> * xyz 0 1
| 33> C  -21.048   26.222   46.251
| 34> C  -20.361   27.558   45.944
| 35> C  -20.329   28.222   47.341
| 36> C  -20.110   27.022   48.296
| 37> O  -20.473   25.807   47.535
| 38> H  -20.833   25.428   45.533
| 39> H  -19.344   27.382   45.576
| 40> H  -20.898   28.157   45.201
| 41> H  -19.543   28.978   47.434
| 42> H  -21.289   28.710   47.548
| 43> H  -20.733   27.082   49.195
| 44> H  -19.064   26.913   48.597
| 45> C  -23.420   25.119   46.072
| 46> H  -24.391   25.412   45.655
| 47> H  -22.905   24.490   45.334
| 48> O  -22.586   26.394   46.375
| 49> C  -23.672   24.252   47.337
| 50> C  -24.396   22.948   46.983
| 51> C  -23.235   22.085   46.434
| 52> C  -22.031   22.518   47.308
| 53> O  -22.400   23.812   47.920
| 54> H  -24.177   24.859   48.092
| 55> H  -24.821   22.496   47.886
| 56> O  -25.539   23.146   45.950
| 57> H  -23.436   21.011   46.503
| 58> H  -23.053   22.325   45.380
| 59> H  -21.113   22.646   46.724
| 60> H  -21.836   21.818   48.127
| 61> H  -25.137   23.597   45.036
| 62> *
| 63>
| 64>                          ****END OF INPUT****
 Total Charge           Charge          ....    0
 Multiplicity           Mult            ....    1
 Number of Electrons    NEL             ....  102
FINAL SINGLE POINT ENERGY      -652.825372375341
FINAL SINGLE POINT ENERGY      -652.849463288529
FINAL SINGLE POINT ENERGY      -652.855030057423
FINAL SINGLE POINT ENERGY      -652.855850872896
FINAL SINGLE POINT ENERGY      -652.855998905335
FINAL SINGLE POINT ENERGY      -652.856035374452
FINAL SINGLE POINT ENERGY      -652.856039031261
                    ***********************HURRAY********************

CARTESIAN COORDINATES (ANGSTROEM)
---------------------------------
  C    -20.984057   26.218772   46.228220
  C    -20.463344   27.630143   45.958306
  C    -20.444738   28.242568   47.380188
  C    -20.055833   27.038604   48.266538
  O    -20.324099   25.830564   47.448016
  H    -20.725745   25.460419   45.481199
  H    -19.448502   27.568904   45.547601
  H    -21.099193   28.176977   45.259505
  H    -19.740226   29.074856   47.471934
  H    -21.445175   28.603471   47.635947
  H    -20.641539   26.974372   49.186499
  H    -18.989805   27.019442   48.513805
  C    -23.248030   25.165540   46.062533
  H    -24.195856   25.564327   45.687263
  H    -22.775056   24.573578   45.259470
  O    -22.423944   26.326708   46.334475
  C    -23.547271   24.279550   47.277115
  C    -24.396492   23.045840   46.927132
  C    -23.310723   22.034251   46.447458
  C    -22.111268   22.368408   47.361909
  O    -22.367066   23.720788   47.919811
  H    -24.026757   24.903742   48.037493
  H    -24.885981   22.675749   47.830354
  O    -25.480199   23.275517   45.992516
  H    -23.644049   20.996958   46.538634
  H    -23.074354   22.222551   45.391281
  H    -21.154762   22.379349   46.831065
  H    -22.033919   21.682790   48.210940
  H    -25.135018   23.354263   45.079792

 Multiplicity           Mult            ....    1
 Number of Electrons    NEL             ....  102
 Basis Dimension        Dim             ....  149

ORBITAL ENERGIES
----------------

  NO   OCC          E(Eh)            E(eV)
   0   2.0000     -19.148879      -521.0675
   1   2.0000     -19.138829      -520.7940
   2   2.0000     -19.132112      -520.6112
   3   2.0000     -19.127302      -520.4804
   4   2.0000     -10.272416      -279.5267
   5   2.0000     -10.243297      -278.7343
   6   2.0000     -10.230405      -278.3835
   7   2.0000     -10.226335      -278.2727
   8   2.0000     -10.225585      -278.2523
   9   2.0000     -10.214775      -277.9582
  10   2.0000     -10.194371      -277.4029
  11   2.0000     -10.177669      -276.9485
  12   2.0000     -10.177288      -276.9381
  13   2.0000      -1.044743       -28.4289
  14   2.0000      -1.031108       -28.0579
  15   2.0000      -1.012207       -27.5435
  16   2.0000      -0.988469       -26.8976
  17   2.0000      -0.782640       -21.2967
  18   2.0000      -0.778318       -21.1791
  19   2.0000      -0.761916       -20.7328
  20   2.0000      -0.725632       -19.7454
  21   2.0000      -0.676626       -18.4119
  22   2.0000      -0.609637       -16.5891
  23   2.0000      -0.590111       -16.0577
  24   2.0000      -0.589453       -16.0398
  25   2.0000      -0.572776       -15.5860
  26   2.0000      -0.525137       -14.2897
  27   2.0000      -0.509607       -13.8671
  28   2.0000      -0.493757       -13.4358
  29   2.0000      -0.480696       -13.0804
  30   2.0000      -0.461733       -12.5644
  31   2.0000      -0.452290       -12.3074
  32   2.0000      -0.446532       -12.1507
  33   2.0000      -0.427268       -11.6265
  34   2.0000      -0.422531       -11.4977
  35   2.0000      -0.415826       -11.3152
  36   2.0000      -0.404079       -10.9955
  37   2.0000      -0.390868       -10.6361
  38   2.0000      -0.379251       -10.3199
  39   2.0000      -0.363895        -9.9021
  40   2.0000      -0.348975        -9.4961
  41   2.0000      -0.347902        -9.4669
  42   2.0000      -0.340275        -9.2593
  43   2.0000      -0.328840        -8.9482
  44   2.0000      -0.315049        -8.5729
  45   2.0000      -0.311504        -8.4765
  46   2.0000      -0.292209        -7.9514
  47   2.0000      -0.268692        -7.3115
  48   2.0000      -0.264424        -7.1954
  49   2.0000      -0.249503        -6.7893
  50   2.0000      -0.226105        -6.1526
  51   0.0000       0.051016         1.3882
  52   0.0000       0.073100         1.9892
  53   0.0000       0.091712         2.4956
  54   0.0000       0.100146         2.7251
  55   0.0000       0.109703         2.9852

MULLIKEN ATOMIC CHARGES
-----------------------
   0 C :    0.300528
   1 C :   -0.260473
   2 C :   -0.298753
   3 C :   -0.001655
   4 O :   -0.488402
   5 H :    0.129089
   6 H :    0.140618
   7 H :    0.150340
   8 H :    0.136878
   9 H :    0.161506
  10 H :    0.151602
  11 H :    0.137239
  12 C :   -0.017562
  13 H :    0.153687
  14 H :    0.103405
  15 O :   -0.519509
  16 C :    0.098312
  17 C :    0.082642
  18 C :   -0.326552
  19 C :   -0.009637
  20 O :   -0.492086
  21 H :    0.161123
  22 H :    0.167653
  23 O :   -0.600751
  24 H :    0.156953
  25 H :    0.131727
  26 H :    0.147010
  27 H :    0.149996
  28 H :    0.355074
Sum of atomic charges:    0.0000000

LOEWDIN ATOMIC CHARGES
----------------------
   0 C :    0.176825
   1 C :   -0.217924
   2 C :   -0.216723
   3 C :   -0.027391
   4 O :   -0.310139
   5 H :    0.091259
   6 H :    0.111274
   7 H :    0.120242
   8 H :    0.111316
   9 H :    0.118716
  10 H :    0.107880
  11 H :    0.099941
  12 C :   -0.047003
  13 H :    0.115395
  14 H :    0.080950
  15 O :   -0.322370
  16 C :    0.009987
  17 C :    0.034180
  18 C :   -0.243074
  19 C :   -0.029599
  20 O :   -0.304836
  21 H :    0.117528
  22 H :    0.119426
  23 O :   -0.408618
  24 H :    0.122051
  25 H :    0.102448
  26 H :    0.104559
  27 H :    0.106414
  28 H :    0.277286

  Mayer bond orders larger than 0.100000
B(  0-C ,  1-C ) :   0.9455 B(  0-C ,  4-O ) :   0.9315 B(  0-C ,  5-H ) :   0.9208
B(  0-C , 15-O ) :   0.8456 B(  1-C ,  2-C ) :   0.9598 B(  1-C ,  6-H ) :   0.9406
B(  1-C ,  7-H ) :   0.9374 B(  2-C ,  3-C ) :   0.9531 B(  2-C ,  8-H ) :   0.9455
B(  2-C ,  9-H ) :   0.9445 B(  3-C ,  4-O ) :   0.8428 B(  3-C , 10-H ) :   0.9343
B(  3-C , 11-H ) :   0.9402 B( 12-C , 13-H ) :   0.9213 B( 12-C , 14-H ) :   0.9222
B( 12-C , 15-O ) :   0.8702 B( 12-C , 16-C ) :   0.8840 B( 16-C , 17-C ) :   0.8657
B( 16-C , 20-O ) :   0.8794 B( 16-C , 21-H ) :   0.9308 B( 17-C , 18-C ) :   0.9238
B( 17-C , 22-H ) :   0.9330 B( 17-C , 23-O ) :   0.8941 B( 18-C , 19-C ) :   0.9377
B( 18-C , 24-H ) :   0.9419 B( 18-C , 25-H ) :   0.9401 B( 19-C , 20-O ) :   0.8517
B( 19-C , 26-H ) :   0.9305 B( 19-C , 27-H ) :   0.9375 B( 23-O , 28-H ) :   0.7990

FINAL SINGLE POINT ENERGY      -652.856039059250

DIPOLE MOMENT
-------------
                                X             Y             Z
Electronic contribution:     -2.54281      -1.35118       1.15514
Nuclear contribution   :      2.95516       1.14348      -2.02661
                        -----------------------------------------
Total Dipole Moment    :      0.41235      -0.20771      -0.87146
                        -----------------------------------------
Magnitude (a.u.)       :      0.98622
Magnitude (Debye)      :      2.50677

Rotational constants in cm-1:     0.057357     0.014244     0.012679
Rotational constants in MHz :  1719.520943   427.033755   380.098621

                             ****ORCA TERMINATED NORMALLY****
TOTAL RUN TIME: 0 days 0 hours 58 minutes 5 seconds 969 msec
