                         Program Version 4.2.0 -  RELEASE  -
|  1> # Test redundant internal optimization
|  2> #
|  3> ! RKS B3LYP  Opt TightSCF SmallPrint
|  4>
|  5> %basis
|  6>         Basis "6-31G"
|  7> end
|  8>
|  9> %geom
| 10> Constraints
| 11> { D 4  0  15  12  165.0   C } # D for Dihedral angle
| 12> { D 0  15  12  16  45.0   C } # D for Dihedral angle
| 13> { D 0  4  3  2   C } # D for Dihedral angle
| 14> { D 4  3  2  1   C } # D for Dihedral angle
| 15> { D 3  2  1  0   C } # D for Dihedral angle
| 16> { D 2  1  0  4   C } # D for Dihedral angle
| 17> { D 1  0  4  3   C } # D for Dihedral angle
| 18> { D 16  20  19  18   C } # D for Dihedral angle
| 19> { D 20  19  18  17   C } # D for Dihedral angle
| 20> { D 19  18  17  16   C } # D for Dihedral angle
| 21> { D 18  17  16  20   C } # D for Dihedral angle
| 22> { D 17  16  20  19   C } # D for Dihedral angle
| 23> { D 15  12  16  20   C } # D for Dihedral angle
| 24> end
| 25> end
| 26>
| 27>
| 28> #%pal
| 29> #nprocs 8
| 30> #end
| 31>
| 32> * xyz 0 1
| 33> C  -21.048   26.222   46.251
| 34> C  -20.361   27.558   45.944
| 35> C  -20.329   28.222   47.341
| 36> C  -20.110   27.022   48.296
| 37> O  -20.473   25.807   47.535
| 38> H  -20.833   25.428   45.533
| 39> H  -19.344   27.382   45.576
| 40> H  -20.898   28.157   45.201
| 41> H  -19.543   28.978   47.434
| 42> H  -21.289   28.710   47.548
| 43> H  -20.733   27.082   49.195
| 44> H  -19.064   26.913   48.597
| 45> C  -23.260   27.170   45.210
| 46> H  -24.345   27.016   45.253
| 47> H  -23.063   28.246   45.301
| 48> O  -22.586   26.394   46.375
| 49> C  -22.755   26.714   43.813
| 50> C  -23.353   27.577   42.697
| 51> C  -22.469   28.844   42.772
| 52> C  -21.077   28.280   43.154
| 53> O  -21.308   26.924   43.697
| 54> H  -22.933   25.642   43.701
| 55> O  -23.180   26.869   41.325
| 56> H  -24.417   27.792   42.842
| 57> H  -22.448   29.404   41.832
| 58> H  -22.841   29.516   43.555
| 59> H  -20.572   28.888   43.913
| 60> H  -20.418   28.173   42.288
| 61> H  -22.120   26.644   41.158
| 62> *
| 63>
| 64>                          ****END OF INPUT****
 Total Charge           Charge          ....    0
 Multiplicity           Mult            ....    1
 Number of Electrons    NEL             ....  102
FINAL SINGLE POINT ENERGY      -652.805797083867
FINAL SINGLE POINT ENERGY      -652.834859951592
FINAL SINGLE POINT ENERGY      -652.849899403855
FINAL SINGLE POINT ENERGY      -652.852281136904
FINAL SINGLE POINT ENERGY      -652.852723743796
FINAL SINGLE POINT ENERGY      -652.852789194522
FINAL SINGLE POINT ENERGY      -652.852796237829
                    ***********************HURRAY********************

CARTESIAN COORDINATES (ANGSTROEM)
---------------------------------
  C    -20.893646   26.204893   46.301645
  C    -20.081429   27.490675   46.143893
  C    -20.296576   28.184151   47.516962
  C    -20.351056   26.984194   48.486490
  O    -20.624080   25.796458   47.648403
  H    -20.621078   25.386827   45.635046
  H    -19.027458   27.222852   46.003126
  H    -20.386581   28.101646   45.299828
  H    -19.493603   28.885322   47.763865
  H    -21.245791   28.729377   47.519670
  H    -21.141056   27.071601   49.237397
  H    -19.395206   26.801659   48.987834
  C    -23.034159   27.145012   45.198780
  H    -24.085820   26.874804   45.336901
  H    -22.939577   28.230753   45.367714
  O    -22.342965   26.431183   46.254742
  C    -22.643609   26.814553   43.747820
  C    -23.435071   27.609813   42.698025
  C    -22.589165   28.906192   42.579089
  C    -21.138538   28.396495   42.765491
  O    -21.241227   27.056027   43.399960
  H    -22.797251   25.739910   43.595904
  O    -23.501982   26.891997   41.437031
  H    -24.472926   27.797546   42.976181
  H    -22.751354   29.386110   41.610786
  H    -22.866919   29.614384   43.367607
  H    -20.538079   29.051667   43.404752
  H    -20.611506   28.259321   41.816735
  H    -22.622292   26.508577   41.235322

 Multiplicity           Mult            ....    1
 Number of Electrons    NEL             ....  102
 Basis Dimension        Dim             ....  149

ORBITAL ENERGIES
----------------

  NO   OCC          E(Eh)            E(eV)
   0   2.0000     -19.158294      -521.3237
   1   2.0000     -19.147019      -521.0169
   2   2.0000     -19.131804      -520.6029
   3   2.0000     -19.131164      -520.5854
   4   2.0000     -10.271548      -279.5030
   5   2.0000     -10.252313      -278.9796
   6   2.0000     -10.243769      -278.7471
   7   2.0000     -10.243159      -278.7305
   8   2.0000     -10.237463      -278.5755
   9   2.0000     -10.218908      -278.0706
  10   2.0000     -10.200104      -277.5589
  11   2.0000     -10.182124      -277.0697
  12   2.0000     -10.176813      -276.9252
  13   2.0000      -1.050843       -28.5949
  14   2.0000      -1.042474       -28.3672
  15   2.0000      -1.016781       -27.6680
  16   2.0000      -0.983951       -26.7747
  17   2.0000      -0.794045       -21.6071
  18   2.0000      -0.778906       -21.1951
  19   2.0000      -0.774069       -21.0635
  20   2.0000      -0.731130       -19.8951
  21   2.0000      -0.680408       -18.5148
  22   2.0000      -0.614907       -16.7325
  23   2.0000      -0.608558       -16.5597
  24   2.0000      -0.593204       -16.1419
  25   2.0000      -0.567771       -15.4498
  26   2.0000      -0.532456       -14.4889
  27   2.0000      -0.516339       -14.0503
  28   2.0000      -0.498956       -13.5773
  29   2.0000      -0.485275       -13.2050
  30   2.0000      -0.478479       -13.0201
  31   2.0000      -0.460515       -12.5312
  32   2.0000      -0.451159       -12.2766
  33   2.0000      -0.444121       -12.0852
  34   2.0000      -0.429904       -11.6983
  35   2.0000      -0.410832       -11.1793
  36   2.0000      -0.408814       -11.1244
  37   2.0000      -0.397869       -10.8266
  38   2.0000      -0.383007       -10.4222
  39   2.0000      -0.371951       -10.1213
  40   2.0000      -0.363859        -9.9011
  41   2.0000      -0.353908        -9.6303
  42   2.0000      -0.347285        -9.4501
  43   2.0000      -0.340994        -9.2789
  44   2.0000      -0.320771        -8.7286
  45   2.0000      -0.305887        -8.3236
  46   2.0000      -0.294706        -8.0194
  47   2.0000      -0.281384        -7.6568
  48   2.0000      -0.261299        -7.1103
  49   2.0000      -0.250338        -6.8120
  50   2.0000      -0.241145        -6.5619
  51   0.0000       0.052142         1.4189
  52   0.0000       0.076949         2.0939
  53   0.0000       0.086385         2.3507
  54   0.0000       0.090375         2.4592
  55   0.0000       0.098933         2.6921

MULLIKEN ATOMIC CHARGES
-----------------------
   0 C :    0.317970
   1 C :   -0.275393
   2 C :   -0.306803
   3 C :    0.003646
   4 O :   -0.500487
   5 H :    0.155255
   6 H :    0.144698
   7 H :    0.152169
   8 H :    0.138057
   9 H :    0.149554
  10 H :    0.150140
  11 H :    0.139949
  12 C :    0.004940
  13 H :    0.159400
  14 H :    0.116303
  15 O :   -0.529340
  16 C :    0.046265
  17 C :    0.078173
  18 C :   -0.290513
  19 C :   -0.042440
  20 O :   -0.522074
  21 H :    0.170552
  22 O :   -0.599809
  23 H :    0.157519
  24 H :    0.167041
  25 H :    0.146537
  26 H :    0.147122
  27 H :    0.155119
  28 H :    0.366449
Sum of atomic charges:   -0.0000000

LOEWDIN ATOMIC CHARGES
----------------------
   0 C :    0.191924
   1 C :   -0.229310
   2 C :   -0.221492
   3 C :   -0.025868
   4 O :   -0.302685
   5 H :    0.106013
   6 H :    0.116683
   7 H :    0.117542
   8 H :    0.112144
   9 H :    0.111094
  10 H :    0.106819
  11 H :    0.101122
  12 C :   -0.040973
  13 H :    0.121645
  14 H :    0.084765
  15 O :   -0.340044
  16 C :    0.000066
  17 C :    0.038175
  18 C :   -0.239517
  19 C :   -0.041475
  20 O :   -0.328485
  21 H :    0.118386
  22 O :   -0.411630
  23 H :    0.118387
  24 H :    0.129244
  25 H :    0.114384
  26 H :    0.102014
  27 H :    0.106845
  28 H :    0.284225

  Mayer bond orders larger than 0.100000
B(  0-C ,  1-C ) :   0.9359 B(  0-C ,  4-O ) :   0.9287 B(  0-C ,  5-H ) :   0.9236
B(  0-C , 15-O ) :   0.8139 B(  1-C ,  2-C ) :   0.9436 B(  1-C ,  6-H ) :   0.9372
B(  1-C ,  7-H ) :   0.9190 B(  2-C ,  3-C ) :   0.9538 B(  2-C ,  8-H ) :   0.9453
B(  2-C ,  9-H ) :   0.9465 B(  3-C ,  4-O ) :   0.8372 B(  3-C , 10-H ) :   0.9356
B(  3-C , 11-H ) :   0.9400 B( 12-C , 13-H ) :   0.9244 B( 12-C , 14-H ) :   0.9161
B( 12-C , 15-O ) :   0.8665 B( 12-C , 16-C ) :   0.8896 B( 16-C , 17-C ) :   0.8942
B( 16-C , 20-O ) :   0.8473 B( 16-C , 21-H ) :   0.9219 B( 17-C , 18-C ) :   0.9118
B( 17-C , 22-O ) :   0.8945 B( 17-C , 23-H ) :   0.9331 B( 18-C , 19-C ) :   0.9419
B( 18-C , 24-H ) :   0.9361 B( 18-C , 25-H ) :   0.9334 B( 19-C , 20-O ) :   0.8391
B( 19-C , 26-H ) :   0.9251 B( 19-C , 27-H ) :   0.9379 B( 22-O , 28-H ) :   0.7941

FINAL SINGLE POINT ENERGY      -652.852795657578

DIPOLE MOMENT
-------------
                                X             Y             Z
Electronic contribution:     -1.82187      -6.16631      -0.96711
Nuclear contribution   :      2.23731       7.75567       0.45238
                        -----------------------------------------
Total Dipole Moment    :      0.41543       1.58936      -0.51473
                        -----------------------------------------
Magnitude (a.u.)       :      1.72151
Magnitude (Debye)      :      4.37573

Rotational constants in cm-1:     0.063276     0.013895     0.012930
Rotational constants in MHz :  1896.975077   416.557123   387.616780

                             ****ORCA TERMINATED NORMALLY****
TOTAL RUN TIME: 0 days 0 hours 23 minutes 59 seconds 777 msec
