                         Program Version 4.2.1 -  RELEASE  -
|  1> # Test redundant internal optimization
|  2> #
|  3> ! RKS B3LYP  Opt TightSCF SmallPrint
|  4>
|  5> %basis
|  6>         Basis "6-31G"
|  7> end
|  8>
|  9> %geom
| 10> Constraints
| 11> { D 4  0  19  14  165.0   C } # D for Dihedral angle
| 12> { D 0  19  14  12  135.0   C } # D for Dihedral angle
| 13> { D 0  4  3  2   C } # D for Dihedral angle
| 14> { D 4  3  2  1   C } # D for Dihedral angle
| 15> { D 3  2  1  0   C } # D for Dihedral angle
| 16> { D 2  1  0  4   C } # D for Dihedral angle
| 17> { D 1  0  4  3   C } # D for Dihedral angle
| 18> { D 14  15  16  17   C } # D for Dihedral angle
| 19> { D 15  16  17  12   C } # D for Dihedral angle
| 20> { D 16  17  12  14   C } # D for Dihedral angle
| 21> { D 17  12  14  15   C } # D for Dihedral angle
| 22> { D 12  14  15  16   C } # D for Dihedral angle
| 23> end
| 24> end
| 25>
| 26>
| 27> #%pal
| 28> #nprocs 8
| 29> #end
| 30>
| 31> * xyz 0 1
| 32> C  -21.048   26.222   46.251
| 33> C  -20.361   27.558   45.944
| 34> C  -20.329   28.222   47.341
| 35> C  -20.110   27.022   48.296
| 36> O  -20.473   25.807   47.535
| 37> H  -20.833   25.428   45.533
| 38> H  -19.344   27.382   45.576
| 39> H  -20.898   28.157   45.201
| 40> H  -19.543   28.978   47.434
| 41> H  -21.289   28.710   47.548
| 42> H  -20.733   27.082   49.195
| 43> H  -19.064   26.913   48.597
| 44> C  -24.350   26.382   44.818
| 45> H  -24.670   26.734   43.824
| 46> C  -23.077   27.101   45.280
| 47> C  -23.641   28.455   45.769
| 48> C  -25.013   28.067   46.375
| 49> O  -25.351   26.734   45.831
| 50> H  -24.276   25.294   44.806
| 51> O  -22.472   26.381   46.366
| 52> H  -22.334   27.213   44.483
| 53> H  -22.989   28.950   46.496
| 54> H  -23.774   29.138   44.920
| 55> H  -25.806   28.775   46.109
| 56> H  -24.976   27.970   47.465
| 57> *
| 58>
| 59>                          ****END OF INPUT****
 Total Charge           Charge          ....    0
 Multiplicity           Mult            ....    1
 Number of Electrons    NEL             ....   86
FINAL SINGLE POINT ENERGY      -538.419210106424
FINAL SINGLE POINT ENERGY      -538.424559061548
FINAL SINGLE POINT ENERGY      -538.424945063938
FINAL SINGLE POINT ENERGY      -538.425020506363
FINAL SINGLE POINT ENERGY      -538.425030281592
FINAL SINGLE POINT ENERGY      -538.425033482385
                    ***********************HURRAY********************

CARTESIAN COORDINATES (ANGSTROEM)
---------------------------------
  C    -21.000787   26.253506   46.219306
  C    -20.213692   27.538212   45.955746
  C    -20.244619   28.231202   47.345812
  C    -20.173104   27.032351   48.316123
  O    -20.557982   25.842842   47.517623
  H    -20.777232   25.432954   45.530183
  H    -19.187530   27.267158   45.682927
  H    -20.620474   28.164380   45.157567
  H    -19.411293   28.927298   47.481163
  H    -21.177954   28.784964   47.477955
  H    -20.858665   27.120915   49.162468
  H    -19.160937   26.846128   48.686547
  C    -24.387207   26.376977   44.831190
  H    -24.766078   26.709301   43.852649
  C    -23.130635   27.157557   45.221265
  C    -23.732098   28.479127   45.740307
  C    -25.046512   28.027846   46.421346
  O    -25.345504   26.678975   45.894921
  H    -24.227742   25.297993   44.825653
  O    -22.450154   26.431662   46.290087
  H    -22.464218   27.306449   44.363054
  H    -23.056964   28.996410   46.424818
  H    -23.937882   29.143318   44.891783
  H    -25.885295   28.696821   46.197433
  H    -24.939445   27.930654   47.505075

 Multiplicity           Mult            ....    1
 Number of Electrons    NEL             ....   86
 Basis Dimension        Dim             ....  127

ORBITAL ENERGIES
----------------

  NO   OCC          E(Eh)            E(eV)
   0   2.0000     -19.141528      -520.8675
   1   2.0000     -19.136991      -520.7440
   2   2.0000     -19.126025      -520.4456
   3   2.0000     -10.281932      -279.7856
   4   2.0000     -10.243024      -278.7269
   5   2.0000     -10.227439      -278.3028
   6   2.0000     -10.220186      -278.1054
   7   2.0000     -10.220164      -278.1048
   8   2.0000     -10.193726      -277.3854
   9   2.0000     -10.192995      -277.3655
  10   2.0000     -10.188700      -277.2486
  11   2.0000      -1.053515       -28.6676
  12   2.0000      -1.013894       -27.5895
  13   2.0000      -0.988198       -26.8902
  14   2.0000      -0.790684       -21.5156
  15   2.0000      -0.783786       -21.3279
  16   2.0000      -0.741691       -20.1824
  17   2.0000      -0.724946       -19.7268
  18   2.0000      -0.616696       -16.7812
  19   2.0000      -0.601258       -16.3611
  20   2.0000      -0.598666       -16.2905
  21   2.0000      -0.570825       -15.5329
  22   2.0000      -0.523364       -14.2415
  23   2.0000      -0.505452       -13.7540
  24   2.0000      -0.492705       -13.4072
  25   2.0000      -0.481749       -13.1091
  26   2.0000      -0.452444       -12.3116
  27   2.0000      -0.442910       -12.0522
  28   2.0000      -0.432252       -11.7622
  29   2.0000      -0.420555       -11.4439
  30   2.0000      -0.409845       -11.1525
  31   2.0000      -0.384750       -10.4696
  32   2.0000      -0.374784       -10.1984
  33   2.0000      -0.367722       -10.0062
  34   2.0000      -0.365848        -9.9552
  35   2.0000      -0.357882        -9.7385
  36   2.0000      -0.354534        -9.6474
  37   2.0000      -0.316134        -8.6024
  38   2.0000      -0.301972        -8.2171
  39   2.0000      -0.295845        -8.0504
  40   2.0000      -0.260406        -7.0860
  41   2.0000      -0.254738        -6.9318
  42   2.0000      -0.229832        -6.2541
  43   0.0000       0.068789         1.8718
  44   0.0000       0.087159         2.3717
  45   0.0000       0.093772         2.5517
  46   0.0000       0.107666         2.9297
  47   0.0000       0.117890         3.2079

MULLIKEN ATOMIC CHARGES
-----------------------
   0 C :    0.311938
   1 C :   -0.290472
   2 C :   -0.306139
   3 C :    0.000092
   4 O :   -0.497392
   5 H :    0.144924
   6 H :    0.152233
   7 H :    0.142424
   8 H :    0.144835
   9 H :    0.157954
  10 H :    0.155406
  11 H :    0.143442
  12 C :    0.015876
  13 H :    0.117187
  14 C :    0.047446
  15 C :   -0.299930
  16 C :    0.002480
  17 O :   -0.515786
  18 H :    0.166720
  19 O :   -0.505707
  20 H :    0.126135
  21 H :    0.153988
  22 H :    0.140096
  23 H :    0.134375
  24 H :    0.157876
Sum of atomic charges:   -0.0000000

LOEWDIN ATOMIC CHARGES
----------------------
   0 C :    0.184514
   1 C :   -0.235000
   2 C :   -0.217730
   3 C :   -0.025250
   4 O :   -0.300308
   5 H :    0.097610
   6 H :    0.119209
   7 H :    0.112517
   8 H :    0.115524
   9 H :    0.111992
  10 H :    0.109975
  11 H :    0.103344
  12 C :   -0.036018
  13 H :    0.087991
  14 C :    0.033347
  15 C :   -0.234372
  16 C :   -0.028108
  17 O :   -0.326407
  18 H :    0.122710
  19 O :   -0.329703
  20 H :    0.096102
  21 H :    0.118621
  22 H :    0.111658
  23 H :    0.097674
  24 H :    0.110107

  Mayer bond orders larger than 0.100000
B(  0-C ,  1-C ) :   0.9257 B(  0-C ,  4-O ) :   0.9381 B(  0-C ,  5-H ) :   0.9230
B(  0-C , 19-O ) :   0.8456 B(  1-C ,  2-C ) :   0.9511 B(  1-C ,  6-H ) :   0.9329
B(  1-C ,  7-H ) :   0.9295 B(  2-C ,  3-C ) :   0.9541 B(  2-C ,  8-H ) :   0.9447
B(  2-C ,  9-H ) :   0.9364 B(  3-C ,  4-O ) :   0.8367 B(  3-C , 10-H ) :   0.9340
B(  3-C , 11-H ) :   0.9397 B( 12-C , 13-H ) :   0.9135 B( 12-C , 14-C ) :   0.9270
B( 12-C , 17-O ) :   0.8749 B( 12-C , 18-H ) :   0.9310 B( 14-C , 15-C ) :   0.9388
B( 14-C , 19-O ) :   0.8364 B( 14-C , 20-H ) :   0.9171 B( 15-C , 16-C ) :   0.9487
B( 15-C , 21-H ) :   0.9321 B( 15-C , 22-H ) :   0.9370 B( 16-C , 17-O ) :   0.8597
B( 16-C , 23-H ) :   0.9326 B( 16-C , 24-H ) :   0.9346

FINAL SINGLE POINT ENERGY      -538.425033770743

DIPOLE MOMENT
-------------
                                X             Y             Z
Electronic contribution:     -1.88169      -5.44022       0.75192
Nuclear contribution   :      2.92063       6.96604      -1.52943
                        -----------------------------------------
Total Dipole Moment    :      1.03894       1.52583      -0.77751
                        -----------------------------------------
Magnitude (a.u.)       :      2.00301
Magnitude (Debye)      :      5.09125

Rotational constants in cm-1:     0.076705     0.021459     0.020553
Rotational constants in MHz :  2299.559959   643.312824   616.177626

                             ****ORCA TERMINATED NORMALLY****
TOTAL RUN TIME: 0 days 0 hours 6 minutes 40 seconds 403 msec
