                         Program Version 4.2.0 -  RELEASE  -
|  1> # Test redundant internal optimization
|  2> #
|  3> ! RKS B3LYP  Opt TightSCF SmallPrint
|  4>
|  5> %basis
|  6>         Basis "6-31G"
|  7> end
|  8>
|  9> %geom
| 10> Constraints
| 11> { D 4  0  15  12  210.0   C } # D for Dihedral angle
| 12> { D 0  15  12  16  120.0   C } # D for Dihedral angle
| 13> { D 0  4  3  2   C } # D for Dihedral angle
| 14> { D 4  3  2  1   C } # D for Dihedral angle
| 15> { D 3  2  1  0   C } # D for Dihedral angle
| 16> { D 2  1  0  4   C } # D for Dihedral angle
| 17> { D 1  0  4  3   C } # D for Dihedral angle
| 18> { D 16  20  19  18   C } # D for Dihedral angle
| 19> { D 20  19  18  17   C } # D for Dihedral angle
| 20> { D 19  18  17  16   C } # D for Dihedral angle
| 21> { D 18  17  16  20   C } # D for Dihedral angle
| 22> { D 17  16  20  19   C } # D for Dihedral angle
| 23> { D 15  12  16  20   C } # D for Dihedral angle
| 24> end
| 25> end
| 26>
| 27>
| 28> #%pal
| 29> #nprocs 8
| 30> #end
| 31>
| 32> * xyz 0 1
| 33> C  -21.048   26.222   46.251
| 34> C  -20.361   27.558   45.944
| 35> C  -20.329   28.222   47.341
| 36> C  -20.110   27.022   48.296
| 37> O  -20.473   25.807   47.535
| 38> H  -20.833   25.428   45.533
| 39> H  -19.344   27.382   45.576
| 40> H  -20.898   28.157   45.201
| 41> H  -19.543   28.978   47.434
| 42> H  -21.289   28.710   47.548
| 43> H  -20.733   27.082   49.195
| 44> H  -19.064   26.913   48.597
| 45> C  -23.389   26.110   45.076
| 46> H  -23.933   27.017   44.782
| 47> H  -22.711   25.836   44.258
| 48> O  -22.586   26.394   46.375
| 49> C  -24.417   24.957   45.245
| 50> C  -25.107   24.628   43.917
| 51> C  -24.031   23.772   43.208
| 52> C  -23.378   22.991   44.376
| 53> O  -23.735   23.713   45.616
| 54> H  -25.100   25.203   46.061
| 55> O  -26.390   23.792   44.176
| 56> H  -25.386   25.519   43.344
| 57> H  -24.451   23.108   42.445
| 58> H  -23.296   24.421   42.718
| 59> H  -22.286   22.944   44.290
| 60> H  -23.770   21.974   44.470
| 61> H  -26.135   22.893   44.748
| 62> *
| 63>
| 64>                          ****END OF INPUT****
 Total Charge           Charge          ....    0
 Multiplicity           Mult            ....    1
 Number of Electrons    NEL             ....  102
FINAL SINGLE POINT ENERGY      -652.830445268718
FINAL SINGLE POINT ENERGY      -652.853269184168
FINAL SINGLE POINT ENERGY      -652.856875614449
FINAL SINGLE POINT ENERGY      -652.857564956232
FINAL SINGLE POINT ENERGY      -652.857658832842
FINAL SINGLE POINT ENERGY      -652.857668979713
                    ***********************HURRAY********************

CARTESIAN COORDINATES (ANGSTROEM)
---------------------------------
  C    -21.054114   26.218048   46.156220
  C    -20.381969   27.573477   45.948882
  C    -20.455086   28.188876   47.367379
  C    -20.272296   26.960580   48.283564
  O    -20.565099   25.778549   47.430667
  H    -20.800751   25.445296   45.423730
  H    -19.339542   27.421766   45.642950
  H    -20.881519   28.183011   45.190529
  H    -19.691859   28.954521   47.534688
  H    -21.440195   28.639418   47.521387
  H    -20.955537   26.951712   49.136051
  H    -19.244295   26.842710   48.639107
  C    -23.250688   26.140318   45.012642
  H    -23.800336   27.058774   44.766647
  H    -22.571670   25.916235   44.177239
  O    -22.499403   26.364763   46.232633
  C    -24.235136   24.990856   45.224792
  C    -25.068007   24.622927   43.988621
  C    -24.087722   23.707824   43.208928
  C    -23.333575   22.960652   44.337832
  O    -23.545288   23.746827   45.578041
  H    -24.874745   25.236024   46.077648
  O    -26.276342   23.911228   44.371367
  H    -25.410064   25.482223   43.409266
  H    -24.635333   23.036305   42.542946
  H    -23.403459   24.311234   42.601129
  H    -22.259331   22.875182   44.147579
  H    -23.734426   21.958547   44.518188
  H    -26.058211   23.275116   45.085349

 Multiplicity           Mult            ....    1
 Number of Electrons    NEL             ....  102
 Basis Dimension        Dim             ....  149

ORBITAL ENERGIES
----------------

  NO   OCC          E(Eh)            E(eV)
   0   2.0000     -19.141415      -520.8644
   1   2.0000     -19.138930      -520.7968
   2   2.0000     -19.136783      -520.7383
   3   2.0000     -19.135783      -520.7111
   4   2.0000     -10.276972      -279.6506
   5   2.0000     -10.244159      -278.7578
   6   2.0000     -10.235781      -278.5298
   7   2.0000     -10.232545      -278.4417
   8   2.0000     -10.231027      -278.4004
   9   2.0000     -10.221103      -278.1303
  10   2.0000     -10.191716      -277.3307
  11   2.0000     -10.184041      -277.1218
  12   2.0000     -10.183579      -277.1093
  13   2.0000      -1.050345       -28.5813
  14   2.0000      -1.036056       -28.1925
  15   2.0000      -1.006687       -27.3934
  16   2.0000      -0.990981       -26.9660
  17   2.0000      -0.787352       -21.4249
  18   2.0000      -0.781918       -21.2771
  19   2.0000      -0.767535       -20.8857
  20   2.0000      -0.729414       -19.8484
  21   2.0000      -0.675733       -18.3876
  22   2.0000      -0.604852       -16.4589
  23   2.0000      -0.598504       -16.2861
  24   2.0000      -0.591413       -16.0932
  25   2.0000      -0.583709       -15.8835
  26   2.0000      -0.526721       -14.3328
  27   2.0000      -0.508703       -13.8425
  28   2.0000      -0.496902       -13.5214
  29   2.0000      -0.487484       -13.2651
  30   2.0000      -0.475327       -12.9343
  31   2.0000      -0.458488       -12.4761
  32   2.0000      -0.451968       -12.2987
  33   2.0000      -0.445066       -12.1109
  34   2.0000      -0.422157       -11.4875
  35   2.0000      -0.411473       -11.1967
  36   2.0000      -0.395761       -10.7692
  37   2.0000      -0.394882       -10.7453
  38   2.0000      -0.374252       -10.1839
  39   2.0000      -0.370411       -10.0794
  40   2.0000      -0.362219        -9.8565
  41   2.0000      -0.354527        -9.6472
  42   2.0000      -0.349572        -9.5123
  43   2.0000      -0.333755        -9.0819
  44   2.0000      -0.309364        -8.4182
  45   2.0000      -0.306971        -8.3531
  46   2.0000      -0.304036        -8.2732
  47   2.0000      -0.271935        -7.3997
  48   2.0000      -0.263017        -7.1571
  49   2.0000      -0.251014        -6.8304
  50   2.0000      -0.236922        -6.4470
  51   0.0000       0.059960         1.6316
  52   0.0000       0.083839         2.2814
  53   0.0000       0.085038         2.3140
  54   0.0000       0.099568         2.7094
  55   0.0000       0.107932         2.9370

MULLIKEN ATOMIC CHARGES
-----------------------
   0 C :    0.300312
   1 C :   -0.262568
   2 C :   -0.299810
   3 C :   -0.000952
   4 O :   -0.497139
   5 H :    0.138137
   6 H :    0.141342
   7 H :    0.139802
   8 H :    0.140448
   9 H :    0.161171
  10 H :    0.155213
  11 H :    0.139692
  12 C :   -0.012307
  13 H :    0.137654
  14 H :    0.119494
  15 O :   -0.503218
  16 C :    0.072911
  17 C :    0.077660
  18 C :   -0.292408
  19 C :   -0.035657
  20 O :   -0.505940
  21 H :    0.172480
  22 O :   -0.601955
  23 H :    0.149793
  24 H :    0.163839
  25 H :    0.137754
  26 H :    0.147796
  27 H :    0.149544
  28 H :    0.366910
Sum of atomic charges:   -0.0000000

LOEWDIN ATOMIC CHARGES
----------------------
   0 C :    0.182782
   1 C :   -0.229465
   2 C :   -0.217075
   3 C :   -0.025310
   4 O :   -0.301341
   5 H :    0.096657
   6 H :    0.111819
   7 H :    0.113236
   8 H :    0.113516
   9 H :    0.118769
  10 H :    0.109818
  11 H :    0.101323
  12 C :   -0.040570
  13 H :    0.103197
  14 H :    0.091684
  15 O :   -0.327160
  16 C :    0.011979
  17 C :    0.034117
  18 C :   -0.241062
  19 C :   -0.040696
  20 O :   -0.319160
  21 H :    0.122448
  22 O :   -0.413866
  23 H :    0.114316
  24 H :    0.127424
  25 H :    0.109622
  26 H :    0.104111
  27 H :    0.104329
  28 H :    0.284559

  Mayer bond orders larger than 0.100000
B(  0-C ,  1-C ) :   0.9303 B(  0-C ,  4-O ) :   0.9414 B(  0-C ,  5-H ) :   0.9188
B(  0-C , 15-O ) :   0.8300 B(  1-C ,  2-C ) :   0.9551 B(  1-C ,  6-H ) :   0.9345
B(  1-C ,  7-H ) :   0.9389 B(  2-C ,  3-C ) :   0.9549 B(  2-C ,  8-H ) :   0.9452
B(  2-C ,  9-H ) :   0.9437 B(  3-C ,  4-O ) :   0.8379 B(  3-C , 10-H ) :   0.9341
B(  3-C , 11-H ) :   0.9397 B( 12-C , 13-H ) :   0.9213 B( 12-C , 14-H ) :   0.9193
B( 12-C , 15-O ) :   0.8591 B( 12-C , 16-C ) :   0.8900 B( 16-C , 17-C ) :   0.8969
B( 16-C , 20-O ) :   0.8675 B( 16-C , 21-H ) :   0.9237 B( 17-C , 18-C ) :   0.9080
B( 17-C , 22-O ) :   0.8935 B( 17-C , 23-H ) :   0.9330 B( 18-C , 19-C ) :   0.9420
B( 18-C , 24-H ) :   0.9375 B( 18-C , 25-H ) :   0.9348 B( 19-C , 20-O ) :   0.8526
B( 19-C , 26-H ) :   0.9333 B( 19-C , 27-H ) :   0.9370 B( 22-O , 28-H ) :   0.7931

FINAL SINGLE POINT ENERGY      -652.857671465692

DIPOLE MOMENT
-------------
                                X             Y             Z
Electronic contribution:     -3.35861      -3.36356       2.41262
Nuclear contribution   :      4.07740       4.06840      -3.42928
                        -----------------------------------------
Total Dipole Moment    :      0.71879       0.70484      -1.01666
                        -----------------------------------------
Magnitude (a.u.)       :      1.43075
Magnitude (Debye)      :      3.63668

Rotational constants in cm-1:     0.068695     0.011624     0.011283
Rotational constants in MHz :  2059.413525   348.472172   338.270601

                             ****ORCA TERMINATED NORMALLY****
TOTAL RUN TIME: 0 days 0 hours 22 minutes 1 seconds 949 msec
