                         Program Version 4.2.0 -  RELEASE  -
|  1> # Test redundant internal optimization
|  2> #
|  3> ! RKS B3LYP  Opt TightSCF SmallPrint
|  4>
|  5> %basis
|  6>         Basis "6-31G"
|  7> end
|  8>
|  9> %geom
| 10> Constraints
| 11> { D 4  0  15  12  75.0   C } # D for Dihedral angle
| 12> { D 0  15  12  16  120.0   C } # D for Dihedral angle
| 13> { D 0  4  3  2   C } # D for Dihedral angle
| 14> { D 4  3  2  1   C } # D for Dihedral angle
| 15> { D 3  2  1  0   C } # D for Dihedral angle
| 16> { D 2  1  0  4   C } # D for Dihedral angle
| 17> { D 1  0  4  3   C } # D for Dihedral angle
| 18> { D 16  20  19  18   C } # D for Dihedral angle
| 19> { D 20  19  18  17   C } # D for Dihedral angle
| 20> { D 19  18  17  16   C } # D for Dihedral angle
| 21> { D 18  17  16  20   C } # D for Dihedral angle
| 22> { D 17  16  20  19   C } # D for Dihedral angle
| 23> { D 15  12  16  20   C } # D for Dihedral angle
| 24> end
| 25> end
| 26>
| 27>
| 28> #%pal
| 29> #nprocs 8
| 30> #end
| 31>
| 32> * xyz 0 1
| 33> C  -21.048   26.222   46.251
| 34> C  -20.361   27.558   45.944
| 35> C  -20.329   28.222   47.341
| 36> C  -20.110   27.022   48.296
| 37> O  -20.473   25.807   47.535
| 38> H  -20.833   25.428   45.533
| 39> H  -19.344   27.382   45.576
| 40> H  -20.898   28.157   45.201
| 41> H  -19.543   28.978   47.434
| 42> H  -21.289   28.710   47.548
| 43> H  -20.733   27.082   49.195
| 44> H  -19.064   26.913   48.597
| 45> C  -23.049   27.675   47.122
| 46> H  -23.631   27.387   48.006
| 47> H  -22.182   28.259   47.457
| 48> O  -22.586   26.394   46.375
| 49> C  -23.929   28.601   46.237
| 50> C  -23.212   28.972   44.934
| 51> C  -23.428   27.697   44.084
| 52> C  -24.839   27.223   44.512
| 53> O  -25.136   27.893   45.797
| 54> H  -24.259   29.455   46.831
| 55> O  -23.906   30.195   44.274
| 56> H  -22.153   29.212   45.078
| 57> H  -23.360   27.888   43.008
| 58> H  -22.673   26.943   44.338
| 59> H  -24.893   26.138   44.651
| 60> H  -25.615   27.528   43.803
| 61> H  -24.968   29.976   44.120
| 62> *
| 63>
| 64>                          ****END OF INPUT****
 Total Charge           Charge          ....    0
 Multiplicity           Mult            ....    1
 Number of Electrons    NEL             ....  102
FINAL SINGLE POINT ENERGY      -652.771147948315
FINAL SINGLE POINT ENERGY      -652.824384193710
FINAL SINGLE POINT ENERGY      -652.845265666612
FINAL SINGLE POINT ENERGY      -652.850309413855
FINAL SINGLE POINT ENERGY      -652.851360901758
FINAL SINGLE POINT ENERGY      -652.851577635003
FINAL SINGLE POINT ENERGY      -652.851648709871
FINAL SINGLE POINT ENERGY      -652.851660488839
FINAL SINGLE POINT ENERGY      -652.851660709299
                    ***********************HURRAY********************

CARTESIAN COORDINATES (ANGSTROEM)
---------------------------------
  C    -21.184855   26.289746   46.504831
  C    -20.251457   27.398459   45.990070
  C    -19.937790   28.197408   47.294475
  C    -19.900470   27.074646   48.363824
  O    -20.595389   25.910516   47.769139
  H    -21.140375   25.391680   45.886448
  H    -19.342007   26.925231   45.606914
  H    -20.685928   28.008706   45.196228
  H    -18.981162   28.725725   47.231243
  H    -20.706838   28.944361   47.505533
  H    -20.400208   27.350881   49.297180
  H    -18.879134   26.754963   48.589289
  C    -23.246048   27.680881   47.154783
  H    -23.913417   27.298830   47.933889
  H    -22.521820   28.350413   47.628367
  O    -22.612004   26.505628   46.564639
  C    -24.105130   28.478503   46.168454
  C    -23.424888   29.075026   44.926901
  C    -23.444215   27.871554   43.943632
  C    -24.784085   27.170992   44.285518
  O    -25.188284   27.662930   45.621609
  H    -24.579811   29.281015   46.747374
  O    -24.187186   30.206490   44.420910
  H    -22.426860   29.471574   45.115525
  H    -23.395484   28.219258   42.908066
  H    -22.604789   27.205401   44.144256
  H    -24.684638   26.083534   44.330421
  H    -25.587587   27.431723   43.588438
  H    -25.132139   29.950927   44.360044

 Multiplicity           Mult            ....    1
 Number of Electrons    NEL             ....  102
 Basis Dimension        Dim             ....  149

ORBITAL ENERGIES
----------------

  NO   OCC          E(Eh)            E(eV)
   0   2.0000     -19.147994      -521.0434
   1   2.0000     -19.144775      -520.9558
   2   2.0000     -19.139680      -520.8172
   3   2.0000     -19.139510      -520.8126
   4   2.0000     -10.284848      -279.8649
   5   2.0000     -10.243024      -278.7269
   6   2.0000     -10.236277      -278.5433
   7   2.0000     -10.234886      -278.5054
   8   2.0000     -10.233613      -278.4708
   9   2.0000     -10.225694      -278.2553
  10   2.0000     -10.200484      -277.5693
  11   2.0000     -10.199572      -277.5445
  12   2.0000     -10.184134      -277.1244
  13   2.0000      -1.054996       -28.7079
  14   2.0000      -1.036224       -28.1971
  15   2.0000      -1.007374       -27.4120
  16   2.0000      -0.997182       -27.1347
  17   2.0000      -0.794838       -21.6286
  18   2.0000      -0.782305       -21.2876
  19   2.0000      -0.771350       -20.9895
  20   2.0000      -0.739103       -20.1120
  21   2.0000      -0.681768       -18.5519
  22   2.0000      -0.612508       -16.6672
  23   2.0000      -0.608749       -16.5649
  24   2.0000      -0.602152       -16.3854
  25   2.0000      -0.569960       -15.5094
  26   2.0000      -0.522366       -14.2143
  27   2.0000      -0.519536       -14.1373
  28   2.0000      -0.506956       -13.7950
  29   2.0000      -0.494431       -13.4541
  30   2.0000      -0.472476       -12.8567
  31   2.0000      -0.456508       -12.4222
  32   2.0000      -0.450839       -12.2680
  33   2.0000      -0.440450       -11.9852
  34   2.0000      -0.430233       -11.7072
  35   2.0000      -0.425090       -11.5673
  36   2.0000      -0.408034       -11.1032
  37   2.0000      -0.391881       -10.6636
  38   2.0000      -0.387131       -10.5344
  39   2.0000      -0.371760       -10.1161
  40   2.0000      -0.369870       -10.0647
  41   2.0000      -0.362629        -9.8676
  42   2.0000      -0.352004        -9.5785
  43   2.0000      -0.331581        -9.0228
  44   2.0000      -0.318797        -8.6749
  45   2.0000      -0.307008        -8.3541
  46   2.0000      -0.304384        -8.2827
  47   2.0000      -0.273404        -7.4397
  48   2.0000      -0.268719        -7.3122
  49   2.0000      -0.260373        -7.0851
  50   2.0000      -0.239748        -6.5239
  51   0.0000       0.058406         1.5893
  52   0.0000       0.070657         1.9227
  53   0.0000       0.085211         2.3187
  54   0.0000       0.095539         2.5997
  55   0.0000       0.106413         2.8956

MULLIKEN ATOMIC CHARGES
-----------------------
   0 C :    0.308802
   1 C :   -0.292979
   2 C :   -0.318972
   3 C :   -0.008344
   4 O :   -0.502100
   5 H :    0.165677
   6 H :    0.161192
   7 H :    0.149704
   8 H :    0.148817
   9 H :    0.152333
  10 H :    0.146383
  11 H :    0.149563
  12 C :   -0.006334
  13 H :    0.170748
  14 H :    0.119716
  15 O :   -0.523414
  16 C :    0.073467
  17 C :    0.070088
  18 C :   -0.290693
  19 C :   -0.025518
  20 O :   -0.521333
  21 H :    0.152787
  22 O :   -0.604005
  23 H :    0.146058
  24 H :    0.151887
  25 H :    0.160817
  26 H :    0.162744
  27 H :    0.138543
  28 H :    0.364365
Sum of atomic charges:   -0.0000000

LOEWDIN ATOMIC CHARGES
----------------------
   0 C :    0.174513
   1 C :   -0.232707
   2 C :   -0.224213
   3 C :   -0.033151
   4 O :   -0.317820
   5 H :    0.112435
   6 H :    0.125393
   7 H :    0.115598
   8 H :    0.117432
   9 H :    0.107255
  10 H :    0.103798
  11 H :    0.106049
  12 C :   -0.040009
  13 H :    0.121673
  14 H :    0.096656
  15 O :   -0.319566
  16 C :    0.010079
  17 C :    0.035078
  18 C :   -0.241022
  19 C :   -0.034324
  20 O :   -0.327196
  21 H :    0.115027
  22 O :   -0.415434
  23 H :    0.109853
  24 H :    0.120185
  25 H :    0.120741
  26 H :    0.113289
  27 H :    0.097290
  28 H :    0.283100

  Mayer bond orders larger than 0.100000
B(  0-C ,  1-C ) :   0.9133 B(  0-C ,  4-O ) :   0.9020 B(  0-C ,  5-H ) :   0.9359
B(  0-C , 15-O ) :   0.8952 B(  1-C ,  2-C ) :   0.9544 B(  1-C ,  6-H ) :   0.9334
B(  1-C ,  7-H ) :   0.9257 B(  2-C ,  3-C ) :   0.9441 B(  2-C ,  8-H ) :   0.9442
B(  2-C ,  9-H ) :   0.9358 B(  3-C ,  4-O ) :   0.8480 B(  3-C , 10-H ) :   0.9340
B(  3-C , 11-H ) :   0.9384 B( 12-C , 13-H ) :   0.9266 B( 12-C , 14-H ) :   0.9003
B( 12-C , 15-O ) :   0.8454 B( 12-C , 16-C ) :   0.8990 B( 16-C , 17-C ) :   0.9075
B( 16-C , 20-O ) :   0.8719 B( 16-C , 21-H ) :   0.9186 B( 17-C , 18-C ) :   0.9228
B( 17-C , 22-O ) :   0.8862 B( 17-C , 23-H ) :   0.9292 B( 18-C , 19-C ) :   0.9449
B( 18-C , 24-H ) :   0.9369 B( 18-C , 25-H ) :   0.9197 B( 19-C , 20-O ) :   0.8414
B( 19-C , 26-H ) :   0.9316 B( 19-C , 27-H ) :   0.9362 B( 22-O , 28-H ) :   0.7948

FINAL SINGLE POINT ENERGY      -652.851659584833

DIPOLE MOMENT
-------------
                                X             Y             Z
Electronic contribution:     -4.49432      -2.03552       0.81298
Nuclear contribution   :      5.43705       2.59322      -1.02534
                        -----------------------------------------
Total Dipole Moment    :      0.94273       0.55770      -0.21236
                        -----------------------------------------
Magnitude (a.u.)       :      1.11573
Magnitude (Debye)      :      2.83597

Rotational constants in cm-1:     0.051907     0.015593     0.014567
Rotational constants in MHz :  1556.124210   467.480777   436.712697

                             ****ORCA TERMINATED NORMALLY****
TOTAL RUN TIME: 0 days 1 hours 20 minutes 40 seconds 527 msec
