                         Program Version 4.2.0 -  RELEASE  -
|  1> # Test redundant internal optimization
|  2> #
|  3> ! RKS B3LYP  Opt TightSCF SmallPrint
|  4>
|  5> %basis
|  6>         Basis "6-31G"
|  7> end
|  8>
|  9> %geom
| 10> Constraints
| 11> { D 4  0  15  12  225.0   C } # D for Dihedral angle
| 12> { D 0  15  12  16  270.0   C } # D for Dihedral angle
| 13> { D 0  4  3  2   C } # D for Dihedral angle
| 14> { D 4  3  2  1   C } # D for Dihedral angle
| 15> { D 3  2  1  0   C } # D for Dihedral angle
| 16> { D 2  1  0  4   C } # D for Dihedral angle
| 17> { D 1  0  4  3   C } # D for Dihedral angle
| 18> { D 16  20  19  18   C } # D for Dihedral angle
| 19> { D 20  19  18  17   C } # D for Dihedral angle
| 20> { D 19  18  17  16   C } # D for Dihedral angle
| 21> { D 18  17  16  20   C } # D for Dihedral angle
| 22> { D 17  16  20  19   C } # D for Dihedral angle
| 23> { D 15  12  16  20   C } # D for Dihedral angle
| 24> end
| 25> end
| 26>
| 27>
| 28> #%pal
| 29> #nprocs 8
| 30> #end
| 31>
| 32> * xyz 0 1
| 33> C  -21.048   26.222   46.251
| 34> C  -20.361   27.558   45.944
| 35> C  -20.329   28.222   47.341
| 36> C  -20.110   27.022   48.296
| 37> O  -20.473   25.807   47.535
| 38> H  -20.833   25.428   45.533
| 39> H  -19.344   27.382   45.576
| 40> H  -20.898   28.157   45.201
| 41> H  -19.543   28.978   47.434
| 42> H  -21.289   28.710   47.548
| 43> H  -20.733   27.082   49.195
| 44> H  -19.064   26.913   48.597
| 45> C  -23.415   25.773   45.218
| 46> H  -22.885   24.898   44.822
| 47> H  -24.397   25.443   45.583
| 48> O  -22.586   26.394   46.375
| 49> C  -23.656   26.769   44.050
| 50> C  -24.572   26.162   42.981
| 51> C  -25.967   26.342   43.626
| 52> C  -25.835   27.688   44.381
| 53> O  -24.387   27.949   44.524
| 54> H  -22.692   27.118   43.673
| 55> H  -24.499   26.737   42.051
| 56> O  -24.242   24.678   42.665
| 57> H  -26.777   26.355   42.889
| 58> H  -26.166   25.523   44.328
| 59> H  -26.294   27.658   45.376
| 60> H  -26.260   28.525   43.820
| 61> H  -24.310   24.081   43.581
| 62> *
| 63>
| 64>                          ****END OF INPUT****
 Total Charge           Charge          ....    0
 Multiplicity           Mult            ....    1
 Number of Electrons    NEL             ....  102
FINAL SINGLE POINT ENERGY      -652.826712364468
FINAL SINGLE POINT ENERGY      -652.849910040659
FINAL SINGLE POINT ENERGY      -652.854321493597
FINAL SINGLE POINT ENERGY      -652.855157258177
FINAL SINGLE POINT ENERGY      -652.855321775167
FINAL SINGLE POINT ENERGY      -652.855357439285
FINAL SINGLE POINT ENERGY      -652.855365169166
FINAL SINGLE POINT ENERGY      -652.855366344719
                    ***********************HURRAY********************

CARTESIAN COORDINATES (ANGSTROEM)
---------------------------------
  C    -21.046955   26.202427   46.194034
  C    -20.406394   27.559589   45.906827
  C    -20.433156   28.228036   47.302642
  C    -20.192861   27.039460   48.258075
  O    -20.498257   25.818959   47.467462
  H    -20.808451   25.404868   45.482052
  H    -19.374778   27.411279   45.564433
  H    -20.952660   28.130797   45.153047
  H    -19.677067   29.011487   47.409807
  H    -21.419880   28.667778   47.474834
  H    -20.841417   27.055706   49.137302
  H    -19.149754   26.952717   48.577092
  C    -23.312694   25.755585   45.282921
  H    -22.832886   24.850404   44.880443
  H    -24.241209   25.466429   45.786266
  O    -22.488320   26.340783   46.321130
  C    -23.602739   26.721023   44.129147
  C    -24.525943   26.126187   43.051199
  C    -25.936100   26.356862   43.675424
  C    -25.765626   27.704925   44.410115
  O    -24.305678   27.921413   44.570811
  H    -22.656141   27.066513   43.702275
  H    -24.421376   26.700773   42.128354
  O    -24.236167   24.760563   42.665717
  H    -26.724553   26.379597   42.918536
  H    -26.163183   25.544417   44.378114
  H    -26.238151   27.716093   45.396948
  H    -26.150727   28.546073   43.825898
  H    -24.561877   24.133256   43.343095

 Multiplicity           Mult            ....    1
 Number of Electrons    NEL             ....  102
 Basis Dimension        Dim             ....  149

ORBITAL ENERGIES
----------------

  NO   OCC          E(Eh)            E(eV)
   0   2.0000     -19.153272      -521.1870
   1   2.0000     -19.139547      -520.8135
   2   2.0000     -19.136314      -520.7256
   3   2.0000     -19.133543      -520.6502
   4   2.0000     -10.274814      -279.5919
   5   2.0000     -10.248714      -278.8817
   6   2.0000     -10.233111      -278.4571
   7   2.0000     -10.232948      -278.4527
   8   2.0000     -10.231948      -278.4255
   9   2.0000     -10.218422      -278.0574
  10   2.0000     -10.199106      -277.5318
  11   2.0000     -10.178654      -276.9753
  12   2.0000     -10.178196      -276.9628
  13   2.0000      -1.048141       -28.5214
  14   2.0000      -1.036390       -28.2016
  15   2.0000      -1.018477       -27.7142
  16   2.0000      -0.989646       -26.9296
  17   2.0000      -0.786103       -21.3909
  18   2.0000      -0.779461       -21.2102
  19   2.0000      -0.766889       -20.8681
  20   2.0000      -0.729416       -19.8484
  21   2.0000      -0.680419       -18.5152
  22   2.0000      -0.614977       -16.7344
  23   2.0000      -0.596369       -16.2280
  24   2.0000      -0.591937       -16.1074
  25   2.0000      -0.574144       -15.6232
  26   2.0000      -0.529682       -14.4134
  27   2.0000      -0.513509       -13.9733
  28   2.0000      -0.495066       -13.4714
  29   2.0000      -0.489234       -13.3127
  30   2.0000      -0.465673       -12.6716
  31   2.0000      -0.451887       -12.2965
  32   2.0000      -0.444271       -12.0892
  33   2.0000      -0.439295       -11.9538
  34   2.0000      -0.430474       -11.7138
  35   2.0000      -0.418768       -11.3953
  36   2.0000      -0.410051       -11.1581
  37   2.0000      -0.396713       -10.7951
  38   2.0000      -0.380228       -10.3465
  39   2.0000      -0.363436        -9.8896
  40   2.0000      -0.359936        -9.7943
  41   2.0000      -0.349969        -9.5231
  42   2.0000      -0.345353        -9.3975
  43   2.0000      -0.332127        -9.0376
  44   2.0000      -0.319734        -8.7004
  45   2.0000      -0.308159        -8.3854
  46   2.0000      -0.300611        -8.1800
  47   2.0000      -0.274980        -7.4826
  48   2.0000      -0.264464        -7.1964
  49   2.0000      -0.251124        -6.8334
  50   2.0000      -0.233087        -6.3426
  51   0.0000       0.048918         1.3311
  52   0.0000       0.076995         2.0951
  53   0.0000       0.084074         2.2878
  54   0.0000       0.090146         2.4530
  55   0.0000       0.105306         2.8655

MULLIKEN ATOMIC CHARGES
-----------------------
   0 C :    0.280541
   1 C :   -0.258447
   2 C :   -0.301377
   3 C :   -0.000641
   4 O :   -0.503450
   5 H :    0.137813
   6 H :    0.138928
   7 H :    0.157484
   8 H :    0.138840
   9 H :    0.170673
  10 H :    0.151282
  11 H :    0.138376
  12 C :   -0.020628
  13 H :    0.127474
  14 H :    0.142494
  15 O :   -0.499239
  16 C :    0.090004
  17 C :    0.084318
  18 C :   -0.327517
  19 C :   -0.009500
  20 O :   -0.507307
  21 H :    0.149725
  22 H :    0.167756
  23 O :   -0.599437
  24 H :    0.160968
  25 H :    0.134350
  26 H :    0.149424
  27 H :    0.149783
  28 H :    0.357308
Sum of atomic charges:   -0.0000000

LOEWDIN ATOMIC CHARGES
----------------------
   0 C :    0.175873
   1 C :   -0.224992
   2 C :   -0.216507
   3 C :   -0.026044
   4 O :   -0.312441
   5 H :    0.096054
   6 H :    0.110584
   7 H :    0.120802
   8 H :    0.112955
   9 H :    0.123530
  10 H :    0.107759
  11 H :    0.100524
  12 C :   -0.047241
  13 H :    0.096554
  14 H :    0.106544
  15 O :   -0.318867
  16 C :    0.007787
  17 C :    0.033936
  18 C :   -0.241865
  19 C :   -0.028958
  20 O :   -0.316660
  21 H :    0.110110
  22 H :    0.119239
  23 O :   -0.407628
  24 H :    0.123837
  25 H :    0.104653
  26 H :    0.105548
  27 H :    0.106189
  28 H :    0.278727

  Mayer bond orders larger than 0.100000
B(  0-C ,  1-C ) :   0.9374 B(  0-C ,  4-O ) :   0.9328 B(  0-C ,  5-H ) :   0.9160
B(  0-C , 15-O ) :   0.8411 B(  1-C ,  2-C ) :   0.9559 B(  1-C ,  6-H ) :   0.9356
B(  1-C ,  7-H ) :   0.9327 B(  2-C ,  3-C ) :   0.9550 B(  2-C ,  8-H ) :   0.9453
B(  2-C ,  9-H ) :   0.9417 B(  3-C ,  4-O ) :   0.8368 B(  3-C , 10-H ) :   0.9350
B(  3-C , 11-H ) :   0.9399 B( 12-C , 13-H ) :   0.9032 B( 12-C , 14-H ) :   0.9382
B( 12-C , 15-O ) :   0.8743 B( 12-C , 16-C ) :   0.8832 B( 16-C , 17-C ) :   0.8701
B( 16-C , 20-O ) :   0.8698 B( 16-C , 21-H ) :   0.9307 B( 17-C , 18-C ) :   0.9239
B( 17-C , 22-H ) :   0.9322 B( 17-C , 23-O ) :   0.8973 B( 18-C , 19-C ) :   0.9400
B( 18-C , 24-H ) :   0.9411 B( 18-C , 25-H ) :   0.9407 B( 19-C , 20-O ) :   0.8468
B( 19-C , 26-H ) :   0.9309 B( 19-C , 27-H ) :   0.9379 B( 23-O , 28-H ) :   0.7976

FINAL SINGLE POINT ENERGY      -652.855366526766

DIPOLE MOMENT
-------------
                                X             Y             Z
Electronic contribution:      0.14387      -2.54084      -0.38079
Nuclear contribution   :     -0.77512       2.71506       0.03801
                        -----------------------------------------
Total Dipole Moment    :     -0.63125       0.17422      -0.34277
                        -----------------------------------------
Magnitude (a.u.)       :      0.73914
Magnitude (Debye)      :      1.87873

Rotational constants in cm-1:     0.057779     0.012613     0.011561
Rotational constants in MHz :  1732.171530   378.133176   346.589624

                             ****ORCA TERMINATED NORMALLY****
TOTAL RUN TIME: 0 days 0 hours 25 minutes 28 seconds 681 msec
