                         Program Version 4.2.0 -  RELEASE  -
|  1> # Test redundant internal optimization
|  2> #
|  3> ! RKS B3LYP  Opt TightSCF SmallPrint
|  4>
|  5> %basis
|  6>         Basis "6-31G"
|  7> end
|  8>
|  9> %geom
| 10> Constraints
| 11> { D 4  0  15  12  0.0   C } # D for Dihedral angle
| 12> { D 0  15  12  16  75.0   C } # D for Dihedral angle
| 13> { D 0  4  3  2   C } # D for Dihedral angle
| 14> { D 4  3  2  1   C } # D for Dihedral angle
| 15> { D 3  2  1  0   C } # D for Dihedral angle
| 16> { D 2  1  0  4   C } # D for Dihedral angle
| 17> { D 1  0  4  3   C } # D for Dihedral angle
| 18> { D 16  20  19  18   C } # D for Dihedral angle
| 19> { D 20  19  18  17   C } # D for Dihedral angle
| 20> { D 19  18  17  16   C } # D for Dihedral angle
| 21> { D 18  17  16  20   C } # D for Dihedral angle
| 22> { D 17  16  20  19   C } # D for Dihedral angle
| 23> { D 15  12  16  20   C } # D for Dihedral angle
| 24> end
| 25> end
| 26>
| 27>
| 28> #%pal
| 29> #nprocs 8
| 30> #end
| 31>
| 32> * xyz 0 1
| 33> C  -21.048   26.222   46.251
| 34> C  -20.361   27.558   45.944
| 35> C  -20.329   28.222   47.341
| 36> C  -20.110   27.022   48.296
| 37> O  -20.473   25.807   47.535
| 38> H  -20.833   25.428   45.533
| 39> H  -19.344   27.382   45.576
| 40> H  -20.898   28.157   45.201
| 41> H  -19.543   28.978   47.434
| 42> H  -21.289   28.710   47.548
| 43> H  -20.733   27.082   49.195
| 44> H  -19.064   26.913   48.597
| 45> C  -23.172   26.101   47.783
| 46> H  -24.259   25.978   47.705
| 47> H  -22.750   25.172   48.189
| 48> O  -22.586   26.394   46.375
| 49> C  -22.882   27.237   48.803
| 50> C  -23.581   28.539   48.399
| 51> C  -25.031   28.276   48.872
| 52> C  -24.834   27.441   50.162
| 53> O  -23.456   26.909   50.112
| 54> H  -21.803   27.327   48.941
| 55> H  -23.145   29.385   48.944
| 56> O  -23.488   28.836   46.878
| 57> H  -25.593   29.197   49.052
| 58> H  -25.573   27.696   48.115
| 59> H  -25.539   26.606   50.233
| 60> H  -24.913   28.048   51.068
| 61> H  -23.919   28.002   46.313
| 62> *
| 63>
| 64>                          ****END OF INPUT****
 Total Charge           Charge          ....    0
 Multiplicity           Mult            ....    1
 Number of Electrons    NEL             ....  102
FINAL SINGLE POINT ENERGY      -652.792005460017
FINAL SINGLE POINT ENERGY      -652.832782115509
FINAL SINGLE POINT ENERGY      -652.853402446847
FINAL SINGLE POINT ENERGY      -652.858176037021
FINAL SINGLE POINT ENERGY      -652.859410690854
FINAL SINGLE POINT ENERGY      -652.859922503160
FINAL SINGLE POINT ENERGY      -652.860043838758
FINAL SINGLE POINT ENERGY      -652.860068992872
FINAL SINGLE POINT ENERGY      -652.860070435543
                    ***********************HURRAY********************

CARTESIAN COORDINATES (ANGSTROEM)
---------------------------------
  C    -21.090352   26.226819   46.393466
  C    -20.446502   27.510299   45.864563
  C    -20.090405   28.254153   47.177548
  C    -19.707331   27.105193   48.136021
  O    -20.280975   25.867255   47.524329
  H    -20.997497   25.388118   45.697732
  H    -19.546612   27.235384   45.303549
  H    -21.109326   28.084794   45.213479
  H    -19.269024   28.964712   47.044833
  H    -20.967439   28.807700   47.524649
  H    -20.089981   27.217921   49.152420
  H    -18.627039   26.939649   48.185434
  C    -23.207518   26.099079   47.893893
  H    -24.255976   25.968939   47.614814
  H    -22.846837   25.163635   48.334010
  O    -22.541701   26.335032   46.604939
  C    -23.052040   27.210786   48.937779
  C    -23.694845   28.548397   48.534188
  C    -25.199756   28.275444   48.826822
  C    -25.155808   27.367660   50.074172
  O    -23.770110   26.815361   50.149127
  H    -22.010949   27.316383   49.233723
  H    -23.329241   29.348317   49.185107
  O    -23.412481   28.970132   47.179513
  H    -25.754418   29.201827   48.996274
  H    -25.648772   27.770579   47.964844
  H    -25.864330   26.534942   50.030456
  H    -25.319991   27.922256   51.002465
  H    -23.261742   28.174232   46.614853

 Multiplicity           Mult            ....    1
 Number of Electrons    NEL             ....  102
 Basis Dimension        Dim             ....  149

ORBITAL ENERGIES
----------------

  NO   OCC          E(Eh)            E(eV)
   0   2.0000     -19.157749      -521.3088
   1   2.0000     -19.155766      -521.2549
   2   2.0000     -19.143517      -520.9216
   3   2.0000     -19.130539      -520.5684
   4   2.0000     -10.287066      -279.9253
   5   2.0000     -10.238376      -278.6004
   6   2.0000     -10.235698      -278.5275
   7   2.0000     -10.235329      -278.5175
   8   2.0000     -10.234259      -278.4883
   9   2.0000     -10.230304      -278.3807
  10   2.0000     -10.191274      -277.3187
  11   2.0000     -10.188957      -277.2556
  12   2.0000     -10.185625      -277.1649
  13   2.0000      -1.059395       -28.8276
  14   2.0000      -1.029600       -28.0168
  15   2.0000      -1.008361       -27.4389
  16   2.0000      -0.999314       -27.1927
  17   2.0000      -0.793438       -21.5906
  18   2.0000      -0.777738       -21.1633
  19   2.0000      -0.771514       -20.9940
  20   2.0000      -0.737296       -20.0629
  21   2.0000      -0.682967       -18.5845
  22   2.0000      -0.608107       -16.5474
  23   2.0000      -0.603915       -16.4334
  24   2.0000      -0.600619       -16.3437
  25   2.0000      -0.576599       -15.6901
  26   2.0000      -0.530952       -14.4480
  27   2.0000      -0.511613       -13.9217
  28   2.0000      -0.502924       -13.6853
  29   2.0000      -0.489204       -13.3119
  30   2.0000      -0.476979       -12.9793
  31   2.0000      -0.459610       -12.5066
  32   2.0000      -0.450078       -12.2473
  33   2.0000      -0.428834       -11.6692
  34   2.0000      -0.426861       -11.6155
  35   2.0000      -0.413500       -11.2519
  36   2.0000      -0.412133       -11.2147
  37   2.0000      -0.396199       -10.7811
  38   2.0000      -0.381608       -10.3841
  39   2.0000      -0.372267       -10.1299
  40   2.0000      -0.363966        -9.9040
  41   2.0000      -0.355837        -9.6828
  42   2.0000      -0.353177        -9.6104
  43   2.0000      -0.342306        -9.3146
  44   2.0000      -0.332232        -9.0405
  45   2.0000      -0.317781        -8.6473
  46   2.0000      -0.299435        -8.1481
  47   2.0000      -0.274515        -7.4699
  48   2.0000      -0.269192        -7.3251
  49   2.0000      -0.259035        -7.0487
  50   2.0000      -0.240041        -6.5318
  51   0.0000       0.057399         1.5619
  52   0.0000       0.074370         2.0237
  53   0.0000       0.085812         2.3351
  54   0.0000       0.091431         2.4880
  55   0.0000       0.103195         2.8081

MULLIKEN ATOMIC CHARGES
-----------------------
   0 C :    0.317259
   1 C :   -0.276717
   2 C :   -0.330856
   3 C :   -0.029243
   4 O :   -0.511756
   5 H :    0.163894
   6 H :    0.153853
   7 H :    0.161852
   8 H :    0.148986
   9 H :    0.183813
  10 H :    0.155827
  11 H :    0.154658
  12 C :   -0.028986
  13 H :    0.157524
  14 H :    0.172544
  15 O :   -0.565978
  16 C :    0.042993
  17 C :    0.111470
  18 C :   -0.310577
  19 C :   -0.017244
  20 O :   -0.518975
  21 H :    0.160791
  22 H :    0.150940
  23 O :   -0.632223
  24 H :    0.155411
  25 H :    0.148136
  26 H :    0.146664
  27 H :    0.147979
  28 H :    0.387961
Sum of atomic charges:   -0.0000000

LOEWDIN ATOMIC CHARGES
----------------------
   0 C :    0.182536
   1 C :   -0.221041
   2 C :   -0.230305
   3 C :   -0.035501
   4 O :   -0.314226
   5 H :    0.106548
   6 H :    0.119142
   7 H :    0.125524
   8 H :    0.119215
   9 H :    0.125396
  10 H :    0.103959
  11 H :    0.108468
  12 C :   -0.045585
  13 H :    0.113938
  14 H :    0.120296
  15 O :   -0.351177
  16 C :    0.002114
  17 C :    0.036814
  18 C :   -0.238524
  19 C :   -0.031787
  20 O :   -0.320722
  21 H :    0.113991
  22 H :    0.108382
  23 O :   -0.426198
  24 H :    0.122893
  25 H :    0.112427
  26 H :    0.104079
  27 H :    0.105943
  28 H :    0.283399

  Mayer bond orders larger than 0.100000
B(  0-C ,  1-C ) :   0.9298 B(  0-C ,  4-O ) :   0.9260 B(  0-C ,  5-H ) :   0.9324
B(  0-C , 15-O ) :   0.8108 B(  1-C ,  2-C ) :   0.9526 B(  1-C ,  6-H ) :   0.9356
B(  1-C ,  7-H ) :   0.9343 B(  2-C ,  3-C ) :   0.9512 B(  2-C ,  8-H ) :   0.9440
B(  2-C ,  9-H ) :   0.9157 B(  3-C ,  4-O ) :   0.8225 B(  3-C , 10-H ) :   0.9180
B(  3-C , 11-H ) :   0.9380 B( 12-C , 13-H ) :   0.9371 B( 12-C , 14-H ) :   0.9253
B( 12-C , 15-O ) :   0.7985 B( 12-C , 16-C ) :   0.8853 B( 16-C , 17-C ) :   0.9083
B( 16-C , 20-O ) :   0.8454 B( 16-C , 21-H ) :   0.9134 B( 17-C , 18-C ) :   0.9078
B( 17-C , 22-H ) :   0.9342 B( 17-C , 23-O ) :   0.9071 B( 18-C , 19-C ) :   0.9393
B( 18-C , 24-H ) :   0.9433 B( 18-C , 25-H ) :   0.9423 B( 19-C , 20-O ) :   0.8337
B( 19-C , 26-H ) :   0.9333 B( 19-C , 27-H ) :   0.9388 B( 23-O , 28-H ) :   0.7238

FINAL SINGLE POINT ENERGY      -652.860070757406

DIPOLE MOMENT
-------------
                                X             Y             Z
Electronic contribution:     -0.04218      -3.13620      -0.14985
Nuclear contribution   :      0.12795       3.44915       0.06884
                        -----------------------------------------
Total Dipole Moment    :      0.08578       0.31295      -0.08100
                        -----------------------------------------
Magnitude (a.u.)       :      0.33445
Magnitude (Debye)      :      0.85011

Rotational constants in cm-1:     0.049323     0.017429     0.016339
Rotational constants in MHz :  1478.665274   522.518560   489.826003

                             ****ORCA TERMINATED NORMALLY****
TOTAL RUN TIME: 0 days 0 hours 39 minutes 59 seconds 325 msec
