                         Program Version 4.2.0 -  RELEASE  -
|  1> # Test redundant internal optimization
|  2> #
|  3> ! RKS B3LYP  Opt TightSCF SmallPrint
|  4>
|  5> %basis
|  6>         Basis "6-31G"
|  7> end
|  8>
|  9> %geom
| 10> Constraints
| 11> { D 4  0  15  12  195.0   C } # D for Dihedral angle
| 12> { D 0  15  12  16  240.0   C } # D for Dihedral angle
| 13> { D 0  4  3  2   C } # D for Dihedral angle
| 14> { D 4  3  2  1   C } # D for Dihedral angle
| 15> { D 3  2  1  0   C } # D for Dihedral angle
| 16> { D 2  1  0  4   C } # D for Dihedral angle
| 17> { D 1  0  4  3   C } # D for Dihedral angle
| 18> { D 16  20  19  18   C } # D for Dihedral angle
| 19> { D 20  19  18  17   C } # D for Dihedral angle
| 20> { D 19  18  17  16   C } # D for Dihedral angle
| 21> { D 18  17  16  20   C } # D for Dihedral angle
| 22> { D 17  16  20  19   C } # D for Dihedral angle
| 23> { D 15  12  16  20   C } # D for Dihedral angle
| 24> end
| 25> end
| 26>
| 27>
| 28> #%pal
| 29> #nprocs 8
| 30> #end
| 31>
| 32> * xyz 0 1
| 33> C  -21.048   26.222   46.251
| 34> C  -20.361   27.558   45.944
| 35> C  -20.329   28.222   47.341
| 36> C  -20.110   27.022   48.296
| 37> O  -20.473   25.807   47.535
| 38> H  -20.833   25.428   45.533
| 39> H  -19.344   27.382   45.576
| 40> H  -20.898   28.157   45.201
| 41> H  -19.543   28.978   47.434
| 42> H  -21.289   28.710   47.548
| 43> H  -20.733   27.082   49.195
| 44> H  -19.064   26.913   48.597
| 45> C  -23.353   26.472   45.026
| 46> H  -22.639   26.379   44.198
| 47> H  -24.077   25.651   44.948
| 48> O  -22.586   26.394   46.375
| 49> C  -24.130   27.807   44.854
| 50> C  -25.087   28.050   46.027
| 51> C  -24.120   28.575   47.116
| 52> C  -23.084   29.391   46.302
| 53> O  -23.208   28.946   44.897
| 54> H  -24.607   27.818   43.872
| 55> O  -26.128   29.137   45.648
| 56> H  -25.626   27.148   46.337
| 57> H  -24.625   29.180   47.875
| 58> H  -23.635   27.734   47.626
| 59> H  -22.057   29.224   46.643
| 60> H  -23.292   30.465   46.320
| 61> H  -25.610   30.050   45.335
| 62> *
| 63>
| 64>                          ****END OF INPUT****
 Total Charge           Charge          ....    0
 Multiplicity           Mult            ....    1
 Number of Electrons    NEL             ....  102
FINAL SINGLE POINT ENERGY      -652.815234482537
FINAL SINGLE POINT ENERGY      -652.839925975624
FINAL SINGLE POINT ENERGY      -652.854448491911
FINAL SINGLE POINT ENERGY      -652.857934462849
FINAL SINGLE POINT ENERGY      -652.858413826376
FINAL SINGLE POINT ENERGY      -652.858450387753
FINAL SINGLE POINT ENERGY      -652.858458173880
                    ***********************HURRAY********************

CARTESIAN COORDINATES (ANGSTROEM)
---------------------------------
  C    -21.017589   26.182966   46.200747
  C    -20.268864   27.486702   45.933302
  C    -20.136241   28.083051   47.357600
  C    -19.949898   26.825382   48.233503
  O    -20.426898   25.688835   47.405380
  H    -20.875654   25.412903   45.434396
  H    -19.281552   27.250772   45.519559
  H    -20.796112   28.149732   45.242200
  H    -19.299775   28.782826   47.444059
  H    -21.051779   28.603096   47.640262
  H    -20.530887   26.850535   49.158525
  H    -18.901674   26.619721   48.469415
  C    -23.225436   26.528820   45.173279
  H    -22.551158   26.430969   44.311331
  H    -23.946175   25.700660   45.123197
  O    -22.459732   26.362856   46.406100
  C    -24.014944   27.828680   44.996206
  C    -25.141458   28.087308   46.006997
  C    -24.385749   28.836743   47.135640
  C    -23.338207   29.671381   46.360790
  O    -23.228181   29.060735   45.011734
  H    -24.452197   27.762934   43.991252
  O    -26.197119   28.895668   45.413954
  H    -25.637275   27.179828   46.350710
  H    -25.068735   29.448256   47.730425
  H    -23.891847   28.104434   47.781081
  H    -22.357183   29.680339   46.833487
  H    -23.657830   30.708437   46.208464
  H    -25.798852   29.677432   44.976403

 Multiplicity           Mult            ....    1
 Number of Electrons    NEL             ....  102
 Basis Dimension        Dim             ....  149

ORBITAL ENERGIES
----------------

  NO   OCC          E(Eh)            E(eV)
   0   2.0000     -19.150337      -521.1072
   1   2.0000     -19.145126      -520.9654
   2   2.0000     -19.143517      -520.9216
   3   2.0000     -19.138628      -520.7886
   4   2.0000     -10.280880      -279.7570
   5   2.0000     -10.240298      -278.6527
   6   2.0000     -10.239115      -278.6205
   7   2.0000     -10.237049      -278.5643
   8   2.0000     -10.231974      -278.4262
   9   2.0000     -10.227088      -278.2932
  10   2.0000     -10.188495      -277.2431
  11   2.0000     -10.184271      -277.1281
  12   2.0000     -10.183744      -277.1138
  13   2.0000      -1.054396       -28.6916
  14   2.0000      -1.039469       -28.2854
  15   2.0000      -1.008343       -27.4384
  16   2.0000      -0.996601       -27.1189
  17   2.0000      -0.788011       -21.4429
  18   2.0000      -0.781946       -21.2778
  19   2.0000      -0.770632       -20.9700
  20   2.0000      -0.734818       -19.9954
  21   2.0000      -0.679878       -18.5004
  22   2.0000      -0.606907       -16.5148
  23   2.0000      -0.602982       -16.4080
  24   2.0000      -0.596941       -16.2436
  25   2.0000      -0.578865       -15.7517
  26   2.0000      -0.526743       -14.3334
  27   2.0000      -0.508001       -13.8234
  28   2.0000      -0.496119       -13.5001
  29   2.0000      -0.491796       -13.3824
  30   2.0000      -0.479421       -13.0457
  31   2.0000      -0.462303       -12.5799
  32   2.0000      -0.449943       -12.2436
  33   2.0000      -0.447637       -12.1808
  34   2.0000      -0.421691       -11.4748
  35   2.0000      -0.411053       -11.1853
  36   2.0000      -0.405175       -11.0254
  37   2.0000      -0.395841       -10.7714
  38   2.0000      -0.376181       -10.2364
  39   2.0000      -0.374475       -10.1900
  40   2.0000      -0.362966        -9.8768
  41   2.0000      -0.356784        -9.7086
  42   2.0000      -0.354298        -9.6409
  43   2.0000      -0.333262        -9.0685
  44   2.0000      -0.317260        -8.6331
  45   2.0000      -0.312073        -8.4919
  46   2.0000      -0.304207        -8.2779
  47   2.0000      -0.275980        -7.5098
  48   2.0000      -0.262842        -7.1523
  49   2.0000      -0.262299        -7.1375
  50   2.0000      -0.242389        -6.5957
  51   0.0000       0.060064         1.6344
  52   0.0000       0.079738         2.1698
  53   0.0000       0.091044         2.4774
  54   0.0000       0.097135         2.6432
  55   0.0000       0.098024         2.6674

MULLIKEN ATOMIC CHARGES
-----------------------
   0 C :    0.299716
   1 C :   -0.287673
   2 C :   -0.310591
   3 C :   -0.003638
   4 O :   -0.505645
   5 H :    0.142836
   6 H :    0.143657
   7 H :    0.176848
   8 H :    0.144084
   9 H :    0.160600
  10 H :    0.151460
  11 H :    0.144125
  12 C :   -0.026622
  13 H :    0.137607
  14 H :    0.147995
  15 O :   -0.511213
  16 C :    0.084338
  17 C :    0.076390
  18 C :   -0.293603
  19 C :   -0.036184
  20 O :   -0.528991
  21 H :    0.155977
  22 O :   -0.602321
  23 H :    0.158217
  24 H :    0.154043
  25 H :    0.175635
  26 H :    0.148947
  27 H :    0.141787
  28 H :    0.362219
Sum of atomic charges:   -0.0000000

LOEWDIN ATOMIC CHARGES
----------------------
   0 C :    0.180990
   1 C :   -0.236095
   2 C :   -0.218162
   3 C :   -0.025556
   4 O :   -0.301296
   5 H :    0.096055
   6 H :    0.114811
   7 H :    0.129507
   8 H :    0.116004
   9 H :    0.111910
  10 H :    0.107442
  11 H :    0.103226
  12 C :   -0.042617
  13 H :    0.102409
  14 H :    0.110120
  15 O :   -0.342624
  16 C :    0.008779
  17 C :    0.037969
  18 C :   -0.240094
  19 C :   -0.037628
  20 O :   -0.330606
  21 H :    0.116963
  22 O :   -0.416264
  23 H :    0.119417
  24 H :    0.122433
  25 H :    0.129840
  26 H :    0.102899
  27 H :    0.098696
  28 H :    0.281472

  Mayer bond orders larger than 0.100000
B(  0-C ,  1-C ) :   0.9257 B(  0-C ,  4-O ) :   0.9406 B(  0-C ,  5-H ) :   0.9200
B(  0-C , 15-O ) :   0.8242 B(  1-C ,  2-C ) :   0.9556 B(  1-C ,  6-H ) :   0.9317
B(  1-C ,  7-H ) :   0.9164 B(  2-C ,  3-C ) :   0.9498 B(  2-C ,  8-H ) :   0.9458
B(  2-C ,  9-H ) :   0.9250 B(  3-C ,  4-O ) :   0.8342 B(  3-C , 10-H ) :   0.9351
B(  3-C , 11-H ) :   0.9394 B( 12-C , 13-H ) :   0.9183 B( 12-C , 14-H ) :   0.9193
B( 12-C , 15-O ) :   0.8669 B( 12-C , 16-C ) :   0.8913 B( 16-C , 17-C ) :   0.9087
B( 16-C , 20-O ) :   0.8652 B( 16-C , 21-H ) :   0.9158 B( 17-C , 18-C ) :   0.9241
B( 17-C , 22-O ) :   0.8917 B( 17-C , 23-H ) :   0.9346 B( 18-C , 19-C ) :   0.9462
B( 18-C , 24-H ) :   0.9367 B( 18-C , 25-H ) :   0.9206 B( 19-C , 20-O ) :   0.8391
B( 19-C , 26-H ) :   0.9143 B( 19-C , 27-H ) :   0.9366 B( 22-O , 28-H ) :   0.7970

FINAL SINGLE POINT ENERGY      -652.858456984023

DIPOLE MOMENT
-------------
                                X             Y             Z
Electronic contribution:     -2.90005      -2.77325      -1.84431
Nuclear contribution   :      3.57516       3.49258       1.76093
                        -----------------------------------------
Total Dipole Moment    :      0.67511       0.71933      -0.08339
                        -----------------------------------------
Magnitude (a.u.)       :      0.99003
Magnitude (Debye)      :      2.51646

Rotational constants in cm-1:     0.054354     0.015584     0.014520
Rotational constants in MHz :  1629.480785   467.199402   435.304700

                             ****ORCA TERMINATED NORMALLY****
TOTAL RUN TIME: 0 days 0 hours 44 minutes 40 seconds 554 msec
