                         Program Version 4.2.0 -  RELEASE  -
|  1> # Test redundant internal optimization
|  2> #
|  3> ! RKS B3LYP  Opt TightSCF SmallPrint
|  4>
|  5> %basis
|  6>         Basis "6-31G"
|  7> end
|  8>
|  9> %geom
| 10> Constraints
| 11> { D 4  0  15  12  75.0   C } # D for Dihedral angle
| 12> { D 0  15  12  16  240.0   C } # D for Dihedral angle
| 13> { D 0  4  3  2   C } # D for Dihedral angle
| 14> { D 4  3  2  1   C } # D for Dihedral angle
| 15> { D 3  2  1  0   C } # D for Dihedral angle
| 16> { D 2  1  0  4   C } # D for Dihedral angle
| 17> { D 1  0  4  3   C } # D for Dihedral angle
| 18> { D 16  20  19  18   C } # D for Dihedral angle
| 19> { D 20  19  18  17   C } # D for Dihedral angle
| 20> { D 19  18  17  16   C } # D for Dihedral angle
| 21> { D 18  17  16  20   C } # D for Dihedral angle
| 22> { D 17  16  20  19   C } # D for Dihedral angle
| 23> { D 15  12  16  20   C } # D for Dihedral angle
| 24> end
| 25> end
| 26>
| 27>
| 28> #%pal
| 29> #nprocs 8
| 30> #end
| 31>
| 32> * xyz 0 1
| 33> C  -21.048   26.222   46.251
| 34> C  -20.361   27.558   45.944
| 35> C  -20.329   28.222   47.341
| 36> C  -20.110   27.022   48.296
| 37> O  -20.473   25.807   47.535
| 38> H  -20.833   25.428   45.533
| 39> H  -19.344   27.382   45.576
| 40> H  -20.898   28.157   45.201
| 41> H  -19.543   28.978   47.434
| 42> H  -21.289   28.710   47.548
| 43> H  -20.733   27.082   49.195
| 44> H  -19.064   26.913   48.597
| 45> C  -23.049   27.675   47.122
| 46> H  -22.169   28.252   47.431
| 47> H  -23.658   28.305   46.462
| 48> O  -22.586   26.394   46.375
| 49> C  -23.895   27.360   48.387
| 50> C  -25.100   26.475   48.045
| 51> C  -24.444   25.077   47.947
| 52> C  -23.341   25.129   49.033
| 53> O  -23.117   26.559   49.337
| 54> H  -24.149   28.295   48.889
| 55> H  -25.830   26.503   48.861
| 56> O  -25.815   26.898   46.733
| 57> H  -25.155   24.261   48.113
| 58> H  -24.001   24.938   46.953
| 59> H  -22.399   24.681   48.697
| 60> H  -23.649   24.646   49.965
| 61> H  -25.102   26.877   45.902
| 62> *
| 63>
| 64>                          ****END OF INPUT****
 Total Charge           Charge          ....    0
 Multiplicity           Mult            ....    1
 Number of Electrons    NEL             ....  102
FINAL SINGLE POINT ENERGY      -652.783227009547
FINAL SINGLE POINT ENERGY      -652.831490406535
FINAL SINGLE POINT ENERGY      -652.852025188214
FINAL SINGLE POINT ENERGY      -652.856723085193
FINAL SINGLE POINT ENERGY      -652.857774661409
FINAL SINGLE POINT ENERGY      -652.857984991928
FINAL SINGLE POINT ENERGY      -652.858040872871
FINAL SINGLE POINT ENERGY      -652.858051640746
FINAL SINGLE POINT ENERGY      -652.858054743772
                    ***********************HURRAY********************

CARTESIAN COORDINATES (ANGSTROEM)
---------------------------------
  C    -21.138329   26.434045   46.367860
  C    -20.251743   27.609835   45.927868
  C    -19.913819   28.293900   47.288484
  C    -19.811054   27.081377   48.251194
  O    -20.499169   25.956819   47.570405
  H    -21.109514   25.598389   45.666395
  H    -19.345389   27.206432   45.465655
  H    -20.746663   28.273452   45.213466
  H    -18.970456   28.847923   47.241654
  H    -20.687622   29.000440   47.593746
  H    -20.302115   27.250252   49.212663
  H    -18.776321   26.768081   48.414961
  C    -23.184116   27.763569   47.197476
  H    -22.440920   28.451255   47.600465
  H    -23.800155   28.305879   46.469911
  O    -22.559411   26.644258   46.496939
  C    -24.070568   27.291998   48.349098
  C    -25.228558   26.358575   47.951493
  C    -24.524094   24.967006   47.923262
  C    -23.498792   25.081840   49.072053
  O    -23.339873   26.536105   49.353732
  H    -24.449199   28.193602   48.846833
  H    -26.011411   26.393293   48.712570
  O    -25.887624   26.723744   46.713860
  H    -25.232047   24.146068   48.070650
  H    -24.018708   24.845796   46.962548
  H    -22.517755   24.682010   48.810228
  H    -23.856074   24.621283   49.998594
  H    -25.312499   26.478774   45.958936

 Multiplicity           Mult            ....    1
 Number of Electrons    NEL             ....  102
 Basis Dimension        Dim             ....  149

ORBITAL ENERGIES
----------------

  NO   OCC          E(Eh)            E(eV)
   0   2.0000     -19.148186      -521.0486
   1   2.0000     -19.143132      -520.9111
   2   2.0000     -19.135736      -520.7099
   3   2.0000     -19.128446      -520.5115
   4   2.0000     -10.284242      -279.8485
   5   2.0000     -10.231547      -278.4145
   6   2.0000     -10.230999      -278.3996
   7   2.0000     -10.227511      -278.3047
   8   2.0000     -10.225660      -278.2543
   9   2.0000     -10.211266      -277.8627
  10   2.0000     -10.195688      -277.4388
  11   2.0000     -10.195552      -277.4351
  12   2.0000     -10.172640      -276.8116
  13   2.0000      -1.054034       -28.6817
  14   2.0000      -1.021867       -27.8064
  15   2.0000      -1.004680       -27.3387
  16   2.0000      -0.995535       -27.0899
  17   2.0000      -0.790758       -21.5176
  18   2.0000      -0.773641       -21.0518
  19   2.0000      -0.761128       -20.7114
  20   2.0000      -0.731871       -19.9152
  21   2.0000      -0.678576       -18.4650
  22   2.0000      -0.608026       -16.5452
  23   2.0000      -0.600625       -16.3438
  24   2.0000      -0.594915       -16.1885
  25   2.0000      -0.559503       -15.2249
  26   2.0000      -0.526587       -14.3292
  27   2.0000      -0.507427       -13.8078
  28   2.0000      -0.495916       -13.4946
  29   2.0000      -0.489725       -13.3261
  30   2.0000      -0.465098       -12.6559
  31   2.0000      -0.458029       -12.4636
  32   2.0000      -0.439942       -11.9714
  33   2.0000      -0.426907       -11.6167
  34   2.0000      -0.421378       -11.4663
  35   2.0000      -0.413970       -11.2647
  36   2.0000      -0.402699       -10.9580
  37   2.0000      -0.393123       -10.6974
  38   2.0000      -0.387640       -10.5482
  39   2.0000      -0.366857        -9.9827
  40   2.0000      -0.361087        -9.8257
  41   2.0000      -0.352606        -9.5949
  42   2.0000      -0.345495        -9.4014
  43   2.0000      -0.321745        -8.7551
  44   2.0000      -0.313103        -8.5200
  45   2.0000      -0.305697        -8.3184
  46   2.0000      -0.300200        -8.1689
  47   2.0000      -0.274063        -7.4576
  48   2.0000      -0.258362        -7.0304
  49   2.0000      -0.254893        -6.9360
  50   2.0000      -0.231185        -6.2909
  51   0.0000       0.065004         1.7689
  52   0.0000       0.086353         2.3498
  53   0.0000       0.092605         2.5199
  54   0.0000       0.097786         2.6609
  55   0.0000       0.106882         2.9084

MULLIKEN ATOMIC CHARGES
-----------------------
   0 C :    0.311602
   1 C :   -0.279790
   2 C :   -0.321803
   3 C :   -0.011161
   4 O :   -0.502339
   5 H :    0.162555
   6 H :    0.157819
   7 H :    0.148659
   8 H :    0.145951
   9 H :    0.156012
  10 H :    0.168903
  11 H :    0.145343
  12 C :   -0.033418
  13 H :    0.140822
  14 H :    0.147649
  15 O :   -0.543071
  16 C :    0.105187
  17 C :    0.083869
  18 C :   -0.307335
  19 C :   -0.013469
  20 O :   -0.526914
  21 H :    0.140616
  22 H :    0.160316
  23 O :   -0.610541
  24 H :    0.140303
  25 H :    0.162673
  26 H :    0.172683
  27 H :    0.133782
  28 H :    0.365097
Sum of atomic charges:   -0.0000000

LOEWDIN ATOMIC CHARGES
----------------------
   0 C :    0.176891
   1 C :   -0.227961
   2 C :   -0.224063
   3 C :   -0.032982
   4 O :   -0.318733
   5 H :    0.110889
   6 H :    0.123398
   7 H :    0.118383
   8 H :    0.115901
   9 H :    0.109791
  10 H :    0.115791
  11 H :    0.104316
  12 C :   -0.050280
  13 H :    0.105002
  14 H :    0.107879
  15 O :   -0.332689
  16 C :    0.015117
  17 C :    0.035934
  18 C :   -0.241055
  19 C :   -0.028401
  20 O :   -0.327090
  21 H :    0.110565
  22 H :    0.115259
  23 O :   -0.414030
  24 H :    0.113098
  25 H :    0.120876
  26 H :    0.117665
  27 H :    0.097440
  28 H :    0.283092

  Mayer bond orders larger than 0.100000
B(  0-C ,  1-C ) :   0.9234 B(  0-C ,  4-O ) :   0.9054 B(  0-C ,  5-H ) :   0.9366
B(  0-C , 15-O ) :   0.8845 B(  1-C ,  2-C ) :   0.9551 B(  1-C ,  6-H ) :   0.9346
B(  1-C ,  7-H ) :   0.9371 B(  2-C ,  3-C ) :   0.9472 B(  2-C ,  8-H ) :   0.9441
B(  2-C ,  9-H ) :   0.9332 B(  3-C ,  4-O ) :   0.8356 B(  3-C , 10-H ) :   0.9275
B(  3-C , 11-H ) :   0.9388 B( 12-C , 13-H ) :   0.9088 B( 12-C , 14-H ) :   0.9178
B( 12-C , 15-O ) :   0.8328 B( 12-C , 16-C ) :   0.8962 B( 16-C , 17-C ) :   0.8906
B( 16-C , 20-O ) :   0.8846 B( 16-C , 21-H ) :   0.9249 B( 17-C , 18-C ) :   0.9348
B( 17-C , 22-H ) :   0.9358 B( 17-C , 23-O ) :   0.8971 B( 18-C , 19-C ) :   0.9468
B( 18-C , 24-H ) :   0.9415 B( 18-C , 25-H ) :   0.9268 B( 19-C , 20-O ) :   0.8249
B( 19-C , 26-H ) :   0.9199 B( 19-C , 27-H ) :   0.9383 B( 23-O , 28-H ) :   0.7932

FINAL SINGLE POINT ENERGY      -652.858054294315

DIPOLE MOMENT
-------------
                                X             Y             Z
Electronic contribution:     -3.17086      -1.70486       0.24056
Nuclear contribution   :      4.12710       2.22661      -0.76269
                        -----------------------------------------
Total Dipole Moment    :      0.95625       0.52175      -0.52212
                        -----------------------------------------
Magnitude (a.u.)       :      1.20799
Magnitude (Debye)      :      3.07047

Rotational constants in cm-1:     0.049348     0.017812     0.016084
Rotational constants in MHz :  1479.416297   534.004255   482.182712

                             ****ORCA TERMINATED NORMALLY****
TOTAL RUN TIME: 0 days 0 hours 32 minutes 12 seconds 980 msec
