                         Program Version 4.2.1 -  RELEASE  -
|  1> # Test redundant internal optimization
|  2> #
|  3> ! RKS B3LYP  Opt TightSCF SmallPrint
|  4>
|  5> %basis
|  6>         Basis "6-31G"
|  7> end
|  8>
|  9> %geom
| 10> Constraints
| 11> { D 4  0  19  14  300.0   C } # D for Dihedral angle
| 12> { D 0  19  14  12  195.0   C } # D for Dihedral angle
| 13> { D 0  4  3  2   C } # D for Dihedral angle
| 14> { D 4  3  2  1   C } # D for Dihedral angle
| 15> { D 3  2  1  0   C } # D for Dihedral angle
| 16> { D 2  1  0  4   C } # D for Dihedral angle
| 17> { D 1  0  4  3   C } # D for Dihedral angle
| 18> { D 14  15  16  17   C } # D for Dihedral angle
| 19> { D 15  16  17  12   C } # D for Dihedral angle
| 20> { D 16  17  12  14   C } # D for Dihedral angle
| 21> { D 17  12  14  15   C } # D for Dihedral angle
| 22> { D 12  14  15  16   C } # D for Dihedral angle
| 23> end
| 24> end
| 25>
| 26>
| 27> #%pal
| 28> #nprocs 8
| 29> #end
| 30>
| 31> * xyz 0 1
| 32> C  -21.048   26.222   46.251
| 33> C  -20.361   27.558   45.944
| 34> C  -20.329   28.222   47.341
| 35> C  -20.110   27.022   48.296
| 36> O  -20.473   25.807   47.535
| 37> H  -20.833   25.428   45.533
| 38> H  -19.344   27.382   45.576
| 39> H  -20.898   28.157   45.201
| 40> H  -19.543   28.978   47.434
| 41> H  -21.289   28.710   47.548
| 42> H  -20.733   27.082   49.195
| 43> H  -19.064   26.913   48.597
| 44> C  -24.673   25.349   46.493
| 45> H  -25.259   24.593   47.038
| 46> C  -23.171   25.189   46.758
| 47> C  -22.811   24.012   45.822
| 48> C  -23.733   24.240   44.598
| 49> O  -24.807   25.155   45.045
| 50> H  -25.069   26.340   46.720
| 51> O  -22.472   26.381   46.366
| 52> H  -22.940   24.982   47.808
| 53> H  -21.752   23.994   45.549
| 54> H  -23.047   23.057   46.309
| 55> H  -24.183   23.312   44.231
| 56> H  -23.214   24.734   43.770
| 57> *
| 58>
| 59>                          ****END OF INPUT****
 Total Charge           Charge          ....    0
 Multiplicity           Mult            ....    1
 Number of Electrons    NEL             ....   86
FINAL SINGLE POINT ENERGY      -538.430945492030
FINAL SINGLE POINT ENERGY      -538.436212812243
FINAL SINGLE POINT ENERGY      -538.436880938997
FINAL SINGLE POINT ENERGY      -538.437009749726
FINAL SINGLE POINT ENERGY      -538.437019864556
FINAL SINGLE POINT ENERGY      -538.437023289604
                    ***********************HURRAY********************

CARTESIAN COORDINATES (ANGSTROEM)
---------------------------------
  C    -20.956577   26.219083   46.224064
  C    -20.418488   27.627641   45.966661
  C    -20.415919   28.228634   47.390656
  C    -20.051605   27.020777   48.283070
  O    -20.315638   25.810975   47.460535
  H    -20.681426   25.468484   45.479334
  H    -19.401829   27.557025   45.563827
  H    -21.044898   28.182448   45.265357
  H    -19.704001   29.052661   47.498678
  H    -21.415877   28.599617   47.632139
  H    -20.649978   26.966315   49.196272
  H    -18.990070   26.992217   48.546663
  C    -24.602355   25.448459   46.435893
  H    -25.270219   24.779161   46.997343
  C    -23.138960   25.135787   46.744662
  C    -22.890447   23.906612   45.854037
  C    -23.749489   24.191729   44.599489
  O    -24.726166   25.229531   44.992617
  H    -24.860585   26.488788   46.635657
  O    -22.383418   26.331256   46.356703
  H    -22.947747   24.925400   47.802056
  H    -21.836665   23.732753   45.626375
  H    -23.256258   23.019898   46.385074
  H    -24.286060   23.303204   44.248829
  H    -23.161323   24.600546   43.772010

 Multiplicity           Mult            ....    1
 Number of Electrons    NEL             ....   86
 Basis Dimension        Dim             ....  127

ORBITAL ENERGIES
----------------

  NO   OCC          E(Eh)            E(eV)
   0   2.0000     -19.142562      -520.8956
   1   2.0000     -19.140064      -520.8276
   2   2.0000     -19.126228      -520.4511
   3   2.0000     -10.277165      -279.6559
   4   2.0000     -10.236926      -278.5609
   5   2.0000     -10.225325      -278.2452
   6   2.0000     -10.220725      -278.1201
   7   2.0000     -10.219325      -278.0820
   8   2.0000     -10.186781      -277.1964
   9   2.0000     -10.184034      -277.1217
  10   2.0000     -10.183771      -277.1145
  11   2.0000      -1.054079       -28.6830
  12   2.0000      -1.012288       -27.5457
  13   2.0000      -0.987761       -26.8784
  14   2.0000      -0.792273       -21.5589
  15   2.0000      -0.774888       -21.0858
  16   2.0000      -0.743941       -20.2437
  17   2.0000      -0.718079       -19.5399
  18   2.0000      -0.613129       -16.6841
  19   2.0000      -0.600985       -16.3536
  20   2.0000      -0.593207       -16.1420
  21   2.0000      -0.564320       -15.3559
  22   2.0000      -0.527135       -14.3441
  23   2.0000      -0.495977       -13.4962
  24   2.0000      -0.488586       -13.2951
  25   2.0000      -0.477002       -12.9799
  26   2.0000      -0.456250       -12.4152
  27   2.0000      -0.437248       -11.8981
  28   2.0000      -0.424476       -11.5506
  29   2.0000      -0.416800       -11.3417
  30   2.0000      -0.402519       -10.9531
  31   2.0000      -0.386871       -10.5273
  32   2.0000      -0.372206       -10.1282
  33   2.0000      -0.361863        -9.8468
  34   2.0000      -0.359774        -9.7899
  35   2.0000      -0.355337        -9.6692
  36   2.0000      -0.342439        -9.3183
  37   2.0000      -0.328889        -8.9495
  38   2.0000      -0.301793        -8.2122
  39   2.0000      -0.293874        -7.9967
  40   2.0000      -0.266654        -7.2560
  41   2.0000      -0.252666        -6.8754
  42   2.0000      -0.233530        -6.3547
  43   0.0000       0.077508         2.1091
  44   0.0000       0.097206         2.6451
  45   0.0000       0.102737         2.7956
  46   0.0000       0.111565         3.0358
  47   0.0000       0.118895         3.2353

MULLIKEN ATOMIC CHARGES
-----------------------
   0 C :    0.288590
   1 C :   -0.261538
   2 C :   -0.296824
   3 C :   -0.005464
   4 O :   -0.518858
   5 H :    0.142973
   6 H :    0.143539
   7 H :    0.162616
   8 H :    0.140477
   9 H :    0.161806
  10 H :    0.144446
  11 H :    0.143159
  12 C :    0.000742
  13 H :    0.124985
  14 C :    0.090193
  15 C :   -0.319270
  16 C :    0.006336
  17 O :   -0.519807
  18 H :    0.164845
  19 O :   -0.522743
  20 H :    0.145558
  21 H :    0.158346
  22 H :    0.145954
  23 H :    0.136239
  24 H :    0.143700
Sum of atomic charges:    0.0000000

LOEWDIN ATOMIC CHARGES
----------------------
   0 C :    0.170635
   1 C :   -0.213406
   2 C :   -0.215751
   3 C :   -0.028498
   4 O :   -0.335428
   5 H :    0.094236
   6 H :    0.113104
   7 H :    0.127153
   8 H :    0.113249
   9 H :    0.118989
  10 H :    0.103667
  11 H :    0.102777
  12 C :   -0.033420
  13 H :    0.091380
  14 C :    0.040450
  15 C :   -0.237624
  16 C :   -0.028807
  17 O :   -0.329747
  18 H :    0.122192
  19 O :   -0.320679
  20 H :    0.105344
  21 H :    0.121629
  22 H :    0.117142
  23 H :    0.098787
  24 H :    0.102626

  Mayer bond orders larger than 0.100000
B(  0-C ,  1-C ) :   0.9493 B(  0-C ,  4-O ) :   0.8934 B(  0-C ,  5-H ) :   0.9137
B(  0-C , 19-O ) :   0.8664 B(  1-C ,  2-C ) :   0.9559 B(  1-C ,  6-H ) :   0.9406
B(  1-C ,  7-H ) :   0.9348 B(  2-C ,  3-C ) :   0.9554 B(  2-C ,  8-H ) :   0.9452
B(  2-C ,  9-H ) :   0.9443 B(  3-C ,  4-O ) :   0.8375 B(  3-C , 10-H ) :   0.9361
B(  3-C , 11-H ) :   0.9405 B( 12-C , 13-H ) :   0.9162 B( 12-C , 14-C ) :   0.9340
B( 12-C , 17-O ) :   0.8682 B( 12-C , 18-H ) :   0.9304 B( 14-C , 15-C ) :   0.9331
B( 14-C , 19-O ) :   0.8253 B( 14-C , 20-H ) :   0.9215 B( 15-C , 16-C ) :   0.9406
B( 15-C , 21-H ) :   0.9316 B( 15-C , 22-H ) :   0.9375 B( 16-C , 17-O ) :   0.8604
B( 16-C , 23-H ) :   0.9335 B( 16-C , 24-H ) :   0.9375

FINAL SINGLE POINT ENERGY      -538.437023394919

DIPOLE MOMENT
-------------
                                X             Y             Z
Electronic contribution:     -1.85043      -0.81322      -0.66799
Nuclear contribution   :      2.52363       0.76629       1.11210
                        -----------------------------------------
Total Dipole Moment    :      0.67321      -0.04693       0.44410
                        -----------------------------------------
Magnitude (a.u.)       :      0.80786
Magnitude (Debye)      :      2.05342

Rotational constants in cm-1:     0.085513     0.020433     0.019915
Rotational constants in MHz :  2563.619871   612.554602   597.031029

                             ****ORCA TERMINATED NORMALLY****
TOTAL RUN TIME: 0 days 0 hours 6 minutes 58 seconds 156 msec
