                         Program Version 4.2.1 -  RELEASE  -
|  1> # Test redundant internal optimization
|  2> #
|  3> ! RKS B3LYP  Opt TightSCF SmallPrint
|  4>
|  5> %basis
|  6>         Basis "6-31G"
|  7> end
|  8>
|  9> %geom
| 10> Constraints
| 11> { D 4  0  19  14  105.0   C } # D for Dihedral angle
| 12> { D 0  19  14  12  75.0   C } # D for Dihedral angle
| 13> { D 0  4  3  2   C } # D for Dihedral angle
| 14> { D 4  3  2  1   C } # D for Dihedral angle
| 15> { D 3  2  1  0   C } # D for Dihedral angle
| 16> { D 2  1  0  4   C } # D for Dihedral angle
| 17> { D 1  0  4  3   C } # D for Dihedral angle
| 18> { D 14  15  16  17   C } # D for Dihedral angle
| 19> { D 15  16  17  12   C } # D for Dihedral angle
| 20> { D 16  17  12  14   C } # D for Dihedral angle
| 21> { D 17  12  14  15   C } # D for Dihedral angle
| 22> { D 12  14  15  16   C } # D for Dihedral angle
| 23> end
| 24> end
| 25>
| 26>
| 27> #%pal
| 28> #nprocs 8
| 29> #end
| 30>
| 31> * xyz 0 1
| 32> C  -21.048   26.222   46.251
| 33> C  -20.361   27.558   45.944
| 34> C  -20.329   28.222   47.341
| 35> C  -20.110   27.022   48.296
| 36> O  -20.473   25.807   47.535
| 37> H  -20.833   25.428   45.533
| 38> H  -19.344   27.382   45.576
| 39> H  -20.898   28.157   45.201
| 40> H  -19.543   28.978   47.434
| 41> H  -21.289   28.710   47.548
| 42> H  -20.733   27.082   49.195
| 43> H  -19.064   26.913   48.597
| 44> C  -22.834   28.367   45.007
| 45> H  -22.883   29.467   45.052
| 46> C  -22.914   27.747   46.406
| 47> C  -24.431   27.822   46.697
| 48> C  -25.069   27.579   45.306
| 49> O  -24.007   27.831   44.307
| 50> H  -21.956   28.072   44.430
| 51> O  -22.472   26.381   46.366
| 52> H  -22.312   28.283   47.149
| 53> H  -24.758   27.089   47.440
| 54> H  -24.694   28.819   47.073
| 55> H  -25.914   28.247   45.108
| 56> H  -25.397   26.543   45.172
| 57> *
| 58>
| 59>                          ****END OF INPUT****
 Total Charge           Charge          ....    0
 Multiplicity           Mult            ....    1
 Number of Electrons    NEL             ....   86
FINAL SINGLE POINT ENERGY      -538.364586529223
FINAL SINGLE POINT ENERGY      -538.417690984989
FINAL SINGLE POINT ENERGY      -538.421345804012
FINAL SINGLE POINT ENERGY      -538.421995296607
FINAL SINGLE POINT ENERGY      -538.422068680264
FINAL SINGLE POINT ENERGY      -538.422093648898
FINAL SINGLE POINT ENERGY      -538.422088743934
                    ***********************HURRAY********************

CARTESIAN COORDINATES (ANGSTROEM)
---------------------------------
  C    -21.105918   26.324311   46.372544
  C    -20.101298   27.412283   45.968934
  C    -19.880941   28.169219   47.312786
  C    -19.969919   27.024123   48.353021
  O    -20.642247   25.897374   47.672968
  H    -21.062260   25.435398   45.742474
  H    -19.175604   26.912828   45.663404
  H    -20.423488   28.053997   45.150126
  H    -18.913970   28.680334   47.345633
  H    -20.658308   28.922275   47.474863
  H    -20.543033   27.298361   49.243877
  H    -18.982611   26.668021   48.661491
  C    -23.113219   28.657059   45.048326
  H    -23.391864   29.715267   45.175828
  C    -23.133530   27.954374   46.405524
  C    -24.641065   27.703141   46.603255
  C    -25.148392   27.417561   45.170542
  O    -24.110105   27.939664   44.251124
  H    -22.175069   28.599645   44.500099
  O    -22.522500   26.630816   46.410136
  H    -22.717081   28.580630   47.205266
  H    -24.799007   26.868965   47.289437
  H    -25.112400   28.600680   47.019853
  H    -26.099892   27.914106   44.952619
  H    -25.242279   26.347567   44.969871

 Multiplicity           Mult            ....    1
 Number of Electrons    NEL             ....   86
 Basis Dimension        Dim             ....  127

ORBITAL ENERGIES
----------------

  NO   OCC          E(Eh)            E(eV)
   0   2.0000     -19.138132      -520.7750
   1   2.0000     -19.137681      -520.7628
   2   2.0000     -19.129006      -520.5267
   3   2.0000     -10.279494      -279.7193
   4   2.0000     -10.244638      -278.7708
   5   2.0000     -10.228265      -278.3253
   6   2.0000     -10.225911      -278.2612
   7   2.0000     -10.218607      -278.0624
   8   2.0000     -10.196220      -277.4532
   9   2.0000     -10.195239      -277.4265
  10   2.0000     -10.184335      -277.1298
  11   2.0000      -1.049296       -28.5528
  12   2.0000      -1.014661       -27.6103
  13   2.0000      -0.988101       -26.8876
  14   2.0000      -0.791694       -21.5431
  15   2.0000      -0.786248       -21.3949
  16   2.0000      -0.739180       -20.1141
  17   2.0000      -0.727910       -19.8074
  18   2.0000      -0.622996       -16.9526
  19   2.0000      -0.606745       -16.5104
  20   2.0000      -0.597172       -16.2499
  21   2.0000      -0.565847       -15.3975
  22   2.0000      -0.520203       -14.1554
  23   2.0000      -0.503867       -13.7109
  24   2.0000      -0.490678       -13.3520
  25   2.0000      -0.486239       -13.2312
  26   2.0000      -0.453059       -12.3284
  27   2.0000      -0.446050       -12.1376
  28   2.0000      -0.433979       -11.8092
  29   2.0000      -0.415915       -11.3176
  30   2.0000      -0.412446       -11.2232
  31   2.0000      -0.389545       -10.6001
  32   2.0000      -0.371737       -10.1155
  33   2.0000      -0.369522       -10.0552
  34   2.0000      -0.365627        -9.9492
  35   2.0000      -0.359866        -9.7924
  36   2.0000      -0.346367        -9.4251
  37   2.0000      -0.313739        -8.5373
  38   2.0000      -0.306079        -8.3288
  39   2.0000      -0.289533        -7.8786
  40   2.0000      -0.267452        -7.2777
  41   2.0000      -0.249664        -6.7937
  42   2.0000      -0.235312        -6.4032
  43   0.0000       0.065797         1.7904
  44   0.0000       0.087571         2.3829
  45   0.0000       0.093772         2.5517
  46   0.0000       0.105619         2.8741
  47   0.0000       0.113352         3.0845

MULLIKEN ATOMIC CHARGES
-----------------------
   0 C :    0.316046
   1 C :   -0.300085
   2 C :   -0.310416
   3 C :   -0.004434
   4 O :   -0.496179
   5 H :    0.166696
   6 H :    0.159298
   7 H :    0.146714
   8 H :    0.146276
   9 H :    0.144920
  10 H :    0.144706
  11 H :    0.145698
  12 C :   -0.012071
  13 H :    0.125594
  14 C :    0.072111
  15 C :   -0.290026
  16 C :    0.005565
  17 O :   -0.520950
  18 H :    0.158697
  19 O :   -0.527830
  20 H :    0.126933
  21 H :    0.175547
  22 H :    0.137777
  23 H :    0.132585
  24 H :    0.156828
Sum of atomic charges:    0.0000000

LOEWDIN ATOMIC CHARGES
----------------------
   0 C :    0.181843
   1 C :   -0.231506
   2 C :   -0.221929
   3 C :   -0.031923
   4 O :   -0.316026
   5 H :    0.112594
   6 H :    0.124405
   7 H :    0.115528
   8 H :    0.116441
   9 H :    0.106144
  10 H :    0.103268
  11 H :    0.103994
  12 C :   -0.050395
  13 H :    0.092728
  14 C :    0.039431
  15 C :   -0.221662
  16 C :   -0.025893
  17 O :   -0.331092
  18 H :    0.112131
  19 O :   -0.322927
  20 H :    0.092601
  21 H :    0.134339
  22 H :    0.110222
  23 H :    0.097240
  24 H :    0.110444

  Mayer bond orders larger than 0.100000
B(  0-C ,  1-C ) :   0.9255 B(  0-C ,  4-O ) :   0.9066 B(  0-C ,  5-H ) :   0.9329
B(  0-C , 19-O ) :   0.8862 B(  1-C ,  2-C ) :   0.9522 B(  1-C ,  6-H ) :   0.9335
B(  1-C ,  7-H ) :   0.9233 B(  2-C ,  3-C ) :   0.9480 B(  2-C ,  8-H ) :   0.9452
B(  2-C ,  9-H ) :   0.9398 B(  3-C ,  4-O ) :   0.8500 B(  3-C , 10-H ) :   0.9344
B(  3-C , 11-H ) :   0.9387 B( 12-C , 13-H ) :   0.9076 B( 12-C , 14-C ) :   0.9110
B( 12-C , 17-O ) :   0.8754 B( 12-C , 18-H ) :   0.9234 B( 14-C , 15-C ) :   0.9543
B( 14-C , 19-O ) :   0.8328 B( 14-C , 20-H ) :   0.9100 B( 15-C , 16-C ) :   0.9462
B( 15-C , 21-H ) :   0.9337 B( 15-C , 22-H ) :   0.9423 B( 16-C , 17-O ) :   0.8509
B( 16-C , 23-H ) :   0.9340 B( 16-C , 24-H ) :   0.9366

FINAL SINGLE POINT ENERGY      -538.422087425892

DIPOLE MOMENT
-------------
                                X             Y             Z
Electronic contribution:     -1.13415      -3.90393      -1.26265
Nuclear contribution   :      1.66744       5.08945       1.78512
                        -----------------------------------------
Total Dipole Moment    :      0.53330       1.18553       0.52247
                        -----------------------------------------
Magnitude (a.u.)       :      1.40102
Magnitude (Debye)      :      3.56111

Rotational constants in cm-1:     0.082365     0.021474     0.020188
Rotational constants in MHz :  2469.231884   643.775326   605.209087

                             ****ORCA TERMINATED NORMALLY****
TOTAL RUN TIME: 0 days 0 hours 9 minutes 19 seconds 485 msec
