                         Program Version 4.2.0 -  RELEASE  -
|  1> # Test redundant internal optimization
|  2> #
|  3> ! RKS B3LYP  Opt TightSCF SmallPrint
|  4>
|  5> %basis
|  6>         Basis "6-31G"
|  7> end
|  8>
|  9> %geom
| 10> Constraints
| 11> { D 4  0  15  12  330.0   C } # D for Dihedral angle
| 12> { D 0  15  12  16  195.0   C } # D for Dihedral angle
| 13> { D 0  4  3  2   C } # D for Dihedral angle
| 14> { D 4  3  2  1   C } # D for Dihedral angle
| 15> { D 3  2  1  0   C } # D for Dihedral angle
| 16> { D 2  1  0  4   C } # D for Dihedral angle
| 17> { D 1  0  4  3   C } # D for Dihedral angle
| 18> { D 16  20  19  18   C } # D for Dihedral angle
| 19> { D 20  19  18  17   C } # D for Dihedral angle
| 20> { D 19  18  17  16   C } # D for Dihedral angle
| 21> { D 18  17  16  20   C } # D for Dihedral angle
| 22> { D 17  16  20  19   C } # D for Dihedral angle
| 23> { D 15  12  16  20   C } # D for Dihedral angle
| 24> end
| 25> end
| 26>
| 27>
| 28> #%pal
| 29> #nprocs 8
| 30> #end
| 31>
| 32> * xyz 0 1
| 33> C  -21.048   26.222   46.251
| 34> C  -20.361   27.558   45.944
| 35> C  -20.329   28.222   47.341
| 36> C  -20.110   27.022   48.296
| 37> O  -20.473   25.807   47.535
| 38> H  -20.833   25.428   45.533
| 39> H  -19.344   27.382   45.576
| 40> H  -20.898   28.157   45.201
| 41> H  -19.543   28.978   47.434
| 42> H  -21.289   28.710   47.548
| 43> H  -20.733   27.082   49.195
| 44> H  -19.064   26.913   48.597
| 45> C  -23.271   25.476   47.424
| 46> H  -22.873   24.458   47.329
| 47> H  -23.062   25.832   48.441
| 48> O  -22.586   26.394   46.375
| 49> C  -24.814   25.415   47.253
| 50> C  -25.200   24.767   45.918
| 51> C  -25.022   23.263   46.236
| 52> C  -25.458   23.163   47.719
| 53> O  -25.408   24.536   48.266
| 54> H  -25.231   26.411   47.409
| 55> O  -26.683   25.084   45.582
| 56> H  -24.579   25.102   45.081
| 57> H  -25.616   22.618   45.581
| 58> H  -23.969   22.978   46.122
| 59> H  -24.798   22.518   48.308
| 60> H  -26.487   22.810   47.828
| 61> H  -27.327   24.757   46.408
| 62> *
| 63>
| 64>                          ****END OF INPUT****
 Total Charge           Charge          ....    0
 Multiplicity           Mult            ....    1
 Number of Electrons    NEL             ....  102
FINAL SINGLE POINT ENERGY      -652.839260714910
FINAL SINGLE POINT ENERGY      -652.862654058900
FINAL SINGLE POINT ENERGY      -652.866387025318
FINAL SINGLE POINT ENERGY      -652.867033417710
FINAL SINGLE POINT ENERGY      -652.867121113483
FINAL SINGLE POINT ENERGY      -652.867133743158
                    ***********************HURRAY********************

CARTESIAN COORDINATES (ANGSTROEM)
---------------------------------
  C    -21.117025   26.136775   46.321682
  C    -20.573016   27.515060   45.948929
  C    -20.490837   28.203596   47.328375
  C    -20.100010   27.051906   48.279835
  O    -20.424839   25.795383   47.544378
  H    -20.893540   25.328072   45.618449
  H    -19.579616   27.401053   45.500309
  H    -21.224832   28.037734   45.245562
  H    -19.763538   29.021060   47.347331
  H    -21.471168   28.609656   47.594684
  H    -20.654589   27.060453   49.221711
  H    -19.027779   27.016789   48.492481
  C    -23.163636   25.398972   47.512059
  H    -22.751409   24.381923   47.475043
  H    -22.968970   25.798092   48.512368
  O    -22.555572   26.239809   46.486209
  C    -24.666536   25.394657   47.242926
  C    -25.086458   24.781419   45.899272
  C    -25.025956   23.265204   46.214057
  C    -25.484200   23.191530   47.692041
  O    -25.336183   24.560078   48.247594
  H    -25.063233   26.408623   47.346517
  O    -26.432277   25.201332   45.537310
  H    -24.447426   25.088675   45.073741
  H    -25.675376   22.703684   45.538210
  H    -24.003047   22.892483   46.094871
  H    -24.884452   22.498735   48.289885
  H    -26.538844   22.916644   47.792396
  H    -27.004637   25.163601   46.332774

 Multiplicity           Mult            ....    1
 Number of Electrons    NEL             ....  102
 Basis Dimension        Dim             ....  149

ORBITAL ENERGIES
----------------

  NO   OCC          E(Eh)            E(eV)
   0   2.0000     -19.149161      -521.0752
   1   2.0000     -19.144554      -520.9498
   2   2.0000     -19.142184      -520.8853
   3   2.0000     -19.132177      -520.6130
   4   2.0000     -10.281709      -279.7795
   5   2.0000     -10.232571      -278.4424
   6   2.0000     -10.231312      -278.4082
   7   2.0000     -10.229842      -278.3682
   8   2.0000     -10.229275      -278.3527
   9   2.0000     -10.226908      -278.2883
  10   2.0000     -10.189488      -277.2701
  11   2.0000     -10.187851      -277.2255
  12   2.0000     -10.184798      -277.1424
  13   2.0000      -1.057807       -28.7844
  14   2.0000      -1.033197       -28.1147
  15   2.0000      -1.001356       -27.2483
  16   2.0000      -0.995274       -27.0828
  17   2.0000      -0.793433       -21.5904
  18   2.0000      -0.776703       -21.1352
  19   2.0000      -0.766479       -20.8570
  20   2.0000      -0.731580       -19.9073
  21   2.0000      -0.671705       -18.2780
  22   2.0000      -0.603706       -16.4277
  23   2.0000      -0.600920       -16.3519
  24   2.0000      -0.590254       -16.0616
  25   2.0000      -0.578012       -15.7285
  26   2.0000      -0.521290       -14.1850
  27   2.0000      -0.515968       -14.0402
  28   2.0000      -0.497355       -13.5337
  29   2.0000      -0.492235       -13.3944
  30   2.0000      -0.471956       -12.8426
  31   2.0000      -0.455658       -12.3991
  32   2.0000      -0.446429       -12.1480
  33   2.0000      -0.437234       -11.8977
  34   2.0000      -0.421275       -11.4635
  35   2.0000      -0.412471       -11.2239
  36   2.0000      -0.403320       -10.9749
  37   2.0000      -0.389855       -10.6085
  38   2.0000      -0.375837       -10.2270
  39   2.0000      -0.364954        -9.9309
  40   2.0000      -0.361705        -9.8425
  41   2.0000      -0.353285        -9.6134
  42   2.0000      -0.351657        -9.5691
  43   2.0000      -0.342834        -9.3290
  44   2.0000      -0.324185        -8.8215
  45   2.0000      -0.307667        -8.3721
  46   2.0000      -0.300503        -8.1771
  47   2.0000      -0.268320        -7.3013
  48   2.0000      -0.263391        -7.1672
  49   2.0000      -0.258297        -7.0286
  50   2.0000      -0.244506        -6.6533
  51   0.0000       0.068656         1.8682
  52   0.0000       0.073048         1.9877
  53   0.0000       0.094129         2.5614
  54   0.0000       0.101270         2.7557
  55   0.0000       0.104973         2.8565

MULLIKEN ATOMIC CHARGES
-----------------------
   0 C :    0.298735
   1 C :   -0.260768
   2 C :   -0.301007
   3 C :   -0.014249
   4 O :   -0.513406
   5 H :    0.148004
   6 H :    0.145340
   7 H :    0.163111
   8 H :    0.145357
   9 H :    0.160463
  10 H :    0.148094
  11 H :    0.149370
  12 C :    0.009244
  13 H :    0.138013
  14 H :    0.149632
  15 O :   -0.543930
  16 C :    0.054334
  17 C :    0.091268
  18 C :   -0.298687
  19 C :   -0.032186
  20 O :   -0.528848
  21 H :    0.164480
  22 O :   -0.603654
  23 H :    0.170325
  24 H :    0.162405
  25 H :    0.143902
  26 H :    0.148336
  27 H :    0.144738
  28 H :    0.361582
Sum of atomic charges:   -0.0000000

LOEWDIN ATOMIC CHARGES
----------------------
   0 C :    0.178163
   1 C :   -0.215618
   2 C :   -0.216984
   3 C :   -0.030495
   4 O :   -0.324476
   5 H :    0.097904
   6 H :    0.114299
   7 H :    0.127126
   8 H :    0.116200
   9 H :    0.118220
  10 H :    0.104812
  11 H :    0.106211
  12 C :   -0.035384
  13 H :    0.099060
  14 H :    0.106526
  15 O :   -0.342652
  16 C :    0.016832
  17 C :    0.038221
  18 C :   -0.241450
  19 C :   -0.038921
  20 O :   -0.331383
  21 H :    0.117355
  22 O :   -0.415576
  23 H :    0.124808
  24 H :    0.126597
  25 H :    0.113102
  26 H :    0.104681
  27 H :    0.102017
  28 H :    0.280806

  Mayer bond orders larger than 0.100000
B(  0-C ,  1-C ) :   0.9468 B(  0-C ,  4-O ) :   0.9049 B(  0-C ,  5-H ) :   0.9231
B(  0-C , 15-O ) :   0.8413 B(  1-C ,  2-C ) :   0.9535 B(  1-C ,  6-H ) :   0.9373
B(  1-C ,  7-H ) :   0.9351 B(  2-C ,  3-C ) :   0.9552 B(  2-C ,  8-H ) :   0.9445
B(  2-C ,  9-H ) :   0.9448 B(  3-C ,  4-O ) :   0.8308 B(  3-C , 10-H ) :   0.9338
B(  3-C , 11-H ) :   0.9402 B( 12-C , 13-H ) :   0.9207 B( 12-C , 14-H ) :   0.9208
B( 12-C , 15-O ) :   0.8088 B( 12-C , 16-C ) :   0.9040 B( 16-C , 17-C ) :   0.9120
B( 16-C , 20-O ) :   0.8418 B( 16-C , 21-H ) :   0.9249 B( 17-C , 18-C ) :   0.9115
B( 17-C , 22-O ) :   0.8882 B( 17-C , 23-H ) :   0.9252 B( 18-C , 19-C ) :   0.9432
B( 18-C , 24-H ) :   0.9375 B( 18-C , 25-H ) :   0.9353 B( 19-C , 20-O ) :   0.8446
B( 19-C , 26-H ) :   0.9349 B( 19-C , 27-H ) :   0.9383 B( 22-O , 28-H ) :   0.7966

FINAL SINGLE POINT ENERGY      -652.867136033204

DIPOLE MOMENT
-------------
                                X             Y             Z
Electronic contribution:     -3.20651      -0.83671      -0.15872
Nuclear contribution   :      3.99346       0.86917       0.32391
                        -----------------------------------------
Total Dipole Moment    :      0.78694       0.03246       0.16519
                        -----------------------------------------
Magnitude (a.u.)       :      0.80475
Magnitude (Debye)      :      2.04551

Rotational constants in cm-1:     0.059739     0.012414     0.011661
Rotational constants in MHz :  1790.943137   372.157125   349.596730

                             ****ORCA TERMINATED NORMALLY****
TOTAL RUN TIME: 0 days 0 hours 55 minutes 30 seconds 356 msec
