                         Program Version 4.2.0 -  RELEASE  -
|  1> # Test redundant internal optimization
|  2> #
|  3> ! RKS B3LYP  Opt TightSCF SmallPrint
|  4>
|  5> %basis
|  6>         Basis "6-31G"
|  7> end
|  8>
|  9> %geom
| 10> Constraints
| 11> { D 4  0  15  12  15.0   C } # D for Dihedral angle
| 12> { D 0  15  12  16  255.0   C } # D for Dihedral angle
| 13> { D 0  4  3  2   C } # D for Dihedral angle
| 14> { D 4  3  2  1   C } # D for Dihedral angle
| 15> { D 3  2  1  0   C } # D for Dihedral angle
| 16> { D 2  1  0  4   C } # D for Dihedral angle
| 17> { D 1  0  4  3   C } # D for Dihedral angle
| 18> { D 16  20  19  18   C } # D for Dihedral angle
| 19> { D 20  19  18  17   C } # D for Dihedral angle
| 20> { D 19  18  17  16   C } # D for Dihedral angle
| 21> { D 18  17  16  20   C } # D for Dihedral angle
| 22> { D 17  16  20  19   C } # D for Dihedral angle
| 23> { D 15  12  16  20   C } # D for Dihedral angle
| 24> end
| 25> end
| 26>
| 27>
| 28> #%pal
| 29> #nprocs 8
| 30> #end
| 31>
| 32> * xyz 0 1
| 33> C  -21.048   26.222   46.251
| 34> C  -20.361   27.558   45.944
| 35> C  -20.329   28.222   47.341
| 36> C  -20.110   27.022   48.296
| 37> O  -20.473   25.807   47.535
| 38> H  -20.833   25.428   45.533
| 39> H  -19.344   27.382   45.576
| 40> H  -20.898   28.157   45.201
| 41> H  -19.543   28.978   47.434
| 42> H  -21.289   28.710   47.548
| 43> H  -20.733   27.082   49.195
| 44> H  -19.064   26.913   48.597
| 45> C  -23.128   26.462   47.829
| 46> H  -22.295   26.652   48.517
| 47> H  -23.850   27.282   47.932
| 48> O  -22.586   26.394   46.375
| 49> C  -23.836   25.151   48.268
| 50> C  -24.960   24.772   47.297
| 51> C  -24.165   24.135   46.132
| 52> C  -22.995   23.421   46.853
| 53> O  -22.905   24.019   48.203
| 54> H  -24.151   25.246   49.309
| 55> O  -25.902   23.727   47.953
| 56> H  -25.563   25.630   46.980
| 57> H  -24.769   23.445   45.533
| 58> H  -23.787   24.916   45.462
| 59> H  -22.038   23.556   46.336
| 60> H  -23.177   22.351   46.987
| 61> H  -25.319   22.858   48.278
| 62> *
| 63>
| 64>                          ****END OF INPUT****
 Total Charge           Charge          ....    0
 Multiplicity           Mult            ....    1
 Number of Electrons    NEL             ....  102
FINAL SINGLE POINT ENERGY      -652.825212371227
FINAL SINGLE POINT ENERGY      -652.849228743700
FINAL SINGLE POINT ENERGY      -652.854868822901
FINAL SINGLE POINT ENERGY      -652.857421987212
FINAL SINGLE POINT ENERGY      -652.857671952850
FINAL SINGLE POINT ENERGY      -652.857721304836
FINAL SINGLE POINT ENERGY      -652.857723692028
                    ***********************HURRAY********************

CARTESIAN COORDINATES (ANGSTROEM)
---------------------------------
  C    -21.066996   26.321236   46.356385
  C    -20.426130   27.665265   46.004652
  C    -20.220086   28.298140   47.404246
  C    -19.883505   27.077304   48.289868
  O    -20.349481   25.885874   47.525402
  H    -20.924271   25.548773   45.598314
  H    -19.463742   27.486489   45.511088
  H    -21.059415   28.263704   45.346385
  H    -19.423949   29.048718   47.414743
  H    -21.143674   28.783625   47.738064
  H    -20.380191   27.089899   49.263899
  H    -18.807988   26.946354   48.440032
  C    -23.160985   26.445504   47.806283
  H    -22.429020   26.643193   48.592991
  H    -23.894991   27.260528   47.788512
  O    -22.516130   26.436355   46.501674
  C    -23.870364   25.130641   48.152155
  C    -24.993946   24.697539   47.200391
  C    -24.201340   23.961033   46.087684
  C    -23.050099   23.285029   46.873040
  O    -22.964268   23.985268   48.175843
  H    -24.268774   25.239064   49.169003
  O    -25.937011   23.820226   47.881032
  H    -25.596121   25.525233   46.824298
  H    -24.841005   23.244832   45.564347
  H    -23.810340   24.693562   45.378725
  H    -22.084979   23.366023   46.365803
  H    -23.245357   22.228730   47.089153
  H    -25.436839   23.119859   48.350989

 Multiplicity           Mult            ....    1
 Number of Electrons    NEL             ....  102
 Basis Dimension        Dim             ....  149

ORBITAL ENERGIES
----------------

  NO   OCC          E(Eh)            E(eV)
   0   2.0000     -19.150902      -521.1225
   1   2.0000     -19.141929      -520.8784
   2   2.0000     -19.132518      -520.6223
   3   2.0000     -19.130363      -520.5636
   4   2.0000     -10.282464      -279.8001
   5   2.0000     -10.234179      -278.4862
   6   2.0000     -10.231611      -278.4163
   7   2.0000     -10.231177      -278.4045
   8   2.0000     -10.227034      -278.2917
   9   2.0000     -10.219411      -278.0843
  10   2.0000     -10.194587      -277.4088
  11   2.0000     -10.188319      -277.2383
  12   2.0000     -10.172965      -276.8204
  13   2.0000      -1.055874       -28.7318
  14   2.0000      -1.027884       -27.9702
  15   2.0000      -0.999743       -27.2044
  16   2.0000      -0.991898       -26.9909
  17   2.0000      -0.792626       -21.5685
  18   2.0000      -0.775121       -21.0921
  19   2.0000      -0.761766       -20.7287
  20   2.0000      -0.734493       -19.9866
  21   2.0000      -0.672577       -18.3018
  22   2.0000      -0.606873       -16.5139
  23   2.0000      -0.602250       -16.3880
  24   2.0000      -0.592688       -16.1279
  25   2.0000      -0.564965       -15.3735
  26   2.0000      -0.525574       -14.3016
  27   2.0000      -0.508051       -13.8248
  28   2.0000      -0.494302       -13.4507
  29   2.0000      -0.483440       -13.1551
  30   2.0000      -0.474945       -12.9239
  31   2.0000      -0.460345       -12.5266
  32   2.0000      -0.446425       -12.1478
  33   2.0000      -0.434743       -11.8300
  34   2.0000      -0.420065       -11.4306
  35   2.0000      -0.412745       -11.2314
  36   2.0000      -0.395119       -10.7517
  37   2.0000      -0.383759       -10.4426
  38   2.0000      -0.377817       -10.2809
  39   2.0000      -0.367070        -9.9885
  40   2.0000      -0.362724        -9.8702
  41   2.0000      -0.357507        -9.7283
  42   2.0000      -0.348566        -9.4850
  43   2.0000      -0.329789        -8.9740
  44   2.0000      -0.322166        -8.7666
  45   2.0000      -0.309614        -8.4250
  46   2.0000      -0.294541        -8.0149
  47   2.0000      -0.265819        -7.2333
  48   2.0000      -0.263467        -7.1693
  49   2.0000      -0.256994        -6.9932
  50   2.0000      -0.231329        -6.2948
  51   0.0000       0.067911         1.8480
  52   0.0000       0.077631         2.1125
  53   0.0000       0.094445         2.5700
  54   0.0000       0.101823         2.7707
  55   0.0000       0.107666         2.9297

MULLIKEN ATOMIC CHARGES
-----------------------
   0 C :    0.307494
   1 C :   -0.258502
   2 C :   -0.310230
   3 C :   -0.023690
   4 O :   -0.497540
   5 H :    0.154708
   6 H :    0.146608
   7 H :    0.157348
   8 H :    0.149900
   9 H :    0.151524
  10 H :    0.149954
  11 H :    0.153080
  12 C :   -0.012161
  13 H :    0.152439
  14 H :    0.139032
  15 O :   -0.542980
  16 C :    0.079971
  17 C :    0.077533
  18 C :   -0.288148
  19 C :   -0.026505
  20 O :   -0.517207
  21 H :    0.147710
  22 O :   -0.605584
  23 H :    0.149005
  24 H :    0.146699
  25 H :    0.171108
  26 H :    0.149790
  27 H :    0.136932
  28 H :    0.361713
Sum of atomic charges:   -0.0000000

LOEWDIN ATOMIC CHARGES
----------------------
   0 C :    0.182710
   1 C :   -0.223025
   2 C :   -0.221529
   3 C :   -0.034563
   4 O :   -0.307024
   5 H :    0.104189
   6 H :    0.114918
   7 H :    0.123753
   8 H :    0.118597
   9 H :    0.112384
  10 H :    0.103199
  11 H :    0.108027
  12 C :   -0.038065
  13 H :    0.109850
  14 H :    0.105727
  15 O :   -0.342397
  16 C :    0.008318
  17 C :    0.038000
  18 C :   -0.242246
  19 C :   -0.034726
  20 O :   -0.323338
  21 H :    0.112682
  22 O :   -0.418987
  23 H :    0.114520
  24 H :    0.117833
  25 H :    0.128128
  26 H :    0.105401
  27 H :    0.096473
  28 H :    0.281190

  Mayer bond orders larger than 0.100000
B(  0-C ,  1-C ) :   0.9256 B(  0-C ,  4-O ) :   0.9243 B(  0-C ,  5-H ) :   0.9304
B(  0-C , 15-O ) :   0.8370 B(  1-C ,  2-C ) :   0.9540 B(  1-C ,  6-H ) :   0.9347
B(  1-C ,  7-H ) :   0.9366 B(  2-C ,  3-C ) :   0.9502 B(  2-C ,  8-H ) :   0.9445
B(  2-C ,  9-H ) :   0.9454 B(  3-C ,  4-O ) :   0.8329 B(  3-C , 10-H ) :   0.9284
B(  3-C , 11-H ) :   0.9394 B( 12-C , 13-H ) :   0.9131 B( 12-C , 14-H ) :   0.9258
B( 12-C , 15-O ) :   0.8555 B( 12-C , 16-C ) :   0.8831 B( 16-C , 17-C ) :   0.9105
B( 16-C , 20-O ) :   0.8796 B( 16-C , 21-H ) :   0.9180 B( 17-C , 18-C ) :   0.9240
B( 17-C , 22-O ) :   0.8901 B( 17-C , 23-H ) :   0.9360 B( 18-C , 19-C ) :   0.9438
B( 18-C , 24-H ) :   0.9374 B( 18-C , 25-H ) :   0.9206 B( 19-C , 20-O ) :   0.8423
B( 19-C , 26-H ) :   0.9313 B( 19-C , 27-H ) :   0.9371 B( 22-O , 28-H ) :   0.7965

FINAL SINGLE POINT ENERGY      -652.857721509937

DIPOLE MOMENT
-------------
                                X             Y             Z
Electronic contribution:     -2.56414      -3.68895       1.43715
Nuclear contribution   :      3.40776       4.68236      -1.67918
                        -----------------------------------------
Total Dipole Moment    :      0.84363       0.99341      -0.24204
                        -----------------------------------------
Magnitude (a.u.)       :      1.32558
Magnitude (Debye)      :      3.36935

Rotational constants in cm-1:     0.062357     0.014529     0.014421
Rotational constants in MHz :  1869.418522   435.559386   432.327475

                             ****ORCA TERMINATED NORMALLY****
TOTAL RUN TIME: 0 days 0 hours 16 minutes 56 seconds 720 msec
