                         Program Version 4.2.1 -  RELEASE  -
|  1> # Test redundant internal optimization
|  2> #
|  3> ! RKS B3LYP  Opt TightSCF SmallPrint
|  4>
|  5> %basis
|  6>         Basis "6-31G"
|  7> end
|  8>
|  9> %geom
| 10> Constraints
| 11> { D 4  0  19  14  210.0   C } # D for Dihedral angle
| 12> { D 0  19  14  12  255.0   C } # D for Dihedral angle
| 13> { D 0  4  3  2   C } # D for Dihedral angle
| 14> { D 4  3  2  1   C } # D for Dihedral angle
| 15> { D 3  2  1  0   C } # D for Dihedral angle
| 16> { D 2  1  0  4   C } # D for Dihedral angle
| 17> { D 1  0  4  3   C } # D for Dihedral angle
| 18> { D 14  15  16  17   C } # D for Dihedral angle
| 19> { D 15  16  17  12   C } # D for Dihedral angle
| 20> { D 16  17  12  14   C } # D for Dihedral angle
| 21> { D 17  12  14  15   C } # D for Dihedral angle
| 22> { D 12  14  15  16   C } # D for Dihedral angle
| 23> end
| 24> end
| 25>
| 26>
| 27> #%pal
| 28> #nprocs 8
| 29> #end
| 30>
| 31> * xyz 0 1
| 32> C  -21.048   26.222   46.251
| 33> C  -20.361   27.558   45.944
| 34> C  -20.329   28.222   47.341
| 35> C  -20.110   27.022   48.296
| 36> O  -20.473   25.807   47.535
| 37> H  -20.833   25.428   45.533
| 38> H  -19.344   27.382   45.576
| 39> H  -20.898   28.157   45.201
| 40> H  -19.543   28.978   47.434
| 41> H  -21.289   28.710   47.548
| 42> H  -20.733   27.082   49.195
| 43> H  -19.064   26.913   48.597
| 44> C  -23.663   27.430   44.521
| 45> H  -24.452   27.257   43.772
| 46> C  -23.197   26.114   45.155
| 47> C  -22.254   25.557   44.064
| 48> C  -21.598   26.833   43.479
| 49> O  -22.458   27.969   43.880
| 50> H  -24.007   28.180   45.235
| 51> O  -22.472   26.381   46.366
| 52> H  -24.024   25.435   45.390
| 53> H  -21.516   24.852   44.460
| 54> H  -22.835   25.034   43.294
| 55> H  -21.526   26.806   42.387
| 56> H  -20.604   27.020   43.895
| 57> *
| 58>
| 59>                          ****END OF INPUT****
 Total Charge           Charge          ....    0
 Multiplicity           Mult            ....    1
 Number of Electrons    NEL             ....   86
FINAL SINGLE POINT ENERGY      -538.394756196829
FINAL SINGLE POINT ENERGY      -538.425431756890
FINAL SINGLE POINT ENERGY      -538.427386315445
FINAL SINGLE POINT ENERGY      -538.427681768510
FINAL SINGLE POINT ENERGY      -538.427731517245
FINAL SINGLE POINT ENERGY      -538.427743158760
FINAL SINGLE POINT ENERGY      -538.427745237773
                    ***********************HURRAY********************

CARTESIAN COORDINATES (ANGSTROEM)
---------------------------------
  C    -20.809492   26.258594   46.296752
  C    -20.165990   27.631698   46.107939
  C    -20.358701   28.270472   47.504923
  C    -20.203576   27.066510   48.458159
  O    -20.397690   25.857586   47.615299
  H    -20.471773   25.480837   45.609262
  H    -19.099310   27.507095   45.883117
  H    -20.640498   28.204212   45.307534
  H    -19.632040   29.062339   47.708757
  H    -21.364407   28.694047   47.579705
  H    -20.944421   27.052700   49.261887
  H    -19.200002   26.989164   48.887740
  C    -23.581685   27.449743   44.541992
  H    -24.509780   27.309631   43.968679
  C    -23.079763   26.119924   45.110852
  C    -22.409299   25.489869   43.875757
  C    -21.804810   26.705775   43.130033
  O    -22.497526   27.905458   43.657204
  H    -23.726540   28.207496   45.311629
  O    -22.259913   26.363889   46.296692
  H    -23.907496   25.500786   45.472560
  H    -21.675430   24.716653   44.116385
  H    -23.193180   25.017166   43.273654
  H    -21.961773   26.652899   42.046871
  H    -20.735904   26.834456   43.325617

 Multiplicity           Mult            ....    1
 Number of Electrons    NEL             ....   86
 Basis Dimension        Dim             ....  127

ORBITAL ENERGIES
----------------

  NO   OCC          E(Eh)            E(eV)
   0   2.0000     -19.141058      -520.8547
   1   2.0000     -19.135090      -520.6923
   2   2.0000     -19.133715      -520.6549
   3   2.0000     -10.275738      -279.6170
   4   2.0000     -10.244842      -278.7763
   5   2.0000     -10.232922      -278.4520
   6   2.0000     -10.224944      -278.2349
   7   2.0000     -10.218739      -278.0660
   8   2.0000     -10.198869      -277.5253
   9   2.0000     -10.178530      -276.9719
  10   2.0000     -10.174256      -276.8556
  11   2.0000      -1.047356       -28.5000
  12   2.0000      -1.020505       -27.7694
  13   2.0000      -0.985239       -26.8097
  14   2.0000      -0.790599       -21.5133
  15   2.0000      -0.775906       -21.1135
  16   2.0000      -0.749842       -20.4042
  17   2.0000      -0.718424       -19.5493
  18   2.0000      -0.618489       -16.8299
  19   2.0000      -0.607452       -16.5296
  20   2.0000      -0.592044       -16.1103
  21   2.0000      -0.563822       -15.3424
  22   2.0000      -0.523604       -14.2480
  23   2.0000      -0.506908       -13.7937
  24   2.0000      -0.483027       -13.1438
  25   2.0000      -0.481122       -13.0920
  26   2.0000      -0.453955       -12.3528
  27   2.0000      -0.439156       -11.9500
  28   2.0000      -0.431954       -11.7541
  29   2.0000      -0.420510       -11.4426
  30   2.0000      -0.399813       -10.8795
  31   2.0000      -0.388934       -10.5834
  32   2.0000      -0.376712       -10.2509
  33   2.0000      -0.373696       -10.1688
  34   2.0000      -0.362876        -9.8744
  35   2.0000      -0.348165        -9.4740
  36   2.0000      -0.342622        -9.3232
  37   2.0000      -0.316816        -8.6210
  38   2.0000      -0.306249        -8.3335
  39   2.0000      -0.297015        -8.0822
  40   2.0000      -0.256222        -6.9721
  41   2.0000      -0.255158        -6.9432
  42   2.0000      -0.236318        -6.4305
  43   0.0000       0.072983         1.9860
  44   0.0000       0.087639         2.3848
  45   0.0000       0.100131         2.7247
  46   0.0000       0.104440         2.8420
  47   0.0000       0.111347         3.0299

MULLIKEN ATOMIC CHARGES
-----------------------
   0 C :    0.294162
   1 C :   -0.277304
   2 C :   -0.300802
   3 C :   -0.001734
   4 O :   -0.505073
   5 H :    0.135520
   6 H :    0.134773
   7 H :    0.179170
   8 H :    0.139172
   9 H :    0.158921
  10 H :    0.151373
  11 H :    0.138755
  12 C :   -0.010445
  13 H :    0.126982
  14 C :    0.093313
  15 C :   -0.334055
  16 C :   -0.016174
  17 O :   -0.519066
  18 H :    0.170103
  19 O :   -0.522029
  20 H :    0.150401
  21 H :    0.161945
  22 H :    0.155830
  23 H :    0.148298
  24 H :    0.147966
Sum of atomic charges:   -0.0000000

LOEWDIN ATOMIC CHARGES
----------------------
   0 C :    0.180504
   1 C :   -0.236276
   2 C :   -0.215996
   3 C :   -0.026412
   4 O :   -0.309661
   5 H :    0.094314
   6 H :    0.108902
   7 H :    0.130574
   8 H :    0.113194
   9 H :    0.117161
  10 H :    0.107430
  11 H :    0.100682
  12 C :   -0.045996
  13 H :    0.093109
  14 C :    0.045378
  15 C :   -0.240682
  16 C :   -0.037882
  17 O :   -0.332880
  18 H :    0.122863
  19 O :   -0.331532
  20 H :    0.110926
  21 H :    0.123159
  22 H :    0.122771
  23 H :    0.104208
  24 H :    0.102143

  Mayer bond orders larger than 0.100000
B(  0-C ,  1-C ) :   0.9332 B(  0-C ,  4-O ) :   0.9329 B(  0-C ,  5-H ) :   0.9140
B(  0-C , 19-O ) :   0.8314 B(  1-C ,  2-C ) :   0.9525 B(  1-C ,  6-H ) :   0.9350
B(  1-C ,  7-H ) :   0.9130 B(  2-C ,  3-C ) :   0.9541 B(  2-C ,  8-H ) :   0.9453
B(  2-C ,  9-H ) :   0.9442 B(  3-C ,  4-O ) :   0.8359 B(  3-C , 10-H ) :   0.9353
B(  3-C , 11-H ) :   0.9401 B( 12-C , 13-H ) :   0.9136 B( 12-C , 14-C ) :   0.9122
B( 12-C , 17-O ) :   0.8535 B( 12-C , 18-H ) :   0.9313 B( 14-C , 15-C ) :   0.9387
B( 14-C , 19-O ) :   0.8693 B( 14-C , 20-H ) :   0.9304 B( 15-C , 16-C ) :   0.9428
B( 15-C , 21-H ) :   0.9288 B( 15-C , 22-H ) :   0.9352 B( 16-C , 17-O ) :   0.8548
B( 16-C , 23-H ) :   0.9337 B( 16-C , 24-H ) :   0.9302

FINAL SINGLE POINT ENERGY      -538.427745791623

DIPOLE MOMENT
-------------
                                X             Y             Z
Electronic contribution:     -1.26305      -1.59891       1.21916
Nuclear contribution   :      1.22361       1.50056      -1.79269
                        -----------------------------------------
Total Dipole Moment    :     -0.03944      -0.09835      -0.57353
                        -----------------------------------------
Magnitude (a.u.)       :      0.58324
Magnitude (Debye)      :      1.48248

Rotational constants in cm-1:     0.074781     0.023877     0.022515
Rotational constants in MHz :  2241.873344   715.823081   674.968029

                             ****ORCA TERMINATED NORMALLY****
TOTAL RUN TIME: 0 days 0 hours 9 minutes 59 seconds 906 msec
