                         Program Version 4.2.1 -  RELEASE  -
|  1> # Test redundant internal optimization
|  2> #
|  3> ! RKS B3LYP  Opt TightSCF SmallPrint
|  4>
|  5> %basis
|  6>         Basis "6-31G"
|  7> end
|  8>
|  9> %geom
| 10> Constraints
| 11> { D 4  0  19  14  165.0   C } # D for Dihedral angle
| 12> { D 0  19  14  12  120.0   C } # D for Dihedral angle
| 13> { D 0  4  3  2   C } # D for Dihedral angle
| 14> { D 4  3  2  1   C } # D for Dihedral angle
| 15> { D 3  2  1  0   C } # D for Dihedral angle
| 16> { D 2  1  0  4   C } # D for Dihedral angle
| 17> { D 1  0  4  3   C } # D for Dihedral angle
| 18> { D 14  15  16  17   C } # D for Dihedral angle
| 19> { D 15  16  17  12   C } # D for Dihedral angle
| 20> { D 16  17  12  14   C } # D for Dihedral angle
| 21> { D 17  12  14  15   C } # D for Dihedral angle
| 22> { D 12  14  15  16   C } # D for Dihedral angle
| 23> end
| 24> end
| 25>
| 26>
| 27> #%pal
| 28> #nprocs 8
| 29> #end
| 30>
| 31> * xyz 0 1
| 32> C  -21.048   26.222   46.251
| 33> C  -20.361   27.558   45.944
| 34> C  -20.329   28.222   47.341
| 35> C  -20.110   27.022   48.296
| 36> O  -20.473   25.807   47.535
| 37> H  -20.833   25.428   45.533
| 38> H  -19.344   27.382   45.576
| 39> H  -20.898   28.157   45.201
| 40> H  -19.543   28.978   47.434
| 41> H  -21.289   28.710   47.548
| 42> H  -20.733   27.082   49.195
| 43> H  -19.064   26.913   48.597
| 44> C  -24.114   26.217   44.576
| 45> H  -24.378   26.620   43.586
| 46> C  -23.077   27.101   45.280
| 47> C  -23.958   28.255   45.813
| 48> C  -25.285   27.544   46.180
| 49> O  -25.278   26.247   45.468
| 50> H  -23.820   25.172   44.470
| 51> O  -22.472   26.381   46.366
| 52> H  -22.283   27.448   44.610
| 53> H  -23.511   28.771   46.668
| 54> H  -24.124   28.998   45.023
| 55> H  -26.167   28.117   45.875
| 56> H  -25.359   27.324   47.250
| 57> *
| 58>
| 59>                          ****END OF INPUT****
 Total Charge           Charge          ....    0
 Multiplicity           Mult            ....    1
 Number of Electrons    NEL             ....   86
FINAL SINGLE POINT ENERGY      -538.417795856874
FINAL SINGLE POINT ENERGY      -538.424232918159
FINAL SINGLE POINT ENERGY      -538.424990098681
FINAL SINGLE POINT ENERGY      -538.425131941650
FINAL SINGLE POINT ENERGY      -538.425144651379
FINAL SINGLE POINT ENERGY      -538.425151043389
                    ***********************HURRAY********************

CARTESIAN COORDINATES (ANGSTROEM)
---------------------------------
  C    -20.995315   26.248466   46.215669
  C    -20.200465   27.527314   45.950462
  C    -20.260547   28.239177   47.328373
  C    -20.212615   27.056138   48.318341
  O    -20.582106   25.854633   47.530008
  H    -20.766017   25.415859   45.543783
  H    -19.169558   27.248201   45.704051
  H    -20.583047   28.144887   45.134430
  H    -19.431522   28.938563   47.472262
  H    -21.198673   28.793198   47.425934
  H    -20.916502   27.159035   49.147934
  H    -19.209116   26.874271   48.713907
  C    -24.169219   26.234958   44.555999
  H    -24.506282   26.642089   43.590313
  C    -23.130332   27.154411   45.201039
  C    -24.022253   28.253999   45.811970
  C    -25.285970   27.478789   46.257057
  O    -25.266366   26.195690   45.522538
  H    -23.811021   25.213005   44.423275
  O    -22.443197   26.442563   46.273127
  H    -22.420265   27.550962   44.466930
  H    -23.522966   28.760659   46.640605
  H    -24.267274   28.997263   45.043962
  H    -26.211931   28.015231   46.021110
  H    -25.268440   27.236640   47.322923

 Multiplicity           Mult            ....    1
 Number of Electrons    NEL             ....   86
 Basis Dimension        Dim             ....  127

ORBITAL ENERGIES
----------------

  NO   OCC          E(Eh)            E(eV)
   0   2.0000     -19.140945      -520.8516
   1   2.0000     -19.136550      -520.7320
   2   2.0000     -19.124911      -520.4153
   3   2.0000     -10.282142      -279.7913
   4   2.0000     -10.242227      -278.7052
   5   2.0000     -10.227085      -278.2931
   6   2.0000     -10.219838      -278.0959
   7   2.0000     -10.218473      -278.0588
   8   2.0000     -10.193501      -277.3793
   9   2.0000     -10.192460      -277.3509
  10   2.0000     -10.186927      -277.2004
  11   2.0000      -1.053324       -28.6624
  12   2.0000      -1.013199       -27.5706
  13   2.0000      -0.987328       -26.8666
  14   2.0000      -0.790902       -21.5215
  15   2.0000      -0.782906       -21.3040
  16   2.0000      -0.739942       -20.1348
  17   2.0000      -0.725031       -19.7291
  18   2.0000      -0.617257       -16.7964
  19   2.0000      -0.601811       -16.3761
  20   2.0000      -0.596432       -16.2297
  21   2.0000      -0.569179       -15.4881
  22   2.0000      -0.526113       -14.3162
  23   2.0000      -0.504068       -13.7164
  24   2.0000      -0.491266       -13.3680
  25   2.0000      -0.480549       -13.0764
  26   2.0000      -0.451863       -12.2958
  27   2.0000      -0.442658       -12.0453
  28   2.0000      -0.433618       -11.7994
  29   2.0000      -0.420944       -11.4545
  30   2.0000      -0.407219       -11.0810
  31   2.0000      -0.382719       -10.4143
  32   2.0000      -0.374978       -10.2037
  33   2.0000      -0.366312        -9.9679
  34   2.0000      -0.365090        -9.9346
  35   2.0000      -0.356590        -9.7033
  36   2.0000      -0.354122        -9.6362
  37   2.0000      -0.315475        -8.5845
  38   2.0000      -0.300928        -8.1887
  39   2.0000      -0.297017        -8.0823
  40   2.0000      -0.259689        -7.0665
  41   2.0000      -0.253678        -6.9029
  42   2.0000      -0.229507        -6.2452
  43   0.0000       0.068334         1.8595
  44   0.0000       0.089600         2.4381
  45   0.0000       0.095653         2.6029
  46   0.0000       0.106049         2.8858
  47   0.0000       0.117821         3.2061

MULLIKEN ATOMIC CHARGES
-----------------------
   0 C :    0.311401
   1 C :   -0.291439
   2 C :   -0.302079
   3 C :    0.000541
   4 O :   -0.496402
   5 H :    0.145047
   6 H :    0.152382
   7 H :    0.143183
   8 H :    0.144343
   9 H :    0.155530
  10 H :    0.154326
  11 H :    0.143299
  12 C :    0.016635
  13 H :    0.117548
  14 C :    0.050410
  15 C :   -0.290347
  16 C :    0.005298
  17 O :   -0.516029
  18 H :    0.159718
  19 O :   -0.508971
  20 H :    0.121916
  21 H :    0.155372
  22 H :    0.138604
  23 H :    0.131644
  24 H :    0.158070
Sum of atomic charges:   -0.0000000

LOEWDIN ATOMIC CHARGES
----------------------
   0 C :    0.185291
   1 C :   -0.234972
   2 C :   -0.217084
   3 C :   -0.025487
   4 O :   -0.300570
   5 H :    0.097882
   6 H :    0.118990
   7 H :    0.112258
   8 H :    0.115321
   9 H :    0.112509
  10 H :    0.109563
  11 H :    0.103333
  12 C :   -0.039104
  13 H :    0.088005
  14 C :    0.033601
  15 C :   -0.229036
  16 C :   -0.026995
  17 O :   -0.326507
  18 H :    0.119086
  19 O :   -0.329600
  20 H :    0.095170
  21 H :    0.120532
  22 H :    0.110681
  23 H :    0.096582
  24 H :    0.110554

  Mayer bond orders larger than 0.100000
B(  0-C ,  1-C ) :   0.9280 B(  0-C ,  4-O ) :   0.9374 B(  0-C ,  5-H ) :   0.9230
B(  0-C , 19-O ) :   0.8437 B(  1-C ,  2-C ) :   0.9497 B(  1-C ,  6-H ) :   0.9329
B(  1-C ,  7-H ) :   0.9278 B(  2-C ,  3-C ) :   0.9550 B(  2-C ,  8-H ) :   0.9447
B(  2-C ,  9-H ) :   0.9416 B(  3-C ,  4-O ) :   0.8369 B(  3-C , 10-H ) :   0.9342
B(  3-C , 11-H ) :   0.9396 B( 12-C , 13-H ) :   0.9117 B( 12-C , 14-C ) :   0.9222
B( 12-C , 17-O ) :   0.8757 B( 12-C , 18-H ) :   0.9334 B( 14-C , 15-C ) :   0.9450
B( 14-C , 19-O ) :   0.8336 B( 14-C , 20-H ) :   0.9139 B( 15-C , 16-C ) :   0.9482
B( 15-C , 21-H ) :   0.9365 B( 15-C , 22-H ) :   0.9392 B( 16-C , 17-O ) :   0.8568
B( 16-C , 23-H ) :   0.9333 B( 16-C , 24-H ) :   0.9351

FINAL SINGLE POINT ENERGY      -538.425151282009

DIPOLE MOMENT
-------------
                                X             Y             Z
Electronic contribution:     -1.53816      -5.43262       0.48654
Nuclear contribution   :      2.49454       7.08067      -1.12231
                        -----------------------------------------
Total Dipole Moment    :      0.95638       1.64805      -0.63577
                        -----------------------------------------
Magnitude (a.u.)       :      2.00872
Magnitude (Debye)      :      5.10575

Rotational constants in cm-1:     0.078987     0.020761     0.020137
Rotational constants in MHz :  2367.971870   622.401047   603.701271

                             ****ORCA TERMINATED NORMALLY****
TOTAL RUN TIME: 0 days 0 hours 6 minutes 53 seconds 408 msec
