                         Program Version 4.2.1 -  RELEASE  -
|  1> # Test redundant internal optimization
|  2> #
|  3> ! RKS B3LYP  Opt TightSCF SmallPrint
|  4>
|  5> %basis
|  6>         Basis "6-31G"
|  7> end
|  8>
|  9> %geom
| 10> Constraints
| 11> { D 4  0  19  14  345.0   C } # D for Dihedral angle
| 12> { D 0  19  14  12  75.0   C } # D for Dihedral angle
| 13> { D 0  4  3  2   C } # D for Dihedral angle
| 14> { D 4  3  2  1   C } # D for Dihedral angle
| 15> { D 3  2  1  0   C } # D for Dihedral angle
| 16> { D 2  1  0  4   C } # D for Dihedral angle
| 17> { D 1  0  4  3   C } # D for Dihedral angle
| 18> { D 14  15  16  17   C } # D for Dihedral angle
| 19> { D 15  16  17  12   C } # D for Dihedral angle
| 20> { D 16  17  12  14   C } # D for Dihedral angle
| 21> { D 17  12  14  15   C } # D for Dihedral angle
| 22> { D 12  14  15  16   C } # D for Dihedral angle
| 23> end
| 24> end
| 25>
| 26>
| 27> #%pal
| 28> #nprocs 8
| 29> #end
| 30>
| 31> * xyz 0 1
| 32> C  -21.048   26.222   46.251
| 33> C  -20.361   27.558   45.944
| 34> C  -20.329   28.222   47.341
| 35> C  -20.110   27.022   48.296
| 36> O  -20.473   25.807   47.535
| 37> H  -20.833   25.428   45.533
| 38> H  -19.344   27.382   45.576
| 39> H  -20.898   28.157   45.201
| 40> H  -19.543   28.978   47.434
| 41> H  -21.289   28.710   47.548
| 42> H  -20.733   27.082   49.195
| 43> H  -19.064   26.913   48.597
| 44> C  -22.721   26.657   48.771
| 45> H  -22.883   26.101   49.708
| 46> C  -23.040   25.792   47.547
| 47> C  -24.584   25.865   47.505
| 48> C  -24.882   27.306   47.989
| 49> O  -23.660   27.780   48.675
| 50> H  -21.715   27.081   48.776
| 51> O  -22.472   26.381   46.366
| 52> H  -22.666   24.766   47.636
| 53> H  -24.992   25.667   46.509
| 54> H  -25.016   25.129   48.195
| 55> H  -25.725   27.349   48.688
| 56> H  -25.074   27.994   47.160
| 57> *
| 58>
| 59>                          ****END OF INPUT****
 Total Charge           Charge          ....    0
 Multiplicity           Mult            ....    1
 Number of Electrons    NEL             ....   86
FINAL SINGLE POINT ENERGY      -538.373531223346
FINAL SINGLE POINT ENERGY      -538.425702606467
FINAL SINGLE POINT ENERGY      -538.429267884652
FINAL SINGLE POINT ENERGY      -538.429771042951
FINAL SINGLE POINT ENERGY      -538.429850020906
FINAL SINGLE POINT ENERGY      -538.429870367666
FINAL SINGLE POINT ENERGY      -538.429872096319
                    ***********************HURRAY********************

CARTESIAN COORDINATES (ANGSTROEM)
---------------------------------
  C    -21.000664   26.224698   46.366990
  C    -20.465834   27.588041   45.924745
  C    -20.202824   28.280566   47.283183
  C    -19.734738   27.117969   48.187269
  O    -20.178845   25.870033   47.501265
  H    -20.823263   25.425099   45.639667
  H    -19.534295   27.440280   45.366382
  H    -21.180263   28.126420   45.298787
  H    -19.456637   29.077878   47.215874
  H    -21.136584   28.710205   47.661584
  H    -20.144683   27.150940   49.198691
  H    -18.644265   27.050538   48.256150
  C    -22.990302   26.510446   49.008900
  H    -23.371411   25.906233   49.847280
  C    -23.131803   25.716564   47.711395
  C    -24.626661   25.902277   47.397100
  C    -24.922958   27.339905   47.884636
  O    -23.819606   27.701679   48.803381
  H    -21.987761   26.847236   49.243388
  O    -22.439994   26.285044   46.559059
  H    -22.844910   24.665732   47.841948
  H    -24.816026   25.764211   46.330873
  H    -25.214494   25.166423   47.956948
  H    -25.874136   27.414643   48.423033
  H    -24.912041   28.065939   47.067473

 Multiplicity           Mult            ....    1
 Number of Electrons    NEL             ....   86
 Basis Dimension        Dim             ....  127

ORBITAL ENERGIES
----------------

  NO   OCC          E(Eh)            E(eV)
   0   2.0000     -19.149495      -521.0842
   1   2.0000     -19.136118      -520.7202
   2   2.0000     -19.128277      -520.5069
   3   2.0000     -10.277072      -279.6533
   4   2.0000     -10.239074      -278.6194
   5   2.0000     -10.229554      -278.3603
   6   2.0000     -10.219336      -278.0823
   7   2.0000     -10.218314      -278.0545
   8   2.0000     -10.184727      -277.1405
   9   2.0000     -10.182677      -277.0847
  10   2.0000     -10.182039      -277.0674
  11   2.0000      -1.050495       -28.5854
  12   2.0000      -1.013315       -27.5737
  13   2.0000      -0.988600       -26.9012
  14   2.0000      -0.791812       -21.5463
  15   2.0000      -0.777280       -21.1509
  16   2.0000      -0.739126       -20.1126
  17   2.0000      -0.720529       -19.6066
  18   2.0000      -0.618922       -16.8417
  19   2.0000      -0.598922       -16.2975
  20   2.0000      -0.592979       -16.1358
  21   2.0000      -0.564199       -15.3526
  22   2.0000      -0.512013       -13.9326
  23   2.0000      -0.503452       -13.6996
  24   2.0000      -0.491975       -13.3873
  25   2.0000      -0.482002       -13.1159
  26   2.0000      -0.452089       -12.3020
  27   2.0000      -0.441028       -12.0010
  28   2.0000      -0.424982       -11.5644
  29   2.0000      -0.413327       -11.2472
  30   2.0000      -0.406903       -11.0724
  31   2.0000      -0.378478       -10.2989
  32   2.0000      -0.368531       -10.0282
  33   2.0000      -0.364604        -9.9214
  34   2.0000      -0.358781        -9.7629
  35   2.0000      -0.354056        -9.6343
  36   2.0000      -0.340724        -9.2716
  37   2.0000      -0.327026        -8.8988
  38   2.0000      -0.308326        -8.3900
  39   2.0000      -0.298810        -8.1310
  40   2.0000      -0.263102        -7.1594
  41   2.0000      -0.249681        -6.7942
  42   2.0000      -0.233644        -6.3578
  43   0.0000       0.080132         2.1805
  44   0.0000       0.093096         2.5333
  45   0.0000       0.101073         2.7503
  46   0.0000       0.110438         3.0052
  47   0.0000       0.115554         3.1444

MULLIKEN ATOMIC CHARGES
-----------------------
   0 C :    0.316773
   1 C :   -0.262550
   2 C :   -0.314788
   3 C :   -0.026630
   4 O :   -0.519601
   5 H :    0.150008
   6 H :    0.144168
   7 H :    0.160833
   8 H :    0.144871
   9 H :    0.179615
  10 H :    0.147744
  11 H :    0.150294
  12 C :   -0.007127
  13 H :    0.123971
  14 C :    0.088438
  15 C :   -0.288908
  16 C :    0.000628
  17 O :   -0.526698
  18 H :    0.156446
  19 O :   -0.545300
  20 H :    0.137044
  21 H :    0.163145
  22 H :    0.140967
  23 H :    0.132310
  24 H :    0.154346
Sum of atomic charges:   -0.0000000

LOEWDIN ATOMIC CHARGES
----------------------
   0 C :    0.182752
   1 C :   -0.217089
   2 C :   -0.221799
   3 C :   -0.035430
   4 O :   -0.324316
   5 H :    0.098081
   6 H :    0.113304
   7 H :    0.126315
   8 H :    0.116585
   9 H :    0.126035
  10 H :    0.100285
  11 H :    0.105755
  12 C :   -0.047448
  13 H :    0.093255
  14 C :    0.048236
  15 C :   -0.222719
  16 C :   -0.028436
  17 O :   -0.335924
  18 H :    0.115220
  19 O :   -0.339279
  20 H :    0.101437
  21 H :    0.128753
  22 H :    0.111476
  23 H :    0.096756
  24 H :    0.108197

  Mayer bond orders larger than 0.100000
B(  0-C ,  1-C ) :   0.9353 B(  0-C ,  4-O ) :   0.9052 B(  0-C ,  5-H ) :   0.9300
B(  0-C , 19-O ) :   0.8458 B(  1-C ,  2-C ) :   0.9550 B(  1-C ,  6-H ) :   0.9372
B(  1-C ,  7-H ) :   0.9361 B(  2-C ,  3-C ) :   0.9555 B(  2-C ,  8-H ) :   0.9443
B(  2-C ,  9-H ) :   0.9343 B(  3-C ,  4-O ) :   0.8304 B(  3-C , 10-H ) :   0.9173
B(  3-C , 11-H ) :   0.9392 B( 12-C , 13-H ) :   0.9124 B( 12-C , 14-C ) :   0.9155
B( 12-C , 17-O ) :   0.8647 B( 12-C , 18-H ) :   0.9183 B( 14-C , 15-C ) :   0.9569
B( 14-C , 19-O ) :   0.8249 B( 14-C , 20-H ) :   0.9219 B( 15-C , 16-C ) :   0.9472
B( 15-C , 21-H ) :   0.9363 B( 15-C , 22-H ) :   0.9429 B( 16-C , 17-O ) :   0.8525
B( 16-C , 23-H ) :   0.9339 B( 16-C , 24-H ) :   0.9367

FINAL SINGLE POINT ENERGY      -538.429872177391

DIPOLE MOMENT
-------------
                                X             Y             Z
Electronic contribution:      0.10590      -1.91094      -0.21713
Nuclear contribution   :     -0.00350       1.81217       0.05388
                        -----------------------------------------
Total Dipole Moment    :      0.10240      -0.09878      -0.16325
                        -----------------------------------------
Magnitude (a.u.)       :      0.21655
Magnitude (Debye)      :      0.55042

Rotational constants in cm-1:     0.068520     0.025365     0.023933
Rotational constants in MHz :  2054.188273   760.412748   717.482542

                             ****ORCA TERMINATED NORMALLY****
TOTAL RUN TIME: 0 days 0 hours 9 minutes 37 seconds 43 msec
