                         Program Version 4.2.0 -  RELEASE  -
|  1> # Test redundant internal optimization
|  2> #
|  3> ! RKS B3LYP  Opt TightSCF SmallPrint
|  4>
|  5> %basis
|  6>         Basis "6-31G"
|  7> end
|  8>
|  9> %geom
| 10> Constraints
| 11> { D 4  0  15  12  0.0   C } # D for Dihedral angle
| 12> { D 0  15  12  16  150.0   C } # D for Dihedral angle
| 13> { D 0  4  3  2   C } # D for Dihedral angle
| 14> { D 4  3  2  1   C } # D for Dihedral angle
| 15> { D 3  2  1  0   C } # D for Dihedral angle
| 16> { D 2  1  0  4   C } # D for Dihedral angle
| 17> { D 1  0  4  3   C } # D for Dihedral angle
| 18> { D 16  20  19  18   C } # D for Dihedral angle
| 19> { D 20  19  18  17   C } # D for Dihedral angle
| 20> { D 19  18  17  16   C } # D for Dihedral angle
| 21> { D 18  17  16  20   C } # D for Dihedral angle
| 22> { D 17  16  20  19   C } # D for Dihedral angle
| 23> { D 15  12  16  20   C } # D for Dihedral angle
| 24> end
| 25> end
| 26>
| 27>
| 28> #%pal
| 29> #nprocs 8
| 30> #end
| 31>
| 32> * xyz 0 1
| 33> C  -21.048   26.222   46.251
| 34> C  -20.361   27.558   45.944
| 35> C  -20.329   28.222   47.341
| 36> C  -20.110   27.022   48.296
| 37> O  -20.473   25.807   47.535
| 38> H  -20.833   25.428   45.533
| 39> H  -19.344   27.382   45.576
| 40> H  -20.898   28.157   45.201
| 41> H  -19.543   28.978   47.434
| 42> H  -21.289   28.710   47.548
| 43> H  -20.733   27.082   49.195
| 44> H  -19.064   26.913   48.597
| 45> C  -23.172   26.101   47.783
| 46> H  -23.432   25.037   47.853
| 47> H  -22.431   26.324   48.562
| 48> O  -22.586   26.394   46.375
| 49> C  -24.445   26.937   48.090
| 50> C  -24.180   28.437   47.924
| 51> C  -24.256   28.601   46.387
| 52> C  -25.353   27.586   45.979
| 53> O  -25.498   26.645   47.111
| 54> H  -24.832   26.652   49.070
| 55> O  -25.302   29.257   48.617
| 56> H  -23.216   28.753   48.337
| 57> H  -24.498   29.623   46.079
| 58> H  -23.294   28.333   45.932
| 59> H  -25.091   27.024   45.076
| 60> H  -26.327   28.061   45.829
| 61> H  -26.277   28.958   48.219
| 62> *
| 63>
| 64>                          ****END OF INPUT****
 Total Charge           Charge          ....    0
 Multiplicity           Mult            ....    1
 Number of Electrons    NEL             ....  102
FINAL SINGLE POINT ENERGY      -652.829992023269
FINAL SINGLE POINT ENERGY      -652.852369430768
FINAL SINGLE POINT ENERGY      -652.857027961061
FINAL SINGLE POINT ENERGY      -652.858914859768
FINAL SINGLE POINT ENERGY      -652.859068362158
FINAL SINGLE POINT ENERGY      -652.859092805544
                    ***********************HURRAY********************

CARTESIAN COORDINATES (ANGSTROEM)
---------------------------------
  C    -21.089844   26.178199   46.392392
  C    -20.427847   27.489614   45.965122
  C    -20.248325   28.213088   47.322648
  C    -19.944341   27.053878   48.298021
  O    -20.403309   25.815411   47.607310
  H    -20.930695   25.350508   45.696781
  H    -19.456075   27.264113   45.511491
  H    -21.030822   28.049660   45.247497
  H    -19.443934   28.954577   47.300572
  H    -21.172226   28.729940   47.600655
  H    -20.466756   27.140435   49.255057
  H    -18.874791   26.924975   48.484972
  C    -23.176759   26.092785   47.815859
  H    -23.464577   25.036524   47.886640
  H    -22.490242   26.307283   48.640602
  O    -22.538550   26.317860   46.523820
  C    -24.438239   26.939537   47.970284
  C    -24.287134   28.465683   47.907424
  C    -24.332887   28.727999   46.377913
  C    -25.336228   27.659696   45.875285
  O    -25.435080   26.638768   46.942495
  H    -24.887000   26.653815   48.930541
  O    -25.384324   29.116530   48.608965
  H    -23.382480   28.840496   48.387914
  H    -24.658235   29.750973   46.169504
  H    -23.347491   28.558152   45.943832
  H    -24.996564   27.173682   44.957350
  H    -26.342607   28.061865   45.718378
  H    -26.227635   28.697955   48.334678

 Multiplicity           Mult            ....    1
 Number of Electrons    NEL             ....  102
 Basis Dimension        Dim             ....  149

ORBITAL ENERGIES
----------------

  NO   OCC          E(Eh)            E(eV)
   0   2.0000     -19.156877      -521.2851
   1   2.0000     -19.142755      -520.9008
   2   2.0000     -19.135720      -520.7094
   3   2.0000     -19.135425      -520.7014
   4   2.0000     -10.285030      -279.8699
   5   2.0000     -10.239001      -278.6174
   6   2.0000     -10.238006      -278.5903
   7   2.0000     -10.232312      -278.4354
   8   2.0000     -10.229219      -278.3512
   9   2.0000     -10.221200      -278.1330
  10   2.0000     -10.198593      -277.5178
  11   2.0000     -10.193529      -277.3800
  12   2.0000     -10.177705      -276.9494
  13   2.0000      -1.060078       -28.8462
  14   2.0000      -1.032430       -28.0938
  15   2.0000      -1.003677       -27.3114
  16   2.0000      -0.993719       -27.0405
  17   2.0000      -0.797602       -21.7039
  18   2.0000      -0.778450       -21.1827
  19   2.0000      -0.765524       -20.8310
  20   2.0000      -0.738102       -20.0848
  21   2.0000      -0.673981       -18.3399
  22   2.0000      -0.611899       -16.6506
  23   2.0000      -0.601633       -16.3713
  24   2.0000      -0.597168       -16.2498
  25   2.0000      -0.570536       -15.5251
  26   2.0000      -0.524510       -14.2727
  27   2.0000      -0.515047       -14.0152
  28   2.0000      -0.502660       -13.6781
  29   2.0000      -0.493593       -13.4313
  30   2.0000      -0.471703       -12.8357
  31   2.0000      -0.459922       -12.5151
  32   2.0000      -0.450359       -12.2549
  33   2.0000      -0.431599       -11.7444
  34   2.0000      -0.423022       -11.5110
  35   2.0000      -0.418843       -11.3973
  36   2.0000      -0.405764       -11.0414
  37   2.0000      -0.386376       -10.5138
  38   2.0000      -0.379955       -10.3391
  39   2.0000      -0.369448       -10.0532
  40   2.0000      -0.367238        -9.9931
  41   2.0000      -0.361538        -9.8379
  42   2.0000      -0.350471        -9.5368
  43   2.0000      -0.340893        -9.2762
  44   2.0000      -0.324117        -8.8197
  45   2.0000      -0.311510        -8.4766
  46   2.0000      -0.301986        -8.2175
  47   2.0000      -0.271536        -7.3889
  48   2.0000      -0.266174        -7.2430
  49   2.0000      -0.254592        -6.9278
  50   2.0000      -0.237468        -6.4618
  51   0.0000       0.056083         1.5261
  52   0.0000       0.075152         2.0450
  53   0.0000       0.088624         2.4116
  54   0.0000       0.094226         2.5640
  55   0.0000       0.102178         2.7804

MULLIKEN ATOMIC CHARGES
-----------------------
   0 C :    0.307674
   1 C :   -0.262500
   2 C :   -0.318465
   3 C :   -0.021725
   4 O :   -0.509502
   5 H :    0.160382
   6 H :    0.149460
   7 H :    0.158120
   8 H :    0.152262
   9 H :    0.159731
  10 H :    0.146998
  11 H :    0.155346
  12 C :    0.013755
  13 H :    0.152253
  14 H :    0.138041
  15 O :   -0.546484
  16 C :    0.066132
  17 C :    0.077082
  18 C :   -0.287869
  19 C :   -0.013451
  20 O :   -0.525249
  21 H :    0.151931
  22 O :   -0.607843
  23 H :    0.140626
  24 H :    0.145354
  25 H :    0.166327
  26 H :    0.152504
  27 H :    0.134418
  28 H :    0.364692
Sum of atomic charges:   -0.0000000

LOEWDIN ATOMIC CHARGES
----------------------
   0 C :    0.185156
   1 C :   -0.221052
   2 C :   -0.221511
   3 C :   -0.033552
   4 O :   -0.316228
   5 H :    0.105831
   6 H :    0.116837
   7 H :    0.122037
   8 H :    0.119946
   9 H :    0.112254
  10 H :    0.102259
  11 H :    0.109254
  12 C :   -0.031756
  13 H :    0.108749
  14 H :    0.103699
  15 O :   -0.344179
  16 C :    0.012233
  17 C :    0.038267
  18 C :   -0.240091
  19 C :   -0.030989
  20 O :   -0.329099
  21 H :    0.114512
  22 O :   -0.418408
  23 H :    0.108061
  24 H :    0.117153
  25 H :    0.122581
  26 H :    0.109300
  27 H :    0.095683
  28 H :    0.283054

  Mayer bond orders larger than 0.100000
B(  0-C ,  1-C ) :   0.9282 B(  0-C ,  4-O ) :   0.9119 B(  0-C ,  5-H ) :   0.9293
B(  0-C , 15-O ) :   0.8424 B(  1-C ,  2-C ) :   0.9525 B(  1-C ,  6-H ) :   0.9345
B(  1-C ,  7-H ) :   0.9337 B(  2-C ,  3-C ) :   0.9520 B(  2-C ,  8-H ) :   0.9441
B(  2-C ,  9-H ) :   0.9359 B(  3-C ,  4-O ) :   0.8299 B(  3-C , 10-H ) :   0.9300
B(  3-C , 11-H ) :   0.9399 B( 12-C , 13-H ) :   0.9229 B( 12-C , 14-H ) :   0.9031
B( 12-C , 15-O ) :   0.8351 B( 12-C , 16-C ) :   0.9058 B( 16-C , 17-C ) :   0.9078
B( 16-C , 20-O ) :   0.8691 B( 16-C , 21-H ) :   0.9214 B( 17-C , 18-C ) :   0.9234
B( 17-C , 22-O ) :   0.8850 B( 17-C , 23-H ) :   0.9309 B( 18-C , 19-C ) :   0.9440
B( 18-C , 24-H ) :   0.9381 B( 18-C , 25-H ) :   0.9171 B( 19-C , 20-O ) :   0.8408
B( 19-C , 26-H ) :   0.9342 B( 19-C , 27-H ) :   0.9376 B( 22-O , 28-H ) :   0.7945

FINAL SINGLE POINT ENERGY      -652.859093128936

DIPOLE MOMENT
-------------
                                X             Y             Z
Electronic contribution:     -3.55707      -3.97138       0.96449
Nuclear contribution   :      4.50894       4.60876      -1.24798
                        -----------------------------------------
Total Dipole Moment    :      0.95186       0.63738      -0.28349
                        -----------------------------------------
Magnitude (a.u.)       :      1.18011
Magnitude (Debye)      :      2.99961

Rotational constants in cm-1:     0.047987     0.016248     0.015544
Rotational constants in MHz :  1438.627325   487.105883   466.005428

                             ****ORCA TERMINATED NORMALLY****
TOTAL RUN TIME: 0 days 1 hours 3 minutes 25 seconds 898 msec
