                         Program Version 4.2.0 -  RELEASE  -
|  1> # Test redundant internal optimization
|  2> #
|  3> ! RKS B3LYP  Opt TightSCF SmallPrint
|  4>
|  5> %basis
|  6>         Basis "6-31G"
|  7> end
|  8>
|  9> %geom
| 10> Constraints
| 11> { D 4  0  15  12  270.0   C } # D for Dihedral angle
| 12> { D 0  15  12  16  195.0   C } # D for Dihedral angle
| 13> { D 0  4  3  2   C } # D for Dihedral angle
| 14> { D 4  3  2  1   C } # D for Dihedral angle
| 15> { D 3  2  1  0   C } # D for Dihedral angle
| 16> { D 2  1  0  4   C } # D for Dihedral angle
| 17> { D 1  0  4  3   C } # D for Dihedral angle
| 18> { D 16  20  19  18   C } # D for Dihedral angle
| 19> { D 20  19  18  17   C } # D for Dihedral angle
| 20> { D 19  18  17  16   C } # D for Dihedral angle
| 21> { D 18  17  16  20   C } # D for Dihedral angle
| 22> { D 17  16  20  19   C } # D for Dihedral angle
| 23> { D 15  12  16  20   C } # D for Dihedral angle
| 24> end
| 25> end
| 26>
| 27>
| 28> #%pal
| 29> #nprocs 8
| 30> #end
| 31>
| 32> * xyz 0 1
| 33> C  -21.048   26.222   46.251
| 34> C  -20.361   27.558   45.944
| 35> C  -20.329   28.222   47.341
| 36> C  -20.110   27.022   48.296
| 37> O  -20.473   25.807   47.535
| 38> H  -20.833   25.428   45.533
| 39> H  -19.344   27.382   45.576
| 40> H  -20.898   28.157   45.201
| 41> H  -19.543   28.978   47.434
| 42> H  -21.289   28.710   47.548
| 43> H  -20.733   27.082   49.195
| 44> H  -19.064   26.913   48.597
| 45> C  -23.420   25.119   46.072
| 46> H  -23.027   24.636   45.169
| 47> H  -23.345   24.405   46.903
| 48> O  -22.586   26.394   46.375
| 49> C  -24.926   25.426   45.846
| 50> C  -25.137   26.285   44.595
| 51> C  -25.025   25.230   43.468
| 52> C  -25.660   23.968   44.103
| 53> O  -25.664   24.190   45.565
| 54> H  -25.346   25.848   46.761
| 55> O  -26.556   26.916   44.616
| 56> H  -24.403   27.092   44.497
| 57> H  -25.534   25.536   42.549
| 58> H  -23.971   25.052   43.224
| 59> H  -25.095   23.057   43.881
| 60> H  -26.699   23.823   43.796
| 61> H  -27.310   26.126   44.713
| 62> *
| 63>
| 64>                          ****END OF INPUT****
 Total Charge           Charge          ....    0
 Multiplicity           Mult            ....    1
 Number of Electrons    NEL             ....  102
FINAL SINGLE POINT ENERGY      -652.839296845372
FINAL SINGLE POINT ENERGY      -652.863237225715
FINAL SINGLE POINT ENERGY      -652.867138566370
FINAL SINGLE POINT ENERGY      -652.867825868986
FINAL SINGLE POINT ENERGY      -652.867905102476
FINAL SINGLE POINT ENERGY      -652.867914508579
FINAL SINGLE POINT ENERGY      -652.867916793799
                    ***********************HURRAY********************

CARTESIAN COORDINATES (ANGSTROEM)
---------------------------------
  C    -21.093109   26.117578   46.225978
  C    -20.529741   27.501680   45.902175
  C    -20.570680   28.193275   47.285592
  C    -20.252632   27.037832   48.260630
  O    -20.502733   25.785829   47.503181
  H    -20.819012   25.314493   45.534783
  H    -19.498246   27.397366   45.546329
  H    -21.118135   28.019568   45.142118
  H    -19.854064   29.016067   47.367038
  H    -21.574470   28.587484   47.468354
  H    -20.885624   27.042272   49.151444
  H    -19.201715   27.014421   48.564167
  C    -23.299255   25.027066   46.076990
  H    -22.898896   24.490522   45.203607
  H    -23.244882   24.357969   46.943540
  O    -22.529021   26.240452   46.310781
  C    -24.748482   25.444385   45.840435
  C    -24.979989   26.319054   44.600658
  C    -24.985318   25.260699   43.466953
  C    -25.652325   24.031817   44.133684
  O    -25.565976   24.249835   45.599712
  H    -25.140203   25.930674   46.737877
  O    -26.253535   27.016117   44.689782
  H    -24.225465   27.094032   44.478891
  H    -25.538975   25.627469   42.599467
  H    -23.961418   25.035460   43.149417
  H    -25.156168   23.088862   43.884772
  H    -26.714138   23.942772   43.884543
  H    -26.934792   26.398948   45.031103

 Multiplicity           Mult            ....    1
 Number of Electrons    NEL             ....  102
 Basis Dimension        Dim             ....  149

ORBITAL ENERGIES
----------------

  NO   OCC          E(Eh)            E(eV)
   0   2.0000     -19.148458      -521.0560
   1   2.0000     -19.145828      -520.9845
   2   2.0000     -19.138976      -520.7980
   3   2.0000     -19.135383      -520.7002
   4   2.0000     -10.281320      -279.7689
   5   2.0000     -10.236449      -278.5479
   6   2.0000     -10.233373      -278.4642
   7   2.0000     -10.232727      -278.4466
   8   2.0000     -10.231838      -278.4225
   9   2.0000     -10.224242      -278.2158
  10   2.0000     -10.188719      -277.2491
  11   2.0000     -10.186231      -277.1814
  12   2.0000     -10.184804      -277.1426
  13   2.0000      -1.055733       -28.7279
  14   2.0000      -1.036539       -28.2057
  15   2.0000      -1.004770       -27.3412
  16   2.0000      -0.997175       -27.1345
  17   2.0000      -0.790292       -21.5049
  18   2.0000      -0.778990       -21.1974
  19   2.0000      -0.768110       -20.9013
  20   2.0000      -0.729709       -19.8564
  21   2.0000      -0.674533       -18.3550
  22   2.0000      -0.604818       -16.4579
  23   2.0000      -0.598443       -16.2845
  24   2.0000      -0.589506       -16.0413
  25   2.0000      -0.586788       -15.9673
  26   2.0000      -0.522786       -14.2257
  27   2.0000      -0.520236       -14.1563
  28   2.0000      -0.495852       -13.4928
  29   2.0000      -0.490599       -13.3499
  30   2.0000      -0.469858       -12.7855
  31   2.0000      -0.457443       -12.4477
  32   2.0000      -0.450649       -12.2628
  33   2.0000      -0.438949       -11.9444
  34   2.0000      -0.425996       -11.5919
  35   2.0000      -0.411428       -11.1955
  36   2.0000      -0.402576       -10.9546
  37   2.0000      -0.392804       -10.6887
  38   2.0000      -0.376462       -10.2441
  39   2.0000      -0.368553       -10.0288
  40   2.0000      -0.358273        -9.7491
  41   2.0000      -0.355942        -9.6857
  42   2.0000      -0.349222        -9.5028
  43   2.0000      -0.334254        -9.0955
  44   2.0000      -0.323135        -8.7930
  45   2.0000      -0.307858        -8.3772
  46   2.0000      -0.304414        -8.2835
  47   2.0000      -0.272426        -7.4131
  48   2.0000      -0.268258        -7.2997
  49   2.0000      -0.254622        -6.9286
  50   2.0000      -0.245196        -6.6721
  51   0.0000       0.064162         1.7459
  52   0.0000       0.072791         1.9807
  53   0.0000       0.093811         2.5527
  54   0.0000       0.097493         2.6529
  55   0.0000       0.105330         2.8662

MULLIKEN ATOMIC CHARGES
-----------------------
   0 C :    0.288788
   1 C :   -0.258425
   2 C :   -0.299054
   3 C :   -0.001401
   4 O :   -0.507935
   5 H :    0.139124
   6 H :    0.144987
   7 H :    0.151266
   8 H :    0.141253
   9 H :    0.165155
  10 H :    0.150016
  11 H :    0.141759
  12 C :    0.001513
  13 H :    0.121188
  14 H :    0.164829
  15 O :   -0.528176
  16 C :    0.058092
  17 C :    0.090218
  18 C :   -0.298398
  19 C :   -0.028981
  20 O :   -0.528156
  21 H :    0.167563
  22 O :   -0.603950
  23 H :    0.169031
  24 H :    0.162135
  25 H :    0.141496
  26 H :    0.144840
  27 H :    0.147848
  28 H :    0.363376
Sum of atomic charges:   -0.0000000

LOEWDIN ATOMIC CHARGES
----------------------
   0 C :    0.173185
   1 C :   -0.216745
   2 C :   -0.215862
   3 C :   -0.026901
   4 O :   -0.325995
   5 H :    0.096621
   6 H :    0.113867
   7 H :    0.120655
   8 H :    0.113756
   9 H :    0.120531
  10 H :    0.107050
  11 H :    0.102306
  12 C :   -0.036461
  13 H :    0.089377
  14 H :    0.113102
  15 O :   -0.330644
  16 C :    0.018126
  17 C :    0.037587
  18 C :   -0.241626
  19 C :   -0.037817
  20 O :   -0.330139
  21 H :    0.119608
  22 O :   -0.414882
  23 H :    0.123902
  24 H :    0.126781
  25 H :    0.111799
  26 H :    0.103496
  27 H :    0.103361
  28 H :    0.281962

  Mayer bond orders larger than 0.100000
B(  0-C ,  1-C ) :   0.9469 B(  0-C ,  4-O ) :   0.9218 B(  0-C ,  5-H ) :   0.9195
B(  0-C , 15-O ) :   0.8500 B(  1-C ,  2-C ) :   0.9579 B(  1-C ,  6-H ) :   0.9395
B(  1-C ,  7-H ) :   0.9369 B(  2-C ,  3-C ) :   0.9544 B(  2-C ,  8-H ) :   0.9452
B(  2-C ,  9-H ) :   0.9438 B(  3-C ,  4-O ) :   0.8369 B(  3-C , 10-H ) :   0.9353
B(  3-C , 11-H ) :   0.9402 B( 12-C , 13-H ) :   0.9191 B( 12-C , 14-H ) :   0.9166
B( 12-C , 15-O ) :   0.8200 B( 12-C , 16-C ) :   0.9072 B( 16-C , 17-C ) :   0.9114
B( 16-C , 20-O ) :   0.8424 B( 16-C , 21-H ) :   0.9251 B( 17-C , 18-C ) :   0.9115
B( 17-C , 22-O ) :   0.8901 B( 17-C , 23-H ) :   0.9247 B( 18-C , 19-C ) :   0.9417
B( 18-C , 24-H ) :   0.9379 B( 18-C , 25-H ) :   0.9352 B( 19-C , 20-O ) :   0.8442
B( 19-C , 26-H ) :   0.9360 B( 19-C , 27-H ) :   0.9380 B( 22-O , 28-H ) :   0.7952

FINAL SINGLE POINT ENERGY      -652.867917177740

DIPOLE MOMENT
-------------
                                X             Y             Z
Electronic contribution:     -3.21732      -1.98796       1.87771
Nuclear contribution   :      3.81371       2.02080      -2.56407
                        -----------------------------------------
Total Dipole Moment    :      0.59639       0.03284      -0.68636
                        -----------------------------------------
Magnitude (a.u.)       :      0.90987
Magnitude (Debye)      :      2.31270

Rotational constants in cm-1:     0.059429     0.012007     0.011296
Rotational constants in MHz :  1781.637146   359.964780   338.655690

                             ****ORCA TERMINATED NORMALLY****
TOTAL RUN TIME: 0 days 0 hours 39 minutes 34 seconds 22 msec
