                         Program Version 4.2.0 -  RELEASE  -
|  1> # Test redundant internal optimization
|  2> #
|  3> ! RKS B3LYP  Opt TightSCF SmallPrint
|  4>
|  5> %basis
|  6>         Basis "6-31G"
|  7> end
|  8>
|  9> %geom
| 10> Constraints
| 11> { D 4  0  15  12  15.0   C } # D for Dihedral angle
| 12> { D 0  15  12  16  210.0   C } # D for Dihedral angle
| 13> { D 0  4  3  2   C } # D for Dihedral angle
| 14> { D 4  3  2  1   C } # D for Dihedral angle
| 15> { D 3  2  1  0   C } # D for Dihedral angle
| 16> { D 2  1  0  4   C } # D for Dihedral angle
| 17> { D 1  0  4  3   C } # D for Dihedral angle
| 18> { D 16  20  19  18   C } # D for Dihedral angle
| 19> { D 20  19  18  17   C } # D for Dihedral angle
| 20> { D 19  18  17  16   C } # D for Dihedral angle
| 21> { D 18  17  16  20   C } # D for Dihedral angle
| 22> { D 17  16  20  19   C } # D for Dihedral angle
| 23> { D 15  12  16  20   C } # D for Dihedral angle
| 24> end
| 25> end
| 26>
| 27>
| 28> #%pal
| 29> #nprocs 8
| 30> #end
| 31>
| 32> * xyz 0 1
| 33> C  -21.048   26.222   46.251
| 34> C  -20.361   27.558   45.944
| 35> C  -20.329   28.222   47.341
| 36> C  -20.110   27.022   48.296
| 37> O  -20.473   25.807   47.535
| 38> H  -20.833   25.428   45.533
| 39> H  -19.344   27.382   45.576
| 40> H  -20.898   28.157   45.201
| 41> H  -19.543   28.978   47.434
| 42> H  -21.289   28.710   47.548
| 43> H  -20.733   27.082   49.195
| 44> H  -19.064   26.913   48.597
| 45> C  -23.128   26.462   47.829
| 46> H  -22.472   25.879   48.488
| 47> H  -23.138   27.500   48.187
| 48> O  -22.586   26.394   46.375
| 49> C  -24.572   25.903   47.959
| 50> C  -25.532   26.612   46.997
| 51> C  -25.214   25.905   45.658
| 52> C  -24.905   24.450   46.093
| 53> O  -24.616   24.497   47.543
| 54> H  -24.875   25.936   49.007
| 55> H  -26.569   26.424   47.296
| 56> O  -25.310   28.148   46.934
| 57> H  -26.039   25.959   44.942
| 58> H  -24.334   26.363   45.190
| 59> H  -24.041   24.029   45.568
| 60> H  -25.761   23.783   45.957
| 61> H  -24.277   28.358   46.637
| 62> *
| 63>
| 64>                          ****END OF INPUT****
 Total Charge           Charge          ....    0
 Multiplicity           Mult            ....    1
 Number of Electrons    NEL             ....  102
FINAL SINGLE POINT ENERGY      -652.831154863308
FINAL SINGLE POINT ENERGY      -652.854090936305
FINAL SINGLE POINT ENERGY      -652.859028680447
FINAL SINGLE POINT ENERGY      -652.860509918208
FINAL SINGLE POINT ENERGY      -652.860639977206
FINAL SINGLE POINT ENERGY      -652.860661449827
FINAL SINGLE POINT ENERGY      -652.860662293141
                    ***********************HURRAY********************

CARTESIAN COORDINATES (ANGSTROEM)
---------------------------------
  C    -21.086604   26.245770   46.396410
  C    -20.414275   27.562497   46.002534
  C    -20.222599   28.247443   47.379049
  C    -19.925513   27.059162   48.320239
  O    -20.399025   25.844439   47.596885
  H    -20.959736   25.437051   45.675286
  H    -19.446807   27.347012   45.534430
  H    -21.022688   28.145560   45.307605
  H    -19.411821   28.982248   47.374609
  H    -21.141457   28.764420   47.675852
  H    -20.446864   27.121629   49.279024
  H    -18.856763   26.914338   48.499215
  C    -23.119517   26.471188   47.880939
  H    -22.507564   25.883388   48.570044
  H    -23.159448   27.513042   48.229618
  O    -22.533706   26.397818   46.545918
  C    -24.535119   25.900139   47.877899
  C    -25.530385   26.610287   46.944924
  C    -25.268823   25.891690   45.585859
  C    -24.954152   24.445929   46.025310
  O    -24.607739   24.505982   47.468938
  H    -24.883415   25.933469   48.918078
  H    -26.552531   26.443710   47.291713
  O    -25.379320   28.050917   46.896504
  H    -26.132506   25.951845   44.916721
  H    -24.401679   26.348666   45.103908
  H    -24.109858   24.014476   45.480869
  H    -25.819613   23.781422   45.935898
  H    -24.564470   28.267461   46.396720

 Multiplicity           Mult            ....    1
 Number of Electrons    NEL             ....  102
 Basis Dimension        Dim             ....  149

ORBITAL ENERGIES
----------------

  NO   OCC          E(Eh)            E(eV)
   0   2.0000     -19.156468      -521.2740
   1   2.0000     -19.145884      -520.9860
   2   2.0000     -19.136886      -520.7411
   3   2.0000     -19.128794      -520.5209
   4   2.0000     -10.285812      -279.8912
   5   2.0000     -10.238072      -278.5921
   6   2.0000     -10.232254      -278.4338
   7   2.0000     -10.226113      -278.2667
   8   2.0000     -10.225939      -278.2620
   9   2.0000     -10.217518      -278.0328
  10   2.0000     -10.198480      -277.5147
  11   2.0000     -10.193125      -277.3690
  12   2.0000     -10.175370      -276.8859
  13   2.0000      -1.060819       -28.8664
  14   2.0000      -1.024031       -27.8653
  15   2.0000      -1.006135       -27.3783
  16   2.0000      -0.995174       -27.0801
  17   2.0000      -0.796891       -21.6845
  18   2.0000      -0.772531       -21.0216
  19   2.0000      -0.763209       -20.7680
  20   2.0000      -0.735899       -20.0248
  21   2.0000      -0.675224       -18.3738
  22   2.0000      -0.610619       -16.6158
  23   2.0000      -0.600667       -16.3450
  24   2.0000      -0.597416       -16.2565
  25   2.0000      -0.560942       -15.2640
  26   2.0000      -0.527389       -14.3510
  27   2.0000      -0.513185       -13.9645
  28   2.0000      -0.499414       -13.5897
  29   2.0000      -0.488510       -13.2930
  30   2.0000      -0.472059       -12.8454
  31   2.0000      -0.459801       -12.5118
  32   2.0000      -0.441360       -12.0100
  33   2.0000      -0.428535       -11.6610
  34   2.0000      -0.424621       -11.5545
  35   2.0000      -0.416620       -11.3368
  36   2.0000      -0.399244       -10.8640
  37   2.0000      -0.391741       -10.6598
  38   2.0000      -0.379885       -10.3372
  39   2.0000      -0.374439       -10.1890
  40   2.0000      -0.367345        -9.9960
  41   2.0000      -0.358066        -9.7435
  42   2.0000      -0.347030        -9.4432
  43   2.0000      -0.333023        -9.0620
  44   2.0000      -0.321916        -8.7598
  45   2.0000      -0.309611        -8.4250
  46   2.0000      -0.302440        -8.2298
  47   2.0000      -0.271561        -7.3895
  48   2.0000      -0.261273        -7.1096
  49   2.0000      -0.254970        -6.9381
  50   2.0000      -0.233538        -6.3549
  51   0.0000       0.058825         1.6007
  52   0.0000       0.083809         2.2806
  53   0.0000       0.091701         2.4953
  54   0.0000       0.097411         2.6507
  55   0.0000       0.101495         2.7618

MULLIKEN ATOMIC CHARGES
-----------------------
   0 C :    0.307281
   1 C :   -0.257184
   2 C :   -0.314273
   3 C :   -0.018151
   4 O :   -0.505226
   5 H :    0.163531
   6 H :    0.148612
   7 H :    0.151558
   8 H :    0.151769
   9 H :    0.154308
  10 H :    0.148268
  11 H :    0.155177
  12 C :   -0.027508
  13 H :    0.178381
  14 H :    0.125794
  15 O :   -0.554818
  16 C :    0.094082
  17 C :    0.089394
  18 C :   -0.312207
  19 C :   -0.003128
  20 O :   -0.519459
  21 H :    0.145628
  22 H :    0.157181
  23 O :   -0.609954
  24 H :    0.142386
  25 H :    0.162591
  26 H :    0.144758
  27 H :    0.139919
  28 H :    0.361291
Sum of atomic charges:   -0.0000000

LOEWDIN ATOMIC CHARGES
----------------------
   0 C :    0.183993
   1 C :   -0.223657
   2 C :   -0.221049
   3 C :   -0.032606
   4 O :   -0.311192
   5 H :    0.110704
   6 H :    0.116224
   7 H :    0.120635
   8 H :    0.119456
   9 H :    0.112839
  10 H :    0.104646
  11 H :    0.109609
  12 C :   -0.053211
  13 H :    0.121807
  14 H :    0.091740
  15 O :   -0.350130
  16 C :    0.019627
  17 C :    0.037554
  18 C :   -0.243191
  19 C :   -0.024750
  20 O :   -0.321099
  21 H :    0.112659
  22 H :    0.114226
  23 O :   -0.413824
  24 H :    0.113863
  25 H :    0.120654
  26 H :    0.104331
  27 H :    0.099822
  28 H :    0.280320

  Mayer bond orders larger than 0.100000
B(  0-C ,  1-C ) :   0.9252 B(  0-C ,  4-O ) :   0.9201 B(  0-C ,  5-H ) :   0.9326
B(  0-C , 15-O ) :   0.8363 B(  1-C ,  2-C ) :   0.9524 B(  1-C ,  6-H ) :   0.9340
B(  1-C ,  7-H ) :   0.9377 B(  2-C ,  3-C ) :   0.9513 B(  2-C ,  8-H ) :   0.9444
B(  2-C ,  9-H ) :   0.9439 B(  3-C ,  4-O ) :   0.8285 B(  3-C , 10-H ) :   0.9324
B(  3-C , 11-H ) :   0.9401 B( 12-C , 13-H ) :   0.9078 B( 12-C , 14-H ) :   0.9021
B( 12-C , 15-O ) :   0.8270 B( 12-C , 16-C ) :   0.9087 B( 16-C , 17-C ) :   0.8861
B( 16-C , 20-O ) :   0.8834 B( 16-C , 21-H ) :   0.9289 B( 17-C , 18-C ) :   0.9323
B( 17-C , 22-H ) :   0.9379 B( 17-C , 23-O ) :   0.8977 B( 18-C , 19-C ) :   0.9457
B( 18-C , 24-H ) :   0.9416 B( 18-C , 25-H ) :   0.9273 B( 19-C , 20-O ) :   0.8396
B( 19-C , 26-H ) :   0.9328 B( 19-C , 27-H ) :   0.9374 B( 23-O , 28-H ) :   0.7937

FINAL SINGLE POINT ENERGY      -652.860661043640

DIPOLE MOMENT
-------------
                                X             Y             Z
Electronic contribution:     -2.27485      -3.16750       1.17415
Nuclear contribution   :      3.22570       4.02740      -1.63156
                        -----------------------------------------
Total Dipole Moment    :      0.95085       0.85990      -0.45741
                        -----------------------------------------
Magnitude (a.u.)       :      1.36116
Magnitude (Debye)      :      3.45979

Rotational constants in cm-1:     0.049323     0.015710     0.014587
Rotational constants in MHz :  1478.679688   470.963720   437.303582

                             ****ORCA TERMINATED NORMALLY****
TOTAL RUN TIME: 0 days 0 hours 39 minutes 40 seconds 572 msec
