                         Program Version 4.2.0 -  RELEASE  -
|  1> # Test redundant internal optimization
|  2> #
|  3> ! RKS B3LYP  Opt TightSCF SmallPrint
|  4>
|  5> %basis
|  6>         Basis "6-31G"
|  7> end
|  8>
|  9> %geom
| 10> Constraints
| 11> { D 4  0  15  12  165.0   C } # D for Dihedral angle
| 12> { D 0  15  12  16  60.0   C } # D for Dihedral angle
| 13> { D 0  4  3  2   C } # D for Dihedral angle
| 14> { D 4  3  2  1   C } # D for Dihedral angle
| 15> { D 3  2  1  0   C } # D for Dihedral angle
| 16> { D 2  1  0  4   C } # D for Dihedral angle
| 17> { D 1  0  4  3   C } # D for Dihedral angle
| 18> { D 16  20  19  18   C } # D for Dihedral angle
| 19> { D 20  19  18  17   C } # D for Dihedral angle
| 20> { D 19  18  17  16   C } # D for Dihedral angle
| 21> { D 18  17  16  20   C } # D for Dihedral angle
| 22> { D 17  16  20  19   C } # D for Dihedral angle
| 23> { D 15  12  16  20   C } # D for Dihedral angle
| 24> end
| 25> end
| 26>
| 27>
| 28> #%pal
| 29> #nprocs 8
| 30> #end
| 31>
| 32> * xyz 0 1
| 33> C  -21.048   26.222   46.251
| 34> C  -20.361   27.558   45.944
| 35> C  -20.329   28.222   47.341
| 36> C  -20.110   27.022   48.296
| 37> O  -20.473   25.807   47.535
| 38> H  -20.833   25.428   45.533
| 39> H  -19.344   27.382   45.576
| 40> H  -20.898   28.157   45.201
| 41> H  -19.543   28.978   47.434
| 42> H  -21.289   28.710   47.548
| 43> H  -20.733   27.082   49.195
| 44> H  -19.064   26.913   48.597
| 45> C  -23.260   27.170   45.210
| 46> H  -24.338   27.242   45.400
| 47> H  -22.855   28.188   45.142
| 48> O  -22.586   26.394   46.375
| 49> C  -23.051   26.485   43.832
| 50> C  -23.627   27.335   42.694
| 51> C  -22.520   28.399   42.506
| 52> C  -21.219   27.607   42.788
| 53> O  -21.621   26.387   43.520
| 54> H  -23.440   25.465   43.876
| 55> H  -23.738   26.728   41.789
| 56> O  -25.009   27.957   43.038
| 57> H  -22.528   28.848   41.507
| 58> H  -22.647   29.207   43.237
| 59> H  -20.508   28.174   43.399
| 60> H  -20.720   27.284   41.870
| 61> H  -24.923   28.571   43.941
| 62> *
| 63>
| 64>                          ****END OF INPUT****
 Total Charge           Charge          ....    0
 Multiplicity           Mult            ....    1
 Number of Electrons    NEL             ....  102
FINAL SINGLE POINT ENERGY      -652.820603935855
FINAL SINGLE POINT ENERGY      -652.845092601014
FINAL SINGLE POINT ENERGY      -652.851180293926
FINAL SINGLE POINT ENERGY      -652.853439962836
FINAL SINGLE POINT ENERGY      -652.853691195204
FINAL SINGLE POINT ENERGY      -652.853757813718
FINAL SINGLE POINT ENERGY      -652.853762816545
FINAL SINGLE POINT ENERGY      -652.853761150834
                    ***********************HURRAY********************

CARTESIAN COORDINATES (ANGSTROEM)
---------------------------------
  C    -20.962996   26.234163   46.255160
  C    -20.178779   27.530788   46.055180
  C    -20.299284   28.202254   47.448674
  C    -20.269161   26.991146   48.405789
  O    -20.591058   25.809417   47.572979
  H    -20.728707   25.431174   45.559108
  H    -19.136052   27.276195   45.832930
  H    -20.549360   28.158128   45.244244
  H    -19.488816   28.910698   47.645574
  H    -21.251537   28.736323   47.528883
  H    -21.002418   27.062116   49.213500
  H    -19.277052   26.814078   48.832477
  C    -23.111061   27.175487   45.266118
  H    -24.162836   27.140555   45.564248
  H    -22.788527   28.230385   45.260012
  O    -22.416618   26.443505   46.305000
  C    -22.979073   26.565800   43.865663
  C    -23.709008   27.342151   42.754321
  C    -22.649700   28.418926   42.368756
  C    -21.314042   27.661151   42.536673
  O    -21.600450   26.473851   43.385884
  H    -23.329649   25.530413   43.925126
  H    -23.899561   26.674568   41.911687
  O    -25.011216   27.861264   43.110110
  H    -22.796956   28.800114   41.355243
  H    -22.720763   29.267571   43.062412
  H    -20.536808   28.265338   43.015133
  H    -20.929175   27.282931   41.585719
  H    -24.924336   28.631508   43.708397

 Multiplicity           Mult            ....    1
 Number of Electrons    NEL             ....  102
 Basis Dimension        Dim             ....  149

ORBITAL ENERGIES
----------------

  NO   OCC          E(Eh)            E(eV)
   0   2.0000     -19.155729      -521.2539
   1   2.0000     -19.151576      -521.1409
   2   2.0000     -19.132514      -520.6222
   3   2.0000     -19.131475      -520.5939
   4   2.0000     -10.268165      -279.4110
   5   2.0000     -10.252332      -278.9801
   6   2.0000     -10.241157      -278.6761
   7   2.0000     -10.235748      -278.5289
   8   2.0000     -10.233553      -278.4691
   9   2.0000     -10.219349      -278.0826
  10   2.0000     -10.203755      -277.6583
  11   2.0000     -10.184102      -277.1235
  12   2.0000     -10.181966      -277.0654
  13   2.0000      -1.047130       -28.4938
  14   2.0000      -1.039474       -28.2855
  15   2.0000      -1.024904       -27.8891
  16   2.0000      -0.984722       -26.7956
  17   2.0000      -0.790918       -21.5220
  18   2.0000      -0.781100       -21.2548
  19   2.0000      -0.770910       -20.9775
  20   2.0000      -0.730026       -19.8650
  21   2.0000      -0.685334       -18.6489
  22   2.0000      -0.620643       -16.8886
  23   2.0000      -0.601745       -16.3743
  24   2.0000      -0.593441       -16.1484
  25   2.0000      -0.564645       -15.3648
  26   2.0000      -0.535065       -14.5599
  27   2.0000      -0.515320       -14.0226
  28   2.0000      -0.499985       -13.6053
  29   2.0000      -0.484855       -13.1936
  30   2.0000      -0.471627       -12.8336
  31   2.0000      -0.459118       -12.4932
  32   2.0000      -0.448949       -12.2165
  33   2.0000      -0.439254       -11.9527
  34   2.0000      -0.429303       -11.6819
  35   2.0000      -0.425891       -11.5891
  36   2.0000      -0.404543       -11.0082
  37   2.0000      -0.401015       -10.9122
  38   2.0000      -0.388108       -10.5609
  39   2.0000      -0.371416       -10.1067
  40   2.0000      -0.360114        -9.7992
  41   2.0000      -0.352974        -9.6049
  42   2.0000      -0.348598        -9.4858
  43   2.0000      -0.338279        -9.2050
  44   2.0000      -0.324397        -8.8273
  45   2.0000      -0.306009        -8.3269
  46   2.0000      -0.294648        -8.0178
  47   2.0000      -0.278560        -7.5800
  48   2.0000      -0.265649        -7.2287
  49   2.0000      -0.248783        -6.7697
  50   2.0000      -0.238574        -6.4919
  51   0.0000       0.043977         1.1967
  52   0.0000       0.059674         1.6238
  53   0.0000       0.083598         2.2748
  54   0.0000       0.095210         2.5908
  55   0.0000       0.099207         2.6996

MULLIKEN ATOMIC CHARGES
-----------------------
   0 C :    0.317785
   1 C :   -0.284176
   2 C :   -0.302869
   3 C :    0.003277
   4 O :   -0.501795
   5 H :    0.169587
   6 H :    0.149160
   7 H :    0.137147
   8 H :    0.138832
   9 H :    0.150158
  10 H :    0.150794
  11 H :    0.139452
  12 C :   -0.023520
  13 H :    0.164528
  14 H :    0.103972
  15 O :   -0.517637
  16 C :    0.083789
  17 C :    0.084848
  18 C :   -0.317781
  19 C :   -0.016901
  20 O :   -0.521050
  21 H :    0.168009
  22 H :    0.171767
  23 O :   -0.597060
  24 H :    0.159927
  25 H :    0.133795
  26 H :    0.142344
  27 H :    0.156315
  28 H :    0.357304
Sum of atomic charges:   -0.0000000

LOEWDIN ATOMIC CHARGES
----------------------
   0 C :    0.186334
   1 C :   -0.228981
   2 C :   -0.220203
   3 C :   -0.025555
   4 O :   -0.303370
   5 H :    0.112031
   6 H :    0.118393
   7 H :    0.109116
   8 H :    0.112354
   9 H :    0.111642
  10 H :    0.107314
  11 H :    0.101143
  12 C :   -0.051708
  13 H :    0.122475
  14 H :    0.077499
  15 O :   -0.331302
  16 C :    0.005866
  17 C :    0.037008
  18 C :   -0.240243
  19 C :   -0.031925
  20 O :   -0.322296
  21 H :    0.120088
  22 H :    0.121304
  23 O :   -0.404013
  24 H :    0.124468
  25 H :    0.104431
  26 H :    0.099646
  27 H :    0.109429
  28 H :    0.279056

  Mayer bond orders larger than 0.100000
B(  0-C ,  1-C ) :   0.9338 B(  0-C ,  4-O ) :   0.9215 B(  0-C ,  5-H ) :   0.9180
B(  0-C , 15-O ) :   0.8170 B(  1-C ,  2-C ) :   0.9456 B(  1-C ,  6-H ) :   0.9366
B(  1-C ,  7-H ) :   0.9255 B(  2-C ,  3-C ) :   0.9547 B(  2-C ,  8-H ) :   0.9454
B(  2-C ,  9-H ) :   0.9461 B(  3-C ,  4-O ) :   0.8405 B(  3-C , 10-H ) :   0.9349
B(  3-C , 11-H ) :   0.9401 B( 12-C , 13-H ) :   0.9201 B( 12-C , 14-H ) :   0.9140
B( 12-C , 15-O ) :   0.8787 B( 12-C , 16-C ) :   0.8893 B( 16-C , 17-C ) :   0.8700
B( 16-C , 20-O ) :   0.8490 B( 16-C , 21-H ) :   0.9273 B( 17-C , 18-C ) :   0.9235
B( 17-C , 22-H ) :   0.9318 B( 17-C , 23-O ) :   0.9028 B( 18-C , 19-C ) :   0.9405
B( 18-C , 24-H ) :   0.9418 B( 18-C , 25-H ) :   0.9402 B( 19-C , 20-O ) :   0.8397
B( 19-C , 26-H ) :   0.9237 B( 19-C , 27-H ) :   0.9376 B( 23-O , 28-H ) :   0.7979

FINAL SINGLE POINT ENERGY      -652.853748488778

DIPOLE MOMENT
-------------
                                X             Y             Z
Electronic contribution:     -2.96848      -5.70930       0.32094
Nuclear contribution   :      3.45963       7.54220      -1.07917
                        -----------------------------------------
Total Dipole Moment    :      0.49115       1.83290      -0.75823
                        -----------------------------------------
Magnitude (a.u.)       :      2.04345
Magnitude (Debye)      :      5.19402

Rotational constants in cm-1:     0.055408     0.014490     0.013478
Rotational constants in MHz :  1661.093088   434.390515   404.052359

                             ****ORCA TERMINATED NORMALLY****
TOTAL RUN TIME: 0 days 0 hours 31 minutes 28 seconds 718 msec
