                         Program Version 4.2.0 -  RELEASE  -
|  1> # Test redundant internal optimization
|  2> #
|  3> ! RKS B3LYP  Opt TightSCF SmallPrint
|  4>
|  5> %basis
|  6>         Basis "6-31G"
|  7> end
|  8>
|  9> %geom
| 10> Constraints
| 11> { D 4  0  15  12  270.0   C } # D for Dihedral angle
| 12> { D 0  15  12  16  195.0   C } # D for Dihedral angle
| 13> { D 0  4  3  2   C } # D for Dihedral angle
| 14> { D 4  3  2  1   C } # D for Dihedral angle
| 15> { D 3  2  1  0   C } # D for Dihedral angle
| 16> { D 2  1  0  4   C } # D for Dihedral angle
| 17> { D 1  0  4  3   C } # D for Dihedral angle
| 18> { D 16  20  19  18   C } # D for Dihedral angle
| 19> { D 20  19  18  17   C } # D for Dihedral angle
| 20> { D 19  18  17  16   C } # D for Dihedral angle
| 21> { D 18  17  16  20   C } # D for Dihedral angle
| 22> { D 17  16  20  19   C } # D for Dihedral angle
| 23> { D 15  12  16  20   C } # D for Dihedral angle
| 24> end
| 25> end
| 26>
| 27>
| 28> #%pal
| 29> #nprocs 8
| 30> #end
| 31>
| 32> * xyz 0 1
| 33> C  -21.048   26.222   46.251
| 34> C  -20.361   27.558   45.944
| 35> C  -20.329   28.222   47.341
| 36> C  -20.110   27.022   48.296
| 37> O  -20.473   25.807   47.535
| 38> H  -20.833   25.428   45.533
| 39> H  -19.344   27.382   45.576
| 40> H  -20.898   28.157   45.201
| 41> H  -19.543   28.978   47.434
| 42> H  -21.289   28.710   47.548
| 43> H  -20.733   27.082   49.195
| 44> H  -19.064   26.913   48.597
| 45> C  -23.420   25.119   46.072
| 46> H  -23.027   24.636   45.169
| 47> H  -23.345   24.405   46.903
| 48> O  -22.586   26.394   46.375
| 49> C  -24.926   25.426   45.846
| 50> C  -25.736   24.137   45.666
| 51> C  -25.894   23.658   47.129
| 52> C  -26.025   24.984   47.920
| 53> O  -25.506   26.052   47.039
| 54> H  -25.027   26.141   45.028
| 55> O  -27.121   24.460   45.042
| 56> H  -25.234   23.400   45.030
| 57> H  -26.758   23.001   47.269
| 58> H  -25.000   23.108   47.444
| 59> H  -25.449   24.975   48.852
| 60> H  -27.066   25.232   48.149
| 61> H  -27.641   25.197   45.663
| 62> *
| 63>
| 64>                          ****END OF INPUT****
 Total Charge           Charge          ....    0
 Multiplicity           Mult            ....    1
 Number of Electrons    NEL             ....  102
FINAL SINGLE POINT ENERGY      -652.834543981894
FINAL SINGLE POINT ENERGY      -652.858828168374
FINAL SINGLE POINT ENERGY      -652.863062390763
FINAL SINGLE POINT ENERGY      -652.863818214518
FINAL SINGLE POINT ENERGY      -652.863905130547
FINAL SINGLE POINT ENERGY      -652.863913534635
                    ***********************HURRAY********************

CARTESIAN COORDINATES (ANGSTROEM)
---------------------------------
  C    -21.091822   26.134820   46.212745
  C    -20.563327   27.540727   45.925556
  C    -20.567151   28.175478   47.336164
  C    -20.195773   26.988436   48.252671
  O    -20.450813   25.762576   47.455795
  H    -20.828802   25.364664   45.480381
  H    -19.543702   27.470558   45.528890
  H    -21.190016   28.075380   45.209182
  H    -19.862056   29.007377   47.426270
  H    -21.571040   28.541587   47.568901
  H    -20.798438   26.947658   49.163325
  H    -19.134597   26.972489   48.519640
  C    -23.278667   25.024056   46.104026
  H    -22.921044   24.539090   45.181155
  H    -23.140652   24.321072   46.936906
  O    -22.523192   26.236447   46.355217
  C    -24.744587   25.408231   45.933358
  C    -25.678426   24.211255   45.704151
  C    -25.925984   23.720720   47.155038
  C    -25.942274   25.037818   47.970479
  O    -25.290152   26.065391   47.123071
  H    -24.821616   26.136606   45.120149
  O    -26.911837   24.636804   45.062128
  H    -25.265216   23.440139   45.051957
  H    -26.864957   23.165186   47.218957
  H    -25.111809   23.061597   47.477159
  H    -25.397681   24.958132   48.915800
  H    -26.957254   25.388804   48.180987
  H    -27.213115   25.472904   45.476943

 Multiplicity           Mult            ....    1
 Number of Electrons    NEL             ....  102
 Basis Dimension        Dim             ....  149

ORBITAL ENERGIES
----------------

  NO   OCC          E(Eh)            E(eV)
   0   2.0000     -19.141879      -520.8770
   1   2.0000     -19.140434      -520.8377
   2   2.0000     -19.139456      -520.8111
   3   2.0000     -19.134843      -520.6855
   4   2.0000     -10.276401      -279.6351
   5   2.0000     -10.243939      -278.7518
   6   2.0000     -10.234807      -278.5033
   7   2.0000     -10.233162      -278.4585
   8   2.0000     -10.229432      -278.3570
   9   2.0000     -10.220431      -278.1121
  10   2.0000     -10.190074      -277.2860
  11   2.0000     -10.181324      -277.0479
  12   2.0000     -10.179990      -277.0116
  13   2.0000      -1.052214       -28.6322
  14   2.0000      -1.035950       -28.1896
  15   2.0000      -1.006281       -27.3823
  16   2.0000      -0.991995       -26.9936
  17   2.0000      -0.789088       -21.4722
  18   2.0000      -0.779981       -21.2244
  19   2.0000      -0.766694       -20.8628
  20   2.0000      -0.727689       -19.8014
  21   2.0000      -0.673006       -18.3134
  22   2.0000      -0.604989       -16.4626
  23   2.0000      -0.595150       -16.1949
  24   2.0000      -0.589645       -16.0450
  25   2.0000      -0.583743       -15.8844
  26   2.0000      -0.527980       -14.3671
  27   2.0000      -0.510415       -13.8891
  28   2.0000      -0.492829       -13.4106
  29   2.0000      -0.486242       -13.2313
  30   2.0000      -0.475180       -12.9303
  31   2.0000      -0.458111       -12.4658
  32   2.0000      -0.449951       -12.2438
  33   2.0000      -0.439811       -11.9679
  34   2.0000      -0.424178       -11.5425
  35   2.0000      -0.405931       -11.0459
  36   2.0000      -0.397206       -10.8085
  37   2.0000      -0.393772       -10.7151
  38   2.0000      -0.373183       -10.1548
  39   2.0000      -0.370409       -10.0793
  40   2.0000      -0.360586        -9.8120
  41   2.0000      -0.352055        -9.5799
  42   2.0000      -0.344972        -9.3872
  43   2.0000      -0.330596        -8.9960
  44   2.0000      -0.320737        -8.7277
  45   2.0000      -0.308036        -8.3821
  46   2.0000      -0.299106        -8.1391
  47   2.0000      -0.271846        -7.3973
  48   2.0000      -0.265541        -7.2257
  49   2.0000      -0.251255        -6.8370
  50   2.0000      -0.240761        -6.5514
  51   0.0000       0.066563         1.8113
  52   0.0000       0.083392         2.2692
  53   0.0000       0.090243         2.4556
  54   0.0000       0.098967         2.6930
  55   0.0000       0.104956         2.8560

MULLIKEN ATOMIC CHARGES
-----------------------
   0 C :    0.284184
   1 C :   -0.256976
   2 C :   -0.299500
   3 C :   -0.000594
   4 O :   -0.511085
   5 H :    0.136106
   6 H :    0.142148
   7 H :    0.153775
   8 H :    0.138227
   9 H :    0.170749
  10 H :    0.148910
  11 H :    0.139475
  12 C :    0.011068
  13 H :    0.119963
  14 H :    0.145222
  15 O :   -0.510392
  16 C :    0.064238
  17 C :    0.071639
  18 C :   -0.295310
  19 C :   -0.030626
  20 O :   -0.508765
  21 H :    0.165361
  22 O :   -0.602013
  23 H :    0.151836
  24 H :    0.163397
  25 H :    0.145267
  26 H :    0.151968
  27 H :    0.145278
  28 H :    0.366451
Sum of atomic charges:   -0.0000000

LOEWDIN ATOMIC CHARGES
----------------------
   0 C :    0.171904
   1 C :   -0.216372
   2 C :   -0.216054
   3 C :   -0.026758
   4 O :   -0.329390
   5 H :    0.094964
   6 H :    0.112304
   7 H :    0.122468
   8 H :    0.112245
   9 H :    0.123367
  10 H :    0.106497
  11 H :    0.100900
  12 C :   -0.039320
  13 H :    0.092605
  14 H :    0.101177
  15 O :   -0.316449
  16 C :    0.017323
  17 C :    0.034708
  18 C :   -0.241308
  19 C :   -0.038215
  20 O :   -0.320062
  21 H :    0.119336
  22 O :   -0.414559
  23 H :    0.115175
  24 H :    0.126803
  25 H :    0.113378
  26 H :    0.107111
  27 H :    0.102085
  28 H :    0.284136

  Mayer bond orders larger than 0.100000
B(  0-C ,  1-C ) :   0.9474 B(  0-C ,  4-O ) :   0.9163 B(  0-C ,  5-H ) :   0.9183
B(  0-C , 15-O ) :   0.8607 B(  1-C ,  2-C ) :   0.9582 B(  1-C ,  6-H ) :   0.9401
B(  1-C ,  7-H ) :   0.9368 B(  2-C ,  3-C ) :   0.9552 B(  2-C ,  8-H ) :   0.9453
B(  2-C ,  9-H ) :   0.9423 B(  3-C ,  4-O ) :   0.8374 B(  3-C , 10-H ) :   0.9356
B(  3-C , 11-H ) :   0.9403 B( 12-C , 13-H ) :   0.9109 B( 12-C , 14-H ) :   0.9161
B( 12-C , 15-O ) :   0.8381 B( 12-C , 16-C ) :   0.9014 B( 16-C , 17-C ) :   0.9000
B( 16-C , 20-O ) :   0.8691 B( 16-C , 21-H ) :   0.9240 B( 17-C , 18-C ) :   0.9113
B( 17-C , 22-O ) :   0.8952 B( 17-C , 23-H ) :   0.9327 B( 18-C , 19-C ) :   0.9413
B( 18-C , 24-H ) :   0.9371 B( 18-C , 25-H ) :   0.9337 B( 19-C , 20-O ) :   0.8505
B( 19-C , 26-H ) :   0.9333 B( 19-C , 27-H ) :   0.9379 B( 22-O , 28-H ) :   0.7928

FINAL SINGLE POINT ENERGY      -652.863915459220

DIPOLE MOMENT
-------------
                                X             Y             Z
Electronic contribution:     -2.37421      -0.71076      -1.65798
Nuclear contribution   :      2.72317       0.64582       1.81232
                        -----------------------------------------
Total Dipole Moment    :      0.34896      -0.06494       0.15434
                        -----------------------------------------
Magnitude (a.u.)       :      0.38706
Magnitude (Debye)      :      0.98382

Rotational constants in cm-1:     0.063679     0.011508     0.011115
Rotational constants in MHz :  1909.050626   345.008287   333.209411

                             ****ORCA TERMINATED NORMALLY****
TOTAL RUN TIME: 0 days 0 hours 21 minutes 27 seconds 829 msec
