                         Program Version 4.2.0 -  RELEASE  -
|  1> # Test redundant internal optimization
|  2> #
|  3> ! RKS B3LYP  Opt TightSCF SmallPrint
|  4>
|  5> %basis
|  6>         Basis "6-31G"
|  7> end
|  8>
|  9> %geom
| 10> Constraints
| 11> { D 4  0  15  12  270.0   C } # D for Dihedral angle
| 12> { D 0  15  12  16  165.0   C } # D for Dihedral angle
| 13> { D 0  4  3  2   C } # D for Dihedral angle
| 14> { D 4  3  2  1   C } # D for Dihedral angle
| 15> { D 3  2  1  0   C } # D for Dihedral angle
| 16> { D 2  1  0  4   C } # D for Dihedral angle
| 17> { D 1  0  4  3   C } # D for Dihedral angle
| 18> { D 16  20  19  18   C } # D for Dihedral angle
| 19> { D 20  19  18  17   C } # D for Dihedral angle
| 20> { D 19  18  17  16   C } # D for Dihedral angle
| 21> { D 18  17  16  20   C } # D for Dihedral angle
| 22> { D 17  16  20  19   C } # D for Dihedral angle
| 23> { D 15  12  16  20   C } # D for Dihedral angle
| 24> end
| 25> end
| 26>
| 27>
| 28> #%pal
| 29> #nprocs 8
| 30> #end
| 31>
| 32> * xyz 0 1
| 33> C  -21.048   26.222   46.251
| 34> C  -20.361   27.558   45.944
| 35> C  -20.329   28.222   47.341
| 36> C  -20.110   27.022   48.296
| 37> O  -20.473   25.807   47.535
| 38> H  -20.833   25.428   45.533
| 39> H  -19.344   27.382   45.576
| 40> H  -20.898   28.157   45.201
| 41> H  -19.543   28.978   47.434
| 42> H  -21.289   28.710   47.548
| 43> H  -20.733   27.082   49.195
| 44> H  -19.064   26.913   48.597
| 45> C  -23.420   25.119   46.072
| 46> H  -23.429   24.941   44.990
| 47> H  -22.972   24.243   46.560
| 48> O  -22.586   26.394   46.375
| 49> C  -24.890   25.232   46.562
| 50> C  -24.955   25.571   48.056
| 51> C  -24.679   27.094   48.044
| 52> C  -25.366   27.566   46.738
| 53> O  -25.563   26.358   45.906
| 54> H  -25.432   24.328   46.280
| 55> H  -25.958   25.363   48.445
| 56> O  -23.925   24.780   48.907
| 57> H  -25.072   27.603   48.930
| 58> H  -23.600   27.281   48.001
| 59> H  -24.760   28.290   46.183
| 60> H  -26.355   27.997   46.919
| 61> H  -22.913   24.973   48.534
| 62> *
| 63>
| 64>                          ****END OF INPUT****
 Total Charge           Charge          ....    0
 Multiplicity           Mult            ....    1
 Number of Electrons    NEL             ....  102
FINAL SINGLE POINT ENERGY      -652.838964550052
FINAL SINGLE POINT ENERGY      -652.862620232299
FINAL SINGLE POINT ENERGY      -652.866816248187
FINAL SINGLE POINT ENERGY      -652.868151613429
FINAL SINGLE POINT ENERGY      -652.868297515478
FINAL SINGLE POINT ENERGY      -652.868326430225
FINAL SINGLE POINT ENERGY      -652.868327917941
                    ***********************HURRAY********************

CARTESIAN COORDINATES (ANGSTROEM)
---------------------------------
  C    -21.075623   26.156229   46.218261
  C    -20.411495   27.501664   45.916964
  C    -20.412436   28.172017   47.310504
  C    -20.184879   26.985151   48.273803
  O    -20.518243   25.759744   47.499201
  H    -20.845183   25.350726   45.515361
  H    -19.389026   27.327249   45.564289
  H    -20.959280   28.068809   45.161978
  H    -19.637039   28.937772   47.409900
  H    -21.383087   28.643004   47.493944
  H    -20.818654   27.025742   49.163334
  H    -19.140596   26.883247   48.582155
  C    -23.293172   25.144999   46.052568
  H    -23.291297   24.954555   44.971906
  H    -22.856688   24.280224   46.569646
  O    -22.499698   26.346276   46.321454
  C    -24.726426   25.321105   46.531966
  C    -24.868279   25.591024   48.040535
  C    -24.697049   27.140344   48.107711
  C    -25.368196   27.611873   46.799839
  O    -25.448263   26.421745   45.909845
  H    -25.262358   24.407944   46.244684
  H    -25.859007   25.287847   48.383974
  O    -23.939771   24.850443   48.868049
  H    -25.168446   27.564524   48.999002
  H    -23.632445   27.379291   48.110833
  H    -24.796268   28.390510   46.287956
  H    -26.394696   27.958110   46.953714
  H    -23.022397   25.151831   48.689625

 Multiplicity           Mult            ....    1
 Number of Electrons    NEL             ....  102
 Basis Dimension        Dim             ....  149

ORBITAL ENERGIES
----------------

  NO   OCC          E(Eh)            E(eV)
   0   2.0000     -19.154972      -521.2333
   1   2.0000     -19.150756      -521.1186
   2   2.0000     -19.132970      -520.6346
   3   2.0000     -19.132218      -520.6141
   4   2.0000     -10.287668      -279.9417
   5   2.0000     -10.234207      -278.4869
   6   2.0000     -10.232987      -278.4537
   7   2.0000     -10.232318      -278.4355
   8   2.0000     -10.229722      -278.3649
   9   2.0000     -10.219773      -278.0942
  10   2.0000     -10.193977      -277.3922
  11   2.0000     -10.193143      -277.3695
  12   2.0000     -10.176362      -276.9129
  13   2.0000      -1.064208       -28.9586
  14   2.0000      -1.023583       -27.8531
  15   2.0000      -1.005204       -27.3530
  16   2.0000      -1.000624       -27.2284
  17   2.0000      -0.796128       -21.6637
  18   2.0000      -0.772489       -21.0205
  19   2.0000      -0.764175       -20.7943
  20   2.0000      -0.735343       -20.0097
  21   2.0000      -0.677547       -18.4370
  22   2.0000      -0.606963       -16.5163
  23   2.0000      -0.600897       -16.3512
  24   2.0000      -0.596066       -16.2198
  25   2.0000      -0.575777       -15.6677
  26   2.0000      -0.527211       -14.3461
  27   2.0000      -0.509422       -13.8621
  28   2.0000      -0.502563       -13.6754
  29   2.0000      -0.487805       -13.2739
  30   2.0000      -0.473977       -12.8976
  31   2.0000      -0.463854       -12.6221
  32   2.0000      -0.438124       -11.9220
  33   2.0000      -0.433449       -11.7947
  34   2.0000      -0.420419       -11.4402
  35   2.0000      -0.415294       -11.3007
  36   2.0000      -0.401613       -10.9284
  37   2.0000      -0.401390       -10.9224
  38   2.0000      -0.379725       -10.3329
  39   2.0000      -0.369766       -10.0618
  40   2.0000      -0.364977        -9.9315
  41   2.0000      -0.354992        -9.6598
  42   2.0000      -0.347128        -9.4458
  43   2.0000      -0.336676        -9.1614
  44   2.0000      -0.322053        -8.7635
  45   2.0000      -0.311428        -8.4744
  46   2.0000      -0.302772        -8.2388
  47   2.0000      -0.279055        -7.5935
  48   2.0000      -0.259319        -7.0564
  49   2.0000      -0.257919        -7.0183
  50   2.0000      -0.237661        -6.4671
  51   0.0000       0.059889         1.6297
  52   0.0000       0.082029         2.2321
  53   0.0000       0.086240         2.3467
  54   0.0000       0.096338         2.6215
  55   0.0000       0.101303         2.7566

MULLIKEN ATOMIC CHARGES
-----------------------
   0 C :    0.278973
   1 C :   -0.255684
   2 C :   -0.305286
   3 C :   -0.009454
   4 O :   -0.512813
   5 H :    0.148878
   6 H :    0.149245
   7 H :    0.159865
   8 H :    0.146827
   9 H :    0.162853
  10 H :    0.146967
  11 H :    0.148794
  12 C :   -0.026920
  13 H :    0.149668
  14 H :    0.150555
  15 O :   -0.526095
  16 C :    0.087772
  17 C :    0.093001
  18 C :   -0.305794
  19 C :   -0.004688
  20 O :   -0.522382
  21 H :    0.149226
  22 H :    0.157310
  23 O :   -0.615734
  24 H :    0.138111
  25 H :    0.161930
  26 H :    0.143702
  27 H :    0.141378
  28 H :    0.369796
Sum of atomic charges:   -0.0000000

LOEWDIN ATOMIC CHARGES
----------------------
   0 C :    0.170841
   1 C :   -0.214650
   2 C :   -0.216715
   3 C :   -0.030411
   4 O :   -0.333418
   5 H :    0.101803
   6 H :    0.116567
   7 H :    0.125984
   8 H :    0.116434
   9 H :    0.117037
  10 H :    0.103717
  11 H :    0.106172
  12 C :   -0.050245
  13 H :    0.106548
  14 H :    0.108013
  15 O :   -0.331123
  16 C :    0.018769
  17 C :    0.040609
  18 C :   -0.241326
  19 C :   -0.025142
  20 O :   -0.324164
  21 H :    0.114981
  22 H :    0.114762
  23 O :   -0.414837
  24 H :    0.112956
  25 H :    0.118033
  26 H :    0.103964
  27 H :    0.100951
  28 H :    0.283886

  Mayer bond orders larger than 0.100000
B(  0-C ,  1-C ) :   0.9466 B(  0-C ,  4-O ) :   0.9024 B(  0-C ,  5-H ) :   0.9179
B(  0-C , 15-O ) :   0.8592 B(  1-C ,  2-C ) :   0.9549 B(  1-C ,  6-H ) :   0.9385
B(  1-C ,  7-H ) :   0.9359 B(  2-C ,  3-C ) :   0.9539 B(  2-C ,  8-H ) :   0.9446
B(  2-C ,  9-H ) :   0.9422 B(  3-C ,  4-O ) :   0.8349 B(  3-C , 10-H ) :   0.9341
B(  3-C , 11-H ) :   0.9398 B( 12-C , 13-H ) :   0.9231 B( 12-C , 14-H ) :   0.9001
B( 12-C , 15-O ) :   0.8202 B( 12-C , 16-C ) :   0.9203 B( 16-C , 17-C ) :   0.8864
B( 16-C , 20-O ) :   0.8814 B( 16-C , 21-H ) :   0.9276 B( 17-C , 18-C ) :   0.9274
B( 17-C , 22-H ) :   0.9384 B( 17-C , 23-O ) :   0.9056 B( 18-C , 19-C ) :   0.9469
B( 18-C , 24-H ) :   0.9426 B( 18-C , 25-H ) :   0.9269 B( 19-C , 20-O ) :   0.8376
B( 19-C , 26-H ) :   0.9330 B( 19-C , 27-H ) :   0.9377 B( 23-O , 28-H ) :   0.7773

FINAL SINGLE POINT ENERGY      -652.868326326968

DIPOLE MOMENT
-------------
                                X             Y             Z
Electronic contribution:     -2.47986      -4.42303      -1.01087
Nuclear contribution   :      3.38026       5.33499       0.80232
                        -----------------------------------------
Total Dipole Moment    :      0.90040       0.91196      -0.20855
                        -----------------------------------------
Magnitude (a.u.)       :      1.29841
Magnitude (Debye)      :      3.30030

Rotational constants in cm-1:     0.043833     0.017397     0.016545
Rotational constants in MHz :  1314.091064   521.539756   495.993488

                             ****ORCA TERMINATED NORMALLY****
TOTAL RUN TIME: 0 days 0 hours 29 minutes 38 seconds 880 msec
