                         Program Version 4.2.0 -  RELEASE  -
|  1> # Test redundant internal optimization
|  2> #
|  3> ! RKS B3LYP  Opt TightSCF SmallPrint
|  4>
|  5> %basis
|  6>         Basis "6-31G"
|  7> end
|  8>
|  9> %geom
| 10> Constraints
| 11> { D 4  0  15  12  255.0   C } # D for Dihedral angle
| 12> { D 0  15  12  16  75.0   C } # D for Dihedral angle
| 13> { D 0  4  3  2   C } # D for Dihedral angle
| 14> { D 4  3  2  1   C } # D for Dihedral angle
| 15> { D 3  2  1  0   C } # D for Dihedral angle
| 16> { D 2  1  0  4   C } # D for Dihedral angle
| 17> { D 1  0  4  3   C } # D for Dihedral angle
| 18> { D 16  20  19  18   C } # D for Dihedral angle
| 19> { D 20  19  18  17   C } # D for Dihedral angle
| 20> { D 19  18  17  16   C } # D for Dihedral angle
| 21> { D 18  17  16  20   C } # D for Dihedral angle
| 22> { D 17  16  20  19   C } # D for Dihedral angle
| 23> { D 15  12  16  20   C } # D for Dihedral angle
| 24> end
| 25> end
| 26>
| 27>
| 28> #%pal
| 29> #nprocs 8
| 30> #end
| 31>
| 32> * xyz 0 1
| 33> C  -21.048   26.222   46.251
| 34> C  -20.361   27.558   45.944
| 35> C  -20.329   28.222   47.341
| 36> C  -20.110   27.022   48.296
| 37> O  -20.473   25.807   47.535
| 38> H  -20.833   25.428   45.533
| 39> H  -19.344   27.382   45.576
| 40> H  -20.898   28.157   45.201
| 41> H  -19.543   28.978   47.434
| 42> H  -21.289   28.710   47.548
| 43> H  -20.733   27.082   49.195
| 44> H  -19.064   26.913   48.597
| 45> C  -23.431   25.260   45.734
| 46> H  -24.469   25.598   45.626
| 47> H  -23.047   25.011   44.736
| 48> O  -22.586   26.394   46.375
| 49> C  -23.428   23.956   46.580
| 50> C  -24.107   24.172   47.936
| 51> C  -25.604   24.101   47.552
| 52> C  -25.628   23.041   46.422
| 53> O  -24.239   22.921   45.930
| 54> H  -22.408   23.572   46.640
| 55> O  -23.735   23.018   48.907
| 56> H  -23.834   25.121   48.410
| 57> H  -26.246   23.827   48.395
| 58> H  -25.942   25.075   47.177
| 59> H  -26.280   23.329   45.591
| 60> H  -25.929   22.054   46.782
| 61> H  -24.001   22.055   48.455
| 62> *
| 63>
| 64>                          ****END OF INPUT****
 Total Charge           Charge          ....    0
 Multiplicity           Mult            ....    1
 Number of Electrons    NEL             ....  102
FINAL SINGLE POINT ENERGY      -652.839458127508
FINAL SINGLE POINT ENERGY      -652.862162146283
FINAL SINGLE POINT ENERGY      -652.865593250095
FINAL SINGLE POINT ENERGY      -652.866251202260
FINAL SINGLE POINT ENERGY      -652.866358395595
FINAL SINGLE POINT ENERGY      -652.866370443055
FINAL SINGLE POINT ENERGY      -652.866372939180
                    ***********************HURRAY********************

CARTESIAN COORDINATES (ANGSTROEM)
---------------------------------
  C    -21.080023   26.126748   46.229525
  C    -20.436347   27.485372   45.951845
  C    -20.472647   28.147401   47.350227
  C    -20.239509   26.954129   48.303889
  O    -20.539026   25.736073   47.509000
  H    -20.833534   25.333197   45.518065
  H    -19.403070   27.335867   45.617154
  H    -20.979084   28.050049   45.191122
  H    -19.715312   28.928299   47.467431
  H    -21.458341   28.590699   47.520311
  H    -20.891626   26.969385   49.180446
  H    -19.198658   26.866486   48.629109
  C    -23.336996   25.266031   45.706664
  H    -24.329794   25.708641   45.593999
  H    -22.964736   24.998752   44.708391
  O    -22.516734   26.313909   46.300183
  C    -23.389198   24.003705   46.574734
  C    -24.040627   24.198237   47.950914
  C    -25.548414   24.163310   47.591247
  C    -25.614097   23.133116   46.436203
  O    -24.230829   22.998578   45.912298
  H    -22.389860   23.571761   46.678843
  O    -23.685352   23.115035   48.854665
  H    -23.722779   25.115748   48.442766
  H    -26.143766   23.867928   48.458624
  H    -25.886410   25.152794   47.264474
  H    -26.273762   23.446092   45.620780
  H    -25.925836   22.140580   46.775632
  H    -23.692635   22.268079   48.360460

 Multiplicity           Mult            ....    1
 Number of Electrons    NEL             ....  102
 Basis Dimension        Dim             ....  149

ORBITAL ENERGIES
----------------

  NO   OCC          E(Eh)            E(eV)
   0   2.0000     -19.146901      -521.0137
   1   2.0000     -19.142856      -520.9036
   2   2.0000     -19.139311      -520.8071
   3   2.0000     -19.130885      -520.5778
   4   2.0000     -10.280322      -279.7418
   5   2.0000     -10.232077      -278.4290
   6   2.0000     -10.232040      -278.4280
   7   2.0000     -10.229809      -278.3672
   8   2.0000     -10.229150      -278.3493
   9   2.0000     -10.223963      -278.2082
  10   2.0000     -10.185090      -277.1504
  11   2.0000     -10.184930      -277.1460
  12   2.0000     -10.184569      -277.1362
  13   2.0000      -1.054158       -28.6851
  14   2.0000      -1.032633       -28.0994
  15   2.0000      -1.000646       -27.2290
  16   2.0000      -0.996144       -27.1065
  17   2.0000      -0.788270       -21.4499
  18   2.0000      -0.775291       -21.0967
  19   2.0000      -0.763434       -20.7741
  20   2.0000      -0.731267       -19.8988
  21   2.0000      -0.673415       -18.3246
  22   2.0000      -0.601272       -16.3615
  23   2.0000      -0.600083       -16.3291
  24   2.0000      -0.596840       -16.2408
  25   2.0000      -0.575354       -15.6562
  26   2.0000      -0.520082       -14.1521
  27   2.0000      -0.518591       -14.1116
  28   2.0000      -0.491275       -13.3683
  29   2.0000      -0.488393       -13.2899
  30   2.0000      -0.466010       -12.6808
  31   2.0000      -0.458517       -12.4769
  32   2.0000      -0.449439       -12.2299
  33   2.0000      -0.436568       -11.8796
  34   2.0000      -0.423216       -11.5163
  35   2.0000      -0.411863       -11.2073
  36   2.0000      -0.398617       -10.8469
  37   2.0000      -0.388813       -10.5802
  38   2.0000      -0.373457       -10.1623
  39   2.0000      -0.365387        -9.9427
  40   2.0000      -0.356450        -9.6995
  41   2.0000      -0.354174        -9.6376
  42   2.0000      -0.350017        -9.5245
  43   2.0000      -0.332499        -9.0478
  44   2.0000      -0.320642        -8.7251
  45   2.0000      -0.310125        -8.4389
  46   2.0000      -0.300150        -8.1675
  47   2.0000      -0.276287        -7.5182
  48   2.0000      -0.263402        -7.1675
  49   2.0000      -0.254707        -6.9309
  50   2.0000      -0.236947        -6.4476
  51   0.0000       0.067020         1.8237
  52   0.0000       0.076768         2.0890
  53   0.0000       0.095699         2.6041
  54   0.0000       0.099758         2.7146
  55   0.0000       0.104931         2.8553

MULLIKEN ATOMIC CHARGES
-----------------------
   0 C :    0.279074
   1 C :   -0.252542
   2 C :   -0.301915
   3 C :   -0.001534
   4 O :   -0.506157
   5 H :    0.144759
   6 H :    0.144292
   7 H :    0.150803
   8 H :    0.141751
   9 H :    0.163123
  10 H :    0.152575
  11 H :    0.142682
  12 C :   -0.029917
  13 H :    0.148775
  14 H :    0.143384
  15 O :   -0.513016
  16 C :    0.051071
  17 C :    0.098253
  18 C :   -0.296400
  19 C :   -0.032989
  20 O :   -0.529267
  21 H :    0.174604
  22 O :   -0.604250
  23 H :    0.171755
  24 H :    0.163083
  25 H :    0.142256
  26 H :    0.146447
  27 H :    0.146671
  28 H :    0.362627
Sum of atomic charges:   -0.0000000

LOEWDIN ATOMIC CHARGES
----------------------
   0 C :    0.170414
   1 C :   -0.217033
   2 C :   -0.216614
   3 C :   -0.026261
   4 O :   -0.321790
   5 H :    0.099762
   6 H :    0.113272
   7 H :    0.120891
   8 H :    0.113963
   9 H :    0.119455
  10 H :    0.108116
  11 H :    0.102964
  12 C :   -0.040768
  13 H :    0.110785
  14 H :    0.101992
  15 O :   -0.328458
  16 C :    0.003027
  17 C :    0.040762
  18 C :   -0.241443
  19 C :   -0.038741
  20 O :   -0.333205
  21 H :    0.120117
  22 O :   -0.414320
  23 H :    0.125922
  24 H :    0.127057
  25 H :    0.112264
  26 H :    0.103443
  27 H :    0.102996
  28 H :    0.281431

  Mayer bond orders larger than 0.100000
B(  0-C ,  1-C ) :   0.9478 B(  0-C ,  4-O ) :   0.9184 B(  0-C ,  5-H ) :   0.9172
B(  0-C , 15-O ) :   0.8419 B(  1-C ,  2-C ) :   0.9569 B(  1-C ,  6-H ) :   0.9384
B(  1-C ,  7-H ) :   0.9379 B(  2-C ,  3-C ) :   0.9540 B(  2-C ,  8-H ) :   0.9452
B(  2-C ,  9-H ) :   0.9439 B(  3-C ,  4-O ) :   0.8353 B(  3-C , 10-H ) :   0.9346
B(  3-C , 11-H ) :   0.9401 B( 12-C , 13-H ) :   0.9410 B( 12-C , 14-H ) :   0.9201
B( 12-C , 15-O ) :   0.8519 B( 12-C , 16-C ) :   0.8774 B( 16-C , 17-C ) :   0.9146
B( 16-C , 20-O ) :   0.8319 B( 16-C , 21-H ) :   0.9216 B( 17-C , 18-C ) :   0.9106
B( 17-C , 22-O ) :   0.8897 B( 17-C , 23-H ) :   0.9248 B( 18-C , 19-C ) :   0.9412
B( 18-C , 24-H ) :   0.9375 B( 18-C , 25-H ) :   0.9347 B( 19-C , 20-O ) :   0.8422
B( 19-C , 26-H ) :   0.9355 B( 19-C , 27-H ) :   0.9383 B( 22-O , 28-H ) :   0.7961

FINAL SINGLE POINT ENERGY      -652.866373242926

DIPOLE MOMENT
-------------
                                X             Y             Z
Electronic contribution:      0.23657      -4.36394       0.10811
Nuclear contribution   :     -0.44136       5.17390      -0.69323
                        -----------------------------------------
Total Dipole Moment    :     -0.20479       0.80996      -0.58512
                        -----------------------------------------
Magnitude (a.u.)       :      1.01997
Magnitude (Debye)      :      2.59256

Rotational constants in cm-1:     0.056542     0.013826     0.012572
Rotational constants in MHz :  1695.096544   414.487038   376.912234

                             ****ORCA TERMINATED NORMALLY****
TOTAL RUN TIME: 0 days 0 hours 40 minutes 1 seconds 550 msec
