                         Program Version 4.2.0 -  RELEASE  -
|  1> # Test redundant internal optimization
|  2> #
|  3> ! RKS B3LYP  Opt TightSCF SmallPrint
|  4>
|  5> %basis
|  6>         Basis "6-31G"
|  7> end
|  8>
|  9> %geom
| 10> Constraints
| 11> { D 4  0  15  12  105.0   C } # D for Dihedral angle
| 12> { D 0  15  12  16  180.0   C } # D for Dihedral angle
| 13> { D 0  4  3  2   C } # D for Dihedral angle
| 14> { D 4  3  2  1   C } # D for Dihedral angle
| 15> { D 3  2  1  0   C } # D for Dihedral angle
| 16> { D 2  1  0  4   C } # D for Dihedral angle
| 17> { D 1  0  4  3   C } # D for Dihedral angle
| 18> { D 16  20  19  18   C } # D for Dihedral angle
| 19> { D 20  19  18  17   C } # D for Dihedral angle
| 20> { D 19  18  17  16   C } # D for Dihedral angle
| 21> { D 18  17  16  20   C } # D for Dihedral angle
| 22> { D 17  16  20  19   C } # D for Dihedral angle
| 23> { D 15  12  16  20   C } # D for Dihedral angle
| 24> end
| 25> end
| 26>
| 27>
| 28> #%pal
| 29> #nprocs 8
| 30> #end
| 31>
| 32> * xyz 0 1
| 33> C  -21.048   26.222   46.251
| 34> C  -20.361   27.558   45.944
| 35> C  -20.329   28.222   47.341
| 36> C  -20.110   27.022   48.296
| 37> O  -20.473   25.807   47.535
| 38> H  -20.833   25.428   45.533
| 39> H  -19.344   27.382   45.576
| 40> H  -20.898   28.157   45.201
| 41> H  -19.543   28.978   47.434
| 42> H  -21.289   28.710   47.548
| 43> H  -20.733   27.082   49.195
| 44> H  -19.064   26.913   48.597
| 45> C  -23.085   27.864   46.420
| 46> H  -22.633   28.373   47.281
| 47> H  -22.785   28.400   45.510
| 48> O  -22.586   26.394   46.375
| 49> C  -24.630   27.971   46.545
| 50> C  -25.333   27.203   45.420
| 51> C  -25.239   25.745   45.930
| 52> C  -25.379   25.899   47.465
| 53> O  -25.092   27.317   47.773
| 54> H  -24.911   29.023   46.617
| 55> H  -26.379   27.519   45.346
| 56> O  -24.662   27.400   44.033
| 57> H  -26.010   25.095   45.503
| 58> H  -24.262   25.318   45.672
| 59> H  -24.680   25.262   48.016
| 60> H  -26.395   25.693   47.814
| 61> H  -23.613   27.089   44.084
| 62> *
| 63>
| 64>                          ****END OF INPUT****
 Total Charge           Charge          ....    0
 Multiplicity           Mult            ....    1
 Number of Electrons    NEL             ....  102
FINAL SINGLE POINT ENERGY      -652.812232690053
FINAL SINGLE POINT ENERGY      -652.839136404509
FINAL SINGLE POINT ENERGY      -652.852549104782
FINAL SINGLE POINT ENERGY      -652.855107375907
FINAL SINGLE POINT ENERGY      -652.855518978243
FINAL SINGLE POINT ENERGY      -652.855581624669
FINAL SINGLE POINT ENERGY      -652.855587133559
                    ***********************HURRAY********************

CARTESIAN COORDINATES (ANGSTROEM)
---------------------------------
  C    -21.165853   26.386104   46.383212
  C    -20.249242   27.544016   45.969663
  C    -20.010249   28.270063   47.324147
  C    -19.979368   27.095333   48.333052
  O    -20.618629   25.947747   47.643206
  H    -21.096125   25.515931   45.727888
  H    -19.314101   27.120175   45.590304
  H    -20.670215   28.192226   45.196017
  H    -19.073055   28.835228   47.327030
  H    -20.818653   28.970596   47.546961
  H    -20.528076   27.305279   49.255214
  H    -18.960887   26.785497   48.583215
  C    -23.166004   27.972393   46.485207
  H    -22.825903   28.514265   47.375185
  H    -22.890029   28.544825   45.589241
  O    -22.593964   26.633492   46.452966
  C    -24.689213   27.882539   46.558381
  C    -25.368358   27.156891   45.384306
  C    -25.285011   25.665808   45.835453
  C    -25.459818   25.766367   47.365730
  O    -25.177547   27.179521   47.732891
  H    -25.053031   28.914102   46.643790
  H    -26.404849   27.487654   45.292270
  O    -24.768946   27.427162   44.092151
  H    -26.055518   25.050501   45.361615
  H    -24.297679   25.273377   45.584512
  H    -24.766315   25.122181   47.911492
  H    -26.484625   25.556958   47.686676
  H    -23.927738   26.929767   44.023223

 Multiplicity           Mult            ....    1
 Number of Electrons    NEL             ....  102
 Basis Dimension        Dim             ....  149

ORBITAL ENERGIES
----------------

  NO   OCC          E(Eh)            E(eV)
   0   2.0000     -19.150645      -521.1156
   1   2.0000     -19.143038      -520.9085
   2   2.0000     -19.139592      -520.8148
   3   2.0000     -19.130383      -520.5642
   4   2.0000     -10.286122      -279.8996
   5   2.0000     -10.234569      -278.4968
   6   2.0000     -10.234399      -278.4922
   7   2.0000     -10.230797      -278.3941
   8   2.0000     -10.229955      -278.3712
   9   2.0000     -10.216436      -278.0034
  10   2.0000     -10.200207      -277.5617
  11   2.0000     -10.197671      -277.4927
  12   2.0000     -10.175767      -276.8967
  13   2.0000      -1.055728       -28.7278
  14   2.0000      -1.025784       -27.9130
  15   2.0000      -1.008355       -27.4387
  16   2.0000      -0.998128       -27.1605
  17   2.0000      -0.794713       -21.6252
  18   2.0000      -0.775778       -21.1100
  19   2.0000      -0.764298       -20.7976
  20   2.0000      -0.735410       -20.0115
  21   2.0000      -0.681643       -18.5485
  22   2.0000      -0.610183       -16.6039
  23   2.0000      -0.601736       -16.3741
  24   2.0000      -0.598956       -16.2984
  25   2.0000      -0.562282       -15.3005
  26   2.0000      -0.527081       -14.3426
  27   2.0000      -0.510772       -13.8988
  28   2.0000      -0.506234       -13.7753
  29   2.0000      -0.487294       -13.2600
  30   2.0000      -0.472768       -12.8647
  31   2.0000      -0.458309       -12.4712
  32   2.0000      -0.443705       -12.0738
  33   2.0000      -0.430743       -11.7211
  34   2.0000      -0.423492       -11.5238
  35   2.0000      -0.417506       -11.3609
  36   2.0000      -0.405484       -11.0338
  37   2.0000      -0.398958       -10.8562
  38   2.0000      -0.389063       -10.5869
  39   2.0000      -0.369529       -10.0554
  40   2.0000      -0.365321        -9.9409
  41   2.0000      -0.357864        -9.7380
  42   2.0000      -0.346683        -9.4337
  43   2.0000      -0.324516        -8.8305
  44   2.0000      -0.316331        -8.6078
  45   2.0000      -0.307164        -8.3584
  46   2.0000      -0.298601        -8.1254
  47   2.0000      -0.275213        -7.4889
  48   2.0000      -0.260401        -7.0859
  49   2.0000      -0.257797        -7.0150
  50   2.0000      -0.236321        -6.4306
  51   0.0000       0.057966         1.5773
  52   0.0000       0.081866         2.2277
  53   0.0000       0.087954         2.3933
  54   0.0000       0.094697         2.5768
  55   0.0000       0.100022         2.7217

MULLIKEN ATOMIC CHARGES
-----------------------
   0 C :    0.313342
   1 C :   -0.296351
   2 C :   -0.309521
   3 C :   -0.008213
   4 O :   -0.494791
   5 H :    0.157175
   6 H :    0.159804
   7 H :    0.146152
   8 H :    0.147967
   9 H :    0.151128
  10 H :    0.154084
  11 H :    0.147089
  12 C :   -0.017351
  13 H :    0.150374
  14 H :    0.134750
  15 O :   -0.539203
  16 C :    0.091845
  17 C :    0.085051
  18 C :   -0.308980
  19 C :    0.000333
  20 O :   -0.521216
  21 H :    0.146720
  22 H :    0.159756
  23 O :   -0.608068
  24 H :    0.142060
  25 H :    0.163659
  26 H :    0.158327
  27 H :    0.135513
  28 H :    0.358566
Sum of atomic charges:   -0.0000000

LOEWDIN ATOMIC CHARGES
----------------------
   0 C :    0.175962
   1 C :   -0.230593
   2 C :   -0.221216
   3 C :   -0.030891
   4 O :   -0.314759
   5 H :    0.106634
   6 H :    0.124735
   7 H :    0.115805
   8 H :    0.117204
   9 H :    0.110653
  10 H :    0.108447
  11 H :    0.105052
  12 C :   -0.048660
  13 H :    0.103707
  14 H :    0.097336
  15 O :   -0.330969
  16 C :    0.021112
  17 C :    0.037181
  18 C :   -0.241170
  19 C :   -0.023117
  20 O :   -0.321916
  21 H :    0.112895
  22 H :    0.115408
  23 O :   -0.413470
  24 H :    0.113840
  25 H :    0.121476
  26 H :    0.111487
  27 H :    0.098909
  28 H :    0.278918

  Mayer bond orders larger than 0.100000
B(  0-C ,  1-C ) :   0.9301 B(  0-C ,  4-O ) :   0.9200 B(  0-C ,  5-H ) :   0.9354
B(  0-C , 15-O ) :   0.8744 B(  1-C ,  2-C ) :   0.9522 B(  1-C ,  6-H ) :   0.9342
B(  1-C ,  7-H ) :   0.9318 B(  2-C ,  3-C ) :   0.9492 B(  2-C ,  8-H ) :   0.9449
B(  2-C ,  9-H ) :   0.9386 B(  3-C ,  4-O ) :   0.8436 B(  3-C , 10-H ) :   0.9334
B(  3-C , 11-H ) :   0.9390 B( 12-C , 13-H ) :   0.9098 B( 12-C , 14-H ) :   0.8994
B( 12-C , 15-O ) :   0.8296 B( 12-C , 16-C ) :   0.9081 B( 16-C , 17-C ) :   0.8866
B( 16-C , 20-O ) :   0.8887 B( 16-C , 21-H ) :   0.9289 B( 17-C , 18-C ) :   0.9349
B( 17-C , 22-H ) :   0.9363 B( 17-C , 23-O ) :   0.8968 B( 18-C , 19-C ) :   0.9464
B( 18-C , 24-H ) :   0.9410 B( 18-C , 25-H ) :   0.9268 B( 19-C , 20-O ) :   0.8335
B( 19-C , 26-H ) :   0.9310 B( 19-C , 27-H ) :   0.9388 B( 23-O , 28-H ) :   0.7952

FINAL SINGLE POINT ENERGY      -652.855585992723

DIPOLE MOMENT
-------------
                                X             Y             Z
Electronic contribution:     -3.01515      -1.69992       0.05492
Nuclear contribution   :      4.04742       2.13367      -0.40009
                        -----------------------------------------
Total Dipole Moment    :      1.03227       0.43376      -0.34517
                        -----------------------------------------
Magnitude (a.u.)       :      1.17169
Magnitude (Debye)      :      2.97820

Rotational constants in cm-1:     0.049269     0.015483     0.014228
Rotational constants in MHz :  1477.040017   464.166082   426.544188

                             ****ORCA TERMINATED NORMALLY****
TOTAL RUN TIME: 0 days 1 hours 6 minutes 46 seconds 166 msec
