                         Program Version 4.2.0 -  RELEASE  -
|  1> # Test redundant internal optimization
|  2> #
|  3> ! RKS B3LYP  Opt TightSCF SmallPrint
|  4>
|  5> %basis
|  6>         Basis "6-31G"
|  7> end
|  8>
|  9> %geom
| 10> Constraints
| 11> { D 4  0  15  12  15.0   C } # D for Dihedral angle
| 12> { D 0  15  12  16  255.0   C } # D for Dihedral angle
| 13> { D 0  4  3  2   C } # D for Dihedral angle
| 14> { D 4  3  2  1   C } # D for Dihedral angle
| 15> { D 3  2  1  0   C } # D for Dihedral angle
| 16> { D 2  1  0  4   C } # D for Dihedral angle
| 17> { D 1  0  4  3   C } # D for Dihedral angle
| 18> { D 16  20  19  18   C } # D for Dihedral angle
| 19> { D 20  19  18  17   C } # D for Dihedral angle
| 20> { D 19  18  17  16   C } # D for Dihedral angle
| 21> { D 18  17  16  20   C } # D for Dihedral angle
| 22> { D 17  16  20  19   C } # D for Dihedral angle
| 23> { D 15  12  16  20   C } # D for Dihedral angle
| 24> end
| 25> end
| 26>
| 27>
| 28> #%pal
| 29> #nprocs 8
| 30> #end
| 31>
| 32> * xyz 0 1
| 33> C  -21.048   26.222   46.251
| 34> C  -20.361   27.558   45.944
| 35> C  -20.329   28.222   47.341
| 36> C  -20.110   27.022   48.296
| 37> O  -20.473   25.807   47.535
| 38> H  -20.833   25.428   45.533
| 39> H  -19.344   27.382   45.576
| 40> H  -20.898   28.157   45.201
| 41> H  -19.543   28.978   47.434
| 42> H  -21.289   28.710   47.548
| 43> H  -20.733   27.082   49.195
| 44> H  -19.064   26.913   48.597
| 45> C  -23.128   26.462   47.829
| 46> H  -22.295   26.652   48.517
| 47> H  -23.850   27.282   47.932
| 48> O  -22.586   26.394   46.375
| 49> C  -23.836   25.151   48.268
| 50> C  -24.458   25.294   49.662
| 51> C  -25.757   26.072   49.347
| 52> C  -26.177   25.510   47.966
| 53> O  -24.977   24.866   47.392
| 54> H  -23.138   24.316   48.168
| 55> O  -24.785   23.892   50.246
| 56> H  -23.809   25.820   50.370
| 57> H  -26.532   25.930   50.108
| 58> H  -25.546   27.146   49.280
| 59> H  -26.524   26.294   47.282
| 60> H  -26.950   24.741   48.045
| 61> H  -25.435   23.347   49.552
| 62> *
| 63>
| 64>                          ****END OF INPUT****
 Total Charge           Charge          ....    0
 Multiplicity           Mult            ....    1
 Number of Electrons    NEL             ....  102
FINAL SINGLE POINT ENERGY      -652.825264846169
FINAL SINGLE POINT ENERGY      -652.848773869448
FINAL SINGLE POINT ENERGY      -652.853071379584
FINAL SINGLE POINT ENERGY      -652.855779449779
FINAL SINGLE POINT ENERGY      -652.856011499962
FINAL SINGLE POINT ENERGY      -652.856058652709
                    ***********************HURRAY********************

CARTESIAN COORDINATES (ANGSTROEM)
---------------------------------
  C    -21.140890   26.239484   46.402373
  C    -20.440756   27.526283   45.957204
  C    -20.175821   28.230176   47.312200
  C    -19.882470   27.048926   48.266266
  O    -20.420065   25.837120   47.588446
  H    -21.049079   25.416801   45.690745
  H    -19.498913   27.269068   45.459117
  H    -21.058261   28.113715   45.274785
  H    -19.343328   28.938623   47.265446
  H    -21.068064   28.780627   47.631283
  H    -20.356421   27.150982   49.247237
  H    -18.811561   26.875777   48.407008
  C    -23.155449   26.525977   47.905707
  H    -22.396868   26.735540   48.665427
  H    -23.858524   27.365489   47.862091
  O    -22.573952   26.421960   46.579560
  C    -23.879829   25.231290   48.283679
  C    -24.567749   25.286438   49.656263
  C    -25.900869   26.002409   49.313086
  C    -26.227590   25.467425   47.895990
  O    -24.965682   24.914766   47.352521
  H    -23.167249   24.402919   48.227968
  O    -24.797450   23.948552   50.178578
  H    -23.987588   25.799071   50.425488
  H    -26.670126   25.760276   50.050844
  H    -25.758269   27.089375   49.306489
  H    -26.594912   26.248285   47.222677
  H    -26.958042   24.652026   47.914315
  H    -25.102221   23.370618   49.447206

 Multiplicity           Mult            ....    1
 Number of Electrons    NEL             ....  102
 Basis Dimension        Dim             ....  149

ORBITAL ENERGIES
----------------

  NO   OCC          E(Eh)            E(eV)
   0   2.0000     -19.152291      -521.1603
   1   2.0000     -19.136128      -520.7205
   2   2.0000     -19.135771      -520.7108
   3   2.0000     -19.135332      -520.6989
   4   2.0000     -10.278578      -279.6943
   5   2.0000     -10.240073      -278.6466
   6   2.0000     -10.235834      -278.5312
   7   2.0000     -10.230838      -278.3952
   8   2.0000     -10.227389      -278.3014
   9   2.0000     -10.227024      -278.2915
  10   2.0000     -10.194656      -277.4107
  11   2.0000     -10.187906      -277.2270
  12   2.0000     -10.186521      -277.1893
  13   2.0000      -1.055123       -28.7114
  14   2.0000      -1.032561       -28.0974
  15   2.0000      -1.003112       -27.2961
  16   2.0000      -0.991506       -26.9802
  17   2.0000      -0.792376       -21.5617
  18   2.0000      -0.781501       -21.2657
  19   2.0000      -0.766758       -20.8646
  20   2.0000      -0.735009       -20.0006
  21   2.0000      -0.673417       -18.3246
  22   2.0000      -0.606201       -16.4956
  23   2.0000      -0.602738       -16.4013
  24   2.0000      -0.598111       -16.2754
  25   2.0000      -0.572303       -15.5732
  26   2.0000      -0.522287       -14.2121
  27   2.0000      -0.513493       -13.9729
  28   2.0000      -0.501074       -13.6349
  29   2.0000      -0.490126       -13.3370
  30   2.0000      -0.473403       -12.8820
  31   2.0000      -0.461940       -12.5700
  32   2.0000      -0.448972       -12.2172
  33   2.0000      -0.438284       -11.9263
  34   2.0000      -0.421998       -11.4832
  35   2.0000      -0.416572       -11.3355
  36   2.0000      -0.397341       -10.8122
  37   2.0000      -0.390200       -10.6179
  38   2.0000      -0.377360       -10.2685
  39   2.0000      -0.369594       -10.0572
  40   2.0000      -0.362966        -9.8768
  41   2.0000      -0.356766        -9.7081
  42   2.0000      -0.351888        -9.5754
  43   2.0000      -0.331037        -9.0080
  44   2.0000      -0.327556        -8.9132
  45   2.0000      -0.311933        -8.4881
  46   2.0000      -0.299279        -8.1438
  47   2.0000      -0.267585        -7.2814
  48   2.0000      -0.265817        -7.2332
  49   2.0000      -0.258279        -7.0281
  50   2.0000      -0.230789        -6.2801
  51   0.0000       0.066580         1.8117
  52   0.0000       0.076126         2.0715
  53   0.0000       0.086760         2.3609
  54   0.0000       0.096117         2.6155
  55   0.0000       0.103933         2.8282

MULLIKEN ATOMIC CHARGES
-----------------------
   0 C :    0.295451
   1 C :   -0.255402
   2 C :   -0.309879
   3 C :   -0.023391
   4 O :   -0.512181
   5 H :    0.165136
   6 H :    0.145734
   7 H :    0.160286
   8 H :    0.149515
   9 H :    0.150849
  10 H :    0.143552
  11 H :    0.153999
  12 C :   -0.009992
  13 H :    0.135778
  14 H :    0.139794
  15 O :   -0.520731
  16 C :    0.070306
  17 C :    0.074067
  18 C :   -0.300300
  19 C :   -0.030913
  20 O :   -0.508801
  21 H :    0.175596
  22 O :   -0.601474
  23 H :    0.146440
  24 H :    0.162959
  25 H :    0.142529
  26 H :    0.148712
  27 H :    0.146391
  28 H :    0.365968
Sum of atomic charges:   -0.0000000

LOEWDIN ATOMIC CHARGES
----------------------
   0 C :    0.181714
   1 C :   -0.222818
   2 C :   -0.221733
   3 C :   -0.035922
   4 O :   -0.320494
   5 H :    0.110269
   6 H :    0.114814
   7 H :    0.125404
   8 H :    0.118531
   9 H :    0.111904
  10 H :    0.099316
  11 H :    0.108182
  12 C :   -0.041645
  13 H :    0.103421
  14 H :    0.103902
  15 O :   -0.325148
  16 C :    0.009676
  17 C :    0.034001
  18 C :   -0.243381
  19 C :   -0.039488
  20 O :   -0.320890
  21 H :    0.123158
  22 O :   -0.414478
  23 H :    0.112486
  24 H :    0.126565
  25 H :    0.111355
  26 H :    0.105143
  27 H :    0.102306
  28 H :    0.283847

  Mayer bond orders larger than 0.100000
B(  0-C ,  1-C ) :   0.9222 B(  0-C ,  4-O ) :   0.9037 B(  0-C ,  5-H ) :   0.9310
B(  0-C , 15-O ) :   0.8622 B(  1-C ,  2-C ) :   0.9532 B(  1-C ,  6-H ) :   0.9348
B(  1-C ,  7-H ) :   0.9366 B(  2-C ,  3-C ) :   0.9511 B(  2-C ,  8-H ) :   0.9448
B(  2-C ,  9-H ) :   0.9452 B(  3-C ,  4-O ) :   0.8329 B(  3-C , 10-H ) :   0.9283
B(  3-C , 11-H ) :   0.9395 B( 12-C , 13-H ) :   0.9040 B( 12-C , 14-H ) :   0.9348
B( 12-C , 15-O ) :   0.8502 B( 12-C , 16-C ) :   0.8830 B( 16-C , 17-C ) :   0.8974
B( 16-C , 20-O ) :   0.8627 B( 16-C , 21-H ) :   0.9232 B( 17-C , 18-C ) :   0.9117
B( 17-C , 22-O ) :   0.8932 B( 17-C , 23-H ) :   0.9338 B( 18-C , 19-C ) :   0.9412
B( 18-C , 24-H ) :   0.9369 B( 18-C , 25-H ) :   0.9339 B( 19-C , 20-O ) :   0.8540
B( 19-C , 26-H ) :   0.9333 B( 19-C , 27-H ) :   0.9376 B( 22-O , 28-H ) :   0.7932

FINAL SINGLE POINT ENERGY      -652.856063165693

DIPOLE MOMENT
-------------
                                X             Y             Z
Electronic contribution:     -1.11390      -5.66057      -1.24608
Nuclear contribution   :      1.38237       7.05491       1.43373
                        -----------------------------------------
Total Dipole Moment    :      0.26847       1.39434       0.18765
                        -----------------------------------------
Magnitude (a.u.)       :      1.43230
Magnitude (Debye)      :      3.64061

Rotational constants in cm-1:     0.057491     0.013044     0.012170
Rotational constants in MHz :  1723.543810   391.062946   364.845768

                             ****ORCA TERMINATED NORMALLY****
TOTAL RUN TIME: 0 days 1 hours 32 minutes 47 seconds 168 msec
