                         Program Version 4.2.0 -  RELEASE  -
|  1> # Test redundant internal optimization
|  2> #
|  3> ! RKS B3LYP  Opt TightSCF SmallPrint
|  4>
|  5> %basis
|  6>         Basis "6-31G"
|  7> end
|  8>
|  9> %geom
| 10> Constraints
| 11> { D 4  0  15  12  240.0   C } # D for Dihedral angle
| 12> { D 0  15  12  16  210.0   C } # D for Dihedral angle
| 13> { D 0  4  3  2   C } # D for Dihedral angle
| 14> { D 4  3  2  1   C } # D for Dihedral angle
| 15> { D 3  2  1  0   C } # D for Dihedral angle
| 16> { D 2  1  0  4   C } # D for Dihedral angle
| 17> { D 1  0  4  3   C } # D for Dihedral angle
| 18> { D 16  20  19  18   C } # D for Dihedral angle
| 19> { D 20  19  18  17   C } # D for Dihedral angle
| 20> { D 19  18  17  16   C } # D for Dihedral angle
| 21> { D 18  17  16  20   C } # D for Dihedral angle
| 22> { D 17  16  20  19   C } # D for Dihedral angle
| 23> { D 15  12  16  20   C } # D for Dihedral angle
| 24> end
| 25> end
| 26>
| 27>
| 28> #%pal
| 29> #nprocs 8
| 30> #end
| 31>
| 32> * xyz 0 1
| 33> C  -21.048   26.222   46.251
| 34> C  -20.361   27.558   45.944
| 35> C  -20.329   28.222   47.341
| 36> C  -20.110   27.022   48.296
| 37> O  -20.473   25.807   47.535
| 38> H  -20.833   25.428   45.533
| 39> H  -19.344   27.382   45.576
| 40> H  -20.898   28.157   45.201
| 41> H  -19.543   28.978   47.434
| 42> H  -21.289   28.710   47.548
| 43> H  -20.733   27.082   49.195
| 44> H  -19.064   26.913   48.597
| 45> C  -23.430   25.483   45.442
| 46> H  -22.859   25.271   44.529
| 47> H  -23.652   24.528   45.936
| 48> O  -22.586   26.394   46.375
| 49> C  -24.782   26.130   45.033
| 50> C  -25.600   26.536   46.265
| 51> C  -24.913   27.862   46.673
| 52> C  -24.516   28.486   45.312
| 53> O  -24.553   27.390   44.319
| 54> H  -25.304   25.463   44.345
| 55> H  -26.643   26.713   45.982
| 56> O  -25.572   25.472   47.395
| 57> H  -25.567   28.517   47.258
| 58> H  -24.021   27.654   47.276
| 59> H  -23.513   28.924   45.327
| 60> H  -25.229   29.246   44.978
| 61> H  -24.536   25.279   47.694
| 62> *
| 63>
| 64>                          ****END OF INPUT****
 Total Charge           Charge          ....    0
 Multiplicity           Mult            ....    1
 Number of Electrons    NEL             ....  102
FINAL SINGLE POINT ENERGY      -652.835069567376
FINAL SINGLE POINT ENERGY      -652.857899511049
FINAL SINGLE POINT ENERGY      -652.862221768970
FINAL SINGLE POINT ENERGY      -652.863474632213
FINAL SINGLE POINT ENERGY      -652.863585848278
FINAL SINGLE POINT ENERGY      -652.863603737465
                    ***********************HURRAY********************

CARTESIAN COORDINATES (ANGSTROEM)
---------------------------------
  C    -21.048629   26.165739   46.201468
  C    -20.413376   27.525559   45.913507
  C    -20.421002   28.184477   47.313559
  C    -20.165892   26.989907   48.259216
  O    -20.480890   25.773532   47.466475
  H    -20.811427   25.375755   45.483678
  H    -19.386559   27.378468   45.558494
  H    -20.971183   28.089109   45.162325
  H    -19.662005   28.965883   47.415754
  H    -21.400984   28.630942   47.508734
  H    -20.799101   27.001881   49.149945
  H    -19.118296   26.903481   48.561920
  C    -23.312693   25.467515   45.454441
  H    -22.774798   25.251313   44.522159
  H    -23.529636   24.517480   45.960783
  O    -22.489024   26.317184   46.308602
  C    -24.623486   26.158460   45.097592
  C    -25.519036   26.532104   46.291730
  C    -24.932463   27.914773   46.711515
  C    -24.522767   28.534062   45.359026
  O    -24.448940   27.414910   44.382449
  H    -25.152221   25.486101   44.410221
  H    -26.556982   26.622739   45.964892
  O    -25.542584   25.545323   47.350297
  H    -25.663490   28.524269   47.251364
  H    -24.058793   27.746654   47.345330
  H    -23.549205   29.031028   45.399121
  H    -25.269245   29.236916   44.975714
  H    -24.676294   25.543434   47.809689

 Multiplicity           Mult            ....    1
 Number of Electrons    NEL             ....  102
 Basis Dimension        Dim             ....  149

ORBITAL ENERGIES
----------------

  NO   OCC          E(Eh)            E(eV)
   0   2.0000     -19.149801      -521.0926
   1   2.0000     -19.143926      -520.9327
   2   2.0000     -19.138267      -520.7787
   3   2.0000     -19.135564      -520.7052
   4   2.0000     -10.285012      -279.8694
   5   2.0000     -10.236195      -278.5410
   6   2.0000     -10.233912      -278.4789
   7   2.0000     -10.231372      -278.4098
   8   2.0000     -10.229481      -278.3583
   9   2.0000     -10.223803      -278.2038
  10   2.0000     -10.190785      -277.3054
  11   2.0000     -10.188529      -277.2440
  12   2.0000     -10.179558      -276.9999
  13   2.0000      -1.057536       -28.7770
  14   2.0000      -1.027172       -27.9508
  15   2.0000      -1.009350       -27.4658
  16   2.0000      -0.998253       -27.1638
  17   2.0000      -0.791301       -21.5324
  18   2.0000      -0.773413       -21.0456
  19   2.0000      -0.766679       -20.8624
  20   2.0000      -0.733858       -19.9693
  21   2.0000      -0.678915       -18.4742
  22   2.0000      -0.603267       -16.4157
  23   2.0000      -0.602151       -16.3853
  24   2.0000      -0.596555       -16.2331
  25   2.0000      -0.576665       -15.6919
  26   2.0000      -0.528120       -14.3709
  27   2.0000      -0.507945       -13.8219
  28   2.0000      -0.497402       -13.5350
  29   2.0000      -0.489814       -13.3285
  30   2.0000      -0.473455       -12.8834
  31   2.0000      -0.462985       -12.5985
  32   2.0000      -0.439159       -11.9501
  33   2.0000      -0.435458       -11.8494
  34   2.0000      -0.422542       -11.4979
  35   2.0000      -0.416741       -11.3401
  36   2.0000      -0.403700       -10.9852
  37   2.0000      -0.396087       -10.7781
  38   2.0000      -0.381986       -10.3944
  39   2.0000      -0.370465       -10.0809
  40   2.0000      -0.360894        -9.8204
  41   2.0000      -0.354367        -9.6428
  42   2.0000      -0.349055        -9.4983
  43   2.0000      -0.327932        -8.9235
  44   2.0000      -0.320191        -8.7128
  45   2.0000      -0.313461        -8.5297
  46   2.0000      -0.305197        -8.3048
  47   2.0000      -0.272471        -7.4143
  48   2.0000      -0.263218        -7.1625
  49   2.0000      -0.254694        -6.9306
  50   2.0000      -0.239191        -6.5087
  51   0.0000       0.063451         1.7266
  52   0.0000       0.072047         1.9605
  53   0.0000       0.087353         2.3770
  54   0.0000       0.096311         2.6208
  55   0.0000       0.105397         2.8680

MULLIKEN ATOMIC CHARGES
-----------------------
   0 C :    0.290194
   1 C :   -0.256911
   2 C :   -0.306051
   3 C :   -0.002492
   4 O :   -0.503503
   5 H :    0.144732
   6 H :    0.145772
   7 H :    0.159084
   8 H :    0.144987
   9 H :    0.157835
  10 H :    0.148014
  11 H :    0.144704
  12 C :   -0.022177
  13 H :    0.144949
  14 H :    0.147604
  15 O :   -0.536149
  16 C :    0.088499
  17 C :    0.089168
  18 C :   -0.319810
  19 C :   -0.007057
  20 O :   -0.523253
  21 H :    0.150874
  22 H :    0.161859
  23 O :   -0.607814
  24 H :    0.144441
  25 H :    0.170473
  26 H :    0.140835
  27 H :    0.142957
  28 H :    0.368238
Sum of atomic charges:   -0.0000000

LOEWDIN ATOMIC CHARGES
----------------------
   0 C :    0.178640
   1 C :   -0.220788
   2 C :   -0.217317
   3 C :   -0.027065
   4 O :   -0.317012
   5 H :    0.101364
   6 H :    0.114559
   7 H :    0.123236
   8 H :    0.115647
   9 H :    0.114878
  10 H :    0.105859
  11 H :    0.103879
  12 C :   -0.045117
  13 H :    0.104810
  14 H :    0.104762
  15 O :   -0.343495
  16 C :    0.016306
  17 C :    0.038521
  18 C :   -0.245086
  19 C :   -0.025495
  20 O :   -0.324940
  21 H :    0.115069
  22 H :    0.116147
  23 O :   -0.411246
  24 H :    0.115153
  25 H :    0.122166
  26 H :    0.100360
  27 H :    0.101169
  28 H :    0.285035

  Mayer bond orders larger than 0.100000
B(  0-C ,  1-C ) :   0.9415 B(  0-C ,  4-O ) :   0.9330 B(  0-C ,  5-H ) :   0.9192
B(  0-C , 15-O ) :   0.8314 B(  1-C ,  2-C ) :   0.9563 B(  1-C ,  6-H ) :   0.9361
B(  1-C ,  7-H ) :   0.9341 B(  2-C ,  3-C ) :   0.9534 B(  2-C ,  8-H ) :   0.9447
B(  2-C ,  9-H ) :   0.9431 B(  3-C ,  4-O ) :   0.8380 B(  3-C , 10-H ) :   0.9353
B(  3-C , 11-H ) :   0.9395 B( 12-C , 13-H ) :   0.9214 B( 12-C , 14-H ) :   0.9055
B( 12-C , 15-O ) :   0.8346 B( 12-C , 16-C ) :   0.9110 B( 16-C , 17-C ) :   0.8868
B( 16-C , 20-O ) :   0.8777 B( 16-C , 21-H ) :   0.9270 B( 17-C , 18-C ) :   0.9323
B( 17-C , 22-H ) :   0.9361 B( 17-C , 23-O ) :   0.9057 B( 18-C , 19-C ) :   0.9452
B( 18-C , 24-H ) :   0.9409 B( 18-C , 25-H ) :   0.9242 B( 19-C , 20-O ) :   0.8394
B( 19-C , 26-H ) :   0.9302 B( 19-C , 27-H ) :   0.9373 B( 23-O , 28-H ) :   0.7896

FINAL SINGLE POINT ENERGY      -652.863604570271

DIPOLE MOMENT
-------------
                                X             Y             Z
Electronic contribution:     -2.44681      -4.44881      -1.09630
Nuclear contribution   :      3.21626       5.25637       1.14509
                        -----------------------------------------
Total Dipole Moment    :      0.76945       0.80755       0.04879
                        -----------------------------------------
Magnitude (a.u.)       :      1.11650
Magnitude (Debye)      :      2.83792

Rotational constants in cm-1:     0.044422     0.016437     0.015435
Rotational constants in MHz :  1331.724106   492.767967   462.720870

                             ****ORCA TERMINATED NORMALLY****
TOTAL RUN TIME: 0 days 0 hours 27 minutes 38 seconds 867 msec
