                         Program Version 4.2.0 -  RELEASE  -
|  1> # Test redundant internal optimization
|  2> #
|  3> ! RKS B3LYP  Opt TightSCF SmallPrint
|  4>
|  5> %basis
|  6>         Basis "6-31G"
|  7> end
|  8>
|  9> %geom
| 10> Constraints
| 11> { D 4  0  15  12  255.0   C } # D for Dihedral angle
| 12> { D 0  15  12  16  285.0   C } # D for Dihedral angle
| 13> { D 0  4  3  2   C } # D for Dihedral angle
| 14> { D 4  3  2  1   C } # D for Dihedral angle
| 15> { D 3  2  1  0   C } # D for Dihedral angle
| 16> { D 2  1  0  4   C } # D for Dihedral angle
| 17> { D 1  0  4  3   C } # D for Dihedral angle
| 18> { D 16  20  19  18   C } # D for Dihedral angle
| 19> { D 20  19  18  17   C } # D for Dihedral angle
| 20> { D 19  18  17  16   C } # D for Dihedral angle
| 21> { D 18  17  16  20   C } # D for Dihedral angle
| 22> { D 17  16  20  19   C } # D for Dihedral angle
| 23> { D 15  12  16  20   C } # D for Dihedral angle
| 24> end
| 25> end
| 26>
| 27>
| 28> #%pal
| 29> #nprocs 8
| 30> #end
| 31>
| 32> * xyz 0 1
| 33> C  -21.048   26.222   46.251
| 34> C  -20.361   27.558   45.944
| 35> C  -20.329   28.222   47.341
| 36> C  -20.110   27.022   48.296
| 37> O  -20.473   25.807   47.535
| 38> H  -20.833   25.428   45.533
| 39> H  -19.344   27.382   45.576
| 40> H  -20.898   28.157   45.201
| 41> H  -19.543   28.978   47.434
| 42> H  -21.289   28.710   47.548
| 43> H  -20.733   27.082   49.195
| 44> H  -19.064   26.913   48.597
| 45> C  -23.431   25.260   45.734
| 46> H  -23.009   24.288   46.019
| 47> H  -24.467   25.302   46.093
| 48> O  -22.586   26.394   46.375
| 49> C  -23.466   25.340   44.182
| 50> C  -24.400   24.279   43.590
| 51> C  -25.789   24.926   43.809
| 52> C  -25.509   26.436   43.607
| 53> O  -24.048   26.615   43.748
| 54> H  -22.444   25.308   43.799
| 55> O  -24.111   24.100   42.075
| 56> H  -24.305   23.303   44.078
| 57> H  -26.548   24.546   43.118
| 58> H  -26.138   24.731   44.830
| 59> H  -26.020   27.060   44.349
| 60> H  -25.781   26.781   42.605
| 61> H  -24.201   25.066   41.566
| 62> *
| 63>
| 64>                          ****END OF INPUT****
 Total Charge           Charge          ....    0
 Multiplicity           Mult            ....    1
 Number of Electrons    NEL             ....  102
FINAL SINGLE POINT ENERGY      -652.833574671980
FINAL SINGLE POINT ENERGY      -652.856814469319
FINAL SINGLE POINT ENERGY      -652.860971947712
FINAL SINGLE POINT ENERGY      -652.861708925903
FINAL SINGLE POINT ENERGY      -652.861800448429
FINAL SINGLE POINT ENERGY      -652.861808590510
                    ***********************HURRAY********************

CARTESIAN COORDINATES (ANGSTROEM)
---------------------------------
  C    -21.068401   26.171195   46.177914
  C    -20.464392   27.547532   45.900427
  C    -20.449930   28.177822   47.311985
  C    -20.150896   26.971555   48.229676
  O    -20.461782   25.762726   47.425345
  H    -20.832839   25.391722   45.447848
  H    -19.444694   27.427621   45.515366
  H    -21.057596   28.112871   45.178997
  H    -19.704163   28.972418   47.411618
  H    -21.435779   28.596118   47.535349
  H    -20.764172   26.958982   49.134128
  H    -19.094830   26.899467   48.507297
  C    -23.346130   25.297851   45.761774
  H    -22.982075   24.301898   46.058595
  H    -24.323653   25.457801   46.223500
  O    -22.499387   26.332188   46.325740
  C    -23.445669   25.370165   44.234996
  C    -24.385823   24.316325   43.632976
  C    -25.773198   24.985217   43.823345
  C    -25.467350   26.489650   43.615605
  O    -24.002539   26.648518   43.781887
  H    -22.448565   25.295096   43.789143
  O    -24.082344   24.093005   42.228068
  H    -24.312096   23.334152   44.101632
  H    -26.493939   24.590533   43.103254
  H    -26.152419   24.790171   44.832779
  H    -25.979033   27.130663   44.339350
  H    -25.716962   26.833115   42.607090
  H    -23.937346   24.959623   41.792318

 Multiplicity           Mult            ....    1
 Number of Electrons    NEL             ....  102
 Basis Dimension        Dim             ....  149

ORBITAL ENERGIES
----------------

  NO   OCC          E(Eh)            E(eV)
   0   2.0000     -19.144715      -520.9542
   1   2.0000     -19.142611      -520.8969
   2   2.0000     -19.139593      -520.8148
   3   2.0000     -19.133309      -520.6438
   4   2.0000     -10.275128      -279.6004
   5   2.0000     -10.247031      -278.8359
   6   2.0000     -10.237922      -278.5880
   7   2.0000     -10.233675      -278.4725
   8   2.0000     -10.233577      -278.4698
   9   2.0000     -10.219465      -278.0858
  10   2.0000     -10.193595      -277.3818
  11   2.0000     -10.179357      -276.9944
  12   2.0000     -10.178413      -276.9687
  13   2.0000      -1.049941       -28.5703
  14   2.0000      -1.038796       -28.2671
  15   2.0000      -1.009538       -27.4709
  16   2.0000      -0.990476       -26.9522
  17   2.0000      -0.789378       -21.4801
  18   2.0000      -0.780170       -21.2295
  19   2.0000      -0.767343       -20.8805
  20   2.0000      -0.730478       -19.8773
  21   2.0000      -0.674498       -18.3540
  22   2.0000      -0.608567       -16.5600
  23   2.0000      -0.604699       -16.4547
  24   2.0000      -0.592070       -16.1110
  25   2.0000      -0.573652       -15.6099
  26   2.0000      -0.529781       -14.4161
  27   2.0000      -0.513077       -13.9615
  28   2.0000      -0.491606       -13.3773
  29   2.0000      -0.489899       -13.3308
  30   2.0000      -0.472785       -12.8651
  31   2.0000      -0.454889       -12.3782
  32   2.0000      -0.453501       -12.3404
  33   2.0000      -0.440620       -11.9899
  34   2.0000      -0.426807       -11.6140
  35   2.0000      -0.411685       -11.2025
  36   2.0000      -0.398564       -10.8455
  37   2.0000      -0.394811       -10.7433
  38   2.0000      -0.376437       -10.2434
  39   2.0000      -0.369093       -10.0435
  40   2.0000      -0.359156        -9.7731
  41   2.0000      -0.351037        -9.5522
  42   2.0000      -0.346531        -9.4296
  43   2.0000      -0.335219        -9.1218
  44   2.0000      -0.317978        -8.6526
  45   2.0000      -0.310737        -8.4556
  46   2.0000      -0.300411        -8.1746
  47   2.0000      -0.275623        -7.5001
  48   2.0000      -0.269305        -7.3282
  49   2.0000      -0.249595        -6.7918
  50   2.0000      -0.238045        -6.4775
  51   0.0000       0.063171         1.7190
  52   0.0000       0.086167         2.3447
  53   0.0000       0.088084         2.3969
  54   0.0000       0.093126         2.5341
  55   0.0000       0.098660         2.6847

MULLIKEN ATOMIC CHARGES
-----------------------
   0 C :    0.278459
   1 C :   -0.254595
   2 C :   -0.300732
   3 C :   -0.000490
   4 O :   -0.509558
   5 H :    0.137741
   6 H :    0.139845
   7 H :    0.165053
   8 H :    0.139040
   9 H :    0.164968
  10 H :    0.147724
  11 H :    0.139164
  12 C :   -0.010057
  13 H :    0.135462
  14 H :    0.152596
  15 O :   -0.503008
  16 C :    0.054391
  17 C :    0.076272
  18 C :   -0.297021
  19 C :   -0.026699
  20 O :   -0.513742
  21 H :    0.159856
  22 O :   -0.600501
  23 H :    0.154368
  24 H :    0.165852
  25 H :    0.143105
  26 H :    0.153454
  27 H :    0.144223
  28 H :    0.364830
Sum of atomic charges:    0.0000000

LOEWDIN ATOMIC CHARGES
----------------------
   0 C :    0.171977
   1 C :   -0.217897
   2 C :   -0.216268
   3 C :   -0.026760
   4 O :   -0.324578
   5 H :    0.096029
   6 H :    0.111147
   7 H :    0.127417
   8 H :    0.112592
   9 H :    0.120497
  10 H :    0.105841
  11 H :    0.100911
  12 C :   -0.040090
  13 H :    0.100113
  14 H :    0.114256
  15 O :   -0.317688
  16 C :    0.001903
  17 C :    0.035240
  18 C :   -0.240251
  19 C :   -0.036974
  20 O :   -0.325814
  21 H :    0.112246
  22 O :   -0.413909
  23 H :    0.116458
  24 H :    0.127859
  25 H :    0.112850
  26 H :    0.107576
  27 H :    0.102074
  28 H :    0.283242

  Mayer bond orders larger than 0.100000
B(  0-C ,  1-C ) :   0.9452 B(  0-C ,  4-O ) :   0.9187 B(  0-C ,  5-H ) :   0.9170
B(  0-C , 15-O ) :   0.8489 B(  1-C ,  2-C ) :   0.9576 B(  1-C ,  6-H ) :   0.9391
B(  1-C ,  7-H ) :   0.9339 B(  2-C ,  3-C ) :   0.9546 B(  2-C ,  8-H ) :   0.9454
B(  2-C ,  9-H ) :   0.9436 B(  3-C ,  4-O ) :   0.8393 B(  3-C , 10-H ) :   0.9355
B(  3-C , 11-H ) :   0.9401 B( 12-C , 13-H ) :   0.9120 B( 12-C , 14-H ) :   0.9398
B( 12-C , 15-O ) :   0.8658 B( 12-C , 16-C ) :   0.8770 B( 16-C , 17-C ) :   0.8970
B( 16-C , 20-O ) :   0.8623 B( 16-C , 21-H ) :   0.9216 B( 17-C , 18-C ) :   0.9120
B( 17-C , 22-O ) :   0.8921 B( 17-C , 23-H ) :   0.9325 B( 18-C , 19-C ) :   0.9394
B( 18-C , 24-H ) :   0.9373 B( 18-C , 25-H ) :   0.9345 B( 19-C , 20-O ) :   0.8479
B( 19-C , 26-H ) :   0.9335 B( 19-C , 27-H ) :   0.9383 B( 22-O , 28-H ) :   0.7943

FINAL SINGLE POINT ENERGY      -652.861810115303

DIPOLE MOMENT
-------------
                                X             Y             Z
Electronic contribution:      0.27217      -2.39768      -1.56549
Nuclear contribution   :     -0.71552       2.81406       1.53851
                        -----------------------------------------
Total Dipole Moment    :     -0.44335       0.41638      -0.02698
                        -----------------------------------------
Magnitude (a.u.)       :      0.60882
Magnitude (Debye)      :      1.54749

Rotational constants in cm-1:     0.066177     0.011623     0.011244
Rotational constants in MHz :  1983.933453   348.447887   337.080623

                             ****ORCA TERMINATED NORMALLY****
TOTAL RUN TIME: 0 days 0 hours 20 minutes 3 seconds 570 msec
