                         Program Version 4.2.0 -  RELEASE  -
|  1> # Test redundant internal optimization
|  2> #
|  3> ! RKS B3LYP  Opt TightSCF SmallPrint
|  4>
|  5> %basis
|  6>         Basis "6-31G"
|  7> end
|  8>
|  9> %geom
| 10> Constraints
| 11> { D 4  0  15  12  45.0   C } # D for Dihedral angle
| 12> { D 0  15  12  16  195.0   C } # D for Dihedral angle
| 13> { D 0  4  3  2   C } # D for Dihedral angle
| 14> { D 4  3  2  1   C } # D for Dihedral angle
| 15> { D 3  2  1  0   C } # D for Dihedral angle
| 16> { D 2  1  0  4   C } # D for Dihedral angle
| 17> { D 1  0  4  3   C } # D for Dihedral angle
| 18> { D 16  20  19  18   C } # D for Dihedral angle
| 19> { D 20  19  18  17   C } # D for Dihedral angle
| 20> { D 19  18  17  16   C } # D for Dihedral angle
| 21> { D 18  17  16  20   C } # D for Dihedral angle
| 22> { D 17  16  20  19   C } # D for Dihedral angle
| 23> { D 15  12  16  20   C } # D for Dihedral angle
| 24> end
| 25> end
| 26>
| 27>
| 28> #%pal
| 29> #nprocs 8
| 30> #end
| 31>
| 32> * xyz 0 1
| 33> C  -21.048   26.222   46.251
| 34> C  -20.361   27.558   45.944
| 35> C  -20.329   28.222   47.341
| 36> C  -20.110   27.022   48.296
| 37> O  -20.473   25.807   47.535
| 38> H  -20.833   25.428   45.533
| 39> H  -19.344   27.382   45.576
| 40> H  -20.898   28.157   45.201
| 41> H  -19.543   28.978   47.434
| 42> H  -21.289   28.710   47.548
| 43> H  -20.733   27.082   49.195
| 44> H  -19.064   26.913   48.597
| 45> C  -23.065   27.161   47.638
| 46> H  -22.516   26.795   48.514
| 47> H  -22.866   28.236   47.533
| 48> O  -22.586   26.394   46.375
| 49> C  -24.586   26.986   47.906
| 50> C  -25.045   27.847   49.088
| 51> C  -25.164   29.243   48.431
| 52> C  -25.660   28.917   47.000
| 53> O  -25.367   27.486   46.770
| 54> H  -24.811   25.923   48.007
| 55> O  -26.429   27.360   49.596
| 56> H  -24.343   27.833   49.929
| 57> H  -25.849   29.908   48.968
| 58> H  -24.182   29.730   48.398
| 59> H  -25.152   29.515   46.234
| 60> H  -26.740   29.047   46.892
| 61> H  -27.148   27.367   48.770
| 62> *
| 63>
| 64>                          ****END OF INPUT****
 Total Charge           Charge          ....    0
 Multiplicity           Mult            ....    1
 Number of Electrons    NEL             ....  102
FINAL SINGLE POINT ENERGY      -652.818196452194
FINAL SINGLE POINT ENERGY      -652.843774708503
FINAL SINGLE POINT ENERGY      -652.853715429154
FINAL SINGLE POINT ENERGY      -652.855889052363
FINAL SINGLE POINT ENERGY      -652.856245240732
FINAL SINGLE POINT ENERGY      -652.856292808814
                    ***********************HURRAY********************

CARTESIAN COORDINATES (ANGSTROEM)
---------------------------------
  C    -21.213667   26.316969   46.420716
  C    -20.358745   27.495014   45.933001
  C    -19.961704   28.182896   47.270371
  C    -19.802756   26.980678   48.234664
  O    -20.514029   25.844474   47.596519
  H    -21.230206   25.482901   45.717666
  H    -19.473246   27.101368   45.422256
  H    -20.903251   28.148928   45.247741
  H    -19.035129   28.759235   47.185243
  H    -20.746465   28.867473   47.604881
  H    -20.230779   27.159605   49.225705
  H    -18.758770   26.674297   48.348835
  C    -23.078437   27.308202   47.781682
  H    -22.598019   26.914193   48.686935
  H    -22.852189   28.379884   47.691859
  O    -22.620529   26.581923   46.613302
  C    -24.586135   27.092663   47.882185
  C    -25.246968   27.835321   49.052791
  C    -25.446190   29.253748   48.455122
  C    -25.763102   28.962992   46.966787
  O    -25.300343   27.580583   46.699834
  H    -24.776375   26.016447   47.930907
  O    -26.515356   27.219382   49.406153
  H    -24.658877   27.831472   49.972083
  H    -26.253437   29.779616   48.970950
  H    -24.528050   29.842874   48.560670
  H    -25.253948   29.648764   46.282947
  H    -26.836233   28.992061   46.754107
  H    -26.991063   26.975037   48.584087

 Multiplicity           Mult            ....    1
 Number of Electrons    NEL             ....  102
 Basis Dimension        Dim             ....  149

ORBITAL ENERGIES
----------------

  NO   OCC          E(Eh)            E(eV)
   0   2.0000     -19.146763      -521.0099
   1   2.0000     -19.140966      -520.8522
   2   2.0000     -19.139849      -520.8218
   3   2.0000     -19.138711      -520.7908
   4   2.0000     -10.277797      -279.6731
   5   2.0000     -10.243812      -278.7483
   6   2.0000     -10.233628      -278.4712
   7   2.0000     -10.233544      -278.4689
   8   2.0000     -10.233487      -278.4673
   9   2.0000     -10.230077      -278.3745
  10   2.0000     -10.195625      -277.4371
  11   2.0000     -10.190878      -277.3079
  12   2.0000     -10.189025      -277.2575
  13   2.0000      -1.054712       -28.7002
  14   2.0000      -1.036027       -28.1917
  15   2.0000      -1.006649       -27.3923
  16   2.0000      -0.994968       -27.0744
  17   2.0000      -0.791203       -21.5297
  18   2.0000      -0.785630       -21.3781
  19   2.0000      -0.771366       -20.9899
  20   2.0000      -0.734417       -19.9845
  21   2.0000      -0.677352       -18.4317
  22   2.0000      -0.606126       -16.4935
  23   2.0000      -0.605785       -16.4843
  24   2.0000      -0.597927       -16.2704
  25   2.0000      -0.577895       -15.7253
  26   2.0000      -0.526019       -14.3137
  27   2.0000      -0.508548       -13.8383
  28   2.0000      -0.501169       -13.6375
  29   2.0000      -0.492953       -13.4139
  30   2.0000      -0.480044       -13.0627
  31   2.0000      -0.463041       -12.6000
  32   2.0000      -0.454311       -12.3624
  33   2.0000      -0.436407       -11.8752
  34   2.0000      -0.425632       -11.5820
  35   2.0000      -0.417713       -11.3666
  36   2.0000      -0.401603       -10.9282
  37   2.0000      -0.393869       -10.7177
  38   2.0000      -0.381881       -10.3915
  39   2.0000      -0.372274       -10.1301
  40   2.0000      -0.362547        -9.8654
  41   2.0000      -0.360456        -9.8085
  42   2.0000      -0.351587        -9.5672
  43   2.0000      -0.331350        -9.0165
  44   2.0000      -0.323515        -8.8033
  45   2.0000      -0.311951        -8.4886
  46   2.0000      -0.302935        -8.2433
  47   2.0000      -0.271500        -7.3879
  48   2.0000      -0.265085        -7.2133
  49   2.0000      -0.253142        -6.8883
  50   2.0000      -0.242457        -6.5976
  51   0.0000       0.061443         1.6720
  52   0.0000       0.074240         2.0202
  53   0.0000       0.082858         2.2547
  54   0.0000       0.098505         2.6805
  55   0.0000       0.101412         2.7596

MULLIKEN ATOMIC CHARGES
-----------------------
   0 C :    0.296993
   1 C :   -0.266626
   2 C :   -0.313090
   3 C :   -0.014110
   4 O :   -0.509024
   5 H :    0.167854
   6 H :    0.151682
   7 H :    0.156418
   8 H :    0.147010
   9 H :    0.144139
  10 H :    0.140290
  11 H :    0.151060
  12 C :   -0.000436
  13 H :    0.143625
  14 H :    0.123615
  15 O :   -0.510988
  16 C :    0.060383
  17 C :    0.076019
  18 C :   -0.296240
  19 C :   -0.028730
  20 O :   -0.507270
  21 H :    0.174986
  22 O :   -0.601706
  23 H :    0.150212
  24 H :    0.164611
  25 H :    0.138828
  26 H :    0.147323
  27 H :    0.146207
  28 H :    0.366964
Sum of atomic charges:   -0.0000000

LOEWDIN ATOMIC CHARGES
----------------------
   0 C :    0.176581
   1 C :   -0.227510
   2 C :   -0.223090
   3 C :   -0.034543
   4 O :   -0.321278
   5 H :    0.114473
   6 H :    0.119136
   7 H :    0.122859
   8 H :    0.116523
   9 H :    0.107119
  10 H :    0.099451
  11 H :    0.106309
  12 C :   -0.045215
  13 H :    0.105416
  14 H :    0.087886
  15 O :   -0.311365
  16 C :    0.018519
  17 C :    0.035282
  18 C :   -0.242479
  19 C :   -0.038562
  20 O :   -0.318938
  21 H :    0.123970
  22 O :   -0.413661
  23 H :    0.114397
  24 H :    0.127070
  25 H :    0.109941
  26 H :    0.104621
  27 H :    0.102583
  28 H :    0.284504

  Mayer bond orders larger than 0.100000
B(  0-C ,  1-C ) :   0.9146 B(  0-C ,  4-O ) :   0.8980 B(  0-C ,  5-H ) :   0.9353
B(  0-C , 15-O ) :   0.8927 B(  1-C ,  2-C ) :   0.9565 B(  1-C ,  6-H ) :   0.9348
B(  1-C ,  7-H ) :   0.9369 B(  2-C ,  3-C ) :   0.9484 B(  2-C ,  8-H ) :   0.9449
B(  2-C ,  9-H ) :   0.9413 B(  3-C ,  4-O ) :   0.8419 B(  3-C , 10-H ) :   0.9324
B(  3-C , 11-H ) :   0.9395 B( 12-C , 13-H ) :   0.9046 B( 12-C , 14-H ) :   0.9072
B( 12-C , 15-O ) :   0.8420 B( 12-C , 16-C ) :   0.9014 B( 16-C , 17-C ) :   0.9012
B( 16-C , 20-O ) :   0.8670 B( 16-C , 21-H ) :   0.9221 B( 17-C , 18-C ) :   0.9113
B( 17-C , 22-O ) :   0.8948 B( 17-C , 23-H ) :   0.9330 B( 18-C , 19-C ) :   0.9408
B( 18-C , 24-H ) :   0.9366 B( 18-C , 25-H ) :   0.9342 B( 19-C , 20-O ) :   0.8538
B( 19-C , 26-H ) :   0.9339 B( 19-C , 27-H ) :   0.9378 B( 22-O , 28-H ) :   0.7926

FINAL SINGLE POINT ENERGY      -652.856297334695

DIPOLE MOMENT
-------------
                                X             Y             Z
Electronic contribution:     -3.86305      -5.81407      -0.92817
Nuclear contribution   :      4.71669       7.29449       0.99707
                        -----------------------------------------
Total Dipole Moment    :      0.85364       1.48042       0.06890
                        -----------------------------------------
Magnitude (a.u.)       :      1.71029
Magnitude (Debye)      :      4.34720

Rotational constants in cm-1:     0.055743     0.012673     0.012326
Rotational constants in MHz :  1671.119799   379.914433   369.536794

                             ****ORCA TERMINATED NORMALLY****
TOTAL RUN TIME: 0 days 1 hours 41 minutes 23 seconds 234 msec
