                         Program Version 4.2.0 -  RELEASE  -
|  1> # Test redundant internal optimization
|  2> #
|  3> ! RKS B3LYP  Opt TightSCF SmallPrint
|  4>
|  5> %basis
|  6>         Basis "6-31G"
|  7> end
|  8>
|  9> %geom
| 10> Constraints
| 11> { D 4  0  15  12  270.0   C } # D for Dihedral angle
| 12> { D 0  15  12  16  75.0   C } # D for Dihedral angle
| 13> { D 0  4  3  2   C } # D for Dihedral angle
| 14> { D 4  3  2  1   C } # D for Dihedral angle
| 15> { D 3  2  1  0   C } # D for Dihedral angle
| 16> { D 2  1  0  4   C } # D for Dihedral angle
| 17> { D 1  0  4  3   C } # D for Dihedral angle
| 18> { D 16  20  19  18   C } # D for Dihedral angle
| 19> { D 20  19  18  17   C } # D for Dihedral angle
| 20> { D 19  18  17  16   C } # D for Dihedral angle
| 21> { D 18  17  16  20   C } # D for Dihedral angle
| 22> { D 17  16  20  19   C } # D for Dihedral angle
| 23> { D 15  12  16  20   C } # D for Dihedral angle
| 24> end
| 25> end
| 26>
| 27>
| 28> #%pal
| 29> #nprocs 8
| 30> #end
| 31>
| 32> * xyz 0 1
| 33> C  -21.048   26.222   46.251
| 34> C  -20.361   27.558   45.944
| 35> C  -20.329   28.222   47.341
| 36> C  -20.110   27.022   48.296
| 37> O  -20.473   25.807   47.535
| 38> H  -20.833   25.428   45.533
| 39> H  -19.344   27.382   45.576
| 40> H  -20.898   28.157   45.201
| 41> H  -19.543   28.978   47.434
| 42> H  -21.289   28.710   47.548
| 43> H  -20.733   27.082   49.195
| 44> H  -19.064   26.913   48.597
| 45> C  -23.420   25.119   46.072
| 46> H  -24.468   25.401   45.914
| 47> H  -23.055   24.629   45.160
| 48> O  -22.586   26.394   46.375
| 49> C  -23.362   24.077   47.223
| 50> C  -24.098   22.787   46.844
| 51> C  -23.054   22.082   45.946
| 52> C  -21.706   22.472   46.602
| 53> O  -21.980   23.647   47.457
| 54> H  -23.714   24.543   48.146
| 55> H  -24.302   22.191   47.740
| 56> O  -25.444   23.045   46.112
| 57> H  -23.197   20.998   45.899
| 58> H  -23.112   22.472   44.923
| 59> H  -20.941   22.737   45.864
| 60> H  -21.314   21.685   47.252
| 61> H  -25.265   23.640   45.209
| 62> *
| 63>
| 64>                          ****END OF INPUT****
 Total Charge           Charge          ....    0
 Multiplicity           Mult            ....    1
 Number of Electrons    NEL             ....  102
FINAL SINGLE POINT ENERGY      -652.823116550687
FINAL SINGLE POINT ENERGY      -652.847989248505
FINAL SINGLE POINT ENERGY      -652.853651691127
FINAL SINGLE POINT ENERGY      -652.854903827097
FINAL SINGLE POINT ENERGY      -652.855068697266
FINAL SINGLE POINT ENERGY      -652.855116053609
FINAL SINGLE POINT ENERGY      -652.855121101426
FINAL SINGLE POINT ENERGY      -652.855122275631
                    ***********************HURRAY********************

CARTESIAN COORDINATES (ANGSTROEM)
---------------------------------
  C    -20.953615   26.238747   46.237747
  C    -20.451960   27.656286   45.962443
  C    -20.453006   28.276707   47.380655
  C    -20.052928   27.085280   48.277762
  O    -20.296226   25.866479   47.466415
  H    -20.678198   25.479978   45.498390
  H    -19.433618   27.606042   45.559260
  H    -21.090456   28.190037   45.255798
  H    -19.762432   29.120653   47.472488
  H    -21.460689   28.624376   47.626318
  H    -20.643588   27.021281   49.194994
  H    -18.988788   27.084630   48.533682
  C    -23.222206   25.161438   46.084754
  H    -24.232262   25.566194   45.971248
  H    -22.913376   24.721860   45.119780
  O    -22.393930   26.321978   46.344853
  C    -23.255284   24.075354   47.163632
  C    -24.134619   22.870366   46.786382
  C    -23.151234   22.008567   45.936714
  C    -21.796594   22.252492   46.636124
  O    -21.955752   23.482868   47.455081
  H    -23.579832   24.537928   48.100959
  H    -24.420165   22.335708   47.694789
  O    -25.392414   23.187140   46.140756
  H    -23.439020   20.953987   45.916736
  H    -23.142363   22.375432   44.901535
  H    -20.969788   22.396052   45.933410
  H    -21.534844   21.444055   47.324654
  H    -25.243814   23.458086   45.211642

 Multiplicity           Mult            ....    1
 Number of Electrons    NEL             ....  102
 Basis Dimension        Dim             ....  149

ORBITAL ENERGIES
----------------

  NO   OCC          E(Eh)            E(eV)
   0   2.0000     -19.149913      -521.0956
   1   2.0000     -19.138300      -520.7796
   2   2.0000     -19.133634      -520.6526
   3   2.0000     -19.125629      -520.4348
   4   2.0000     -10.270922      -279.4860
   5   2.0000     -10.244552      -278.7684
   6   2.0000     -10.230910      -278.3972
   7   2.0000     -10.227812      -278.3129
   8   2.0000     -10.226549      -278.2786
   9   2.0000     -10.213888      -277.9340
  10   2.0000     -10.194976      -277.4194
  11   2.0000     -10.177234      -276.9366
  12   2.0000     -10.176712      -276.9224
  13   2.0000      -1.043857       -28.4048
  14   2.0000      -1.031817       -28.0772
  15   2.0000      -1.012895       -27.5623
  16   2.0000      -0.987056       -26.8592
  17   2.0000      -0.783127       -21.3100
  18   2.0000      -0.778725       -21.1902
  19   2.0000      -0.762351       -20.7446
  20   2.0000      -0.725728       -19.7481
  21   2.0000      -0.677291       -18.4300
  22   2.0000      -0.610481       -16.6120
  23   2.0000      -0.592248       -16.1159
  24   2.0000      -0.588885       -16.0244
  25   2.0000      -0.569979       -15.5099
  26   2.0000      -0.525670       -14.3042
  27   2.0000      -0.509905       -13.8752
  28   2.0000      -0.494272       -13.4498
  29   2.0000      -0.479492       -13.0476
  30   2.0000      -0.461725       -12.5642
  31   2.0000      -0.452300       -12.3077
  32   2.0000      -0.446260       -12.1433
  33   2.0000      -0.427546       -11.6341
  34   2.0000      -0.423181       -11.5153
  35   2.0000      -0.415382       -11.3031
  36   2.0000      -0.405200       -11.0261
  37   2.0000      -0.390000       -10.6124
  38   2.0000      -0.380364       -10.3502
  39   2.0000      -0.363020        -9.8783
  40   2.0000      -0.351852        -9.5744
  41   2.0000      -0.347615        -9.4591
  42   2.0000      -0.339702        -9.2438
  43   2.0000      -0.329644        -8.9701
  44   2.0000      -0.315940        -8.5972
  45   2.0000      -0.310941        -8.4611
  46   2.0000      -0.288234        -7.8432
  47   2.0000      -0.269777        -7.3410
  48   2.0000      -0.263634        -7.1738
  49   2.0000      -0.249237        -6.7821
  50   2.0000      -0.227237        -6.1834
  51   0.0000       0.050846         1.3836
  52   0.0000       0.071408         1.9431
  53   0.0000       0.092184         2.5084
  54   0.0000       0.099644         2.7115
  55   0.0000       0.109494         2.9795

MULLIKEN ATOMIC CHARGES
-----------------------
   0 C :    0.302726
   1 C :   -0.259815
   2 C :   -0.298048
   3 C :   -0.003156
   4 O :   -0.484776
   5 H :    0.130687
   6 H :    0.141135
   7 H :    0.149246
   8 H :    0.136254
   9 H :    0.160443
  10 H :    0.147046
  11 H :    0.137654
  12 C :   -0.013185
  13 H :    0.156449
  14 H :    0.102496
  15 O :   -0.524529
  16 C :    0.097349
  17 C :    0.079775
  18 C :   -0.323328
  19 C :   -0.011985
  20 O :   -0.490737
  21 H :    0.159771
  22 H :    0.169678
  23 O :   -0.600123
  24 H :    0.158469
  25 H :    0.130028
  26 H :    0.143605
  27 H :    0.150750
  28 H :    0.356121
Sum of atomic charges:   -0.0000000

LOEWDIN ATOMIC CHARGES
----------------------
   0 C :    0.177723
   1 C :   -0.217728
   2 C :   -0.216844
   3 C :   -0.029041
   4 O :   -0.307882
   5 H :    0.092986
   6 H :    0.111594
   7 H :    0.119750
   8 H :    0.111006
   9 H :    0.118176
  10 H :    0.105387
  11 H :    0.100072
  12 C :   -0.045395
  13 H :    0.117786
  14 H :    0.079239
  15 O :   -0.324528
  16 C :    0.008990
  17 C :    0.034664
  18 C :   -0.242710
  19 C :   -0.031142
  20 O :   -0.304224
  21 H :    0.117614
  22 H :    0.120383
  23 O :   -0.407779
  24 H :    0.122602
  25 H :    0.102300
  26 H :    0.102098
  27 H :    0.106986
  28 H :    0.277915

  Mayer bond orders larger than 0.100000
B(  0-C ,  1-C ) :   0.9451 B(  0-C ,  4-O ) :   0.9276 B(  0-C ,  5-H ) :   0.9222
B(  0-C , 15-O ) :   0.8405 B(  1-C ,  2-C ) :   0.9593 B(  1-C ,  6-H ) :   0.9407
B(  1-C ,  7-H ) :   0.9375 B(  2-C ,  3-C ) :   0.9523 B(  2-C ,  8-H ) :   0.9457
B(  2-C ,  9-H ) :   0.9447 B(  3-C ,  4-O ) :   0.8465 B(  3-C , 10-H ) :   0.9350
B(  3-C , 11-H ) :   0.9400 B( 12-C , 13-H ) :   0.9228 B( 12-C , 14-H ) :   0.9233
B( 12-C , 15-O ) :   0.8736 B( 12-C , 16-C ) :   0.8829 B( 16-C , 17-C ) :   0.8652
B( 16-C , 20-O ) :   0.8731 B( 16-C , 21-H ) :   0.9303 B( 17-C , 18-C ) :   0.9248
B( 17-C , 22-H ) :   0.9325 B( 17-C , 23-O ) :   0.8975 B( 18-C , 19-C ) :   0.9373
B( 18-C , 24-H ) :   0.9416 B( 18-C , 25-H ) :   0.9398 B( 19-C , 20-O ) :   0.8524
B( 19-C , 26-H ) :   0.9307 B( 19-C , 27-H ) :   0.9375 B( 23-O , 28-H ) :   0.7982

FINAL SINGLE POINT ENERGY      -652.855122328002

DIPOLE MOMENT
-------------
                                X             Y             Z
Electronic contribution:     -2.22748      -1.71401       1.54621
Nuclear contribution   :      2.47280       1.62981      -2.54428
                        -----------------------------------------
Total Dipole Moment    :      0.24532      -0.08420      -0.99807
                        -----------------------------------------
Magnitude (a.u.)       :      1.03122
Magnitude (Debye)      :      2.62115

Rotational constants in cm-1:     0.057954     0.014069     0.012710
Rotational constants in MHz :  1737.428890   421.774489   381.027482

                             ****ORCA TERMINATED NORMALLY****
TOTAL RUN TIME: 0 days 0 hours 27 minutes 22 seconds 309 msec
