                         Program Version 4.2.0 -  RELEASE  -
|  1> # Test redundant internal optimization
|  2> #
|  3> ! RKS B3LYP  Opt TightSCF SmallPrint
|  4>
|  5> %basis
|  6>         Basis "6-31G"
|  7> end
|  8>
|  9> %geom
| 10> Constraints
| 11> { D 4  0  15  12  270.0   C } # D for Dihedral angle
| 12> { D 0  15  12  16  285.0   C } # D for Dihedral angle
| 13> { D 0  4  3  2   C } # D for Dihedral angle
| 14> { D 4  3  2  1   C } # D for Dihedral angle
| 15> { D 3  2  1  0   C } # D for Dihedral angle
| 16> { D 2  1  0  4   C } # D for Dihedral angle
| 17> { D 1  0  4  3   C } # D for Dihedral angle
| 18> { D 16  20  19  18   C } # D for Dihedral angle
| 19> { D 20  19  18  17   C } # D for Dihedral angle
| 20> { D 19  18  17  16   C } # D for Dihedral angle
| 21> { D 18  17  16  20   C } # D for Dihedral angle
| 22> { D 17  16  20  19   C } # D for Dihedral angle
| 23> { D 15  12  16  20   C } # D for Dihedral angle
| 24> end
| 25> end
| 26>
| 27>
| 28> #%pal
| 29> #nprocs 8
| 30> #end
| 31>
| 32> * xyz 0 1
| 33> C  -21.048   26.222   46.251
| 34> C  -20.361   27.558   45.944
| 35> C  -20.329   28.222   47.341
| 36> C  -20.110   27.022   48.296
| 37> O  -20.473   25.807   47.535
| 38> H  -20.833   25.428   45.533
| 39> H  -19.344   27.382   45.576
| 40> H  -20.898   28.157   45.201
| 41> H  -19.543   28.978   47.434
| 42> H  -21.289   28.710   47.548
| 43> H  -20.733   27.082   49.195
| 44> H  -19.064   26.913   48.597
| 45> C  -23.420   25.119   46.072
| 46> H  -22.967   24.260   46.584
| 47> H  -24.447   25.235   46.442
| 48> O  -22.586   26.394   46.375
| 49> C  -23.497   24.798   44.554
| 50> C  -24.039   25.992   43.759
| 51> C  -22.788   26.897   43.661
| 52> C  -21.626   25.880   43.538
| 53> O  -22.154   24.580   44.007
| 54> H  -24.054   23.871   44.412
| 55> O  -24.493   25.531   42.348
| 56> H  -24.884   26.488   44.249
| 57> H  -22.829   27.589   42.814
| 58> H  -22.683   27.494   44.575
| 59> H  -20.759   26.157   44.147
| 60> H  -21.302   25.741   42.503
| 61> H  -23.662   25.032   41.838
| 62> *
| 63>
| 64>                          ****END OF INPUT****
 Total Charge           Charge          ....    0
 Multiplicity           Mult            ....    1
 Number of Electrons    NEL             ....  102
FINAL SINGLE POINT ENERGY      -652.817206747193
FINAL SINGLE POINT ENERGY      -652.847218944935
FINAL SINGLE POINT ENERGY      -652.860630686249
FINAL SINGLE POINT ENERGY      -652.863446003396
FINAL SINGLE POINT ENERGY      -652.863959942404
FINAL SINGLE POINT ENERGY      -652.864018457116
FINAL SINGLE POINT ENERGY      -652.864030083083
FINAL SINGLE POINT ENERGY      -652.864031696676
                    ***********************HURRAY********************

CARTESIAN COORDINATES (ANGSTROEM)
---------------------------------
  C    -20.955783   26.252134   46.335643
  C    -20.317392   27.631457   46.167664
  C    -20.373003   28.186389   47.611210
  C    -20.142765   26.925445   48.474703
  O    -20.425014   25.769066   47.590671
  H    -20.717936   25.493061   45.592659
  H    -19.279159   27.509917   45.836663
  H    -20.848487   28.257618   45.447695
  H    -19.621160   28.959801   47.794477
  H    -21.363319   28.609742   47.802943
  H    -20.803897   26.876625   49.343780
  H    -19.104755   26.821777   48.805352
  C    -23.224125   25.300053   46.076019
  H    -22.842442   24.415943   46.604035
  H    -24.216883   25.531443   46.475125
  O    -22.396713   26.447050   46.428430
  C    -23.367159   24.950888   44.588706
  C    -24.047847   25.987069   43.679642
  C    -22.842718   26.858202   43.239151
  C    -21.686901   25.834108   43.129781
  O    -22.111943   24.634312   43.898296
  H    -23.958195   24.025731   44.567236
  O    -24.702344   25.339856   42.553166
  H    -24.831059   26.557976   44.178511
  H    -23.049988   27.369746   42.295739
  H    -22.636789   27.601089   44.014867
  H    -20.743861   26.208251   43.536688
  H    -21.511505   25.502813   42.101545
  H    -24.091857   24.681438   42.158600

 Multiplicity           Mult            ....    1
 Number of Electrons    NEL             ....  102
 Basis Dimension        Dim             ....  149

ORBITAL ENERGIES
----------------

  NO   OCC          E(Eh)            E(eV)
   0   2.0000     -19.152237      -521.1589
   1   2.0000     -19.144983      -520.9615
   2   2.0000     -19.140172      -520.8305
   3   2.0000     -19.135749      -520.7102
   4   2.0000     -10.273454      -279.5549
   5   2.0000     -10.242743      -278.7192
   6   2.0000     -10.238556      -278.6053
   7   2.0000     -10.235570      -278.5240
   8   2.0000     -10.232503      -278.4406
   9   2.0000     -10.222281      -278.1624
  10   2.0000     -10.188177      -277.2344
  11   2.0000     -10.186533      -277.1896
  12   2.0000     -10.184551      -277.1357
  13   2.0000      -1.051976       -28.6257
  14   2.0000      -1.039376       -28.2829
  15   2.0000      -1.009647       -27.4739
  16   2.0000      -0.991469       -26.9792
  17   2.0000      -0.789428       -21.4814
  18   2.0000      -0.781197       -21.2575
  19   2.0000      -0.770402       -20.9637
  20   2.0000      -0.730746       -19.8846
  21   2.0000      -0.678245       -18.4560
  22   2.0000      -0.606374       -16.5003
  23   2.0000      -0.603692       -16.4273
  24   2.0000      -0.596980       -16.2447
  25   2.0000      -0.575260       -15.6536
  26   2.0000      -0.526714       -14.3326
  27   2.0000      -0.508563       -13.8387
  28   2.0000      -0.503196       -13.6926
  29   2.0000      -0.484519       -13.1844
  30   2.0000      -0.470822       -12.8117
  31   2.0000      -0.461055       -12.5459
  32   2.0000      -0.449407       -12.2290
  33   2.0000      -0.441753       -12.0207
  34   2.0000      -0.423201       -11.5159
  35   2.0000      -0.414503       -11.2792
  36   2.0000      -0.400679       -10.9030
  37   2.0000      -0.395089       -10.7509
  38   2.0000      -0.378953       -10.3118
  39   2.0000      -0.371012       -10.0958
  40   2.0000      -0.362600        -9.8669
  41   2.0000      -0.354943        -9.6585
  42   2.0000      -0.346205        -9.4207
  43   2.0000      -0.336023        -9.1436
  44   2.0000      -0.323437        -8.8012
  45   2.0000      -0.311039        -8.4638
  46   2.0000      -0.306098        -8.3293
  47   2.0000      -0.277046        -7.5388
  48   2.0000      -0.270715        -7.3665
  49   2.0000      -0.251733        -6.8500
  50   2.0000      -0.242221        -6.5912
  51   0.0000       0.059562         1.6208
  52   0.0000       0.082910         2.2561
  53   0.0000       0.084871         2.3095
  54   0.0000       0.100705         2.7403
  55   0.0000       0.104194         2.8353

MULLIKEN ATOMIC CHARGES
-----------------------
   0 C :    0.266915
   1 C :   -0.267241
   2 C :   -0.301114
   3 C :   -0.000103
   4 O :   -0.511605
   5 H :    0.181402
   6 H :    0.145224
   7 H :    0.149350
   8 H :    0.140296
   9 H :    0.163304
  10 H :    0.148220
  11 H :    0.140086
  12 C :   -0.026970
  13 H :    0.159757
  14 H :    0.150624
  15 O :   -0.521494
  16 C :    0.067808
  17 C :    0.082499
  18 C :   -0.294704
  19 C :   -0.035180
  20 O :   -0.525627
  21 H :    0.158954
  22 O :   -0.602625
  23 H :    0.157415
  24 H :    0.157028
  25 H :    0.167382
  26 H :    0.139455
  27 H :    0.147691
  28 H :    0.363253
Sum of atomic charges:   -0.0000000

LOEWDIN ATOMIC CHARGES
----------------------
   0 C :    0.164044
   1 C :   -0.219414
   2 C :   -0.215980
   3 C :   -0.027070
   4 O :   -0.322963
   5 H :    0.116382
   6 H :    0.113648
   7 H :    0.116451
   8 H :    0.112934
   9 H :    0.119516
  10 H :    0.105936
  11 H :    0.101469
  12 C :   -0.042442
  13 H :    0.111421
  14 H :    0.117445
  15 O :   -0.333989
  16 C :    0.002230
  17 C :    0.038858
  18 C :   -0.240968
  19 C :   -0.038844
  20 O :   -0.331639
  21 H :    0.117810
  22 O :   -0.415527
  23 H :    0.118736
  24 H :    0.123775
  25 H :    0.123365
  26 H :    0.099697
  27 H :    0.102899
  28 H :    0.282220

  Mayer bond orders larger than 0.100000
B(  0-C ,  1-C ) :   0.9426 B(  0-C ,  4-O ) :   0.9030 B(  0-C ,  5-H ) :   0.8976
B(  0-C , 15-O ) :   0.8356 B(  1-C ,  2-C ) :   0.9539 B(  1-C ,  6-H ) :   0.9396
B(  1-C ,  7-H ) :   0.9335 B(  2-C ,  3-C ) :   0.9552 B(  2-C ,  8-H ) :   0.9454
B(  2-C ,  9-H ) :   0.9437 B(  3-C ,  4-O ) :   0.8402 B(  3-C , 10-H ) :   0.9354
B(  3-C , 11-H ) :   0.9403 B( 12-C , 13-H ) :   0.9180 B( 12-C , 14-H ) :   0.9304
B( 12-C , 15-O ) :   0.8745 B( 12-C , 16-C ) :   0.8881 B( 16-C , 17-C ) :   0.9058
B( 16-C , 20-O ) :   0.8537 B( 16-C , 21-H ) :   0.9156 B( 17-C , 18-C ) :   0.9204
B( 17-C , 22-O ) :   0.8915 B( 17-C , 23-H ) :   0.9353 B( 18-C , 19-C ) :   0.9431
B( 18-C , 24-H ) :   0.9364 B( 18-C , 25-H ) :   0.9196 B( 19-C , 20-O ) :   0.8367
B( 19-C , 26-H ) :   0.9266 B( 19-C , 27-H ) :   0.9397 B( 22-O , 28-H ) :   0.7961

FINAL SINGLE POINT ENERGY      -652.864031037237

DIPOLE MOMENT
-------------
                                X             Y             Z
Electronic contribution:     -2.64460      -4.93451      -0.99176
Nuclear contribution   :      3.10880       5.73864       0.88816
                        -----------------------------------------
Total Dipole Moment    :      0.46420       0.80414      -0.10360
                        -----------------------------------------
Magnitude (a.u.)       :      0.93426
Magnitude (Debye)      :      2.37471

Rotational constants in cm-1:     0.061490     0.014447     0.013786
Rotational constants in MHz :  1843.412920   433.115801   413.289918

                             ****ORCA TERMINATED NORMALLY****
TOTAL RUN TIME: 0 days 0 hours 57 minutes 43 seconds 497 msec
