                         Program Version 4.2.0 -  RELEASE  -
|  1> # Test redundant internal optimization
|  2> #
|  3> ! RKS B3LYP  Opt TightSCF SmallPrint
|  4>
|  5> %basis
|  6>         Basis "6-31G"
|  7> end
|  8>
|  9> %geom
| 10> Constraints
| 11> { D 4  0  15  12  165.0   C } # D for Dihedral angle
| 12> { D 0  15  12  16  165.0   C } # D for Dihedral angle
| 13> { D 0  4  3  2   C } # D for Dihedral angle
| 14> { D 4  3  2  1   C } # D for Dihedral angle
| 15> { D 3  2  1  0   C } # D for Dihedral angle
| 16> { D 2  1  0  4   C } # D for Dihedral angle
| 17> { D 1  0  4  3   C } # D for Dihedral angle
| 18> { D 16  20  19  18   C } # D for Dihedral angle
| 19> { D 20  19  18  17   C } # D for Dihedral angle
| 20> { D 19  18  17  16   C } # D for Dihedral angle
| 21> { D 18  17  16  20   C } # D for Dihedral angle
| 22> { D 17  16  20  19   C } # D for Dihedral angle
| 23> { D 15  12  16  20   C } # D for Dihedral angle
| 24> end
| 25> end
| 26>
| 27>
| 28> #%pal
| 29> #nprocs 8
| 30> #end
| 31>
| 32> * xyz 0 1
| 33> C  -21.048   26.222   46.251
| 34> C  -20.361   27.558   45.944
| 35> C  -20.329   28.222   47.341
| 36> C  -20.110   27.022   48.296
| 37> O  -20.473   25.807   47.535
| 38> H  -20.833   25.428   45.533
| 39> H  -19.344   27.382   45.576
| 40> H  -20.898   28.157   45.201
| 41> H  -19.543   28.978   47.434
| 42> H  -21.289   28.710   47.548
| 43> H  -20.733   27.082   49.195
| 44> H  -19.064   26.913   48.597
| 45> C  -23.260   27.170   45.210
| 46> H  -23.035   28.239   45.310
| 47> H  -22.870   26.826   44.244
| 48> O  -22.586   26.394   46.375
| 49> C  -24.804   26.996   45.187
| 50> C  -25.196   25.515   45.139
| 51> C  -25.018   25.096   46.618
| 52> C  -25.447   26.364   47.397
| 53> O  -25.394   27.487   46.436
| 54> H  -25.219   27.600   44.378
| 55> H  -26.243   25.414   44.833
| 56> O  -24.318   24.681   44.167
| 57> H  -25.615   24.219   46.887
| 58> H  -23.966   24.858   46.818
| 59> H  -24.785   26.583   48.242
| 60> H  -26.477   26.301   47.762
| 61> H  -23.265   24.768   44.456
| 62> *
| 63>
| 64>                          ****END OF INPUT****
 Total Charge           Charge          ....    0
 Multiplicity           Mult            ....    1
 Number of Electrons    NEL             ....  102
FINAL SINGLE POINT ENERGY      -652.829482249106
FINAL SINGLE POINT ENERGY      -652.852748324877
FINAL SINGLE POINT ENERGY      -652.857534102908
FINAL SINGLE POINT ENERGY      -652.859303575712
FINAL SINGLE POINT ENERGY      -652.859513412855
FINAL SINGLE POINT ENERGY      -652.859550724905
                    ***********************HURRAY********************

CARTESIAN COORDINATES (ANGSTROEM)
---------------------------------
  C    -21.060170   26.286436   46.184299
  C    -20.296920   27.582626   45.918185
  C    -20.332199   28.268676   47.307003
  C    -20.235697   27.075280   48.278796
  O    -20.605668   25.876717   47.479555
  H    -20.849826   25.471100   45.484337
  H    -19.268606   27.328563   45.636170
  H    -20.720483   28.199021   45.121702
  H    -19.514087   28.982796   47.439862
  H    -21.279320   28.801328   47.438748
  H    -20.920320   27.151809   49.126607
  H    -19.219406   26.902985   48.644120
  C    -23.170350   27.206238   45.215083
  H    -22.967743   28.280294   45.311512
  H    -22.815117   26.866436   44.230423
  O    -22.507598   26.474772   46.287615
  C    -24.680057   26.992857   45.283753
  C    -25.153742   25.535095   45.152100
  C    -25.037509   25.024785   46.621597
  C    -25.416045   26.275245   47.443907
  O    -25.272640   27.442373   46.534238
  H    -25.117213   27.619328   44.496150
  H    -26.189006   25.514380   44.804652
  O    -24.413654   24.752680   44.181844
  H    -25.701412   24.176773   46.813766
  H    -24.003952   24.733218   46.819524
  H    -24.759784   26.423003   48.305165
  H    -26.458257   26.261560   47.776521
  H    -23.556219   24.485625   44.572766

 Multiplicity           Mult            ....    1
 Number of Electrons    NEL             ....  102
 Basis Dimension        Dim             ....  149

ORBITAL ENERGIES
----------------

  NO   OCC          E(Eh)            E(eV)
   0   2.0000     -19.148184      -521.0486
   1   2.0000     -19.146839      -521.0120
   2   2.0000     -19.139342      -520.8080
   3   2.0000     -19.130885      -520.5778
   4   2.0000     -10.287947      -279.9493
   5   2.0000     -10.234515      -278.4953
   6   2.0000     -10.232898      -278.4513
   7   2.0000     -10.230433      -278.3842
   8   2.0000     -10.229435      -278.3571
   9   2.0000     -10.217435      -278.0305
  10   2.0000     -10.194840      -277.4157
  11   2.0000     -10.192823      -277.3608
  12   2.0000     -10.175093      -276.8784
  13   2.0000      -1.059996       -28.8440
  14   2.0000      -1.025805       -27.9136
  15   2.0000      -1.008269       -27.4364
  16   2.0000      -0.997023       -27.1304
  17   2.0000      -0.792899       -21.5759
  18   2.0000      -0.772439       -21.0191
  19   2.0000      -0.763383       -20.7727
  20   2.0000      -0.735630       -20.0175
  21   2.0000      -0.679144       -18.4804
  22   2.0000      -0.607720       -16.5369
  23   2.0000      -0.599558       -16.3148
  24   2.0000      -0.597530       -16.2596
  25   2.0000      -0.563981       -15.3467
  26   2.0000      -0.530919       -14.4470
  27   2.0000      -0.506249       -13.7757
  28   2.0000      -0.504244       -13.7212
  29   2.0000      -0.488697       -13.2981
  30   2.0000      -0.473448       -12.8832
  31   2.0000      -0.457986       -12.4624
  32   2.0000      -0.448844       -12.2137
  33   2.0000      -0.425651       -11.5825
  34   2.0000      -0.422041       -11.4843
  35   2.0000      -0.415347       -11.3022
  36   2.0000      -0.402788       -10.9604
  37   2.0000      -0.398991       -10.8571
  38   2.0000      -0.384747       -10.4695
  39   2.0000      -0.367365        -9.9965
  40   2.0000      -0.362836        -9.8733
  41   2.0000      -0.357968        -9.7408
  42   2.0000      -0.349804        -9.5187
  43   2.0000      -0.325222        -8.8497
  44   2.0000      -0.315547        -8.5865
  45   2.0000      -0.307360        -8.3637
  46   2.0000      -0.305435        -8.3113
  47   2.0000      -0.268504        -7.3064
  48   2.0000      -0.260559        -7.0902
  49   2.0000      -0.259614        -7.0644
  50   2.0000      -0.236548        -6.4368
  51   0.0000       0.057172         1.5557
  52   0.0000       0.081988         2.2310
  53   0.0000       0.091842         2.4992
  54   0.0000       0.097516         2.6536
  55   0.0000       0.107429         2.9233

MULLIKEN ATOMIC CHARGES
-----------------------
   0 C :    0.311004
   1 C :   -0.289957
   2 C :   -0.300955
   3 C :   -0.001297
   4 O :   -0.502526
   5 H :    0.138957
   6 H :    0.152314
   7 H :    0.147437
   8 H :    0.146192
   9 H :    0.165833
  10 H :    0.156470
  11 H :    0.144708
  12 C :   -0.019349
  13 H :    0.146061
  14 H :    0.130272
  15 O :   -0.526541
  16 C :    0.089606
  17 C :    0.084948
  18 C :   -0.314641
  19 C :   -0.000228
  20 O :   -0.523108
  21 H :    0.147739
  22 H :    0.160274
  23 O :   -0.608570
  24 H :    0.141417
  25 H :    0.174182
  26 H :    0.151541
  27 H :    0.137828
  28 H :    0.360387
Sum of atomic charges:   -0.0000000

LOEWDIN ATOMIC CHARGES
----------------------
   0 C :    0.180385
   1 C :   -0.232850
   2 C :   -0.216649
   3 C :   -0.024360
   4 O :   -0.304959
   5 H :    0.094886
   6 H :    0.118874
   7 H :    0.116227
   8 H :    0.116517
   9 H :    0.119774
  10 H :    0.110740
  11 H :    0.104178
  12 C :   -0.051258
  13 H :    0.102169
  14 H :    0.096772
  15 O :   -0.340846
  16 C :    0.020210
  17 C :    0.037834
  18 C :   -0.242943
  19 C :   -0.023068
  20 O :   -0.324140
  21 H :    0.113121
  22 H :    0.114993
  23 O :   -0.413001
  24 H :    0.113702
  25 H :    0.126179
  26 H :    0.107903
  27 H :    0.099557
  28 H :    0.280054

  Mayer bond orders larger than 0.100000
B(  0-C ,  1-C ) :   0.9316 B(  0-C ,  4-O ) :   0.9426 B(  0-C ,  5-H ) :   0.9216
B(  0-C , 15-O ) :   0.8273 B(  1-C ,  2-C ) :   0.9507 B(  1-C ,  6-H ) :   0.9336
B(  1-C ,  7-H ) :   0.9281 B(  2-C ,  3-C ) :   0.9556 B(  2-C ,  8-H ) :   0.9448
B(  2-C ,  9-H ) :   0.9427 B(  3-C ,  4-O ) :   0.8306 B(  3-C , 10-H ) :   0.9344
B(  3-C , 11-H ) :   0.9397 B( 12-C , 13-H ) :   0.9149 B( 12-C , 14-H ) :   0.9023
B( 12-C , 15-O ) :   0.8323 B( 12-C , 16-C ) :   0.9119 B( 16-C , 17-C ) :   0.8853
B( 16-C , 20-O ) :   0.8841 B( 16-C , 21-H ) :   0.9282 B( 17-C , 18-C ) :   0.9357
B( 17-C , 22-H ) :   0.9362 B( 17-C , 23-O ) :   0.8956 B( 18-C , 19-C ) :   0.9476
B( 18-C , 24-H ) :   0.9412 B( 18-C , 25-H ) :   0.9229 B( 19-C , 20-O ) :   0.8343
B( 19-C , 26-H ) :   0.9322 B( 19-C , 27-H ) :   0.9383 B( 23-O , 28-H ) :   0.7955

FINAL SINGLE POINT ENERGY      -652.859551885276

DIPOLE MOMENT
-------------
                                X             Y             Z
Electronic contribution:     -2.51709      -2.37598      -1.24206
Nuclear contribution   :      3.45225       2.90246       1.27767
                        -----------------------------------------
Total Dipole Moment    :      0.93516       0.52647       0.03561
                        -----------------------------------------
Magnitude (a.u.)       :      1.07377
Magnitude (Debye)      :      2.72929

Rotational constants in cm-1:     0.047517     0.015565     0.014801
Rotational constants in MHz :  1424.529234   466.622006   443.712913

                             ****ORCA TERMINATED NORMALLY****
TOTAL RUN TIME: 0 days 0 hours 27 minutes 23 seconds 859 msec
