                         Program Version 4.2.0 -  RELEASE  -
|  1> # Test redundant internal optimization
|  2> #
|  3> ! RKS B3LYP  Opt TightSCF SmallPrint
|  4>
|  5> %basis
|  6>         Basis "6-31G"
|  7> end
|  8>
|  9> %geom
| 10> Constraints
| 11> { D 4  0  15  12  15.0   C } # D for Dihedral angle
| 12> { D 0  15  12  16  225.0   C } # D for Dihedral angle
| 13> { D 0  4  3  2   C } # D for Dihedral angle
| 14> { D 4  3  2  1   C } # D for Dihedral angle
| 15> { D 3  2  1  0   C } # D for Dihedral angle
| 16> { D 2  1  0  4   C } # D for Dihedral angle
| 17> { D 1  0  4  3   C } # D for Dihedral angle
| 18> { D 16  20  19  18   C } # D for Dihedral angle
| 19> { D 20  19  18  17   C } # D for Dihedral angle
| 20> { D 19  18  17  16   C } # D for Dihedral angle
| 21> { D 18  17  16  20   C } # D for Dihedral angle
| 22> { D 17  16  20  19   C } # D for Dihedral angle
| 23> { D 15  12  16  20   C } # D for Dihedral angle
| 24> end
| 25> end
| 26>
| 27>
| 28> #%pal
| 29> #nprocs 8
| 30> #end
| 31>
| 32> * xyz 0 1
| 33> C  -21.048   26.222   46.251
| 34> C  -20.361   27.558   45.944
| 35> C  -20.329   28.222   47.341
| 36> C  -20.110   27.022   48.296
| 37> O  -20.473   25.807   47.535
| 38> H  -20.833   25.428   45.533
| 39> H  -19.344   27.382   45.576
| 40> H  -20.898   28.157   45.201
| 41> H  -19.543   28.978   47.434
| 42> H  -21.289   28.710   47.548
| 43> H  -20.733   27.082   49.195
| 44> H  -19.064   26.913   48.597
| 45> C  -23.128   26.462   47.829
| 46> H  -22.350   26.118   48.522
| 47> H  -23.390   27.495   48.093
| 48> O  -22.586   26.394   46.375
| 49> C  -24.393   25.585   48.041
| 50> C  -24.074   24.096   47.857
| 51> C  -23.416   23.747   49.214
| 52> C  -24.197   24.629   50.220
| 53> O  -24.860   25.686   49.427
| 54> H  -25.197   25.957   47.404
| 55> O  -25.388   23.291   47.661
| 56> H  -23.418   23.898   47.003
| 57> H  -23.481   22.682   49.455
| 58> H  -22.355   24.023   49.199
| 59> H  -23.542   25.097   50.963
| 60> H  -24.982   24.074   50.740
| 61> H  -26.062   23.474   48.507
| 62> *
| 63>
| 64>                          ****END OF INPUT****
 Total Charge           Charge          ....    0
 Multiplicity           Mult            ....    1
 Number of Electrons    NEL             ....  102
FINAL SINGLE POINT ENERGY      -652.834291847833
FINAL SINGLE POINT ENERGY      -652.856978884371
FINAL SINGLE POINT ENERGY      -652.860738432910
FINAL SINGLE POINT ENERGY      -652.861996410241
FINAL SINGLE POINT ENERGY      -652.862112912957
FINAL SINGLE POINT ENERGY      -652.862134420259
                    ***********************HURRAY********************

CARTESIAN COORDINATES (ANGSTROEM)
---------------------------------
  C    -21.129280   26.228210   46.402615
  C    -20.488766   27.538249   45.937558
  C    -20.254256   28.272073   47.281493
  C    -19.906677   27.121463   48.252588
  O    -20.390769   25.875033   47.592043
  H    -21.012944   25.398571   45.703138
  H    -19.537628   27.318223   45.438968
  H    -21.135087   28.087330   45.249850
  H    -19.454223   29.016147   47.221991
  H    -21.169131   28.786448   47.594544
  H    -20.390106   27.215088   49.228721
  H    -18.829745   26.995534   48.394703
  C    -23.123951   26.471163   47.940522
  H    -22.378457   26.176612   48.682726
  H    -23.435565   27.504336   48.133852
  O    -22.568831   26.362949   46.597657
  C    -24.342242   25.551147   48.036298
  C    -24.035448   24.055947   47.864775
  C    -23.480894   23.689656   49.264444
  C    -24.314380   24.577849   50.220943
  O    -24.905902   25.655478   49.388612
  H    -25.116307   25.873985   47.334939
  O    -25.247641   23.313438   47.550600
  H    -23.344966   23.850834   47.049247
  H    -23.602741   22.621360   49.461575
  H    -22.413227   23.931170   49.317920
  H    -23.712268   25.031363   51.014676
  H    -25.145838   24.035554   50.681430
  H    -25.976731   23.633791   48.122572

 Multiplicity           Mult            ....    1
 Number of Electrons    NEL             ....  102
 Basis Dimension        Dim             ....  149

ORBITAL ENERGIES
----------------

  NO   OCC          E(Eh)            E(eV)
   0   2.0000     -19.158036      -521.3167
   1   2.0000     -19.142026      -520.8810
   2   2.0000     -19.141222      -520.8591
   3   2.0000     -19.130025      -520.5544
   4   2.0000     -10.284257      -279.8489
   5   2.0000     -10.238698      -278.6091
   6   2.0000     -10.230656      -278.3903
   7   2.0000     -10.228001      -278.3181
   8   2.0000     -10.227401      -278.3017
   9   2.0000     -10.226744      -278.2839
  10   2.0000     -10.196580      -277.4631
  11   2.0000     -10.189796      -277.2784
  12   2.0000     -10.181781      -277.0604
  13   2.0000      -1.059957       -28.8429
  14   2.0000      -1.031654       -28.0727
  15   2.0000      -1.000050       -27.2127
  16   2.0000      -0.996173       -27.1072
  17   2.0000      -0.795424       -21.6446
  18   2.0000      -0.776516       -21.1301
  19   2.0000      -0.766663       -20.8620
  20   2.0000      -0.735013       -20.0007
  21   2.0000      -0.673365       -18.3232
  22   2.0000      -0.609124       -16.5751
  23   2.0000      -0.598668       -16.2906
  24   2.0000      -0.594995       -16.1906
  25   2.0000      -0.575333       -15.6556
  26   2.0000      -0.522060       -14.2060
  27   2.0000      -0.515366       -14.0238
  28   2.0000      -0.505043       -13.7429
  29   2.0000      -0.487459       -13.2644
  30   2.0000      -0.473324       -12.8798
  31   2.0000      -0.459681       -12.5085
  32   2.0000      -0.451584       -12.2882
  33   2.0000      -0.434562       -11.8250
  34   2.0000      -0.420681       -11.4473
  35   2.0000      -0.413157       -11.2426
  36   2.0000      -0.406991       -11.0748
  37   2.0000      -0.387576       -10.5465
  38   2.0000      -0.380036       -10.3413
  39   2.0000      -0.366163        -9.9638
  40   2.0000      -0.362810        -9.8726
  41   2.0000      -0.357660        -9.7324
  42   2.0000      -0.353756        -9.6262
  43   2.0000      -0.333074        -9.0634
  44   2.0000      -0.326262        -8.8780
  45   2.0000      -0.311456        -8.4751
  46   2.0000      -0.301871        -8.2143
  47   2.0000      -0.273698        -7.4477
  48   2.0000      -0.265963        -7.2372
  49   2.0000      -0.256736        -6.9861
  50   2.0000      -0.237967        -6.4754
  51   0.0000       0.068538         1.8650
  52   0.0000       0.069332         1.8866
  53   0.0000       0.093412         2.5419
  54   0.0000       0.095274         2.5925
  55   0.0000       0.103109         2.8057

MULLIKEN ATOMIC CHARGES
-----------------------
   0 C :    0.299109
   1 C :   -0.255711
   2 C :   -0.312660
   3 C :   -0.022472
   4 O :   -0.514667
   5 H :    0.162059
   6 H :    0.146273
   7 H :    0.162166
   8 H :    0.150628
   9 H :    0.157965
  10 H :    0.146007
  11 H :    0.154920
  12 C :   -0.013426
  13 H :    0.154653
  14 H :    0.142253
  15 O :   -0.539783
  16 C :    0.053591
  17 C :    0.098250
  18 C :   -0.317283
  19 C :   -0.024640
  20 O :   -0.528832
  21 H :    0.165273
  22 O :   -0.605265
  23 H :    0.170029
  24 H :    0.161466
  25 H :    0.163748
  26 H :    0.141056
  27 H :    0.144050
  28 H :    0.361241
Sum of atomic charges:   -0.0000000

LOEWDIN ATOMIC CHARGES
----------------------
   0 C :    0.181765
   1 C :   -0.222799
   2 C :   -0.220674
   3 C :   -0.034041
   4 O :   -0.320914
   5 H :    0.108882
   6 H :    0.115039
   7 H :    0.126293
   8 H :    0.119189
   9 H :    0.115285
  10 H :    0.102576
  11 H :    0.108865
  12 C :   -0.043839
  13 H :    0.107447
  14 H :    0.102106
  15 O :   -0.340471
  16 C :    0.015206
  17 C :    0.039954
  18 C :   -0.246393
  19 C :   -0.037529
  20 O :   -0.332915
  21 H :    0.117321
  22 O :   -0.416236
  23 H :    0.124629
  24 H :    0.126044
  25 H :    0.121412
  26 H :    0.101466
  27 H :    0.101783
  28 H :    0.280549

  Mayer bond orders larger than 0.100000
B(  0-C ,  1-C ) :   0.9244 B(  0-C ,  4-O ) :   0.9095 B(  0-C ,  5-H ) :   0.9312
B(  0-C , 15-O ) :   0.8525 B(  1-C ,  2-C ) :   0.9531 B(  1-C ,  6-H ) :   0.9345
B(  1-C ,  7-H ) :   0.9361 B(  2-C ,  3-C ) :   0.9517 B(  2-C ,  8-H ) :   0.9444
B(  2-C ,  9-H ) :   0.9442 B(  3-C ,  4-O ) :   0.8276 B(  3-C , 10-H ) :   0.9319
B(  3-C , 11-H ) :   0.9403 B( 12-C , 13-H ) :   0.9071 B( 12-C , 14-H ) :   0.9229
B( 12-C , 15-O ) :   0.8261 B( 12-C , 16-C ) :   0.8993 B( 16-C , 17-C ) :   0.9131
B( 16-C , 20-O ) :   0.8423 B( 16-C , 21-H ) :   0.9267 B( 17-C , 18-C ) :   0.9124
B( 17-C , 22-O ) :   0.8873 B( 17-C , 23-H ) :   0.9259 B( 18-C , 19-C ) :   0.9416
B( 18-C , 24-H ) :   0.9380 B( 18-C , 25-H ) :   0.9289 B( 19-C , 20-O ) :   0.8428
B( 19-C , 26-H ) :   0.9364 B( 19-C , 27-H ) :   0.9388 B( 22-O , 28-H ) :   0.7967

FINAL SINGLE POINT ENERGY      -652.862137079655

DIPOLE MOMENT
-------------
                                X             Y             Z
Electronic contribution:     -4.32429      -2.72463      -1.87074
Nuclear contribution   :      5.44052       3.56279       2.41201
                        -----------------------------------------
Total Dipole Moment    :      1.11623       0.83816       0.54127
                        -----------------------------------------
Magnitude (a.u.)       :      1.49715
Magnitude (Debye)      :      3.80546

Rotational constants in cm-1:     0.054348     0.014134     0.013469
Rotational constants in MHz :  1629.301193   423.731706   403.781070

                             ****ORCA TERMINATED NORMALLY****
TOTAL RUN TIME: 0 days 0 hours 15 minutes 2 seconds 496 msec
