                         Program Version 4.2.0 -  RELEASE  -
|  1> # Test redundant internal optimization
|  2> #
|  3> ! RKS B3LYP  Opt TightSCF SmallPrint
|  4>
|  5> %basis
|  6>         Basis "6-31G"
|  7> end
|  8>
|  9> %geom
| 10> Constraints
| 11> { D 4  0  15  12  180.0   C } # D for Dihedral angle
| 12> { D 0  15  12  16  90.0   C } # D for Dihedral angle
| 13> { D 0  4  3  2   C } # D for Dihedral angle
| 14> { D 4  3  2  1   C } # D for Dihedral angle
| 15> { D 3  2  1  0   C } # D for Dihedral angle
| 16> { D 2  1  0  4   C } # D for Dihedral angle
| 17> { D 1  0  4  3   C } # D for Dihedral angle
| 18> { D 16  20  19  18   C } # D for Dihedral angle
| 19> { D 20  19  18  17   C } # D for Dihedral angle
| 20> { D 19  18  17  16   C } # D for Dihedral angle
| 21> { D 18  17  16  20   C } # D for Dihedral angle
| 22> { D 17  16  20  19   C } # D for Dihedral angle
| 23> { D 15  12  16  20   C } # D for Dihedral angle
| 24> end
| 25> end
| 26>
| 27>
| 28> #%pal
| 29> #nprocs 8
| 30> #end
| 31>
| 32> * xyz 0 1
| 33> C  -21.048   26.222   46.251
| 34> C  -20.361   27.558   45.944
| 35> C  -20.329   28.222   47.341
| 36> C  -20.110   27.022   48.296
| 37> O  -20.473   25.807   47.535
| 38> H  -20.833   25.428   45.533
| 39> H  -19.344   27.382   45.576
| 40> H  -20.898   28.157   45.201
| 41> H  -19.543   28.978   47.434
| 42> H  -21.289   28.710   47.548
| 43> H  -20.733   27.082   49.195
| 44> H  -19.064   26.913   48.597
| 45> C  -23.309   26.834   45.072
| 46> H  -24.192   27.431   45.332
| 47> H  -22.645   27.453   44.455
| 48> O  -22.586   26.394   46.375
| 49> C  -23.771   25.629   44.206
| 50> C  -22.599   24.697   43.878
| 51> C  -22.459   23.894   45.194
| 52> C  -23.924   23.756   45.679
| 53> O  -24.705   24.785   44.958
| 54> H  -24.309   26.002   43.333
| 55> H  -22.867   24.034   43.049
| 56> O  -21.300   25.458   43.498
| 57> H  -21.974   22.924   45.051
| 58> H  -21.865   24.462   45.920
| 59> H  -24.027   23.917   46.757
| 60> H  -24.359   22.785   45.423
| 61> H  -21.013   26.129   44.315
| 62> *
| 63>
| 64>                          ****END OF INPUT****
 Total Charge           Charge          ....    0
 Multiplicity           Mult            ....    1
 Number of Electrons    NEL             ....  102
FINAL SINGLE POINT ENERGY      -652.790226906183
FINAL SINGLE POINT ENERGY      -652.829854760030
FINAL SINGLE POINT ENERGY      -652.845863272699
FINAL SINGLE POINT ENERGY      -652.848774263358
FINAL SINGLE POINT ENERGY      -652.849347222218
FINAL SINGLE POINT ENERGY      -652.849488515813
FINAL SINGLE POINT ENERGY      -652.849514233451
FINAL SINGLE POINT ENERGY      -652.849533666975
FINAL SINGLE POINT ENERGY      -652.849538878346
FINAL SINGLE POINT ENERGY      -652.849543806907
FINAL SINGLE POINT ENERGY      -652.849535584015
FINAL SINGLE POINT ENERGY      -652.849532325390
                    ***********************HURRAY********************

CARTESIAN COORDINATES (ANGSTROEM)
---------------------------------
  C    -20.961429   26.343203   46.402196
  C    -20.229150   27.635429   46.043250
  C    -20.315575   28.433831   47.368857
  C    -20.207453   27.329222   48.439504
  O    -20.524959   26.056730   47.736970
  H    -20.690407   25.476509   45.794588
  H    -19.186221   27.399067   45.800025
  H    -20.661409   28.172155   45.194839
  H    -19.521678   29.181567   47.456719
  H    -21.281065   28.943212   47.433895
  H    -20.914145   27.454355   49.263063
  H    -19.195363   27.218500   48.839217
  C    -23.156043   26.828127   45.247091
  H    -24.021380   27.384984   45.614933
  H    -22.578622   27.489147   44.584486
  O    -22.404370   26.521265   46.461323
  C    -23.708542   25.668400   44.405573
  C    -22.756296   24.655836   43.744376
  C    -22.551988   23.607057   44.886102
  C    -23.938168   23.593333   45.571458
  O    -24.633986   24.833290   45.155648
  H    -24.310327   26.163225   43.630513
  H    -23.279973   24.191042   42.906092
  O    -21.558641   25.215916   43.154662
  H    -22.270082   22.626843   44.491114
  H    -21.775227   23.926657   45.583812
  H    -23.865192   23.581235   46.662476
  H    -24.556909   22.753628   45.240243
  H    -20.874400   25.381237   43.832974

 Multiplicity           Mult            ....    1
 Number of Electrons    NEL             ....  102
 Basis Dimension        Dim             ....  149

ORBITAL ENERGIES
----------------

  NO   OCC          E(Eh)            E(eV)
   0   2.0000     -19.150243      -521.1046
   1   2.0000     -19.147135      -521.0200
   2   2.0000     -19.146863      -521.0126
   3   2.0000     -19.134411      -520.6738
   4   2.0000     -10.289876      -280.0018
   5   2.0000     -10.244533      -278.7679
   6   2.0000     -10.232446      -278.4390
   7   2.0000     -10.231833      -278.4223
   8   2.0000     -10.230258      -278.3795
   9   2.0000     -10.224077      -278.2113
  10   2.0000     -10.195584      -277.4359
  11   2.0000     -10.192673      -277.3567
  12   2.0000     -10.188935      -277.2550
  13   2.0000      -1.059604       -28.8333
  14   2.0000      -1.032866       -28.1057
  15   2.0000      -1.015483       -27.6327
  16   2.0000      -0.996546       -27.1174
  17   2.0000      -0.793208       -21.5843
  18   2.0000      -0.776638       -21.1334
  19   2.0000      -0.770741       -20.9729
  20   2.0000      -0.738844       -20.1050
  21   2.0000      -0.684113       -18.6157
  22   2.0000      -0.615346       -16.7444
  23   2.0000      -0.607157       -16.5216
  24   2.0000      -0.602039       -16.3823
  25   2.0000      -0.565735       -15.3944
  26   2.0000      -0.530581       -14.4378
  27   2.0000      -0.513658       -13.9774
  28   2.0000      -0.505044       -13.7429
  29   2.0000      -0.497949       -13.5499
  30   2.0000      -0.471422       -12.8281
  31   2.0000      -0.460473       -12.5301
  32   2.0000      -0.441124       -12.0036
  33   2.0000      -0.436683       -11.8828
  34   2.0000      -0.431797       -11.7498
  35   2.0000      -0.418063       -11.3761
  36   2.0000      -0.410042       -11.1578
  37   2.0000      -0.402497       -10.9525
  38   2.0000      -0.386540       -10.5183
  39   2.0000      -0.369880       -10.0649
  40   2.0000      -0.363492        -9.8911
  41   2.0000      -0.361369        -9.8333
  42   2.0000      -0.351834        -9.5739
  43   2.0000      -0.325589        -8.8597
  44   2.0000      -0.319344        -8.6898
  45   2.0000      -0.314881        -8.5683
  46   2.0000      -0.304524        -8.2865
  47   2.0000      -0.271295        -7.3823
  48   2.0000      -0.267508        -7.2793
  49   2.0000      -0.263843        -7.1795
  50   2.0000      -0.234941        -6.3931
  51   0.0000       0.043570         1.1856
  52   0.0000       0.073583         2.0023
  53   0.0000       0.086579         2.3559
  54   0.0000       0.093385         2.5411
  55   0.0000       0.105174         2.8619

MULLIKEN ATOMIC CHARGES
-----------------------
   0 C :    0.308134
   1 C :   -0.285902
   2 C :   -0.294434
   3 C :   -0.001560
   4 O :   -0.505680
   5 H :    0.103697
   6 H :    0.148063
   7 H :    0.150539
   8 H :    0.145278
   9 H :    0.162312
  10 H :    0.158762
  11 H :    0.144148
  12 C :   -0.035714
  13 H :    0.173760
  14 H :    0.126398
  15 O :   -0.506763
  16 C :    0.096959
  17 C :    0.079084
  18 C :   -0.330735
  19 C :   -0.008090
  20 O :   -0.516731
  21 H :    0.147108
  22 H :    0.167577
  23 O :   -0.613403
  24 H :    0.149280
  25 H :    0.168900
  26 H :    0.162991
  27 H :    0.143701
  28 H :    0.362320
Sum of atomic charges:   -0.0000000

LOEWDIN ATOMIC CHARGES
----------------------
   0 C :    0.172540
   1 C :   -0.234398
   2 C :   -0.214420
   3 C :   -0.023726
   4 O :   -0.303557
   5 H :    0.076069
   6 H :    0.115686
   7 H :    0.116236
   8 H :    0.116112
   9 H :    0.119001
  10 H :    0.112012
  11 H :    0.103784
  12 C :   -0.049506
  13 H :    0.126609
  14 H :    0.095090
  15 O :   -0.328279
  16 C :    0.008589
  17 C :    0.034432
  18 C :   -0.242633
  19 C :   -0.025148
  20 O :   -0.320936
  21 H :    0.114038
  22 H :    0.119220
  23 O :   -0.410501
  24 H :    0.118416
  25 H :    0.118006
  26 H :    0.112609
  27 H :    0.101823
  28 H :    0.272835

  Mayer bond orders larger than 0.100000
B(  0-C ,  1-C ) :   0.9256 B(  0-C ,  4-O ) :   0.9388 B(  0-C ,  5-H ) :   0.8891
B(  0-C , 15-O ) :   0.8492 B(  1-C ,  2-C ) :   0.9514 B(  1-C ,  6-H ) :   0.9332
B(  1-C ,  7-H ) :   0.9290 B(  2-C ,  3-C ) :   0.9553 B(  2-C ,  8-H ) :   0.9445
B(  2-C ,  9-H ) :   0.9447 B(  3-C ,  4-O ) :   0.8303 B(  3-C , 10-H ) :   0.9342
B(  3-C , 11-H ) :   0.9394 B( 12-C , 13-H ) :   0.9328 B( 12-C , 14-H ) :   0.9014
B( 12-C , 15-O ) :   0.8676 B( 12-C , 16-C ) :   0.8921 B( 16-C , 17-C ) :   0.8857
B( 16-C , 20-O ) :   0.8733 B( 16-C , 21-H ) :   0.9191 B( 17-C , 18-C ) :   0.9329
B( 17-C , 22-H ) :   0.9327 B( 17-C , 23-O ) :   0.8942 B( 18-C , 19-C ) :   0.9415
B( 18-C , 24-H ) :   0.9417 B( 18-C , 25-H ) :   0.9234 B( 19-C , 20-O ) :   0.8411
B( 19-C , 26-H ) :   0.9293 B( 19-C , 27-H ) :   0.9368 B( 23-O , 28-H ) :   0.7810

FINAL SINGLE POINT ENERGY      -652.849533961857

DIPOLE MOMENT
-------------
                                X             Y             Z
Electronic contribution:     -2.94531      -2.22334      -0.60851
Nuclear contribution   :      3.83945       2.79927       0.55963
                        -----------------------------------------
Total Dipole Moment    :      0.89414       0.57592      -0.04888
                        -----------------------------------------
Magnitude (a.u.)       :      1.06469
Magnitude (Debye)      :      2.70623

Rotational constants in cm-1:     0.048525     0.015782     0.014977
Rotational constants in MHz :  1454.730846   473.141703   449.009812

                             ****ORCA TERMINATED NORMALLY****
TOTAL RUN TIME: 0 days 0 hours 30 minutes 12 seconds 537 msec
