                         Program Version 4.2.0 -  RELEASE  -
|  1> # Test redundant internal optimization
|  2> #
|  3> ! RKS B3LYP  Opt TightSCF SmallPrint
|  4>
|  5> %basis
|  6>         Basis "6-31G"
|  7> end
|  8>
|  9> %geom
| 10> Constraints
| 11> { D 4  0  15  12  270.0   C } # D for Dihedral angle
| 12> { D 0  15  12  16  60.0   C } # D for Dihedral angle
| 13> { D 0  4  3  2   C } # D for Dihedral angle
| 14> { D 4  3  2  1   C } # D for Dihedral angle
| 15> { D 3  2  1  0   C } # D for Dihedral angle
| 16> { D 2  1  0  4   C } # D for Dihedral angle
| 17> { D 1  0  4  3   C } # D for Dihedral angle
| 18> { D 16  20  19  18   C } # D for Dihedral angle
| 19> { D 20  19  18  17   C } # D for Dihedral angle
| 20> { D 19  18  17  16   C } # D for Dihedral angle
| 21> { D 18  17  16  20   C } # D for Dihedral angle
| 22> { D 17  16  20  19   C } # D for Dihedral angle
| 23> { D 15  12  16  20   C } # D for Dihedral angle
| 24> end
| 25> end
| 26>
| 27>
| 28> #%pal
| 29> #nprocs 8
| 30> #end
| 31>
| 32> * xyz 0 1
| 33> C  -21.048   26.222   46.251
| 34> C  -20.361   27.558   45.944
| 35> C  -20.329   28.222   47.341
| 36> C  -20.110   27.022   48.296
| 37> O  -20.473   25.807   47.535
| 38> H  -20.833   25.428   45.533
| 39> H  -19.344   27.382   45.576
| 40> H  -20.898   28.157   45.201
| 41> H  -19.543   28.978   47.434
| 42> H  -21.289   28.710   47.548
| 43> H  -20.733   27.082   49.195
| 44> H  -19.064   26.913   48.597
| 45> C  -23.420   25.119   46.072
| 46> H  -24.487   25.350   46.179
| 47> H  -23.244   24.780   45.043
| 48> O  -22.586   26.394   46.375
| 49> C  -23.078   23.938   47.023
| 50> C  -23.455   24.264   48.473
| 51> C  -24.982   24.017   48.463
| 52> C  -25.139   22.824   47.486
| 53> O  -23.892   22.763   46.694
| 54> H  -22.034   23.654   46.880
| 55> O  -22.746   23.279   49.442
| 56> H  -23.191   25.286   48.767
| 57> H  -25.383   23.797   49.458
| 58> H  -25.504   24.902   48.080
| 59> H  -25.989   22.947   46.808
| 60> H  -25.237   21.868   48.007
| 61> H  -22.995   22.247   49.166
| 62> *
| 63>
| 64>                          ****END OF INPUT****
 Total Charge           Charge          ....    0
 Multiplicity           Mult            ....    1
 Number of Electrons    NEL             ....  102
FINAL SINGLE POINT ENERGY      -652.839794331396
FINAL SINGLE POINT ENERGY      -652.862691677121
FINAL SINGLE POINT ENERGY      -652.866441853814
FINAL SINGLE POINT ENERGY      -652.867168794191
FINAL SINGLE POINT ENERGY      -652.867296998508
FINAL SINGLE POINT ENERGY      -652.867311437548
FINAL SINGLE POINT ENERGY      -652.867314332373
                    ***********************HURRAY********************

CARTESIAN COORDINATES (ANGSTROEM)
---------------------------------
  C    -21.057507   26.133204   46.256069
  C    -20.441583   27.499501   45.951101
  C    -20.464029   28.176133   47.342564
  C    -20.193770   26.998317   48.306355
  O    -20.486404   25.764755   47.532220
  H    -20.804052   25.333943   45.552725
  H    -19.413005   27.361794   45.598537
  H    -21.008849   28.045264   45.194748
  H    -19.717263   28.970192   47.437962
  H    -21.453345   28.605758   47.525367
  H    -20.828406   27.013810   49.195444
  H    -19.145917   26.931322   48.613030
  C    -23.298992   25.119511   46.075012
  H    -24.332677   25.466713   46.145134
  H    -23.126883   24.760517   45.050268
  O    -22.490348   26.306487   46.331239
  C    -23.040294   23.954746   47.041528
  C    -23.395595   24.237614   48.509188
  C    -24.937245   24.073637   48.495231
  C    -25.162636   22.935754   47.469044
  O    -23.918286   22.839682   46.664293
  H    -22.010464   23.600118   46.957142
  O    -22.771374   23.266309   49.393346
  H    -23.057885   25.214527   48.849102
  H    -25.305250   23.824118   49.493201
  H    -25.419375   25.003801   48.175100
  H    -26.005459   23.125817   46.797605
  H    -25.310077   21.962906   47.947758
  H    -22.790028   22.383749   48.966689

 Multiplicity           Mult            ....    1
 Number of Electrons    NEL             ....  102
 Basis Dimension        Dim             ....  149

ORBITAL ENERGIES
----------------

  NO   OCC          E(Eh)            E(eV)
   0   2.0000     -19.147802      -521.0382
   1   2.0000     -19.142728      -520.9001
   2   2.0000     -19.140887      -520.8500
   3   2.0000     -19.128981      -520.5260
   4   2.0000     -10.280118      -279.7362
   5   2.0000     -10.231126      -278.4031
   6   2.0000     -10.230949      -278.3983
   7   2.0000     -10.228948      -278.3438
   8   2.0000     -10.228852      -278.3412
   9   2.0000     -10.224731      -278.2291
  10   2.0000     -10.185441      -277.1599
  11   2.0000     -10.185246      -277.1546
  12   2.0000     -10.183320      -277.1022
  13   2.0000      -1.055477       -28.7210
  14   2.0000      -1.032196       -28.0875
  15   2.0000      -0.999863       -27.2077
  16   2.0000      -0.996140       -27.1063
  17   2.0000      -0.789068       -21.4716
  18   2.0000      -0.774093       -21.0641
  19   2.0000      -0.762367       -20.7451
  20   2.0000      -0.731975       -19.9180
  21   2.0000      -0.672759       -18.3067
  22   2.0000      -0.602266       -16.3885
  23   2.0000      -0.599491       -16.3130
  24   2.0000      -0.596596       -16.2342
  25   2.0000      -0.573123       -15.5955
  26   2.0000      -0.520753       -14.1704
  27   2.0000      -0.517750       -14.0887
  28   2.0000      -0.490468       -13.3463
  29   2.0000      -0.486973       -13.2512
  30   2.0000      -0.466711       -12.6998
  31   2.0000      -0.458395       -12.4736
  32   2.0000      -0.447954       -12.1894
  33   2.0000      -0.435897       -11.8614
  34   2.0000      -0.420924       -11.4539
  35   2.0000      -0.412165       -11.2156
  36   2.0000      -0.399174       -10.8621
  37   2.0000      -0.387555       -10.5459
  38   2.0000      -0.374321       -10.1858
  39   2.0000      -0.364840        -9.9278
  40   2.0000      -0.356829        -9.7098
  41   2.0000      -0.354573        -9.6484
  42   2.0000      -0.348923        -9.4947
  43   2.0000      -0.334868        -9.1122
  44   2.0000      -0.321581        -8.7507
  45   2.0000      -0.307922        -8.3790
  46   2.0000      -0.299662        -8.1542
  47   2.0000      -0.274027        -7.4567
  48   2.0000      -0.263377        -7.1668
  49   2.0000      -0.256309        -6.9745
  50   2.0000      -0.237503        -6.4628
  51   0.0000       0.069313         1.8861
  52   0.0000       0.077538         2.1099
  53   0.0000       0.095181         2.5900
  54   0.0000       0.097630         2.6567
  55   0.0000       0.104698         2.8490

MULLIKEN ATOMIC CHARGES
-----------------------
   0 C :    0.278052
   1 C :   -0.255608
   2 C :   -0.301309
   3 C :   -0.002575
   4 O :   -0.509111
   5 H :    0.144951
   6 H :    0.145492
   7 H :    0.154705
   8 H :    0.141937
   9 H :    0.162735
  10 H :    0.151813
  11 H :    0.144507
  12 C :   -0.018973
  13 H :    0.148534
  14 H :    0.143420
  15 O :   -0.515480
  16 C :    0.044151
  17 C :    0.106470
  18 C :   -0.297632
  19 C :   -0.027860
  20 O :   -0.530980
  21 H :    0.176322
  22 O :   -0.606675
  23 H :    0.165573
  24 H :    0.161363
  25 H :    0.143405
  26 H :    0.144356
  27 H :    0.145602
  28 H :    0.362818
Sum of atomic charges:   -0.0000000

LOEWDIN ATOMIC CHARGES
----------------------
   0 C :    0.168380
   1 C :   -0.214543
   2 C :   -0.216355
   3 C :   -0.026632
   4 O :   -0.325523
   5 H :    0.098339
   6 H :    0.114069
   7 H :    0.122978
   8 H :    0.113979
   9 H :    0.119242
  10 H :    0.107024
  11 H :    0.103952
  12 C :   -0.041038
  13 H :    0.111695
  14 H :    0.101536
  15 O :   -0.326084
  16 C :    0.002767
  17 C :    0.042757
  18 C :   -0.241759
  19 C :   -0.037156
  20 O :   -0.332419
  21 H :    0.120752
  22 O :   -0.414538
  23 H :    0.122995
  24 H :    0.126570
  25 H :    0.112161
  26 H :    0.102807
  27 H :    0.102691
  28 H :    0.281352

  Mayer bond orders larger than 0.100000
B(  0-C ,  1-C ) :   0.9501 B(  0-C ,  4-O ) :   0.9034 B(  0-C ,  5-H ) :   0.9175
B(  0-C , 15-O ) :   0.8547 B(  1-C ,  2-C ) :   0.9568 B(  1-C ,  6-H ) :   0.9397
B(  1-C ,  7-H ) :   0.9372 B(  2-C ,  3-C ) :   0.9539 B(  2-C ,  8-H ) :   0.9452
B(  2-C ,  9-H ) :   0.9442 B(  3-C ,  4-O ) :   0.8338 B(  3-C , 10-H ) :   0.9338
B(  3-C , 11-H ) :   0.9404 B( 12-C , 13-H ) :   0.9415 B( 12-C , 14-H ) :   0.9202
B( 12-C , 15-O ) :   0.8471 B( 12-C , 16-C ) :   0.8789 B( 16-C , 17-C ) :   0.9133
B( 16-C , 20-O ) :   0.8263 B( 16-C , 21-H ) :   0.9201 B( 17-C , 18-C ) :   0.9097
B( 17-C , 22-O ) :   0.8864 B( 17-C , 23-H ) :   0.9256 B( 18-C , 19-C ) :   0.9403
B( 18-C , 24-H ) :   0.9381 B( 18-C , 25-H ) :   0.9346 B( 19-C , 20-O ) :   0.8437
B( 19-C , 26-H ) :   0.9360 B( 19-C , 27-H ) :   0.9389 B( 22-O , 28-H ) :   0.7957

FINAL SINGLE POINT ENERGY      -652.867314623378

DIPOLE MOMENT
-------------
                                X             Y             Z
Electronic contribution:      0.43188      -4.13971      -0.33605
Nuclear contribution   :     -0.67881       4.85832      -0.06879
                        -----------------------------------------
Total Dipole Moment    :     -0.24692       0.71861      -0.40483
                        -----------------------------------------
Magnitude (a.u.)       :      0.86097
Magnitude (Debye)      :      2.18841

Rotational constants in cm-1:     0.054811     0.015022     0.013432
Rotational constants in MHz :  1643.181667   450.344718   402.679475

                             ****ORCA TERMINATED NORMALLY****
TOTAL RUN TIME: 0 days 0 hours 53 minutes 0 seconds 969 msec
