                         Program Version 4.2.1 -  RELEASE  -
|  1> # Test redundant internal optimization
|  2> #
|  3> ! RKS B3LYP  Opt TightSCF SmallPrint
|  4>
|  5> %basis
|  6>         Basis "6-31G"
|  7> end
|  8>
|  9> %geom
| 10> Constraints
| 11> { D 4  0  19  14  150.0   C } # D for Dihedral angle
| 12> { D 0  19  14  12  180.0   C } # D for Dihedral angle
| 13> { D 0  4  3  2   C } # D for Dihedral angle
| 14> { D 4  3  2  1   C } # D for Dihedral angle
| 15> { D 3  2  1  0   C } # D for Dihedral angle
| 16> { D 2  1  0  4   C } # D for Dihedral angle
| 17> { D 1  0  4  3   C } # D for Dihedral angle
| 18> { D 14  15  16  17   C } # D for Dihedral angle
| 19> { D 15  16  17  12   C } # D for Dihedral angle
| 20> { D 16  17  12  14   C } # D for Dihedral angle
| 21> { D 17  12  14  15   C } # D for Dihedral angle
| 22> { D 12  14  15  16   C } # D for Dihedral angle
| 23> end
| 24> end
| 25>
| 26>
| 27> #%pal
| 28> #nprocs 8
| 29> #end
| 30>
| 31> * xyz 0 1
| 32> C  -21.048   26.222   46.251
| 33> C  -20.361   27.558   45.944
| 34> C  -20.329   28.222   47.341
| 35> C  -20.110   27.022   48.296
| 36> O  -20.473   25.807   47.535
| 37> H  -20.833   25.428   45.533
| 38> H  -19.344   27.382   45.576
| 39> H  -20.898   28.157   45.201
| 40> H  -19.543   28.978   47.434
| 41> H  -21.289   28.710   47.548
| 42> H  -20.733   27.082   49.195
| 43> H  -19.064   26.913   48.597
| 44> C  -24.547   27.458   45.690
| 45> H  -25.035   27.978   44.851
| 46> C  -23.030   27.370   45.486
| 47> C  -22.575   28.789   45.899
| 48> C  -23.550   29.151   47.047
| 49> O  -24.701   28.229   46.928
| 50> H  -25.039   26.497   45.849
| 51> O  -22.472   26.381   46.366
| 52> H  -22.749   27.116   44.458
| 53> H  -21.528   28.824   46.214
| 54> H  -22.695   29.483   45.058
| 55> H  -23.910   30.184   46.983
| 56> H  -23.109   28.990   48.036
| 57> *
| 58>
| 59>                          ****END OF INPUT****
 Total Charge           Charge          ....    0
 Multiplicity           Mult            ....    1
 Number of Electrons    NEL             ....   86
FINAL SINGLE POINT ENERGY      -538.340870007352
FINAL SINGLE POINT ENERGY      -538.412329824708
FINAL SINGLE POINT ENERGY      -538.416149604563
FINAL SINGLE POINT ENERGY      -538.416917124458
FINAL SINGLE POINT ENERGY      -538.417082764159
FINAL SINGLE POINT ENERGY      -538.417118412938
FINAL SINGLE POINT ENERGY      -538.417120698833
                    ***********************HURRAY********************

CARTESIAN COORDINATES (ANGSTROEM)
---------------------------------
  C    -20.980204   26.283417   46.229264
  C    -20.018935   27.454361   46.005231
  C    -19.993268   28.131981   47.406247
  C    -20.110955   26.918770   48.357859
  O    -20.629751   25.803967   47.534245
  H    -20.802837   25.448252   45.543878
  H    -19.033850   27.035308   45.772863
  H    -20.298639   28.124044   45.188976
  H    -19.073979   28.702126   47.572385
  H    -20.839687   28.809475   47.538299
  H    -20.798788   27.091659   49.189610
  H    -19.142631   26.595457   48.750688
  C    -24.589402   27.354811   45.788162
  H    -25.251402   27.742988   45.000043
  C    -23.119427   27.537626   45.408967
  C    -22.895402   29.022013   45.748340
  C    -23.781090   29.244282   46.997256
  O    -24.747714   28.124768   47.028098
  H    -24.829695   26.315390   46.008646
  O    -22.416718   26.536353   46.210290
  H    -22.940598   27.342275   44.341013
  H    -21.858185   29.307828   45.901919
  H    -23.274790   29.611159   44.903411
  H    -24.326185   30.194067   46.959978
  H    -23.210866   29.198624   47.930334

 Multiplicity           Mult            ....    1
 Number of Electrons    NEL             ....   86
 Basis Dimension        Dim             ....  127

ORBITAL ENERGIES
----------------

  NO   OCC          E(Eh)            E(eV)
   0   2.0000     -19.139211      -520.8044
   1   2.0000     -19.134776      -520.6837
   2   2.0000     -19.128097      -520.5020
   3   2.0000     -10.280810      -279.7551
   4   2.0000     -10.245322      -278.7894
   5   2.0000     -10.226552      -278.2786
   6   2.0000     -10.224114      -278.2123
   7   2.0000     -10.220095      -278.1029
   8   2.0000     -10.195258      -277.4271
   9   2.0000     -10.193958      -277.3917
  10   2.0000     -10.191457      -277.3237
  11   2.0000      -1.049651       -28.5625
  12   2.0000      -1.013868       -27.5887
  13   2.0000      -0.985354       -26.8128
  14   2.0000      -0.791247       -21.5309
  15   2.0000      -0.787835       -21.4381
  16   2.0000      -0.746426       -20.3113
  17   2.0000      -0.723516       -19.6879
  18   2.0000      -0.619193       -16.8491
  19   2.0000      -0.604879       -16.4596
  20   2.0000      -0.599884       -16.3237
  21   2.0000      -0.569292       -15.4912
  22   2.0000      -0.512012       -13.9326
  23   2.0000      -0.507749       -13.8166
  24   2.0000      -0.498062       -13.5530
  25   2.0000      -0.487665       -13.2700
  26   2.0000      -0.453887       -12.3509
  27   2.0000      -0.444760       -12.1025
  28   2.0000      -0.423048       -11.5117
  29   2.0000      -0.417914       -11.3720
  30   2.0000      -0.414445       -11.2776
  31   2.0000      -0.391094       -10.6422
  32   2.0000      -0.374521       -10.1912
  33   2.0000      -0.370383       -10.0786
  34   2.0000      -0.363842        -9.9006
  35   2.0000      -0.361348        -9.8328
  36   2.0000      -0.354718        -9.6524
  37   2.0000      -0.313269        -8.5245
  38   2.0000      -0.303042        -8.2462
  39   2.0000      -0.287308        -7.8181
  40   2.0000      -0.260684        -7.0936
  41   2.0000      -0.253344        -6.8939
  42   2.0000      -0.232382        -6.3234
  43   0.0000       0.070509         1.9186
  44   0.0000       0.085067         2.3148
  45   0.0000       0.093104         2.5335
  46   0.0000       0.105045         2.8584
  47   0.0000       0.111619         3.0373

MULLIKEN ATOMIC CHARGES
-----------------------
   0 C :    0.327093
   1 C :   -0.297044
   2 C :   -0.312838
   3 C :   -0.001000
   4 O :   -0.494068
   5 H :    0.147243
   6 H :    0.153982
   7 H :    0.142651
   8 H :    0.144735
   9 H :    0.155744
  10 H :    0.156044
  11 H :    0.143524
  12 C :    0.000849
  13 H :    0.124081
  14 C :    0.085928
  15 C :   -0.317137
  16 C :    0.005229
  17 O :   -0.516880
  18 H :    0.178599
  19 O :   -0.527364
  20 H :    0.124200
  21 H :    0.149871
  22 H :    0.144506
  23 H :    0.135072
  24 H :    0.146978
Sum of atomic charges:   -0.0000000

LOEWDIN ATOMIC CHARGES
----------------------
   0 C :    0.187043
   1 C :   -0.233179
   2 C :   -0.221900
   3 C :   -0.026385
   4 O :   -0.302686
   5 H :    0.098478
   6 H :    0.121600
   7 H :    0.112287
   8 H :    0.115571
   9 H :    0.110953
  10 H :    0.109594
  11 H :    0.103040
  12 C :   -0.031848
  13 H :    0.090348
  14 C :    0.043676
  15 C :   -0.243843
  16 C :   -0.027400
  17 O :   -0.326374
  18 H :    0.128929
  19 O :   -0.334914
  20 H :    0.092108
  21 H :    0.119075
  22 H :    0.115974
  23 H :    0.098434
  24 H :    0.101419

  Mayer bond orders larger than 0.100000
B(  0-C ,  1-C ) :   0.9238 B(  0-C ,  4-O ) :   0.9322 B(  0-C ,  5-H ) :   0.9275
B(  0-C , 19-O ) :   0.8538 B(  1-C ,  2-C ) :   0.9526 B(  1-C ,  6-H ) :   0.9320
B(  1-C ,  7-H ) :   0.9283 B(  2-C ,  3-C ) :   0.9493 B(  2-C ,  8-H ) :   0.9455
B(  2-C ,  9-H ) :   0.9298 B(  3-C ,  4-O ) :   0.8402 B(  3-C , 10-H ) :   0.9334
B(  3-C , 11-H ) :   0.9392 B( 12-C , 13-H ) :   0.9156 B( 12-C , 14-C ) :   0.9316
B( 12-C , 17-O ) :   0.8685 B( 12-C , 18-H ) :   0.9280 B( 14-C , 15-C ) :   0.9239
B( 14-C , 19-O ) :   0.8432 B( 14-C , 20-H ) :   0.9217 B( 15-C , 16-C ) :   0.9438
B( 15-C , 21-H ) :   0.9238 B( 15-C , 22-H ) :   0.9329 B( 16-C , 17-O ) :   0.8645
B( 16-C , 23-H ) :   0.9314 B( 16-C , 24-H ) :   0.9321

FINAL SINGLE POINT ENERGY      -538.417118975111

DIPOLE MOMENT
-------------
                                X             Y             Z
Electronic contribution:     -2.76914      -5.04247       0.94918
Nuclear contribution   :      3.83310       6.30191      -1.95860
                        -----------------------------------------
Total Dipole Moment    :      1.06396       1.25945      -1.00942
                        -----------------------------------------
Magnitude (a.u.)       :      1.93317
Magnitude (Debye)      :      4.91374

Rotational constants in cm-1:     0.067046     0.024658     0.023298
Rotational constants in MHz :  2009.978629   739.213935   698.465593

                             ****ORCA TERMINATED NORMALLY****
TOTAL RUN TIME: 0 days 0 hours 18 minutes 39 seconds 22 msec
