                         Program Version 4.2.0 -  RELEASE  -
|  1> # Test redundant internal optimization
|  2> #
|  3> ! RKS B3LYP  Opt TightSCF SmallPrint
|  4>
|  5> %basis
|  6>         Basis "6-31G"
|  7> end
|  8>
|  9> %geom
| 10> Constraints
| 11> { D 4  0  15  12  195.0   C } # D for Dihedral angle
| 12> { D 0  15  12  16  75.0   C } # D for Dihedral angle
| 13> { D 0  4  3  2   C } # D for Dihedral angle
| 14> { D 4  3  2  1   C } # D for Dihedral angle
| 15> { D 3  2  1  0   C } # D for Dihedral angle
| 16> { D 2  1  0  4   C } # D for Dihedral angle
| 17> { D 1  0  4  3   C } # D for Dihedral angle
| 18> { D 16  20  19  18   C } # D for Dihedral angle
| 19> { D 20  19  18  17   C } # D for Dihedral angle
| 20> { D 19  18  17  16   C } # D for Dihedral angle
| 21> { D 18  17  16  20   C } # D for Dihedral angle
| 22> { D 17  16  20  19   C } # D for Dihedral angle
| 23> { D 15  12  16  20   C } # D for Dihedral angle
| 24> end
| 25> end
| 26>
| 27>
| 28> #%pal
| 29> #nprocs 8
| 30> #end
| 31>
| 32> * xyz 0 1
| 33> C  -21.048   26.222   46.251
| 34> C  -20.361   27.558   45.944
| 35> C  -20.329   28.222   47.341
| 36> C  -20.110   27.022   48.296
| 37> O  -20.473   25.807   47.535
| 38> H  -20.833   25.428   45.533
| 39> H  -19.344   27.382   45.576
| 40> H  -20.898   28.157   45.201
| 41> H  -19.543   28.978   47.434
| 42> H  -21.289   28.710   47.548
| 43> H  -20.733   27.082   49.195
| 44> H  -19.064   26.913   48.597
| 45> C  -23.353   26.472   45.026
| 46> H  -24.362   26.864   45.206
| 47> H  -22.840   27.150   44.332
| 48> O  -22.586   26.394   46.375
| 49> C  -23.482   25.090   44.328
| 50> C  -22.110   24.438   44.126
| 51> C  -21.821   23.870   45.536
| 52> C  -23.223   23.442   46.037
| 53> O  -24.207   24.148   45.187
| 54> H  -24.067   25.205   43.414
| 55> O  -22.214   23.290   43.085
| 56> H  -21.343   25.143   43.787
| 57> H  -21.111   23.038   45.522
| 58> H  -21.405   24.655   46.179
| 59> H  -23.395   23.711   47.085
| 60> H  -23.402   22.370   45.913
| 61> H  -22.976   22.571   43.404
| 62> *
| 63>
| 64>                          ****END OF INPUT****
 Total Charge           Charge          ....    0
 Multiplicity           Mult            ....    1
 Number of Electrons    NEL             ....  102
FINAL SINGLE POINT ENERGY      -652.758750848220
FINAL SINGLE POINT ENERGY      -652.824812571257
FINAL SINGLE POINT ENERGY      -652.844583990726
FINAL SINGLE POINT ENERGY      -652.849564277593
FINAL SINGLE POINT ENERGY      -652.850398603645
FINAL SINGLE POINT ENERGY      -652.850522278682
FINAL SINGLE POINT ENERGY      -652.850551363477
FINAL SINGLE POINT ENERGY      -652.850560491365
FINAL SINGLE POINT ENERGY      -652.850560800088
                    ***********************HURRAY********************

CARTESIAN COORDINATES (ANGSTROEM)
---------------------------------
  C    -20.915949   26.361559   46.446281
  C    -20.217161   27.657232   46.037576
  C    -20.361497   28.518903   47.317425
  C    -20.244101   27.474589   48.446360
  O    -20.503387   26.158363   47.803312
  H    -20.617102   25.491356   45.869279
  H    -19.162157   27.449350   45.822252
  H    -20.660289   28.127882   45.155150
  H    -19.596700   29.298376   47.386660
  H    -21.345995   28.994299   47.332642
  H    -20.974344   27.617989   49.246261
  H    -19.238903   27.418344   48.874507
  C    -23.088686   26.437002   45.195619
  H    -24.070487   26.845801   45.446859
  H    -22.634783   27.096590   44.435732
  O    -22.363969   26.540335   46.450909
  C    -23.354235   25.075106   44.523114
  C    -22.224179   24.183109   43.975864
  C    -21.858372   23.316242   45.222290
  C    -23.238337   23.127186   45.908419
  O    -24.132260   24.168814   45.363055
  H    -24.005743   25.337045   43.676784
  O    -22.718801   23.364084   42.882846
  H    -21.379865   24.735859   43.561080
  H    -21.417544   22.369006   44.899973
  H    -21.153605   23.809741   45.888389
  H    -23.183193   23.245420   46.994326
  H    -23.691766   22.157588   45.678036
  H    -23.568590   22.954830   43.152000

 Multiplicity           Mult            ....    1
 Number of Electrons    NEL             ....  102
 Basis Dimension        Dim             ....  149

ORBITAL ENERGIES
----------------

  NO   OCC          E(Eh)            E(eV)
   0   2.0000     -19.144688      -520.9534
   1   2.0000     -19.143638      -520.9249
   2   2.0000     -19.142920      -520.9053
   3   2.0000     -19.141125      -520.8565
   4   2.0000     -10.281372      -279.7704
   5   2.0000     -10.246675      -278.8262
   6   2.0000     -10.238287      -278.5980
   7   2.0000     -10.236099      -278.5384
   8   2.0000     -10.227403      -278.3018
   9   2.0000     -10.227124      -278.2942
  10   2.0000     -10.189256      -277.2638
  11   2.0000     -10.187850      -277.2255
  12   2.0000     -10.187175      -277.2071
  13   2.0000      -1.056054       -28.7367
  14   2.0000      -1.039368       -28.2826
  15   2.0000      -1.009092       -27.4588
  16   2.0000      -0.995423       -27.0868
  17   2.0000      -0.788450       -21.4548
  18   2.0000      -0.777702       -21.1623
  19   2.0000      -0.771646       -20.9976
  20   2.0000      -0.737305       -20.0631
  21   2.0000      -0.680421       -18.5152
  22   2.0000      -0.608823       -16.5669
  23   2.0000      -0.603843       -16.4314
  24   2.0000      -0.600738       -16.3469
  25   2.0000      -0.576124       -15.6771
  26   2.0000      -0.527127       -14.3439
  27   2.0000      -0.510685       -13.8965
  28   2.0000      -0.502179       -13.6650
  29   2.0000      -0.488362       -13.2890
  30   2.0000      -0.471559       -12.8318
  31   2.0000      -0.460501       -12.5309
  32   2.0000      -0.454938       -12.3795
  33   2.0000      -0.446774       -12.1573
  34   2.0000      -0.425334       -11.5739
  35   2.0000      -0.414032       -11.2664
  36   2.0000      -0.405169       -11.0252
  37   2.0000      -0.393257       -10.7011
  38   2.0000      -0.382595       -10.4110
  39   2.0000      -0.367149        -9.9906
  40   2.0000      -0.360503        -9.8098
  41   2.0000      -0.358094        -9.7442
  42   2.0000      -0.353187        -9.6107
  43   2.0000      -0.333366        -9.0713
  44   2.0000      -0.316071        -8.6007
  45   2.0000      -0.307651        -8.3716
  46   2.0000      -0.307413        -8.3651
  47   2.0000      -0.273379        -7.4390
  48   2.0000      -0.268015        -7.2930
  49   2.0000      -0.260168        -7.0795
  50   2.0000      -0.237675        -6.4675
  51   0.0000       0.063596         1.7305
  52   0.0000       0.076148         2.0721
  53   0.0000       0.091523         2.4905
  54   0.0000       0.098883         2.6907
  55   0.0000       0.103392         2.8134

MULLIKEN ATOMIC CHARGES
-----------------------
   0 C :    0.296098
   1 C :   -0.271185
   2 C :   -0.295353
   3 C :   -0.001564
   4 O :   -0.508593
   5 H :    0.132070
   6 H :    0.145240
   7 H :    0.141533
   8 H :    0.142270
   9 H :    0.162498
  10 H :    0.156909
  11 H :    0.142678
  12 C :   -0.026829
  13 H :    0.173882
  14 H :    0.116022
  15 O :   -0.500760
  16 C :    0.076631
  17 C :    0.067759
  18 C :   -0.305507
  19 C :   -0.027199
  20 O :   -0.521981
  21 H :    0.155295
  22 O :   -0.602078
  23 H :    0.145772
  24 H :    0.159578
  25 H :    0.172247
  26 H :    0.168430
  27 H :    0.138517
  28 H :    0.367621
Sum of atomic charges:   -0.0000000

LOEWDIN ATOMIC CHARGES
----------------------
   0 C :    0.173038
   1 C :   -0.229322
   2 C :   -0.215972
   3 C :   -0.023949
   4 O :   -0.306651
   5 H :    0.093343
   6 H :    0.113447
   7 H :    0.113120
   8 H :    0.114657
   9 H :    0.119460
  10 H :    0.110832
  11 H :    0.102818
  12 C :   -0.045191
  13 H :    0.128115
  14 H :    0.088200
  15 O :   -0.325538
  16 C :    0.001757
  17 C :    0.032996
  18 C :   -0.244312
  19 C :   -0.034430
  20 O :   -0.327768
  21 H :    0.116822
  22 O :   -0.412176
  23 H :    0.111854
  24 H :    0.124286
  25 H :    0.123251
  26 H :    0.114955
  27 H :    0.097597
  28 H :    0.284761

  Mayer bond orders larger than 0.100000
B(  0-C ,  1-C ) :   0.9276 B(  0-C ,  4-O ) :   0.9418 B(  0-C ,  5-H ) :   0.8961
B(  0-C , 15-O ) :   0.8383 B(  1-C ,  2-C ) :   0.9532 B(  1-C ,  6-H ) :   0.9346
B(  1-C ,  7-H ) :   0.9350 B(  2-C ,  3-C ) :   0.9552 B(  2-C ,  8-H ) :   0.9450
B(  2-C ,  9-H ) :   0.9441 B(  3-C ,  4-O ) :   0.8315 B(  3-C , 10-H ) :   0.9345
B(  3-C , 11-H ) :   0.9396 B( 12-C , 13-H ) :   0.9315 B( 12-C , 14-H ) :   0.9046
B( 12-C , 15-O ) :   0.8900 B( 12-C , 16-C ) :   0.8811 B( 16-C , 17-C ) :   0.9047
B( 16-C , 20-O ) :   0.8645 B( 16-C , 21-H ) :   0.9103 B( 17-C , 18-C ) :   0.9160
B( 17-C , 22-O ) :   0.8857 B( 17-C , 23-H ) :   0.9339 B( 18-C , 19-C ) :   0.9376
B( 18-C , 24-H ) :   0.9372 B( 18-C , 25-H ) :   0.9122 B( 19-C , 20-O ) :   0.8416
B( 19-C , 26-H ) :   0.9310 B( 19-C , 27-H ) :   0.9374 B( 22-O , 28-H ) :   0.7924

FINAL SINGLE POINT ENERGY      -652.850558918765

DIPOLE MOMENT
-------------
                                X             Y             Z
Electronic contribution:     -3.65769      -3.25539      -0.71746
Nuclear contribution   :      4.31776       3.93384       0.57826
                        -----------------------------------------
Total Dipole Moment    :      0.66008       0.67846      -0.13920
                        -----------------------------------------
Magnitude (a.u.)       :      0.95676
Magnitude (Debye)      :      2.43188

Rotational constants in cm-1:     0.055954     0.013971     0.013585
Rotational constants in MHz :  1677.447396   418.832707   407.255876

                             ****ORCA TERMINATED NORMALLY****
TOTAL RUN TIME: 0 days 0 hours 56 minutes 37 seconds 521 msec
