                         Program Version 4.2.0 -  RELEASE  -
|  1> # Test redundant internal optimization
|  2> #
|  3> ! RKS B3LYP  Opt TightSCF SmallPrint
|  4>
|  5> %basis
|  6>         Basis "6-31G"
|  7> end
|  8>
|  9> %geom
| 10> Constraints
| 11> { D 4  0  15  12  150.0   C } # D for Dihedral angle
| 12> { D 0  15  12  16  180.0   C } # D for Dihedral angle
| 13> { D 0  4  3  2   C } # D for Dihedral angle
| 14> { D 4  3  2  1   C } # D for Dihedral angle
| 15> { D 3  2  1  0   C } # D for Dihedral angle
| 16> { D 2  1  0  4   C } # D for Dihedral angle
| 17> { D 1  0  4  3   C } # D for Dihedral angle
| 18> { D 16  20  19  18   C } # D for Dihedral angle
| 19> { D 20  19  18  17   C } # D for Dihedral angle
| 20> { D 19  18  17  16   C } # D for Dihedral angle
| 21> { D 18  17  16  20   C } # D for Dihedral angle
| 22> { D 17  16  20  19   C } # D for Dihedral angle
| 23> { D 15  12  16  20   C } # D for Dihedral angle
| 24> end
| 25> end
| 26>
| 27>
| 28> #%pal
| 29> #nprocs 8
| 30> #end
| 31>
| 32> * xyz 0 1
| 33> C  -21.048   26.222   46.251
| 34> C  -20.361   27.558   45.944
| 35> C  -20.329   28.222   47.341
| 36> C  -20.110   27.022   48.296
| 37> O  -20.473   25.807   47.535
| 38> H  -20.833   25.428   45.533
| 39> H  -19.344   27.382   45.576
| 40> H  -20.898   28.157   45.201
| 41> H  -19.543   28.978   47.434
| 42> H  -21.289   28.710   47.548
| 43> H  -20.733   27.082   49.195
| 44> H  -19.064   26.913   48.597
| 45> C  -23.210   27.459   45.431
| 46> H  -22.759   28.437   45.641
| 47> H  -23.010   27.206   44.382
| 48> O  -22.586   26.394   46.375
| 49> C  -24.749   27.584   45.602
| 50> C  -25.345   28.557   44.578
| 51> C  -25.402   27.678   43.307
| 52> C  -25.732   26.271   43.867
| 53> O  -25.403   26.305   45.308
| 54> H  -24.975   27.828   46.642
| 55> H  -26.353   28.858   44.886
| 56> O  -24.489   29.839   44.385
| 57> H  -26.148   28.024   42.584
| 58> H  -24.427   27.675   42.806
| 59> H  -25.147   25.480   43.384
| 60> H  -26.795   26.027   43.784
| 61> H  -23.476   29.563   44.075
| 62> *
| 63>
| 64>                          ****END OF INPUT****
 Total Charge           Charge          ....    0
 Multiplicity           Mult            ....    1
 Number of Electrons    NEL             ....  102
FINAL SINGLE POINT ENERGY      -652.818584347020
FINAL SINGLE POINT ENERGY      -652.842691578267
FINAL SINGLE POINT ENERGY      -652.847668830705
FINAL SINGLE POINT ENERGY      -652.848738286530
FINAL SINGLE POINT ENERGY      -652.848944786931
FINAL SINGLE POINT ENERGY      -652.849000372785
FINAL SINGLE POINT ENERGY      -652.849005930014
FINAL SINGLE POINT ENERGY      -652.849007605466
                    ***********************HURRAY********************

CARTESIAN COORDINATES (ANGSTROEM)
---------------------------------
  C    -21.068834   26.271569   46.216188
  C    -20.205894   27.510473   45.974426
  C    -20.267409   28.222286   47.351607
  C    -20.303054   27.037463   48.340551
  O    -20.709471   25.855596   47.542039
  H    -20.862951   25.428403   45.550976
  H    -19.183550   27.179164   45.759684
  H    -20.532061   28.141080   45.143861
  H    -19.410414   28.881564   47.518897
  H    -21.180068   28.822855   47.430408
  H    -21.021425   27.176238   49.152358
  H    -19.319700   26.808117   48.761561
  C    -23.062478   27.508548   45.321665
  H    -22.670787   28.512576   45.537207
  H    -22.827743   27.260619   44.272991
  O    -22.509173   26.515570   46.215145
  C    -24.572928   27.532471   45.550937
  C    -25.322041   28.521264   44.641334
  C    -25.507714   27.682978   43.341511
  C    -25.721093   26.254143   43.887464
  O    -25.216951   26.252353   45.284459
  H    -24.743178   27.733827   46.612425
  H    -26.291346   28.757317   45.085260
  O    -24.680863   29.808059   44.455861
  H    -26.345701   28.038485   42.735850
  H    -24.597011   27.748761   42.731040
  H    -25.184648   25.492673   43.313444
  H    -26.779781   25.981961   43.929756
  H    -23.932733   29.729587   43.829097

 Multiplicity           Mult            ....    1
 Number of Electrons    NEL             ....  102
 Basis Dimension        Dim             ....  149

ORBITAL ENERGIES
----------------

  NO   OCC          E(Eh)            E(eV)
   0   2.0000     -19.152800      -521.1742
   1   2.0000     -19.137366      -520.7542
   2   2.0000     -19.135600      -520.7061
   3   2.0000     -19.135458      -520.7023
   4   2.0000     -10.278000      -279.6786
   5   2.0000     -10.246290      -278.8157
   6   2.0000     -10.233069      -278.4560
   7   2.0000     -10.230460      -278.3850
   8   2.0000     -10.229472      -278.3581
   9   2.0000     -10.224710      -278.2285
  10   2.0000     -10.197024      -277.4751
  11   2.0000     -10.192260      -277.3455
  12   2.0000     -10.191159      -277.3155
  13   2.0000      -1.050692       -28.5908
  14   2.0000      -1.035152       -28.1679
  15   2.0000      -1.015972       -27.6460
  16   2.0000      -0.990618       -26.9561
  17   2.0000      -0.789028       -21.4705
  18   2.0000      -0.783857       -21.3298
  19   2.0000      -0.769773       -20.9466
  20   2.0000      -0.731822       -19.9139
  21   2.0000      -0.683932       -18.6107
  22   2.0000      -0.612615       -16.6701
  23   2.0000      -0.604133       -16.4393
  24   2.0000      -0.591291       -16.0898
  25   2.0000      -0.573064       -15.5939
  26   2.0000      -0.527975       -14.3669
  27   2.0000      -0.512099       -13.9349
  28   2.0000      -0.500921       -13.6308
  29   2.0000      -0.497159       -13.5284
  30   2.0000      -0.468884       -12.7590
  31   2.0000      -0.460973       -12.5437
  32   2.0000      -0.447250       -12.1703
  33   2.0000      -0.436312       -11.8726
  34   2.0000      -0.430050       -11.7023
  35   2.0000      -0.415695       -11.3116
  36   2.0000      -0.411154       -11.1881
  37   2.0000      -0.397470       -10.8157
  38   2.0000      -0.379997       -10.3402
  39   2.0000      -0.377179       -10.2636
  40   2.0000      -0.363257        -9.8847
  41   2.0000      -0.356638        -9.7046
  42   2.0000      -0.352038        -9.5794
  43   2.0000      -0.332120        -9.0374
  44   2.0000      -0.316359        -8.6086
  45   2.0000      -0.310945        -8.4613
  46   2.0000      -0.294106        -8.0030
  47   2.0000      -0.272695        -7.4204
  48   2.0000      -0.261091        -7.1047
  49   2.0000      -0.247104        -6.7240
  50   2.0000      -0.240607        -6.5472
  51   0.0000       0.046462         1.2643
  52   0.0000       0.072301         1.9674
  53   0.0000       0.085527         2.3273
  54   0.0000       0.090823         2.4714
  55   0.0000       0.104570         2.8455

MULLIKEN ATOMIC CHARGES
-----------------------
   0 C :    0.318752
   1 C :   -0.296096
   2 C :   -0.301986
   3 C :    0.000075
   4 O :   -0.495085
   5 H :    0.148439
   6 H :    0.152458
   7 H :    0.137232
   8 H :    0.144820
   9 H :    0.155745
  10 H :    0.155122
  11 H :    0.142827
  12 C :   -0.010029
  13 H :    0.128148
  14 H :    0.110019
  15 O :   -0.509591
  16 C :    0.097440
  17 C :    0.080290
  18 C :   -0.324895
  19 C :   -0.009527
  20 O :   -0.499699
  21 H :    0.166755
  22 H :    0.169457
  23 O :   -0.599265
  24 H :    0.158505
  25 H :    0.130782
  26 H :    0.146257
  27 H :    0.149455
  28 H :    0.353594
Sum of atomic charges:   -0.0000000

LOEWDIN ATOMIC CHARGES
----------------------
   0 C :    0.184347
   1 C :   -0.234689
   2 C :   -0.217725
   3 C :   -0.026381
   4 O :   -0.302879
   5 H :    0.101081
   6 H :    0.119635
   7 H :    0.110992
   8 H :    0.115599
   9 H :    0.113238
  10 H :    0.109728
  11 H :    0.103058
  12 C :   -0.052061
  13 H :    0.092958
  14 H :    0.081169
  15 O :   -0.321649
  16 C :    0.023941
  17 C :    0.034268
  18 C :   -0.241735
  19 C :   -0.029747
  20 O :   -0.308329
  21 H :    0.121668
  22 H :    0.120491
  23 O :   -0.408015
  24 H :    0.122501
  25 H :    0.102172
  26 H :    0.103944
  27 H :    0.106187
  28 H :    0.276234

  Mayer bond orders larger than 0.100000
B(  0-C ,  1-C ) :   0.9285 B(  0-C ,  4-O ) :   0.9342 B(  0-C ,  5-H ) :   0.9242
B(  0-C , 15-O ) :   0.8441 B(  1-C ,  2-C ) :   0.9500 B(  1-C ,  6-H ) :   0.9341
B(  1-C ,  7-H ) :   0.9289 B(  2-C ,  3-C ) :   0.9530 B(  2-C ,  8-H ) :   0.9453
B(  2-C ,  9-H ) :   0.9432 B(  3-C ,  4-O ) :   0.8392 B(  3-C , 10-H ) :   0.9339
B(  3-C , 11-H ) :   0.9395 B( 12-C , 13-H ) :   0.8909 B( 12-C , 14-H ) :   0.9145
B( 12-C , 15-O ) :   0.8534 B( 12-C , 16-C ) :   0.9027 B( 16-C , 17-C ) :   0.8728
B( 16-C , 20-O ) :   0.8772 B( 16-C , 21-H ) :   0.9283 B( 17-C , 18-C ) :   0.9241
B( 17-C , 22-H ) :   0.9334 B( 17-C , 23-O ) :   0.8930 B( 18-C , 19-C ) :   0.9379
B( 18-C , 24-H ) :   0.9417 B( 18-C , 25-H ) :   0.9407 B( 19-C , 20-O ) :   0.8535
B( 19-C , 26-H ) :   0.9310 B( 19-C , 27-H ) :   0.9375 B( 23-O , 28-H ) :   0.7998

FINAL SINGLE POINT ENERGY      -652.849007939722

DIPOLE MOMENT
-------------
                                X             Y             Z
Electronic contribution:     -2.48452      -3.31095       2.19418
Nuclear contribution   :      3.15486       4.35981      -3.52326
                        -----------------------------------------
Total Dipole Moment    :      0.67034       1.04886      -1.32908
                        -----------------------------------------
Magnitude (a.u.)       :      1.82096
Magnitude (Debye)      :      4.62852

Rotational constants in cm-1:     0.054386     0.013000     0.011628
Rotational constants in MHz :  1630.463475   389.744283   348.601028

                             ****ORCA TERMINATED NORMALLY****
TOTAL RUN TIME: 0 days 0 hours 51 minutes 8 seconds 106 msec
