                         Program Version 4.2.0 -  RELEASE  -
|  1> # Test redundant internal optimization
|  2> #
|  3> ! RKS B3LYP  Opt TightSCF SmallPrint
|  4>
|  5> %basis
|  6>         Basis "6-31G"
|  7> end
|  8>
|  9> %geom
| 10> Constraints
| 11> { D 4  0  15  12  195.0   C } # D for Dihedral angle
| 12> { D 0  15  12  16  210.0   C } # D for Dihedral angle
| 13> { D 0  4  3  2   C } # D for Dihedral angle
| 14> { D 4  3  2  1   C } # D for Dihedral angle
| 15> { D 3  2  1  0   C } # D for Dihedral angle
| 16> { D 2  1  0  4   C } # D for Dihedral angle
| 17> { D 1  0  4  3   C } # D for Dihedral angle
| 18> { D 16  20  19  18   C } # D for Dihedral angle
| 19> { D 20  19  18  17   C } # D for Dihedral angle
| 20> { D 19  18  17  16   C } # D for Dihedral angle
| 21> { D 18  17  16  20   C } # D for Dihedral angle
| 22> { D 17  16  20  19   C } # D for Dihedral angle
| 23> { D 15  12  16  20   C } # D for Dihedral angle
| 24> end
| 25> end
| 26>
| 27>
| 28> #%pal
| 29> #nprocs 8
| 30> #end
| 31>
| 32> * xyz 0 1
| 33> C  -21.048   26.222   46.251
| 34> C  -20.361   27.558   45.944
| 35> C  -20.329   28.222   47.341
| 36> C  -20.110   27.022   48.296
| 37> O  -20.473   25.807   47.535
| 38> H  -20.833   25.428   45.533
| 39> H  -19.344   27.382   45.576
| 40> H  -20.898   28.157   45.201
| 41> H  -19.543   28.978   47.434
| 42> H  -21.289   28.710   47.548
| 43> H  -20.733   27.082   49.195
| 44> H  -19.064   26.913   48.597
| 45> C  -23.353   26.472   45.026
| 46> H  -22.697   26.908   44.262
| 47> H  -23.647   25.469   44.693
| 48> O  -22.586   26.394   46.375
| 49> C  -24.640   27.337   45.117
| 50> C  -25.431   27.298   43.804
| 51> C  -26.153   25.934   43.914
| 52> C  -26.456   25.818   45.429
| 53> O  -25.564   26.779   46.111
| 54> H  -24.374   28.341   45.454
| 55> O  -26.458   28.462   43.765
| 56> H  -24.793   27.370   42.916
| 57> H  -27.060   25.884   43.302
| 58> H  -25.486   25.127   43.590
| 59> H  -26.264   24.812   45.819
| 60> H  -27.484   26.102   45.672
| 61> H  -27.108   28.408   44.646
| 62> *
| 63>
| 64>                          ****END OF INPUT****
 Total Charge           Charge          ....    0
 Multiplicity           Mult            ....    1
 Number of Electrons    NEL             ....  102
FINAL SINGLE POINT ENERGY      -652.829114250542
FINAL SINGLE POINT ENERGY      -652.852398032105
FINAL SINGLE POINT ENERGY      -652.856062550060
FINAL SINGLE POINT ENERGY      -652.856725059278
FINAL SINGLE POINT ENERGY      -652.856813556642
FINAL SINGLE POINT ENERGY      -652.856823110135
                    ***********************HURRAY********************

CARTESIAN COORDINATES (ANGSTROEM)
---------------------------------
  C    -21.086668   26.219124   46.166421
  C    -20.426750   27.569104   45.894030
  C    -20.510569   28.253677   47.280333
  C    -20.319286   27.074689   48.256508
  O    -20.598209   25.848483   47.461570
  H    -20.823056   25.414858   45.471311
  H    -19.383032   27.409102   45.598151
  H    -20.920288   28.143949   45.104895
  H    -19.753935   29.033131   47.409810
  H    -21.499613   28.702323   47.409824
  H    -21.006222   27.100920   49.105411
  H    -19.291497   26.983050   48.619858
  C    -23.240160   26.381084   44.987690
  H    -22.619367   26.844734   44.204524
  H    -23.476732   25.354951   44.672080
  O    -22.537314   26.346010   46.257200
  C    -24.505782   27.219712   45.152441
  C    -25.366562   27.297931   43.882993
  C    -26.175244   25.976049   43.967529
  C    -26.404729   25.806073   45.489912
  O    -25.411364   26.674711   46.164384
  H    -24.219613   28.216229   45.501762
  O    -26.234020   28.463973   43.919828
  H    -24.793391   27.396182   42.959898
  H    -27.105272   26.055370   43.399845
  H    -25.589862   25.145985   43.556809
  H    -26.263391   24.775167   45.827704
  H    -27.396800   26.143828   45.805619
  H    -26.620273   28.545599   44.817657

 Multiplicity           Mult            ....    1
 Number of Electrons    NEL             ....  102
 Basis Dimension        Dim             ....  149

ORBITAL ENERGIES
----------------

  NO   OCC          E(Eh)            E(eV)
   0   2.0000     -19.141106      -520.8560
   1   2.0000     -19.140937      -520.8514
   2   2.0000     -19.138664      -520.7895
   3   2.0000     -19.138546      -520.7863
   4   2.0000     -10.278870      -279.7023
   5   2.0000     -10.245420      -278.7921
   6   2.0000     -10.236499      -278.5493
   7   2.0000     -10.235768      -278.5294
   8   2.0000     -10.230088      -278.3748
   9   2.0000     -10.222749      -278.1752
  10   2.0000     -10.191103      -277.3140
  11   2.0000     -10.187462      -277.2149
  12   2.0000     -10.185213      -277.1537
  13   2.0000      -1.052718       -28.6459
  14   2.0000      -1.037753       -28.2387
  15   2.0000      -1.008032       -27.4299
  16   2.0000      -0.992772       -27.0147
  17   2.0000      -0.788223       -21.4486
  18   2.0000      -0.783977       -21.3331
  19   2.0000      -0.769083       -20.9278
  20   2.0000      -0.731027       -19.8922
  21   2.0000      -0.676470       -18.4077
  22   2.0000      -0.606392       -16.5008
  23   2.0000      -0.600057       -16.3284
  24   2.0000      -0.591908       -16.1066
  25   2.0000      -0.584284       -15.8992
  26   2.0000      -0.524485       -14.2720
  27   2.0000      -0.513930       -13.9847
  28   2.0000      -0.498236       -13.5577
  29   2.0000      -0.490569       -13.3491
  30   2.0000      -0.474605       -12.9147
  31   2.0000      -0.460128       -12.5207
  32   2.0000      -0.454426       -12.3656
  33   2.0000      -0.440570       -11.9885
  34   2.0000      -0.429949       -11.6995
  35   2.0000      -0.405204       -11.0262
  36   2.0000      -0.404722       -11.0130
  37   2.0000      -0.395141       -10.7523
  38   2.0000      -0.375575       -10.2199
  39   2.0000      -0.373553       -10.1649
  40   2.0000      -0.361138        -9.8271
  41   2.0000      -0.356219        -9.6932
  42   2.0000      -0.353618        -9.6224
  43   2.0000      -0.333351        -9.0709
  44   2.0000      -0.313019        -8.5177
  45   2.0000      -0.308164        -8.3856
  46   2.0000      -0.302632        -8.2350
  47   2.0000      -0.273591        -7.4448
  48   2.0000      -0.258054        -7.0220
  49   2.0000      -0.256500        -6.9797
  50   2.0000      -0.240101        -6.5335
  51   0.0000       0.063863         1.7378
  52   0.0000       0.080531         2.1913
  53   0.0000       0.086267         2.3474
  54   0.0000       0.093880         2.5546
  55   0.0000       0.100142         2.7250

MULLIKEN ATOMIC CHARGES
-----------------------
   0 C :    0.295628
   1 C :   -0.272613
   2 C :   -0.297960
   3 C :   -0.000859
   4 O :   -0.501474
   5 H :    0.137635
   6 H :    0.145521
   7 H :    0.140483
   8 H :    0.141593
   9 H :    0.162495
  10 H :    0.158602
  11 H :    0.140689
  12 C :   -0.005248
  13 H :    0.119249
  14 H :    0.134741
  15 O :   -0.494330
  16 C :    0.071650
  17 C :    0.078754
  18 C :   -0.300312
  19 C :   -0.022609
  20 O :   -0.507686
  21 H :    0.161641
  22 O :   -0.603603
  23 H :    0.148640
  24 H :    0.164010
  25 H :    0.144394
  26 H :    0.151900
  27 H :    0.142601
  28 H :    0.366468
Sum of atomic charges:   -0.0000000

LOEWDIN ATOMIC CHARGES
----------------------
   0 C :    0.178758
   1 C :   -0.231327
   2 C :   -0.216648
   3 C :   -0.024324
   4 O :   -0.302444
   5 H :    0.095608
   6 H :    0.114064
   7 H :    0.112073
   8 H :    0.114270
   9 H :    0.119010
  10 H :    0.111813
  11 H :    0.101920
  12 C :   -0.044039
  13 H :    0.091376
  14 H :    0.096954
  15 O :   -0.322909
  16 C :    0.018089
  17 C :    0.034958
  18 C :   -0.242019
  19 C :   -0.036180
  20 O :   -0.317938
  21 H :    0.117288
  22 O :   -0.414813
  23 H :    0.113552
  24 H :    0.127176
  25 H :    0.112657
  26 H :    0.107302
  27 H :    0.101449
  28 H :    0.284323

  Mayer bond orders larger than 0.100000
B(  0-C ,  1-C ) :   0.9290 B(  0-C ,  4-O ) :   0.9408 B(  0-C ,  5-H ) :   0.9202
B(  0-C , 15-O ) :   0.8335 B(  1-C ,  2-C ) :   0.9526 B(  1-C ,  6-H ) :   0.9335
B(  1-C ,  7-H ) :   0.9343 B(  2-C ,  3-C ) :   0.9558 B(  2-C ,  8-H ) :   0.9448
B(  2-C ,  9-H ) :   0.9431 B(  3-C ,  4-O ) :   0.8343 B(  3-C , 10-H ) :   0.9338
B(  3-C , 11-H ) :   0.9398 B( 12-C , 13-H ) :   0.9063 B( 12-C , 14-H ) :   0.9176
B( 12-C , 15-O ) :   0.8468 B( 12-C , 16-C ) :   0.8984 B( 16-C , 17-C ) :   0.8971
B( 16-C , 20-O ) :   0.8718 B( 16-C , 21-H ) :   0.9250 B( 17-C , 18-C ) :   0.9121
B( 17-C , 22-O ) :   0.8927 B( 17-C , 23-H ) :   0.9338 B( 18-C , 19-C ) :   0.9386
B( 18-C , 24-H ) :   0.9369 B( 18-C , 25-H ) :   0.9341 B( 19-C , 20-O ) :   0.8493
B( 19-C , 26-H ) :   0.9342 B( 19-C , 27-H ) :   0.9384 B( 22-O , 28-H ) :   0.7930

FINAL SINGLE POINT ENERGY      -652.856825271268

DIPOLE MOMENT
-------------
                                X             Y             Z
Electronic contribution:     -1.84591      -1.18811       1.72818
Nuclear contribution   :      2.14848       1.37083      -2.54389
                        -----------------------------------------
Total Dipole Moment    :      0.30258       0.18272      -0.81571
                        -----------------------------------------
Magnitude (a.u.)       :      0.88900
Magnitude (Debye)      :      2.25967

Rotational constants in cm-1:     0.061631     0.011717     0.011169
Rotational constants in MHz :  1847.655323   351.265140   334.853008

                             ****ORCA TERMINATED NORMALLY****
TOTAL RUN TIME: 0 days 2 hours 5 minutes 20 seconds 681 msec
