                         Program Version 4.2.0 -  RELEASE  -
|  1> # Test redundant internal optimization
|  2> #
|  3> ! RKS B3LYP  Opt TightSCF SmallPrint
|  4>
|  5> %basis
|  6>         Basis "6-31G"
|  7> end
|  8>
|  9> %geom
| 10> Constraints
| 11> { D 4  0  15  12  105.0   C } # D for Dihedral angle
| 12> { D 0  15  12  16  180.0   C } # D for Dihedral angle
| 13> { D 0  4  3  2   C } # D for Dihedral angle
| 14> { D 4  3  2  1   C } # D for Dihedral angle
| 15> { D 3  2  1  0   C } # D for Dihedral angle
| 16> { D 2  1  0  4   C } # D for Dihedral angle
| 17> { D 1  0  4  3   C } # D for Dihedral angle
| 18> { D 16  20  19  18   C } # D for Dihedral angle
| 19> { D 20  19  18  17   C } # D for Dihedral angle
| 20> { D 19  18  17  16   C } # D for Dihedral angle
| 21> { D 18  17  16  20   C } # D for Dihedral angle
| 22> { D 17  16  20  19   C } # D for Dihedral angle
| 23> { D 15  12  16  20   C } # D for Dihedral angle
| 24> end
| 25> end
| 26>
| 27>
| 28> #%pal
| 29> #nprocs 8
| 30> #end
| 31>
| 32> * xyz 0 1
| 33> C  -21.048   26.222   46.251
| 34> C  -20.361   27.558   45.944
| 35> C  -20.329   28.222   47.341
| 36> C  -20.110   27.022   48.296
| 37> O  -20.473   25.807   47.535
| 38> H  -20.833   25.428   45.533
| 39> H  -19.344   27.382   45.576
| 40> H  -20.898   28.157   45.201
| 41> H  -19.543   28.978   47.434
| 42> H  -21.289   28.710   47.548
| 43> H  -20.733   27.082   49.195
| 44> H  -19.064   26.913   48.597
| 45> C  -23.085   27.864   46.420
| 46> H  -22.633   28.373   47.281
| 47> H  -22.785   28.400   45.510
| 48> O  -22.586   26.394   46.375
| 49> C  -24.630   27.971   46.545
| 50> C  -25.095   29.429   46.470
| 51> C  -25.044   29.697   44.947
| 52> C  -25.463   28.336   44.337
| 53> O  -25.282   27.325   45.400
| 54> H  -24.954   27.438   47.441
| 55> H  -26.121   29.518   46.844
| 56> O  -24.193   30.400   47.281
| 57> H  -25.704   30.514   44.637
| 58> H  -24.023   29.958   44.644
| 59> H  -24.852   28.059   43.471
| 60> H  -26.518   28.315   44.048
| 61> H  -23.160   30.330   46.924
| 62> *
| 63>
| 64>                          ****END OF INPUT****
 Total Charge           Charge          ....    0
 Multiplicity           Mult            ....    1
 Number of Electrons    NEL             ....  102
FINAL SINGLE POINT ENERGY      -652.803430722180
FINAL SINGLE POINT ENERGY      -652.830626028793
FINAL SINGLE POINT ENERGY      -652.844739459366
FINAL SINGLE POINT ENERGY      -652.847079304796
FINAL SINGLE POINT ENERGY      -652.847534611199
FINAL SINGLE POINT ENERGY      -652.847636854649
FINAL SINGLE POINT ENERGY      -652.847650681369
FINAL SINGLE POINT ENERGY      -652.847642197357
FINAL SINGLE POINT ENERGY      -652.847638731126
                    ***********************HURRAY********************

CARTESIAN COORDINATES (ANGSTROEM)
---------------------------------
  C    -21.170963   26.342119   46.351240
  C    -20.156377   27.431601   45.980202
  C    -19.902790   28.120812   47.352214
  C    -19.992124   26.932935   48.343700
  O    -20.694656   25.846780   47.623136
  H    -21.147226   25.477300   45.686443
  H    -19.244276   26.942728   45.623233
  H    -20.503033   28.117631   45.202596
  H    -18.926875   28.614760   47.392626
  H    -20.664390   28.876747   47.562308
  H    -20.546612   27.176204   49.254889
  H    -19.006208   26.547162   48.618845
  C    -23.047609   28.057189   46.418876
  H    -22.719889   28.582309   47.326452
  H    -22.691096   28.613610   45.538518
  O    -22.572888   26.690713   46.382686
  C    -24.573919   27.988245   46.443937
  C    -25.260915   29.363396   46.447876
  C    -25.277255   29.718353   44.930394
  C    -25.491340   28.342115   44.263272
  O    -25.137032   27.317249   45.277406
  H    -24.861444   27.376748   47.303798
  H    -26.279860   29.256797   46.825852
  O    -24.652894   30.362738   47.304248
  H    -26.059247   30.440759   44.682268
  H    -24.310243   30.155578   44.646259
  H    -24.868497   28.197499   43.375361
  H    -26.537113   28.173526   43.990142
  H    -23.856228   30.738396   46.877224

 Multiplicity           Mult            ....    1
 Number of Electrons    NEL             ....  102
 Basis Dimension        Dim             ....  149

ORBITAL ENERGIES
----------------

  NO   OCC          E(Eh)            E(eV)
   0   2.0000     -19.153090      -521.1821
   1   2.0000     -19.138375      -520.7817
   2   2.0000     -19.136313      -520.7255
   3   2.0000     -19.136027      -520.7178
   4   2.0000     -10.276386      -279.6347
   5   2.0000     -10.246914      -278.8327
   6   2.0000     -10.234152      -278.4854
   7   2.0000     -10.230530      -278.3869
   8   2.0000     -10.230356      -278.3821
   9   2.0000     -10.226564      -278.2789
  10   2.0000     -10.198259      -277.5087
  11   2.0000     -10.195105      -277.4229
  12   2.0000     -10.194994      -277.4199
  13   2.0000      -1.048607       -28.5341
  14   2.0000      -1.035255       -28.1707
  15   2.0000      -1.016410       -27.6579
  16   2.0000      -0.992724       -27.0134
  17   2.0000      -0.790101       -21.4997
  18   2.0000      -0.784913       -21.3586
  19   2.0000      -0.772631       -21.0243
  20   2.0000      -0.732238       -19.9252
  21   2.0000      -0.685590       -18.6558
  22   2.0000      -0.613601       -16.6969
  23   2.0000      -0.605725       -16.4826
  24   2.0000      -0.595795       -16.2124
  25   2.0000      -0.572300       -15.5731
  26   2.0000      -0.527376       -14.3506
  27   2.0000      -0.511187       -13.9101
  28   2.0000      -0.502082       -13.6623
  29   2.0000      -0.496204       -13.5024
  30   2.0000      -0.473734       -12.8910
  31   2.0000      -0.461654       -12.5622
  32   2.0000      -0.441823       -12.0226
  33   2.0000      -0.437794       -11.9130
  34   2.0000      -0.428965       -11.6727
  35   2.0000      -0.419658       -11.4195
  36   2.0000      -0.412384       -11.2215
  37   2.0000      -0.403737       -10.9862
  38   2.0000      -0.383938       -10.4475
  39   2.0000      -0.379559       -10.3283
  40   2.0000      -0.362699        -9.8695
  41   2.0000      -0.355403        -9.6710
  42   2.0000      -0.350704        -9.5431
  43   2.0000      -0.330955        -9.0057
  44   2.0000      -0.317304        -8.6343
  45   2.0000      -0.312624        -8.5069
  46   2.0000      -0.290879        -7.9152
  47   2.0000      -0.273096        -7.4313
  48   2.0000      -0.265328        -7.2199
  49   2.0000      -0.248913        -6.7733
  50   2.0000      -0.241336        -6.5671
  51   0.0000       0.043393         1.1808
  52   0.0000       0.068038         1.8514
  53   0.0000       0.082904         2.2559
  54   0.0000       0.090506         2.4628
  55   0.0000       0.098235         2.6731

MULLIKEN ATOMIC CHARGES
-----------------------
   0 C :    0.310382
   1 C :   -0.295689
   2 C :   -0.308859
   3 C :   -0.005865
   4 O :   -0.495114
   5 H :    0.166410
   6 H :    0.158470
   7 H :    0.142568
   8 H :    0.144807
   9 H :    0.142111
  10 H :    0.147930
  11 H :    0.145402
  12 C :   -0.010880
  13 H :    0.137099
  14 H :    0.112171
  15 O :   -0.512909
  16 C :    0.097227
  17 C :    0.079052
  18 C :   -0.325787
  19 C :   -0.006344
  20 O :   -0.500552
  21 H :    0.172190
  22 H :    0.170815
  23 O :   -0.598931
  24 H :    0.159935
  25 H :    0.128567
  26 H :    0.143751
  27 H :    0.148372
  28 H :    0.353671
Sum of atomic charges:   -0.0000000

LOEWDIN ATOMIC CHARGES
----------------------
   0 C :    0.177489
   1 C :   -0.231171
   2 C :   -0.222285
   3 C :   -0.031880
   4 O :   -0.316486
   5 H :    0.111890
   6 H :    0.124008
   7 H :    0.113521
   8 H :    0.115449
   9 H :    0.105804
  10 H :    0.104957
  11 H :    0.103883
  12 C :   -0.049948
  13 H :    0.096639
  14 H :    0.083377
  15 O :   -0.309420
  16 C :    0.023942
  17 C :    0.034062
  18 C :   -0.241707
  19 C :   -0.029144
  20 O :   -0.309268
  21 H :    0.124334
  22 H :    0.121021
  23 O :   -0.408065
  24 H :    0.123039
  25 H :    0.101164
  26 H :    0.102629
  27 H :    0.105866
  28 H :    0.276300

  Mayer bond orders larger than 0.100000
B(  0-C ,  1-C ) :   0.9275 B(  0-C ,  4-O ) :   0.9058 B(  0-C ,  5-H ) :   0.9333
B(  0-C , 15-O ) :   0.8940 B(  1-C ,  2-C ) :   0.9508 B(  1-C ,  6-H ) :   0.9350
B(  1-C ,  7-H ) :   0.9328 B(  2-C ,  3-C ) :   0.9488 B(  2-C ,  8-H ) :   0.9455
B(  2-C ,  9-H ) :   0.9407 B(  3-C ,  4-O ) :   0.8509 B(  3-C , 10-H ) :   0.9338
B(  3-C , 11-H ) :   0.9388 B( 12-C , 13-H ) :   0.8906 B( 12-C , 14-H ) :   0.9127
B( 12-C , 15-O ) :   0.8496 B( 12-C , 16-C ) :   0.9037 B( 16-C , 17-C ) :   0.8728
B( 16-C , 20-O ) :   0.8747 B( 16-C , 21-H ) :   0.9271 B( 17-C , 18-C ) :   0.9254
B( 17-C , 22-H ) :   0.9327 B( 17-C , 23-O ) :   0.8928 B( 18-C , 19-C ) :   0.9376
B( 18-C , 24-H ) :   0.9415 B( 18-C , 25-H ) :   0.9404 B( 19-C , 20-O ) :   0.8541
B( 19-C , 26-H ) :   0.9316 B( 19-C , 27-H ) :   0.9376 B( 23-O , 28-H ) :   0.7999

FINAL SINGLE POINT ENERGY      -652.847638533728

DIPOLE MOMENT
-------------
                                X             Y             Z
Electronic contribution:     -3.39454      -4.76059       1.50640
Nuclear contribution   :      4.24804       6.50567      -2.36082
                        -----------------------------------------
Total Dipole Moment    :      0.85350       1.74508      -0.85442
                        -----------------------------------------
Magnitude (a.u.)       :      2.12222
Magnitude (Debye)      :      5.39425

Rotational constants in cm-1:     0.051113     0.013455     0.012220
Rotational constants in MHz :  1532.323674   403.375212   366.356514

                             ****ORCA TERMINATED NORMALLY****
TOTAL RUN TIME: 0 days 1 hours 13 minutes 30 seconds 974 msec
