                         Program Version 4.2.0 -  RELEASE  -
|  1> # Test redundant internal optimization
|  2> #
|  3> ! RKS B3LYP  Opt TightSCF SmallPrint
|  4>
|  5> %basis
|  6>         Basis "6-31G"
|  7> end
|  8>
|  9> %geom
| 10> Constraints
| 11> { D 4  0  15  12  255.0   C } # D for Dihedral angle
| 12> { D 0  15  12  16  255.0   C } # D for Dihedral angle
| 13> { D 0  4  3  2   C } # D for Dihedral angle
| 14> { D 4  3  2  1   C } # D for Dihedral angle
| 15> { D 3  2  1  0   C } # D for Dihedral angle
| 16> { D 2  1  0  4   C } # D for Dihedral angle
| 17> { D 1  0  4  3   C } # D for Dihedral angle
| 18> { D 16  20  19  18   C } # D for Dihedral angle
| 19> { D 20  19  18  17   C } # D for Dihedral angle
| 20> { D 19  18  17  16   C } # D for Dihedral angle
| 21> { D 18  17  16  20   C } # D for Dihedral angle
| 22> { D 17  16  20  19   C } # D for Dihedral angle
| 23> { D 15  12  16  20   C } # D for Dihedral angle
| 24> end
| 25> end
| 26>
| 27>
| 28> #%pal
| 29> #nprocs 8
| 30> #end
| 31>
| 32> * xyz 0 1
| 33> C  -21.048   26.222   46.251
| 34> C  -20.361   27.558   45.944
| 35> C  -20.329   28.222   47.341
| 36> C  -20.110   27.022   48.296
| 37> O  -20.473   25.807   47.535
| 38> H  -20.833   25.428   45.533
| 39> H  -19.344   27.382   45.576
| 40> H  -20.898   28.157   45.201
| 41> H  -19.543   28.978   47.434
| 42> H  -21.289   28.710   47.548
| 43> H  -20.733   27.082   49.195
| 44> H  -19.064   26.913   48.597
| 45> C  -23.431   25.260   45.734
| 46> H  -22.787   24.392   45.542
| 47> H  -24.234   24.947   46.414
| 48> O  -22.586   26.394   46.375
| 49> C  -24.088   25.686   44.392
| 50> C  -25.006   24.585   43.847
| 51> C  -26.276   24.780   44.709
| 52> C  -26.334   26.316   44.907
| 53> O  -24.982   26.830   44.599
| 54> H  -23.309   26.009   43.698
| 55> H  -25.225   24.767   42.789
| 56> O  -24.398   23.162   43.983
| 57> H  -27.178   24.387   44.230
| 58> H  -26.159   24.271   45.672
| 59> H  -26.599   26.596   45.932
| 60> H  -27.029   26.800   44.215
| 61> H  -24.171   22.957   45.035
| 62> *
| 63>
| 64>                          ****END OF INPUT****
 Total Charge           Charge          ....    0
 Multiplicity           Mult            ....    1
 Number of Electrons    NEL             ....  102
FINAL SINGLE POINT ENERGY      -652.828286211465
FINAL SINGLE POINT ENERGY      -652.851710588118
FINAL SINGLE POINT ENERGY      -652.856322823832
FINAL SINGLE POINT ENERGY      -652.857179164405
FINAL SINGLE POINT ENERGY      -652.857328346367
FINAL SINGLE POINT ENERGY      -652.857360069232
FINAL SINGLE POINT ENERGY      -652.857365116944
FINAL SINGLE POINT ENERGY      -652.857365934771
                    ***********************HURRAY********************

CARTESIAN COORDINATES (ANGSTROEM)
---------------------------------
  C    -21.051359   26.161978   46.216247
  C    -20.474460   27.543463   45.906009
  C    -20.476460   28.210164   47.302214
  C    -20.155349   27.032026   48.248925
  O    -20.439660   25.798720   47.474169
  H    -20.800424   25.369871   45.503889
  H    -19.451401   27.433521   45.526981
  H    -21.074549   28.082308   45.170282
  H    -19.747009   29.021722   47.383699
  H    -21.471489   28.613088   47.512056
  H    -20.770366   27.029018   49.152343
  H    -19.098713   26.988636   48.530642
  C    -23.317596   25.231750   45.812111
  H    -22.719677   24.327951   45.627133
  H    -24.063438   25.004107   46.582270
  O    -22.485375   26.291924   46.351177
  C    -23.992071   25.663711   44.508655
  C    -24.929428   24.596760   43.915938
  C    -26.238717   24.834082   44.727336
  C    -26.241003   26.365621   44.926680
  O    -24.852328   26.830106   44.680343
  H    -23.217934   25.966442   43.796576
  H    -25.094415   24.807245   42.856938
  O    -24.423938   23.239244   43.944606
  H    -27.123891   24.471061   44.198039
  H    -26.178036   24.303640   45.687006
  H    -26.542980   26.664090   45.935325
  H    -26.881851   26.876533   44.202042
  H    -24.503081   22.861216   44.844371

 Multiplicity           Mult            ....    1
 Number of Electrons    NEL             ....  102
 Basis Dimension        Dim             ....  149

ORBITAL ENERGIES
----------------

  NO   OCC          E(Eh)            E(eV)
   0   2.0000     -19.152218      -521.1583
   1   2.0000     -19.137958      -520.7703
   2   2.0000     -19.137600      -520.7606
   3   2.0000     -19.132464      -520.6208
   4   2.0000     -10.274949      -279.5956
   5   2.0000     -10.247221      -278.8411
   6   2.0000     -10.231170      -278.4043
   7   2.0000     -10.231131      -278.4032
   8   2.0000     -10.231036      -278.4006
   9   2.0000     -10.218741      -278.0661
  10   2.0000     -10.197683      -277.4931
  11   2.0000     -10.178509      -276.9713
  12   2.0000     -10.178368      -276.9675
  13   2.0000      -1.048059       -28.5191
  14   2.0000      -1.034840       -28.1594
  15   2.0000      -1.016613       -27.6634
  16   2.0000      -0.989483       -26.9252
  17   2.0000      -0.785327       -21.3698
  18   2.0000      -0.780404       -21.2359
  19   2.0000      -0.765520       -20.8309
  20   2.0000      -0.728119       -19.8131
  21   2.0000      -0.679310       -18.4850
  22   2.0000      -0.613443       -16.6926
  23   2.0000      -0.595122       -16.1941
  24   2.0000      -0.590939       -16.0803
  25   2.0000      -0.573726       -15.6119
  26   2.0000      -0.530750       -14.4424
  27   2.0000      -0.511853       -13.9282
  28   2.0000      -0.495420       -13.4811
  29   2.0000      -0.488406       -13.2902
  30   2.0000      -0.465450       -12.6655
  31   2.0000      -0.451318       -12.2810
  32   2.0000      -0.442138       -12.0312
  33   2.0000      -0.437939       -11.9169
  34   2.0000      -0.429219       -11.6796
  35   2.0000      -0.417555       -11.3623
  36   2.0000      -0.409066       -11.1313
  37   2.0000      -0.395563       -10.7638
  38   2.0000      -0.379034       -10.3140
  39   2.0000      -0.362578        -9.8663
  40   2.0000      -0.356898        -9.7117
  41   2.0000      -0.349965        -9.5230
  42   2.0000      -0.343382        -9.3439
  43   2.0000      -0.331319        -9.0156
  44   2.0000      -0.318646        -8.6708
  45   2.0000      -0.312909        -8.5147
  46   2.0000      -0.298490        -8.1223
  47   2.0000      -0.273340        -7.4379
  48   2.0000      -0.266777        -7.2594
  49   2.0000      -0.249795        -6.7973
  50   2.0000      -0.233266        -6.3475
  51   0.0000       0.049443         1.3454
  52   0.0000       0.076996         2.0952
  53   0.0000       0.087349         2.3769
  54   0.0000       0.092657         2.5213
  55   0.0000       0.105151         2.8613

MULLIKEN ATOMIC CHARGES
-----------------------
   0 C :    0.275237
   1 C :   -0.253304
   2 C :   -0.300246
   3 C :   -0.000289
   4 O :   -0.506678
   5 H :    0.139301
   6 H :    0.140448
   7 H :    0.158105
   8 H :    0.138421
   9 H :    0.167693
  10 H :    0.147357
  11 H :    0.138729
  12 C :   -0.024424
  13 H :    0.136452
  14 H :    0.140364
  15 O :   -0.503108
  16 C :    0.096924
  17 C :    0.079400
  18 C :   -0.325000
  19 C :   -0.006386
  20 O :   -0.505908
  21 H :    0.152672
  22 H :    0.170127
  23 O :   -0.601154
  24 H :    0.156450
  25 H :    0.135552
  26 H :    0.144919
  27 H :    0.150518
  28 H :    0.357826
Sum of atomic charges:    0.0000000

LOEWDIN ATOMIC CHARGES
----------------------
   0 C :    0.172474
   1 C :   -0.218393
   2 C :   -0.216253
   3 C :   -0.027104
   4 O :   -0.324893
   5 H :    0.096700
   6 H :    0.111363
   7 H :    0.124042
   8 H :    0.112355
   9 H :    0.121892
  10 H :    0.105655
  11 H :    0.100594
  12 C :   -0.047736
  13 H :    0.102076
  14 H :    0.103640
  15 O :   -0.316413
  16 C :    0.011973
  17 C :    0.032538
  18 C :   -0.241331
  19 C :   -0.028882
  20 O :   -0.315097
  21 H :    0.112717
  22 H :    0.120188
  23 O :   -0.408762
  24 H :    0.122386
  25 H :    0.104905
  26 H :    0.103978
  27 H :    0.106467
  28 H :    0.278919

  Mayer bond orders larger than 0.100000
B(  0-C ,  1-C ) :   0.9455 B(  0-C ,  4-O ) :   0.9220 B(  0-C ,  5-H ) :   0.9173
B(  0-C , 15-O ) :   0.8560 B(  1-C ,  2-C ) :   0.9583 B(  1-C ,  6-H ) :   0.9388
B(  1-C ,  7-H ) :   0.9359 B(  2-C ,  3-C ) :   0.9545 B(  2-C ,  8-H ) :   0.9454
B(  2-C ,  9-H ) :   0.9429 B(  3-C ,  4-O ) :   0.8394 B(  3-C , 10-H ) :   0.9356
B(  3-C , 11-H ) :   0.9401 B( 12-C , 13-H ) :   0.9047 B( 12-C , 14-H ) :   0.9351
B( 12-C , 15-O ) :   0.8603 B( 12-C , 16-C ) :   0.8898 B( 16-C , 17-C ) :   0.8707
B( 16-C , 20-O ) :   0.8712 B( 16-C , 21-H ) :   0.9328 B( 17-C , 18-C ) :   0.9261
B( 17-C , 22-H ) :   0.9313 B( 17-C , 23-O ) :   0.8951 B( 18-C , 19-C ) :   0.9384
B( 18-C , 24-H ) :   0.9421 B( 18-C , 25-H ) :   0.9403 B( 19-C , 20-O ) :   0.8497
B( 19-C , 26-H ) :   0.9319 B( 19-C , 27-H ) :   0.9374 B( 23-O , 28-H ) :   0.7976

FINAL SINGLE POINT ENERGY      -652.857366080567

DIPOLE MOMENT
-------------
                                X             Y             Z
Electronic contribution:     -0.02149      -2.32496      -1.20678
Nuclear contribution   :     -0.49783       2.31405       1.31173
                        -----------------------------------------
Total Dipole Moment    :     -0.51931      -0.01091       0.10495
                        -----------------------------------------
Magnitude (a.u.)       :      0.52992
Magnitude (Debye)      :      1.34696

Rotational constants in cm-1:     0.058224     0.012059     0.011059
Rotational constants in MHz :  1745.509933   361.529159   331.535248

                             ****ORCA TERMINATED NORMALLY****
TOTAL RUN TIME: 0 days 1 hours 58 minutes 57 seconds 107 msec
