                         Program Version 4.2.0 -  RELEASE  -
|  1> # Test redundant internal optimization
|  2> #
|  3> ! RKS B3LYP  Opt TightSCF SmallPrint
|  4>
|  5> %basis
|  6>         Basis "6-31G"
|  7> end
|  8>
|  9> %geom
| 10> Constraints
| 11> { D 4  0  15  12  210.0   C } # D for Dihedral angle
| 12> { D 0  15  12  16  210.0   C } # D for Dihedral angle
| 13> { D 0  4  3  2   C } # D for Dihedral angle
| 14> { D 4  3  2  1   C } # D for Dihedral angle
| 15> { D 3  2  1  0   C } # D for Dihedral angle
| 16> { D 2  1  0  4   C } # D for Dihedral angle
| 17> { D 1  0  4  3   C } # D for Dihedral angle
| 18> { D 16  20  19  18   C } # D for Dihedral angle
| 19> { D 20  19  18  17   C } # D for Dihedral angle
| 20> { D 19  18  17  16   C } # D for Dihedral angle
| 21> { D 18  17  16  20   C } # D for Dihedral angle
| 22> { D 17  16  20  19   C } # D for Dihedral angle
| 23> { D 15  12  16  20   C } # D for Dihedral angle
| 24> end
| 25> end
| 26>
| 27>
| 28> #%pal
| 29> #nprocs 8
| 30> #end
| 31>
| 32> * xyz 0 1
| 33> C  -21.048   26.222   46.251
| 34> C  -20.361   27.558   45.944
| 35> C  -20.329   28.222   47.341
| 36> C  -20.110   27.022   48.296
| 37> O  -20.473   25.807   47.535
| 38> H  -20.833   25.428   45.533
| 39> H  -19.344   27.382   45.576
| 40> H  -20.898   28.157   45.201
| 41> H  -19.543   28.978   47.434
| 42> H  -21.289   28.710   47.548
| 43> H  -20.733   27.082   49.195
| 44> H  -19.064   26.913   48.597
| 45> C  -23.389   26.110   45.076
| 46> H  -22.765   26.347   44.205
| 47> H  -23.668   25.050   45.021
| 48> O  -22.586   26.394   46.375
| 49> C  -24.695   26.948   44.982
| 50> C  -24.389   28.446   44.882
| 51> C  -24.007   28.589   43.389
| 52> C  -24.938   27.567   42.689
| 53> O  -25.412   26.641   43.740
| 54> H  -25.355   26.675   45.808
| 55> O  -25.664   29.272   45.204
| 56> H  -23.590   28.769   45.558
| 57> H  -24.146   29.607   43.012
| 58> H  -22.955   28.318   43.243
| 59> H  -24.422   26.994   41.912
| 60> H  -25.822   28.039   42.252
| 61> H  -26.479   28.967   44.538
| 62> *
| 63>
| 64>                          ****END OF INPUT****
 Total Charge           Charge          ....    0
 Multiplicity           Mult            ....    1
 Number of Electrons    NEL             ....  102
FINAL SINGLE POINT ENERGY      -652.834524090080
FINAL SINGLE POINT ENERGY      -652.857156854681
FINAL SINGLE POINT ENERGY      -652.860378608239
FINAL SINGLE POINT ENERGY      -652.860970568251
FINAL SINGLE POINT ENERGY      -652.861057512073
FINAL SINGLE POINT ENERGY      -652.861067340157
                    ***********************HURRAY********************

CARTESIAN COORDINATES (ANGSTROEM)
---------------------------------
  C    -21.116398   26.197896   46.198220
  C    -20.414360   27.515380   45.875604
  C    -20.465437   28.248607   47.238064
  C    -20.305803   27.097578   48.253511
  O    -20.630543   25.854797   47.503413
  H    -20.880003   25.362570   45.531902
  H    -19.377882   27.312402   45.580678
  H    -20.900184   28.071611   45.068945
  H    -19.681474   29.005381   47.336766
  H    -21.435878   28.738211   47.361365
  H    -20.984804   27.176299   49.105758
  H    -19.279126   26.985265   48.613775
  C    -23.305133   26.061014   45.056424
  H    -22.689388   26.238546   44.162740
  H    -23.606500   25.006702   45.059104
  O    -22.561522   26.378015   46.268757
  C    -24.548759   26.948647   45.010099
  C    -24.276394   28.456755   44.919518
  C    -23.962065   28.629220   43.409977
  C    -24.902354   27.598812   42.735700
  O    -25.313489   26.644910   43.795239
  H    -25.192527   26.722898   45.864431
  O    -25.451498   29.218644   45.310537
  H    -23.477051   28.787135   45.579689
  H    -24.156317   29.655877   43.090347
  H    -22.909363   28.400695   43.207557
  H    -24.416704   27.044338   41.927002
  H    -25.815513   28.057264   42.344301
  H    -26.250532   28.798533   44.927577

 Multiplicity           Mult            ....    1
 Number of Electrons    NEL             ....  102
 Basis Dimension        Dim             ....  149

ORBITAL ENERGIES
----------------

  NO   OCC          E(Eh)            E(eV)
   0   2.0000     -19.148220      -521.0496
   1   2.0000     -19.144201      -520.9402
   2   2.0000     -19.142502      -520.8940
   3   2.0000     -19.138255      -520.7784
   4   2.0000     -10.283380      -279.8250
   5   2.0000     -10.239874      -278.6411
   6   2.0000     -10.235571      -278.5240
   7   2.0000     -10.235185      -278.5135
   8   2.0000     -10.234574      -278.4969
   9   2.0000     -10.226577      -278.2793
  10   2.0000     -10.192360      -277.3482
  11   2.0000     -10.191073      -277.3132
  12   2.0000     -10.189049      -277.2581
  13   2.0000      -1.055504       -28.7217
  14   2.0000      -1.039371       -28.2827
  15   2.0000      -1.007484       -27.4150
  16   2.0000      -0.997720       -27.1493
  17   2.0000      -0.790371       -21.5071
  18   2.0000      -0.782875       -21.3031
  19   2.0000      -0.770765       -20.9736
  20   2.0000      -0.733195       -19.9512
  21   2.0000      -0.677800       -18.4439
  22   2.0000      -0.607423       -16.5288
  23   2.0000      -0.603085       -16.4108
  24   2.0000      -0.592123       -16.1125
  25   2.0000      -0.587465       -15.9857
  26   2.0000      -0.526277       -14.3207
  27   2.0000      -0.520023       -14.1505
  28   2.0000      -0.496959       -13.5229
  29   2.0000      -0.494817       -13.4646
  30   2.0000      -0.474940       -12.9238
  31   2.0000      -0.458306       -12.4711
  32   2.0000      -0.454968       -12.3803
  33   2.0000      -0.442252       -12.0343
  34   2.0000      -0.425235       -11.5712
  35   2.0000      -0.417735       -11.3672
  36   2.0000      -0.407047       -11.0763
  37   2.0000      -0.395522       -10.7627
  38   2.0000      -0.377272       -10.2661
  39   2.0000      -0.372156       -10.1269
  40   2.0000      -0.364343        -9.9143
  41   2.0000      -0.359452        -9.7812
  42   2.0000      -0.355861        -9.6835
  43   2.0000      -0.333369        -9.0714
  44   2.0000      -0.315393        -8.5823
  45   2.0000      -0.314183        -8.5494
  46   2.0000      -0.307508        -8.3677
  47   2.0000      -0.273534        -7.4432
  48   2.0000      -0.264476        -7.1968
  49   2.0000      -0.258672        -7.0388
  50   2.0000      -0.244263        -6.6467
  51   0.0000       0.057742         1.5712
  52   0.0000       0.064571         1.7571
  53   0.0000       0.085575         2.3286
  54   0.0000       0.094014         2.5582
  55   0.0000       0.101476         2.7613

MULLIKEN ATOMIC CHARGES
-----------------------
   0 C :    0.294083
   1 C :   -0.267058
   2 C :   -0.305476
   3 C :   -0.002037
   4 O :   -0.500702
   5 H :    0.141565
   6 H :    0.146314
   7 H :    0.140026
   8 H :    0.144081
   9 H :    0.167504
  10 H :    0.157212
  11 H :    0.142804
  12 C :   -0.004085
  13 H :    0.119319
  14 H :    0.156723
  15 O :   -0.517409
  16 C :    0.055241
  17 C :    0.086788
  18 C :   -0.302629
  19 C :   -0.027817
  20 O :   -0.526139
  21 H :    0.172369
  22 O :   -0.604682
  23 H :    0.171118
  24 H :    0.162975
  25 H :    0.141527
  26 H :    0.145616
  27 H :    0.148103
  28 H :    0.364665
Sum of atomic charges:    0.0000000

LOEWDIN ATOMIC CHARGES
----------------------
   0 C :    0.179982
   1 C :   -0.228680
   2 C :   -0.217362
   3 C :   -0.024732
   4 O :   -0.304573
   5 H :    0.098437
   6 H :    0.114479
   7 H :    0.111400
   8 H :    0.115472
   9 H :    0.119060
  10 H :    0.110928
  11 H :    0.103006
  12 C :   -0.037759
  13 H :    0.088896
  14 H :    0.110176
  15 O :   -0.339494
  16 C :    0.017157
  17 C :    0.037272
  18 C :   -0.242346
  19 C :   -0.037608
  20 O :   -0.329747
  21 H :    0.121410
  22 O :   -0.414396
  23 H :    0.122121
  24 H :    0.127165
  25 H :    0.109563
  26 H :    0.103569
  27 H :    0.103858
  28 H :    0.282745

  Mayer bond orders larger than 0.100000
B(  0-C ,  1-C ) :   0.9314 B(  0-C ,  4-O ) :   0.9409 B(  0-C ,  5-H ) :   0.9214
B(  0-C , 15-O ) :   0.8297 B(  1-C ,  2-C ) :   0.9529 B(  1-C ,  6-H ) :   0.9339
B(  1-C ,  7-H ) :   0.9352 B(  2-C ,  3-C ) :   0.9543 B(  2-C ,  8-H ) :   0.9446
B(  2-C ,  9-H ) :   0.9405 B(  3-C ,  4-O ) :   0.8347 B(  3-C , 10-H ) :   0.9341
B(  3-C , 11-H ) :   0.9396 B( 12-C , 13-H ) :   0.9192 B( 12-C , 14-H ) :   0.9182
B( 12-C , 15-O ) :   0.8313 B( 12-C , 16-C ) :   0.9058 B( 16-C , 17-C ) :   0.9107
B( 16-C , 20-O ) :   0.8427 B( 16-C , 21-H ) :   0.9237 B( 17-C , 18-C ) :   0.9103
B( 17-C , 22-O ) :   0.8899 B( 17-C , 23-H ) :   0.9214 B( 18-C , 19-C ) :   0.9390
B( 18-C , 24-H ) :   0.9383 B( 18-C , 25-H ) :   0.9331 B( 19-C , 20-O ) :   0.8441
B( 19-C , 26-H ) :   0.9358 B( 19-C , 27-H ) :   0.9380 B( 22-O , 28-H ) :   0.7945

FINAL SINGLE POINT ENERGY      -652.861069368241

DIPOLE MOMENT
-------------
                                X             Y             Z
Electronic contribution:     -4.05117      -3.68531       2.08254
Nuclear contribution   :      4.87330       4.29715      -3.11607
                        -----------------------------------------
Total Dipole Moment    :      0.82213       0.61185      -1.03353
                        -----------------------------------------
Magnitude (a.u.)       :      1.45548
Magnitude (Debye)      :      3.69954

Rotational constants in cm-1:     0.053673     0.013504     0.012666
Rotational constants in MHz :  1609.070498   404.848115   379.726821

                             ****ORCA TERMINATED NORMALLY****
TOTAL RUN TIME: 0 days 0 hours 18 minutes 18 seconds 21 msec
