                         Program Version 4.2.0 -  RELEASE  -
|  1> # Test redundant internal optimization
|  2> #
|  3> ! RKS B3LYP  Opt TightSCF SmallPrint
|  4>
|  5> %basis
|  6>         Basis "6-31G"
|  7> end
|  8>
|  9> %geom
| 10> Constraints
| 11> { D 4  0  15  12  345.0   C } # D for Dihedral angle
| 12> { D 0  15  12  16  105.0   C } # D for Dihedral angle
| 13> { D 0  4  3  2   C } # D for Dihedral angle
| 14> { D 4  3  2  1   C } # D for Dihedral angle
| 15> { D 3  2  1  0   C } # D for Dihedral angle
| 16> { D 2  1  0  4   C } # D for Dihedral angle
| 17> { D 1  0  4  3   C } # D for Dihedral angle
| 18> { D 16  20  19  18   C } # D for Dihedral angle
| 19> { D 20  19  18  17   C } # D for Dihedral angle
| 20> { D 19  18  17  16   C } # D for Dihedral angle
| 21> { D 18  17  16  20   C } # D for Dihedral angle
| 22> { D 17  16  20  19   C } # D for Dihedral angle
| 23> { D 15  12  16  20   C } # D for Dihedral angle
| 24> end
| 25> end
| 26>
| 27>
| 28> #%pal
| 29> #nprocs 8
| 30> #end
| 31>
| 32> * xyz 0 1
| 33> C  -21.048   26.222   46.251
| 34> C  -20.361   27.558   45.944
| 35> C  -20.329   28.222   47.341
| 36> C  -20.110   27.022   48.296
| 37> O  -20.473   25.807   47.535
| 38> H  -20.833   25.428   45.533
| 39> H  -19.344   27.382   45.576
| 40> H  -20.898   28.157   45.201
| 41> H  -19.543   28.978   47.434
| 42> H  -21.289   28.710   47.548
| 43> H  -20.733   27.082   49.195
| 44> H  -19.064   26.913   48.597
| 45> C  -23.221   25.764   47.645
| 46> H  -24.124   25.210   47.362
| 47> H  -22.521   25.062   48.116
| 48> O  -22.586   26.394   46.375
| 49> C  -23.613   26.826   48.710
| 50> C  -24.718   27.752   48.191
| 51> C  -25.978   26.873   48.380
| 52> C  -25.667   26.087   49.678
| 53> O  -24.206   26.178   49.885
| 54> H  -22.713   27.341   49.049
| 55> O  -24.802   29.027   49.074
| 56> H  -24.568   28.063   47.152
| 57> H  -26.898   27.461   48.458
| 58> H  -26.089   26.189   47.530
| 59> H  -25.954   25.032   49.608
| 60> H  -26.146   26.526   50.557
| 61> H  -24.954   28.741   50.122
| 62> *
| 63>
| 64>                          ****END OF INPUT****
 Total Charge           Charge          ....    0
 Multiplicity           Mult            ....    1
 Number of Electrons    NEL             ....  102
FINAL SINGLE POINT ENERGY      -652.837760840174
FINAL SINGLE POINT ENERGY      -652.859822832061
FINAL SINGLE POINT ENERGY      -652.863530068842
FINAL SINGLE POINT ENERGY      -652.864065183783
FINAL SINGLE POINT ENERGY      -652.864150733861
FINAL SINGLE POINT ENERGY      -652.864164330981
                    ***********************HURRAY********************

CARTESIAN COORDINATES (ANGSTROEM)
---------------------------------
  C    -21.103035   26.218707   46.357851
  C    -20.548336   27.600980   46.011479
  C    -20.407417   28.245653   47.410886
  C    -20.004006   27.055328   48.308740
  O    -20.376817   25.830039   47.541084
  H    -20.895030   25.443120   45.615478
  H    -19.571473   27.482716   45.529119
  H    -21.212068   28.156743   45.345776
  H    -19.659649   29.044591   47.429577
  H    -21.364577   28.673412   47.724609
  H    -20.516603   27.036512   49.273715
  H    -18.925011   26.994535   48.476185
  C    -23.185753   25.671348   47.679093
  H    -24.053004   25.119551   47.302175
  H    -22.503928   24.972096   48.170259
  O    -22.552750   26.288326   46.517233
  C    -23.613350   26.744405   48.680382
  C    -24.660786   27.736897   48.159633
  C    -25.970770   26.928826   48.334489
  C    -25.717631   26.115947   49.629323
  O    -24.249505   26.121819   49.848168
  H    -22.733734   27.275124   49.053256
  O    -24.656692   28.957977   48.953009
  H    -24.473233   28.051037   47.133988
  H    -26.832121   27.596970   48.411909
  H    -26.124696   26.269212   47.473850
  H    -26.062323   25.080069   49.556755
  H    -26.176894   26.574915   50.510672
  H    -24.631809   28.720144   49.904307

 Multiplicity           Mult            ....    1
 Number of Electrons    NEL             ....  102
 Basis Dimension        Dim             ....  149

ORBITAL ENERGIES
----------------

  NO   OCC          E(Eh)            E(eV)
   0   2.0000     -19.151810      -521.1472
   1   2.0000     -19.143532      -520.9220
   2   2.0000     -19.140723      -520.8455
   3   2.0000     -19.136079      -520.7192
   4   2.0000     -10.280158      -279.7373
   5   2.0000     -10.235096      -278.5111
   6   2.0000     -10.232315      -278.4355
   7   2.0000     -10.231171      -278.4043
   8   2.0000     -10.229885      -278.3693
   9   2.0000     -10.224929      -278.2345
  10   2.0000     -10.189444      -277.2689
  11   2.0000     -10.187324      -277.2112
  12   2.0000     -10.186519      -277.1893
  13   2.0000      -1.055210       -28.7137
  14   2.0000      -1.035006       -28.1640
  15   2.0000      -1.004192       -27.3255
  16   2.0000      -0.993527       -27.0353
  17   2.0000      -0.791403       -21.5352
  18   2.0000      -0.779289       -21.2055
  19   2.0000      -0.767582       -20.8870
  20   2.0000      -0.732601       -19.9351
  21   2.0000      -0.672718       -18.3056
  22   2.0000      -0.604310       -16.4441
  23   2.0000      -0.602394       -16.3920
  24   2.0000      -0.597686       -16.2639
  25   2.0000      -0.573809       -15.6141
  26   2.0000      -0.524963       -14.2850
  27   2.0000      -0.508281       -13.8310
  28   2.0000      -0.497651       -13.5418
  29   2.0000      -0.491702       -13.3799
  30   2.0000      -0.475297       -12.9335
  31   2.0000      -0.456811       -12.4304
  32   2.0000      -0.454478       -12.3670
  33   2.0000      -0.433588       -11.7985
  34   2.0000      -0.420808       -11.4508
  35   2.0000      -0.414810       -11.2876
  36   2.0000      -0.401200       -10.9172
  37   2.0000      -0.391542       -10.6544
  38   2.0000      -0.374564       -10.1924
  39   2.0000      -0.366150        -9.9634
  40   2.0000      -0.360852        -9.8193
  41   2.0000      -0.358674        -9.7600
  42   2.0000      -0.350905        -9.5486
  43   2.0000      -0.337163        -9.1747
  44   2.0000      -0.326922        -8.8960
  45   2.0000      -0.310099        -8.4382
  46   2.0000      -0.299802        -8.1580
  47   2.0000      -0.272963        -7.4277
  48   2.0000      -0.266319        -7.2469
  49   2.0000      -0.261571        -7.1177
  50   2.0000      -0.237811        -6.4712
  51   0.0000       0.064682         1.7601
  52   0.0000       0.075582         2.0567
  53   0.0000       0.091056         2.4778
  54   0.0000       0.096577         2.6280
  55   0.0000       0.101999         2.7755

MULLIKEN ATOMIC CHARGES
-----------------------
   0 C :    0.304784
   1 C :   -0.260682
   2 C :   -0.316568
   3 C :   -0.021018
   4 O :   -0.512413
   5 H :    0.154123
   6 H :    0.146301
   7 H :    0.161530
   8 H :    0.148591
   9 H :    0.170110
  10 H :    0.152264
  11 H :    0.152436
  12 C :   -0.025511
  13 H :    0.139537
  14 H :    0.177945
  15 O :   -0.541801
  16 C :    0.057719
  17 C :    0.088081
  18 C :   -0.298359
  19 C :   -0.030886
  20 O :   -0.528227
  21 H :    0.152945
  22 O :   -0.605682
  23 H :    0.172587
  24 H :    0.160695
  25 H :    0.148574
  26 H :    0.147770
  27 H :    0.144600
  28 H :    0.360554
Sum of atomic charges:   -0.0000000

LOEWDIN ATOMIC CHARGES
----------------------
   0 C :    0.182440
   1 C :   -0.217883
   2 C :   -0.221432
   3 C :   -0.032895
   4 O :   -0.318801
   5 H :    0.101266
   6 H :    0.114859
   7 H :    0.126360
   8 H :    0.118097
   9 H :    0.119319
  10 H :    0.104483
  11 H :    0.108029
  12 C :   -0.043028
  13 H :    0.103481
  14 H :    0.122803
  15 O :   -0.345235
  16 C :    0.007561
  17 C :    0.035367
  18 C :   -0.240742
  19 C :   -0.038091
  20 O :   -0.331342
  21 H :    0.108494
  22 O :   -0.416892
  23 H :    0.125533
  24 H :    0.126004
  25 H :    0.115858
  26 H :    0.104581
  27 H :    0.101498
  28 H :    0.280312

  Mayer bond orders larger than 0.100000
B(  0-C ,  1-C ) :   0.9372 B(  0-C ,  4-O ) :   0.9123 B(  0-C ,  5-H ) :   0.9277
B(  0-C , 15-O ) :   0.8393 B(  1-C ,  2-C ) :   0.9516 B(  1-C ,  6-H ) :   0.9363
B(  1-C ,  7-H ) :   0.9354 B(  2-C ,  3-C ) :   0.9542 B(  2-C ,  8-H ) :   0.9442
B(  2-C ,  9-H ) :   0.9360 B(  3-C ,  4-O ) :   0.8264 B(  3-C , 10-H ) :   0.9275
B(  3-C , 11-H ) :   0.9390 B( 12-C , 13-H ) :   0.9362 B( 12-C , 14-H ) :   0.9111
B( 12-C , 15-O ) :   0.8283 B( 12-C , 16-C ) :   0.8889 B( 16-C , 17-C ) :   0.9098
B( 16-C , 20-O ) :   0.8397 B( 16-C , 21-H ) :   0.9190 B( 17-C , 18-C ) :   0.9152
B( 17-C , 22-O ) :   0.8841 B( 17-C , 23-H ) :   0.9244 B( 18-C , 19-C ) :   0.9428
B( 18-C , 24-H ) :   0.9380 B( 18-C , 25-H ) :   0.9340 B( 19-C , 20-O ) :   0.8432
B( 19-C , 26-H ) :   0.9350 B( 19-C , 27-H ) :   0.9380 B( 22-O , 28-H ) :   0.7979

FINAL SINGLE POINT ENERGY      -652.864166598597

DIPOLE MOMENT
-------------
                                X             Y             Z
Electronic contribution:     -0.04025      -1.97325       0.56026
Nuclear contribution   :      0.01292       2.09182      -0.64814
                        -----------------------------------------
Total Dipole Moment    :     -0.02734       0.11857      -0.08789
                        -----------------------------------------
Magnitude (a.u.)       :      0.15010
Magnitude (Debye)      :      0.38153

Rotational constants in cm-1:     0.049858     0.015437     0.014676
Rotational constants in MHz :  1494.714921   462.796147   439.964571

                             ****ORCA TERMINATED NORMALLY****
TOTAL RUN TIME: 0 days 0 hours 21 minutes 14 seconds 950 msec
