                         Program Version 4.2.1 -  RELEASE  -
|  1> # Test redundant internal optimization
|  2> #
|  3> ! RKS B3LYP  Opt TightSCF SmallPrint
|  4>
|  5> %basis
|  6>         Basis "6-31G"
|  7> end
|  8>
|  9> %geom
| 10> Constraints
| 11> { D 4  0  19  14  90.0   C } # D for Dihedral angle
| 12> { D 0  19  14  12  75.0   C } # D for Dihedral angle
| 13> { D 0  4  3  2   C } # D for Dihedral angle
| 14> { D 4  3  2  1   C } # D for Dihedral angle
| 15> { D 3  2  1  0   C } # D for Dihedral angle
| 16> { D 2  1  0  4   C } # D for Dihedral angle
| 17> { D 1  0  4  3   C } # D for Dihedral angle
| 18> { D 14  15  16  17   C } # D for Dihedral angle
| 19> { D 15  16  17  12   C } # D for Dihedral angle
| 20> { D 16  17  12  14   C } # D for Dihedral angle
| 21> { D 17  12  14  15   C } # D for Dihedral angle
| 22> { D 12  14  15  16   C } # D for Dihedral angle
| 23> end
| 24> end
| 25>
| 26>
| 27> #%pal
| 28> #nprocs 8
| 29> #end
| 30>
| 31> * xyz 0 1
| 32> C  -21.048   26.222   46.251
| 33> C  -20.361   27.558   45.944
| 34> C  -20.329   28.222   47.341
| 35> C  -20.110   27.022   48.296
| 36> O  -20.473   25.807   47.535
| 37> H  -20.833   25.428   45.533
| 38> H  -19.344   27.382   45.576
| 39> H  -20.898   28.157   45.201
| 40> H  -19.543   28.978   47.434
| 41> H  -21.289   28.710   47.548
| 42> H  -20.733   27.082   49.195
| 43> H  -19.064   26.913   48.597
| 44> C  -22.757   28.657   45.553
| 45> H  -22.789   29.709   45.878
| 46> C  -22.892   27.702   46.744
| 47> C  -24.416   27.737   47.005
| 48> C  -25.013   27.874   45.582
| 49> O  -23.917   28.348   44.709
| 50> H  -21.867   28.498   44.943
| 51> O  -22.472   26.381   46.366
| 52> H  -22.305   28.015   47.615
| 53> H  -24.779   26.846   47.526
| 54> H  -24.674   28.611   47.617
| 55> H  -25.840   28.590   45.540
| 56> H  -25.354   26.915   45.179
| 57> *
| 58>
| 59>                          ****END OF INPUT****
 Total Charge           Charge          ....    0
 Multiplicity           Mult            ....    1
 Number of Electrons    NEL             ....   86
FINAL SINGLE POINT ENERGY      -538.340789575137
FINAL SINGLE POINT ENERGY      -538.417010155594
FINAL SINGLE POINT ENERGY      -538.421703045353
FINAL SINGLE POINT ENERGY      -538.422827374538
FINAL SINGLE POINT ENERGY      -538.423002728555
FINAL SINGLE POINT ENERGY      -538.423081317242
FINAL SINGLE POINT ENERGY      -538.423094102006
FINAL SINGLE POINT ENERGY      -538.423090252694
                    ***********************HURRAY********************

CARTESIAN COORDINATES (ANGSTROEM)
---------------------------------
  C    -21.117230   26.328592   46.398595
  C    -20.121274   27.405474   45.946737
  C    -19.828309   28.156972   47.278147
  C    -19.879074   27.013300   48.323329
  O    -20.596331   25.892887   47.677298
  H    -21.104706   25.443236   45.762072
  H    -19.217060   26.891679   45.602425
  H    -20.476853   28.039099   45.135383
  H    -18.856269   28.659251   47.266452
  H    -20.589857   28.917741   47.477394
  H    -20.404847   27.294146   49.241222
  H    -18.881416   26.648022   48.584364
  C    -23.081009   28.954345   45.683959
  H    -23.370763   29.934503   46.094990
  C    -23.135949   27.908665   46.796847
  C    -24.646809   27.622151   46.880109
  C    -25.117464   27.741328   45.412277
  O    -24.056377   28.489662   44.696220
  H    -22.128771   29.056554   45.169643
  O    -22.531168   26.619101   46.472046
  H    -22.738339   28.288617   47.746790
  H    -24.820632   26.633029   47.307737
  H    -25.131543   28.372620   47.515220
  H    -26.063205   28.285051   45.314592
  H    -25.204748   26.767977   44.924151

 Multiplicity           Mult            ....    1
 Number of Electrons    NEL             ....   86
 Basis Dimension        Dim             ....  127

ORBITAL ENERGIES
----------------

  NO   OCC          E(Eh)            E(eV)
   0   2.0000     -19.140180      -520.8308
   1   2.0000     -19.138231      -520.7778
   2   2.0000     -19.129939      -520.5521
   3   2.0000     -10.278805      -279.7005
   4   2.0000     -10.243736      -278.7462
   5   2.0000     -10.229104      -278.3481
   6   2.0000     -10.226112      -278.2667
   7   2.0000     -10.219143      -278.0770
   8   2.0000     -10.196237      -277.4537
   9   2.0000     -10.194021      -277.3934
  10   2.0000     -10.184001      -277.1208
  11   2.0000      -1.049739       -28.5649
  12   2.0000      -1.014962       -27.6185
  13   2.0000      -0.988951       -26.9107
  14   2.0000      -0.791931       -21.5495
  15   2.0000      -0.786789       -21.4096
  16   2.0000      -0.739612       -20.1259
  17   2.0000      -0.727653       -19.8004
  18   2.0000      -0.623587       -16.9687
  19   2.0000      -0.606079       -16.4922
  20   2.0000      -0.598217       -16.2783
  21   2.0000      -0.566355       -15.4113
  22   2.0000      -0.517549       -14.0832
  23   2.0000      -0.504420       -13.7260
  24   2.0000      -0.491710       -13.3801
  25   2.0000      -0.486662       -13.2427
  26   2.0000      -0.453007       -12.3269
  27   2.0000      -0.443711       -12.0740
  28   2.0000      -0.436155       -11.8684
  29   2.0000      -0.416935       -11.3454
  30   2.0000      -0.410118       -11.1599
  31   2.0000      -0.390519       -10.6266
  32   2.0000      -0.371846       -10.1184
  33   2.0000      -0.369472       -10.0538
  34   2.0000      -0.365140        -9.9360
  35   2.0000      -0.361508        -9.8371
  36   2.0000      -0.343735        -9.3535
  37   2.0000      -0.314900        -8.5689
  38   2.0000      -0.306036        -8.3277
  39   2.0000      -0.293318        -7.9816
  40   2.0000      -0.268697        -7.3116
  41   2.0000      -0.250196        -6.8082
  42   2.0000      -0.236052        -6.4233
  43   0.0000       0.064942         1.7672
  44   0.0000       0.087747         2.3877
  45   0.0000       0.093872         2.5544
  46   0.0000       0.101509         2.7622
  47   0.0000       0.115134         3.1330

MULLIKEN ATOMIC CHARGES
-----------------------
   0 C :    0.310395
   1 C :   -0.296958
   2 C :   -0.312660
   3 C :   -0.005799
   4 O :   -0.499158
   5 H :    0.167398
   6 H :    0.158374
   7 H :    0.155576
   8 H :    0.146743
   9 H :    0.143334
  10 H :    0.142742
  11 H :    0.146159
  12 C :   -0.004911
  13 H :    0.121869
  14 C :    0.079484
  15 C :   -0.289160
  16 C :    0.001916
  17 O :   -0.522218
  18 H :    0.154186
  19 O :   -0.524987
  20 H :    0.124638
  21 H :    0.172310
  22 H :    0.139331
  23 H :    0.133639
  24 H :    0.157758
Sum of atomic charges:   -0.0000000

LOEWDIN ATOMIC CHARGES
----------------------
   0 C :    0.178761
   1 C :   -0.230897
   2 C :   -0.223122
   3 C :   -0.032539
   4 O :   -0.319599
   5 H :    0.114031
   6 H :    0.123833
   7 H :    0.118762
   8 H :    0.116642
   9 H :    0.105881
  10 H :    0.101690
  11 H :    0.103995
  12 C :   -0.048422
  13 H :    0.091745
  14 C :    0.040394
  15 C :   -0.221193
  16 C :   -0.026670
  17 O :   -0.332003
  18 H :    0.111680
  19 O :   -0.318839
  20 H :    0.093318
  21 H :    0.133498
  22 H :    0.110785
  23 H :    0.097639
  24 H :    0.110632

  Mayer bond orders larger than 0.100000
B(  0-C ,  1-C ) :   0.9214 B(  0-C ,  4-O ) :   0.9009 B(  0-C ,  5-H ) :   0.9344
B(  0-C , 19-O ) :   0.9001 B(  1-C ,  2-C ) :   0.9538 B(  1-C ,  6-H ) :   0.9324
B(  1-C ,  7-H ) :   0.9239 B(  2-C ,  3-C ) :   0.9461 B(  2-C ,  8-H ) :   0.9453
B(  2-C ,  9-H ) :   0.9415 B(  3-C ,  4-O ) :   0.8512 B(  3-C , 10-H ) :   0.9343
B(  3-C , 11-H ) :   0.9385 B( 12-C , 13-H ) :   0.9083 B( 12-C , 14-C ) :   0.9069
B( 12-C , 17-O ) :   0.8782 B( 12-C , 18-H ) :   0.9240 B( 14-C , 15-C ) :   0.9556
B( 14-C , 19-O ) :   0.8315 B( 14-C , 20-H ) :   0.9156 B( 15-C , 16-C ) :   0.9469
B( 15-C , 21-H ) :   0.9348 B( 15-C , 22-H ) :   0.9423 B( 16-C , 17-O ) :   0.8496
B( 16-C , 23-H ) :   0.9339 B( 16-C , 24-H ) :   0.9361

FINAL SINGLE POINT ENERGY      -538.423088711339

DIPOLE MOMENT
-------------
                                X             Y             Z
Electronic contribution:     -1.14522      -3.51127      -1.38765
Nuclear contribution   :      1.64324       4.45796       1.97222
                        -----------------------------------------
Total Dipole Moment    :      0.49802       0.94669       0.58457
                        -----------------------------------------
Magnitude (a.u.)       :      1.21900
Magnitude (Debye)      :      3.09845

Rotational constants in cm-1:     0.080271     0.022211     0.020680
Rotational constants in MHz :  2406.456919   665.854572   619.956781

                             ****ORCA TERMINATED NORMALLY****
TOTAL RUN TIME: 0 days 0 hours 9 minutes 31 seconds 873 msec
