                         Program Version 4.2.0 -  RELEASE  -
|  1> # Test redundant internal optimization
|  2> #
|  3> ! RKS B3LYP  Opt TightSCF SmallPrint
|  4>
|  5> %basis
|  6>         Basis "6-31G"
|  7> end
|  8>
|  9> %geom
| 10> Constraints
| 11> { D 4  0  15  12  210.0   C } # D for Dihedral angle
| 12> { D 0  15  12  16  285.0   C } # D for Dihedral angle
| 13> { D 0  4  3  2   C } # D for Dihedral angle
| 14> { D 4  3  2  1   C } # D for Dihedral angle
| 15> { D 3  2  1  0   C } # D for Dihedral angle
| 16> { D 2  1  0  4   C } # D for Dihedral angle
| 17> { D 1  0  4  3   C } # D for Dihedral angle
| 18> { D 16  20  19  18   C } # D for Dihedral angle
| 19> { D 20  19  18  17   C } # D for Dihedral angle
| 20> { D 19  18  17  16   C } # D for Dihedral angle
| 21> { D 18  17  16  20   C } # D for Dihedral angle
| 22> { D 17  16  20  19   C } # D for Dihedral angle
| 23> { D 15  12  16  20   C } # D for Dihedral angle
| 24> end
| 25> end
| 26>
| 27>
| 28> #%pal
| 29> #nprocs 8
| 30> #end
| 31>
| 32> * xyz 0 1
| 33> C  -21.048   26.222   46.251
| 34> C  -20.361   27.558   45.944
| 35> C  -20.329   28.222   47.341
| 36> C  -20.110   27.022   48.296
| 37> O  -20.473   25.807   47.535
| 38> H  -20.833   25.428   45.533
| 39> H  -19.344   27.382   45.576
| 40> H  -20.898   28.157   45.201
| 41> H  -19.543   28.978   47.434
| 42> H  -21.289   28.710   47.548
| 43> H  -20.733   27.082   49.195
| 44> H  -19.064   26.913   48.597
| 45> C  -23.389   26.110   45.076
| 46> H  -23.022   25.183   44.619
| 47> H  -24.455   25.981   45.304
| 48> O  -22.586   26.394   46.375
| 49> C  -23.264   27.254   44.031
| 50> C  -24.159   26.995   42.814
| 51> C  -25.546   27.425   43.347
| 52> C  -25.211   28.615   44.281
| 53> O  -23.768   28.514   44.588
| 54> H  -22.210   27.407   43.793
| 55> O  -23.722   27.900   41.629
| 56> H  -24.138   25.952   42.478
| 57> H  -26.240   27.705   42.548
| 58> H  -26.002   26.605   43.915
| 59> H  -25.779   28.586   45.217
| 60> H  -25.371   29.583   43.798
| 61> H  -23.737   28.949   41.943
| 62> *
| 63>
| 64>                          ****END OF INPUT****
 Total Charge           Charge          ....    0
 Multiplicity           Mult            ....    1
 Number of Electrons    NEL             ....  102
FINAL SINGLE POINT ENERGY      -652.830553696506
FINAL SINGLE POINT ENERGY      -652.853433448865
FINAL SINGLE POINT ENERGY      -652.857699763500
FINAL SINGLE POINT ENERGY      -652.858390312795
FINAL SINGLE POINT ENERGY      -652.858486421849
FINAL SINGLE POINT ENERGY      -652.858495357719
                    ***********************HURRAY********************

CARTESIAN COORDINATES (ANGSTROEM)
---------------------------------
  C    -21.032141   26.239377   46.151203
  C    -20.354663   27.589816   45.921158
  C    -20.405302   28.221052   47.335658
  C    -20.217104   26.999756   48.259774
  O    -20.527402   25.810928   47.424674
  H    -20.796512   25.458239   45.418783
  H    -19.317316   27.423712   45.604612
  H    -20.856167   28.208512   45.176193
  H    -19.634543   28.982920   47.484127
  H    -21.386786   28.678204   47.490866
  H    -20.888755   27.002568   49.121608
  H    -19.185072   26.879764   48.602946
  C    -23.283056   26.148822   45.094969
  H    -22.971861   25.207323   44.610149
  H    -24.296056   26.016259   45.483590
  O    -22.476295   26.380815   46.274860
  C    -23.253945   27.267569   44.048144
  C    -24.179060   26.993436   42.852956
  C    -25.556246   27.447752   43.407051
  C    -25.187793   28.652037   44.310002
  O    -23.735864   28.540814   44.588467
  H    -22.231401   27.440987   43.702246
  O    -23.776641   27.777059   41.695875
  H    -24.170804   25.957000   42.512356
  H    -26.231481   27.714703   42.590749
  H    -26.018450   26.640743   43.986682
  H    -25.731553   28.652802   45.258786
  H    -25.348597   29.614167   43.813707
  H    -23.573134   28.691867   41.984808

 Multiplicity           Mult            ....    1
 Number of Electrons    NEL             ....  102
 Basis Dimension        Dim             ....  149

ORBITAL ENERGIES
----------------

  NO   OCC          E(Eh)            E(eV)
   0   2.0000     -19.147220      -521.0223
   1   2.0000     -19.144607      -520.9512
   2   2.0000     -19.138189      -520.7766
   3   2.0000     -19.135607      -520.7063
   4   2.0000     -10.276901      -279.6487
   5   2.0000     -10.248709      -278.8815
   6   2.0000     -10.239145      -278.6213
   7   2.0000     -10.235672      -278.5268
   8   2.0000     -10.235512      -278.5224
   9   2.0000     -10.219589      -278.0891
  10   2.0000     -10.195182      -277.4250
  11   2.0000     -10.180310      -277.0203
  12   2.0000     -10.179348      -276.9942
  13   2.0000      -1.051151       -28.6033
  14   2.0000      -1.041201       -28.3325
  15   2.0000      -1.011766       -27.5315
  16   2.0000      -0.991403       -26.9774
  17   2.0000      -0.790008       -21.4972
  18   2.0000      -0.779785       -21.2190
  19   2.0000      -0.770277       -20.9603
  20   2.0000      -0.732167       -19.9233
  21   2.0000      -0.676284       -18.4026
  22   2.0000      -0.610446       -16.6111
  23   2.0000      -0.603834       -16.4311
  24   2.0000      -0.593636       -16.1537
  25   2.0000      -0.577610       -15.7176
  26   2.0000      -0.527512       -14.3543
  27   2.0000      -0.515149       -14.0179
  28   2.0000      -0.493973       -13.4417
  29   2.0000      -0.490606       -13.3501
  30   2.0000      -0.473136       -12.8747
  31   2.0000      -0.455023       -12.3818
  32   2.0000      -0.453002       -12.3268
  33   2.0000      -0.450063       -12.2468
  34   2.0000      -0.424735       -11.5576
  35   2.0000      -0.414597       -11.2817
  36   2.0000      -0.401428       -10.9234
  37   2.0000      -0.396823       -10.7981
  38   2.0000      -0.378316       -10.2945
  39   2.0000      -0.367734       -10.0066
  40   2.0000      -0.366349        -9.9689
  41   2.0000      -0.351777        -9.5723
  42   2.0000      -0.346977        -9.4417
  43   2.0000      -0.336765        -9.1638
  44   2.0000      -0.315395        -8.5823
  45   2.0000      -0.308664        -8.3992
  46   2.0000      -0.301106        -8.1935
  47   2.0000      -0.277127        -7.5410
  48   2.0000      -0.266703        -7.2574
  49   2.0000      -0.253425        -6.8961
  50   2.0000      -0.238550        -6.4913
  51   0.0000       0.061295         1.6679
  52   0.0000       0.083591         2.2746
  53   0.0000       0.086094         2.3427
  54   0.0000       0.089014         2.4222
  55   0.0000       0.101541         2.7631

MULLIKEN ATOMIC CHARGES
-----------------------
   0 C :    0.287151
   1 C :   -0.267099
   2 C :   -0.301472
   3 C :   -0.000587
   4 O :   -0.503161
   5 H :    0.133776
   6 H :    0.139357
   7 H :    0.161789
   8 H :    0.139065
   9 H :    0.172034
  10 H :    0.152968
  11 H :    0.138758
  12 C :   -0.001685
  13 H :    0.119636
  14 H :    0.152682
  15 O :   -0.497508
  16 C :    0.055254
  17 C :    0.076371
  18 C :   -0.301659
  19 C :   -0.025556
  20 O :   -0.518992
  21 H :    0.157765
  22 O :   -0.601137
  23 H :    0.154202
  24 H :    0.166979
  25 H :    0.146968
  26 H :    0.154554
  27 H :    0.144891
  28 H :    0.364654
Sum of atomic charges:   -0.0000000

LOEWDIN ATOMIC CHARGES
----------------------
   0 C :    0.177851
   1 C :   -0.229247
   2 C :   -0.216212
   3 C :   -0.025429
   4 O :   -0.306806
   5 H :    0.093958
   6 H :    0.111061
   7 H :    0.121497
   8 H :    0.113259
   9 H :    0.124158
  10 H :    0.108636
  11 H :    0.100772
  12 C :   -0.038918
  13 H :    0.091992
  14 H :    0.114163
  15 O :   -0.320747
  16 C :   -0.000608
  17 C :    0.035781
  18 C :   -0.241605
  19 C :   -0.036038
  20 O :   -0.327569
  21 H :    0.111135
  22 O :   -0.413904
  23 H :    0.116191
  24 H :    0.128505
  25 H :    0.114250
  26 H :    0.108423
  27 H :    0.102357
  28 H :    0.283094

  Mayer bond orders larger than 0.100000
B(  0-C ,  1-C ) :   0.9325 B(  0-C ,  4-O ) :   0.9374 B(  0-C ,  5-H ) :   0.9168
B(  0-C , 15-O ) :   0.8358 B(  1-C ,  2-C ) :   0.9537 B(  1-C ,  6-H ) :   0.9342
B(  1-C ,  7-H ) :   0.9262 B(  2-C ,  3-C ) :   0.9555 B(  2-C ,  8-H ) :   0.9451
B(  2-C ,  9-H ) :   0.9408 B(  3-C ,  4-O ) :   0.8341 B(  3-C , 10-H ) :   0.9349
B(  3-C , 11-H ) :   0.9399 B( 12-C , 13-H ) :   0.9096 B( 12-C , 14-H ) :   0.9394
B( 12-C , 15-O ) :   0.8778 B( 12-C , 16-C ) :   0.8710 B( 16-C , 17-C ) :   0.8962
B( 16-C , 20-O ) :   0.8585 B( 16-C , 21-H ) :   0.9201 B( 17-C , 18-C ) :   0.9138
B( 17-C , 22-O ) :   0.8918 B( 17-C , 23-H ) :   0.9325 B( 18-C , 19-C ) :   0.9403
B( 18-C , 24-H ) :   0.9366 B( 18-C , 25-H ) :   0.9330 B( 19-C , 20-O ) :   0.8451
B( 19-C , 26-H ) :   0.9332 B( 19-C , 27-H ) :   0.9383 B( 22-O , 28-H ) :   0.7944

FINAL SINGLE POINT ENERGY      -652.858496997182

DIPOLE MOMENT
-------------
                                X             Y             Z
Electronic contribution:      0.29291      -2.00127      -0.48744
Nuclear contribution   :     -0.67669       2.52667       0.16791
                        -----------------------------------------
Total Dipole Moment    :     -0.38379       0.52540      -0.31954
                        -----------------------------------------
Magnitude (a.u.)       :      0.72487
Magnitude (Debye)      :      1.84248

Rotational constants in cm-1:     0.061319     0.012473     0.012322
Rotational constants in MHz :  1838.300734   373.933673   369.391462

                             ****ORCA TERMINATED NORMALLY****
TOTAL RUN TIME: 0 days 0 hours 41 minutes 21 seconds 849 msec
