                         Program Version 4.2.0 -  RELEASE  -
|  1> # Test redundant internal optimization
|  2> #
|  3> ! RKS B3LYP  Opt TightSCF SmallPrint
|  4>
|  5> %basis
|  6>         Basis "6-31G"
|  7> end
|  8>
|  9> %geom
| 10> Constraints
| 11> { D 4  0  15  12  255.0   C } # D for Dihedral angle
| 12> { D 0  15  12  16  60.0   C } # D for Dihedral angle
| 13> { D 0  4  3  2   C } # D for Dihedral angle
| 14> { D 4  3  2  1   C } # D for Dihedral angle
| 15> { D 3  2  1  0   C } # D for Dihedral angle
| 16> { D 2  1  0  4   C } # D for Dihedral angle
| 17> { D 1  0  4  3   C } # D for Dihedral angle
| 18> { D 16  20  19  18   C } # D for Dihedral angle
| 19> { D 20  19  18  17   C } # D for Dihedral angle
| 20> { D 19  18  17  16   C } # D for Dihedral angle
| 21> { D 18  17  16  20   C } # D for Dihedral angle
| 22> { D 17  16  20  19   C } # D for Dihedral angle
| 23> { D 15  12  16  20   C } # D for Dihedral angle
| 24> end
| 25> end
| 26>
| 27>
| 28> #%pal
| 29> #nprocs 8
| 30> #end
| 31>
| 32> * xyz 0 1
| 33> C  -21.048   26.222   46.251
| 34> C  -20.361   27.558   45.944
| 35> C  -20.329   28.222   47.341
| 36> C  -20.110   27.022   48.296
| 37> O  -20.473   25.807   47.535
| 38> H  -20.833   25.428   45.533
| 39> H  -19.344   27.382   45.576
| 40> H  -20.898   28.157   45.201
| 41> H  -19.543   28.978   47.434
| 42> H  -21.289   28.710   47.548
| 43> H  -20.733   27.082   49.195
| 44> H  -19.064   26.913   48.597
| 45> C  -23.431   25.260   45.734
| 46> H  -24.497   25.482   45.869
| 47> H  -23.229   25.192   44.657
| 48> O  -22.586   26.394   46.375
| 49> C  -23.140   23.867   46.358
| 50> C  -23.556   23.820   47.832
| 51> C  -25.087   23.621   47.720
| 52> C  -25.233   22.722   46.466
| 53> O  -23.963   22.836   45.717
| 54> H  -22.097   23.604   46.174
| 55> H  -23.090   22.961   48.328
| 56> O  -23.172   25.105   48.617
| 57> H  -25.522   23.163   48.614
| 58> H  -25.581   24.587   47.563
| 59> H  -26.059   23.036   45.820
| 60> H  -25.364   21.667   46.721
| 61> H  -23.628   25.978   48.138
| 62> *
| 63>
| 64>                          ****END OF INPUT****
 Total Charge           Charge          ....    0
 Multiplicity           Mult            ....    1
 Number of Electrons    NEL             ....  102
FINAL SINGLE POINT ENERGY      -652.829668468634
FINAL SINGLE POINT ENERGY      -652.854631191606
FINAL SINGLE POINT ENERGY      -652.860729186405
FINAL SINGLE POINT ENERGY      -652.862973090189
FINAL SINGLE POINT ENERGY      -652.864169782086
FINAL SINGLE POINT ENERGY      -652.864877992768
FINAL SINGLE POINT ENERGY      -652.865195441920
FINAL SINGLE POINT ENERGY      -652.865288831370
FINAL SINGLE POINT ENERGY      -652.865330192464
FINAL SINGLE POINT ENERGY      -652.865518056429
FINAL SINGLE POINT ENERGY      -652.866306147214
FINAL SINGLE POINT ENERGY      -652.866407499229
FINAL SINGLE POINT ENERGY      -652.867510050795
FINAL SINGLE POINT ENERGY      -652.867899277496
FINAL SINGLE POINT ENERGY      -652.868395050678
FINAL SINGLE POINT ENERGY      -652.868614489627
FINAL SINGLE POINT ENERGY      -652.868625263216
FINAL SINGLE POINT ENERGY      -652.868627503418
                    ***********************HURRAY********************

CARTESIAN COORDINATES (ANGSTROEM)
---------------------------------
  C    -21.061521   26.172721   46.230220
  C    -20.390430   27.515606   45.917522
  C    -20.514202   28.249549   47.274843
  C    -20.351567   27.115415   48.311805
  O    -20.604268   25.842128   47.576732
  H    -20.761084   25.345207   45.581933
  H    -19.340713   27.346087   45.652840
  H    -20.890017   28.034533   45.097467
  H    -19.761485   29.033296   47.401747
  H    -21.506251   28.702377   47.356161
  H    -21.063072   27.186028   49.138495
  H    -19.335849   27.043861   48.710202
  C    -23.314133   25.280611   45.688334
  H    -24.334387   25.653992   45.800331
  H    -23.102240   25.159835   44.617671
  O    -22.483315   26.344862   46.252063
  C    -23.155763   23.909563   46.366071
  C    -23.541775   23.802106   47.847624
  C    -25.087049   23.697031   47.760720
  C    -25.315789   22.884621   46.468447
  O    -24.048581   22.967296   45.687217
  H    -22.141271   23.531852   46.194952
  H    -23.132536   22.853464   48.228572
  O    -23.145540   24.894907   48.691128
  H    -25.517753   23.216810   48.643338
  H    -25.495312   24.710537   47.694116
  H    -26.135162   23.272647   45.854745
  H    -25.493793   21.822944   46.663573
  H    -22.235141   25.186114   48.445130

 Multiplicity           Mult            ....    1
 Number of Electrons    NEL             ....  102
 Basis Dimension        Dim             ....  149

ORBITAL ENERGIES
----------------

  NO   OCC          E(Eh)            E(eV)
   0   2.0000     -19.159231      -521.3492
   1   2.0000     -19.149944      -521.0965
   2   2.0000     -19.137678      -520.7627
   3   2.0000     -19.111320      -520.0455
   4   2.0000     -10.290089      -280.0076
   5   2.0000     -10.234944      -278.5070
   6   2.0000     -10.231041      -278.4008
   7   2.0000     -10.228452      -278.3303
   8   2.0000     -10.227183      -278.2958
   9   2.0000     -10.224070      -278.2111
  10   2.0000     -10.193479      -277.3787
  11   2.0000     -10.191910      -277.3360
  12   2.0000     -10.176483      -276.9162
  13   2.0000      -1.065833       -29.0028
  14   2.0000      -1.021383       -27.7933
  15   2.0000      -1.003292       -27.3010
  16   2.0000      -0.991477       -26.9795
  17   2.0000      -0.795513       -21.6470
  18   2.0000      -0.768443       -20.9104
  19   2.0000      -0.763426       -20.7739
  20   2.0000      -0.736629       -20.0447
  21   2.0000      -0.675511       -18.3816
  22   2.0000      -0.607472       -16.5302
  23   2.0000      -0.604665       -16.4538
  24   2.0000      -0.590787       -16.0761
  25   2.0000      -0.570945       -15.5362
  26   2.0000      -0.526753       -14.3337
  27   2.0000      -0.509174       -13.8553
  28   2.0000      -0.497564       -13.5394
  29   2.0000      -0.494715       -13.4619
  30   2.0000      -0.468158       -12.7392
  31   2.0000      -0.455338       -12.3904
  32   2.0000      -0.446258       -12.1433
  33   2.0000      -0.437622       -11.9083
  34   2.0000      -0.425827       -11.5873
  35   2.0000      -0.412443       -11.2231
  36   2.0000      -0.405931       -11.0459
  37   2.0000      -0.378658       -10.3038
  38   2.0000      -0.370834       -10.0909
  39   2.0000      -0.366694        -9.9783
  40   2.0000      -0.364570        -9.9205
  41   2.0000      -0.357060        -9.7161
  42   2.0000      -0.347099        -9.4451
  43   2.0000      -0.337910        -9.1950
  44   2.0000      -0.327522        -8.9123
  45   2.0000      -0.314686        -8.5630
  46   2.0000      -0.293146        -7.9769
  47   2.0000      -0.277666        -7.5557
  48   2.0000      -0.264251        -7.1906
  49   2.0000      -0.246836        -6.7168
  50   2.0000      -0.232712        -6.3324
  51   0.0000       0.063930         1.7396
  52   0.0000       0.083346         2.2680
  53   0.0000       0.093417         2.5420
  54   0.0000       0.098528         2.6811
  55   0.0000       0.103513         2.8167

MULLIKEN ATOMIC CHARGES
-----------------------
   0 C :    0.270011
   1 C :   -0.248934
   2 C :   -0.297463
   3 C :   -0.016957
   4 O :   -0.527651
   5 H :    0.150816
   6 H :    0.147168
   7 H :    0.157679
   8 H :    0.145546
   9 H :    0.172958
  10 H :    0.163926
  11 H :    0.150379
  12 C :   -0.014599
  13 H :    0.159725
  14 H :    0.147566
  15 O :   -0.512806
  16 C :    0.042980
  17 C :    0.129469
  18 C :   -0.298892
  19 C :   -0.024001
  20 O :   -0.525208
  21 H :    0.149540
  22 H :    0.127983
  23 O :   -0.644142
  24 H :    0.148217
  25 H :    0.159542
  26 H :    0.141459
  27 H :    0.149573
  28 H :    0.396117
Sum of atomic charges:   -0.0000000

LOEWDIN ATOMIC CHARGES
----------------------
   0 C :    0.168329
   1 C :   -0.214072
   2 C :   -0.214028
   3 C :   -0.029412
   4 O :   -0.332499
   5 H :    0.101637
   6 H :    0.114889
   7 H :    0.125210
   8 H :    0.116173
   9 H :    0.124662
  10 H :    0.113164
  11 H :    0.106817
  12 C :   -0.040577
  13 H :    0.118091
  14 H :    0.103093
  15 O :   -0.318334
  16 C :    0.001222
  17 C :    0.044065
  18 C :   -0.225703
  19 C :   -0.032278
  20 O :   -0.325129
  21 H :    0.105782
  22 H :    0.091225
  23 O :   -0.431965
  24 H :    0.120104
  25 H :    0.118652
  26 H :    0.101374
  27 H :    0.105465
  28 H :    0.284041

  Mayer bond orders larger than 0.100000
B(  0-C ,  1-C ) :   0.9470 B(  0-C ,  4-O ) :   0.8624 B(  0-C ,  5-H ) :   0.9160
B(  0-C , 15-O ) :   0.8786 B(  1-C ,  2-C ) :   0.9546 B(  1-C ,  6-H ) :   0.9373
B(  1-C ,  7-H ) :   0.9378 B(  2-C ,  3-C ) :   0.9545 B(  2-C ,  8-H ) :   0.9449
B(  2-C ,  9-H ) :   0.9415 B(  3-C ,  4-O ) :   0.8136 B(  3-C , 10-H ) :   0.9330
B(  3-C , 11-H ) :   0.9407 B( 12-C , 13-H ) :   0.9410 B( 12-C , 14-H ) :   0.9236
B( 12-C , 15-O ) :   0.8253 B( 12-C , 16-C ) :   0.8828 B( 16-C , 17-C ) :   0.8978
B( 16-C , 20-O ) :   0.8404 B( 16-C , 21-H ) :   0.9287 B( 17-C , 18-C ) :   0.9295
B( 17-C , 22-H ) :   0.9194 B( 17-C , 23-O ) :   0.9426 B( 18-C , 19-C ) :   0.9449
B( 18-C , 24-H ) :   0.9445 B( 18-C , 25-H ) :   0.9376 B( 19-C , 20-O ) :   0.8353
B( 19-C , 26-H ) :   0.9346 B( 19-C , 27-H ) :   0.9378 B( 23-O , 28-H ) :   0.7127

FINAL SINGLE POINT ENERGY      -652.868627722721

DIPOLE MOMENT
-------------
                                X             Y             Z
Electronic contribution:      0.17226      -2.72912      -0.43647
Nuclear contribution   :      0.36901       3.39474       0.04086
                        -----------------------------------------
Total Dipole Moment    :      0.54127       0.66562      -0.39561
                        -----------------------------------------
Magnitude (a.u.)       :      0.94474
Magnitude (Debye)      :      2.40133

Rotational constants in cm-1:     0.061623     0.015075     0.013469
Rotational constants in MHz :  1847.407188   451.934933   403.781343

                             ****ORCA TERMINATED NORMALLY****
TOTAL RUN TIME: 0 days 1 hours 56 minutes 50 seconds 98 msec
