                         Program Version 4.2.0 -  RELEASE  -
|  1> # Test redundant internal optimization
|  2> #
|  3> ! RKS B3LYP  Opt TightSCF SmallPrint
|  4>
|  5> %basis
|  6>         Basis "6-31G"
|  7> end
|  8>
|  9> %geom
| 10> Constraints
| 11> { D 4  0  15  12  60.0   C } # D for Dihedral angle
| 12> { D 0  15  12  16  225.0   C } # D for Dihedral angle
| 13> { D 0  4  3  2   C } # D for Dihedral angle
| 14> { D 4  3  2  1   C } # D for Dihedral angle
| 15> { D 3  2  1  0   C } # D for Dihedral angle
| 16> { D 2  1  0  4   C } # D for Dihedral angle
| 17> { D 1  0  4  3   C } # D for Dihedral angle
| 18> { D 16  20  19  18   C } # D for Dihedral angle
| 19> { D 20  19  18  17   C } # D for Dihedral angle
| 20> { D 19  18  17  16   C } # D for Dihedral angle
| 21> { D 18  17  16  20   C } # D for Dihedral angle
| 22> { D 17  16  20  19   C } # D for Dihedral angle
| 23> { D 15  12  16  20   C } # D for Dihedral angle
| 24> end
| 25> end
| 26>
| 27>
| 28> #%pal
| 29> #nprocs 8
| 30> #end
| 31>
| 32> * xyz 0 1
| 33> C  -21.048   26.222   46.251
| 34> C  -20.361   27.558   45.944
| 35> C  -20.329   28.222   47.341
| 36> C  -20.110   27.022   48.296
| 37> O  -20.473   25.807   47.535
| 38> H  -20.833   25.428   45.533
| 39> H  -19.344   27.382   45.576
| 40> H  -20.898   28.157   45.201
| 41> H  -19.543   28.978   47.434
| 42> H  -21.289   28.710   47.548
| 43> H  -20.733   27.082   49.195
| 44> H  -19.064   26.913   48.597
| 45> C  -23.051   27.452   47.413
| 46> H  -22.208   27.713   48.066
| 47> H  -23.388   28.365   46.907
| 48> O  -22.586   26.394   46.375
| 49> C  -24.219   26.946   48.304
| 50> C  -24.728   28.051   49.236
| 51> C  -25.614   28.885   48.279
| 52> C  -26.227   27.812   47.344
| 53> O  -25.383   26.606   47.479
| 54> H  -23.910   26.031   48.814
| 55> O  -25.582   27.436   50.377
| 56> H  -23.921   28.639   49.687
| 57> H  -26.378   29.465   48.806
| 58> H  -24.994   29.586   47.708
| 59> H  -26.237   28.127   46.295
| 60> H  -27.241   27.531   47.640
| 61> H  -26.397   26.843   49.948
| 62> *
| 63>
| 64>                          ****END OF INPUT****
 Total Charge           Charge          ....    0
 Multiplicity           Mult            ....    1
 Number of Electrons    NEL             ....  102
FINAL SINGLE POINT ENERGY      -652.804580630833
FINAL SINGLE POINT ENERGY      -652.834807513282
FINAL SINGLE POINT ENERGY      -652.850329034839
FINAL SINGLE POINT ENERGY      -652.852985516673
FINAL SINGLE POINT ENERGY      -652.853422791349
FINAL SINGLE POINT ENERGY      -652.853484793506
FINAL SINGLE POINT ENERGY      -652.853490182039
FINAL SINGLE POINT ENERGY      -652.853489752218
                    ***********************HURRAY********************

CARTESIAN COORDINATES (ANGSTROEM)
---------------------------------
  C    -21.209198   26.346633   46.443743
  C    -20.296381   27.469603   45.927734
  C    -19.899573   28.197537   47.245849
  C    -19.810285   27.028824   48.261354
  O    -20.553161   25.896728   47.653998
  H    -21.228743   25.482722   45.777853
  H    -19.417693   27.018654   45.455307
  H    -20.795760   28.117140   45.202384
  H    -18.946084   28.727680   47.156694
  H    -20.656979   28.932586   47.531343
  H    -20.251143   27.264343   49.235241
  H    -18.781176   26.689926   48.411958
  C    -23.108331   27.636086   47.505979
  H    -22.351496   27.907811   48.248743
  H    -23.388305   28.532653   46.937431
  O    -22.613978   26.627555   46.581679
  C    -24.303369   27.048099   48.256682
  C    -24.958853   28.023678   49.244656
  C    -25.891778   28.841001   48.310414
  C    -26.354806   27.787113   47.274143
  O    -25.394272   26.661783   47.359663
  H    -23.972198   26.131290   48.752872
  O    -25.712154   27.305601   50.259182
  H    -24.250717   28.644404   49.796372
  H    -26.717794   29.276588   48.877435
  H    -25.333613   29.653943   47.832941
  H    -26.361513   28.173191   46.250440
  H    -27.346882   27.383604   47.500654
  H    -26.182766   26.556220   49.836256

 Multiplicity           Mult            ....    1
 Number of Electrons    NEL             ....  102
 Basis Dimension        Dim             ....  149

ORBITAL ENERGIES
----------------

  NO   OCC          E(Eh)            E(eV)
   0   2.0000     -19.143617      -520.9243
   1   2.0000     -19.141840      -520.8759
   2   2.0000     -19.138435      -520.7833
   3   2.0000     -19.138199      -520.7769
   4   2.0000     -10.277751      -279.6718
   5   2.0000     -10.243037      -278.7272
   6   2.0000     -10.234995      -278.5084
   7   2.0000     -10.232476      -278.4398
   8   2.0000     -10.232140      -278.4307
   9   2.0000     -10.228702      -278.3371
  10   2.0000     -10.196138      -277.4510
  11   2.0000     -10.191232      -277.3175
  12   2.0000     -10.189565      -277.2722
  13   2.0000      -1.052966       -28.6527
  14   2.0000      -1.035116       -28.1669
  15   2.0000      -1.005814       -27.3696
  16   2.0000      -0.994843       -27.0710
  17   2.0000      -0.790818       -21.5193
  18   2.0000      -0.785823       -21.3833
  19   2.0000      -0.770685       -20.9714
  20   2.0000      -0.734074       -19.9752
  21   2.0000      -0.678804       -18.4712
  22   2.0000      -0.606548       -16.5050
  23   2.0000      -0.605270       -16.4702
  24   2.0000      -0.599416       -16.3109
  25   2.0000      -0.576414       -15.6850
  26   2.0000      -0.523063       -14.2333
  27   2.0000      -0.514961       -14.0128
  28   2.0000      -0.502203       -13.6656
  29   2.0000      -0.489569       -13.3219
  30   2.0000      -0.476656       -12.9705
  31   2.0000      -0.462902       -12.5962
  32   2.0000      -0.449947       -12.2437
  33   2.0000      -0.438571       -11.9341
  34   2.0000      -0.426559       -11.6073
  35   2.0000      -0.419596       -11.4178
  36   2.0000      -0.402866       -10.9625
  37   2.0000      -0.392733       -10.6868
  38   2.0000      -0.382729       -10.4146
  39   2.0000      -0.372315       -10.1312
  40   2.0000      -0.363426        -9.8893
  41   2.0000      -0.360102        -9.7989
  42   2.0000      -0.350769        -9.5449
  43   2.0000      -0.330231        -8.9861
  44   2.0000      -0.318413        -8.6645
  45   2.0000      -0.311819        -8.4850
  46   2.0000      -0.299553        -8.1513
  47   2.0000      -0.270343        -7.3564
  48   2.0000      -0.267887        -7.2896
  49   2.0000      -0.255316        -6.9475
  50   2.0000      -0.238888        -6.5005
  51   0.0000       0.063040         1.7154
  52   0.0000       0.074940         2.0392
  53   0.0000       0.082366         2.2413
  54   0.0000       0.099078         2.6961
  55   0.0000       0.101204         2.7539

MULLIKEN ATOMIC CHARGES
-----------------------
   0 C :    0.292284
   1 C :   -0.270080
   2 C :   -0.318277
   3 C :   -0.014766
   4 O :   -0.505230
   5 H :    0.169648
   6 H :    0.154834
   7 H :    0.150477
   8 H :    0.146938
   9 H :    0.146202
  10 H :    0.144357
  11 H :    0.149653
  12 C :   -0.008548
  13 H :    0.131520
  14 H :    0.132366
  15 O :   -0.503100
  16 C :    0.071751
  17 C :    0.078238
  18 C :   -0.292246
  19 C :   -0.025946
  20 O :   -0.508054
  21 H :    0.174711
  22 O :   -0.603496
  23 H :    0.145986
  24 H :    0.161971
  25 H :    0.138674
  26 H :    0.147648
  27 H :    0.144837
  28 H :    0.367650
Sum of atomic charges:   -0.0000000

LOEWDIN ATOMIC CHARGES
----------------------
   0 C :    0.173853
   1 C :   -0.228592
   2 C :   -0.225714
   3 C :   -0.036398
   4 O :   -0.322433
   5 H :    0.115356
   6 H :    0.121162
   7 H :    0.119633
   8 H :    0.116433
   9 H :    0.107630
  10 H :    0.100524
  11 H :    0.106097
  12 C :   -0.043500
  13 H :    0.101033
  14 H :    0.097573
  15 O :   -0.306929
  16 C :    0.015900
  17 C :    0.033980
  18 C :   -0.240538
  19 C :   -0.037434
  20 O :   -0.318411
  21 H :    0.124465
  22 O :   -0.414605
  23 H :    0.112141
  24 H :    0.126502
  25 H :    0.110113
  26 H :    0.105028
  27 H :    0.102132
  28 H :    0.284995

  Mayer bond orders larger than 0.100000
B(  0-C ,  1-C ) :   0.9133 B(  0-C ,  4-O ) :   0.8946 B(  0-C ,  5-H ) :   0.9352
B(  0-C , 15-O ) :   0.9121 B(  1-C ,  2-C ) :   0.9542 B(  1-C ,  6-H ) :   0.9353
B(  1-C ,  7-H ) :   0.9381 B(  2-C ,  3-C ) :   0.9462 B(  2-C ,  8-H ) :   0.9450
B(  2-C ,  9-H ) :   0.9422 B(  3-C ,  4-O ) :   0.8464 B(  3-C , 10-H ) :   0.9314
B(  3-C , 11-H ) :   0.9382 B( 12-C , 13-H ) :   0.9037 B( 12-C , 14-H ) :   0.9258
B( 12-C , 15-O ) :   0.8427 B( 12-C , 16-C ) :   0.8931 B( 16-C , 17-C ) :   0.8988
B( 16-C , 20-O ) :   0.8663 B( 16-C , 21-H ) :   0.9223 B( 17-C , 18-C ) :   0.9097
B( 17-C , 22-O ) :   0.8936 B( 17-C , 23-H ) :   0.9333 B( 18-C , 19-C ) :   0.9409
B( 18-C , 24-H ) :   0.9374 B( 18-C , 25-H ) :   0.9350 B( 19-C , 20-O ) :   0.8518
B( 19-C , 26-H ) :   0.9343 B( 19-C , 27-H ) :   0.9379 B( 22-O , 28-H ) :   0.7925

FINAL SINGLE POINT ENERGY      -652.853488299565

DIPOLE MOMENT
-------------
                                X             Y             Z
Electronic contribution:     -2.88332      -5.89972       0.53939
Nuclear contribution   :      3.48568       7.44964      -0.87718
                        -----------------------------------------
Total Dipole Moment    :      0.60236       1.54993      -0.33779
                        -----------------------------------------
Magnitude (a.u.)       :      1.69682
Magnitude (Debye)      :      4.31298

Rotational constants in cm-1:     0.055115     0.012903     0.012198
Rotational constants in MHz :  1652.291975   386.810015   365.692750

                             ****ORCA TERMINATED NORMALLY****
TOTAL RUN TIME: 0 days 1 hours 10 minutes 9 seconds 65 msec
