                         Program Version 4.2.0 -  RELEASE  -
|  1> # Test redundant internal optimization
|  2> #
|  3> ! RKS B3LYP  Opt TightSCF SmallPrint
|  4>
|  5> %basis
|  6>         Basis "6-31G"
|  7> end
|  8>
|  9> %geom
| 10> Constraints
| 11> { D 4  0  15  12  330.0   C } # D for Dihedral angle
| 12> { D 0  15  12  16  150.0   C } # D for Dihedral angle
| 13> { D 0  4  3  2   C } # D for Dihedral angle
| 14> { D 4  3  2  1   C } # D for Dihedral angle
| 15> { D 3  2  1  0   C } # D for Dihedral angle
| 16> { D 2  1  0  4   C } # D for Dihedral angle
| 17> { D 1  0  4  3   C } # D for Dihedral angle
| 18> { D 16  20  19  18   C } # D for Dihedral angle
| 19> { D 20  19  18  17   C } # D for Dihedral angle
| 20> { D 19  18  17  16   C } # D for Dihedral angle
| 21> { D 18  17  16  20   C } # D for Dihedral angle
| 22> { D 17  16  20  19   C } # D for Dihedral angle
| 23> { D 15  12  16  20   C } # D for Dihedral angle
| 24> end
| 25> end
| 26>
| 27>
| 28> #%pal
| 29> #nprocs 8
| 30> #end
| 31>
| 32> * xyz 0 1
| 33> C  -21.048   26.222   46.251
| 34> C  -20.361   27.558   45.944
| 35> C  -20.329   28.222   47.341
| 36> C  -20.110   27.022   48.296
| 37> O  -20.473   25.807   47.535
| 38> H  -20.833   25.428   45.533
| 39> H  -19.344   27.382   45.576
| 40> H  -20.898   28.157   45.201
| 41> H  -19.543   28.978   47.434
| 42> H  -21.289   28.710   47.548
| 43> H  -20.733   27.082   49.195
| 44> H  -19.064   26.913   48.597
| 45> C  -23.271   25.476   47.424
| 46> H  -23.562   24.533   46.944
| 47> H  -22.577   25.244   48.243
| 48> O  -22.586   26.394   46.375
| 49> C  -24.540   26.119   48.048
| 50> C  -25.123   25.238   49.158
| 51> C  -24.185   25.567   50.344
| 52> C  -23.864   27.068   50.132
| 53> O  -24.199   27.374   48.725
| 54> H  -25.245   26.366   47.251
| 55> O  -26.580   25.672   49.475
| 56> H  -25.127   24.172   48.904
| 57> H  -24.647   25.372   51.318
| 58> H  -23.271   24.964   50.281
| 59> H  -22.808   27.300   50.308
| 60> H  -24.480   27.719   50.760
| 61> H  -26.599   26.736   49.733
| 62> *
| 63>
| 64>                          ****END OF INPUT****
 Total Charge           Charge          ....    0
 Multiplicity           Mult            ....    1
 Number of Electrons    NEL             ....  102
FINAL SINGLE POINT ENERGY      -652.835916017392
FINAL SINGLE POINT ENERGY      -652.859469916108
FINAL SINGLE POINT ENERGY      -652.864011789075
FINAL SINGLE POINT ENERGY      -652.864883969920
FINAL SINGLE POINT ENERGY      -652.865017339670
FINAL SINGLE POINT ENERGY      -652.865037727520
                    ***********************HURRAY********************

CARTESIAN COORDINATES (ANGSTROEM)
---------------------------------
  C    -21.103493   26.191409   46.271181
  C    -20.596836   27.607193   45.999271
  C    -20.481071   28.178135   47.428973
  C    -20.038700   26.960218   48.266101
  O    -20.364443   25.761803   47.438942
  H    -20.896793   25.447438   45.495618
  H    -19.619368   27.555015   45.505422
  H    -21.287460   28.171126   45.368818
  H    -19.770384   29.007520   47.495530
  H    -21.464911   28.523829   47.757604
  H    -20.565470   26.881419   49.221199
  H    -18.960020   26.925517   48.444925
  C    -23.143302   25.389396   47.463440
  H    -23.478441   24.462923   46.971679
  H    -22.409290   25.126563   48.230811
  O    -22.535117   26.281347   46.493910
  C    -24.349267   26.115893   48.051488
  C    -25.101308   25.327341   49.133827
  C    -24.247930   25.632065   50.393005
  C    -23.788361   27.093098   50.161588
  O    -23.969087   27.369931   48.715534
  H    -25.019330   26.401473   47.235122
  O    -26.465775   25.807456   49.276302
  H    -25.191912   24.260875   48.922313
  H    -24.843459   25.509862   51.301334
  H    -23.392990   24.949150   50.447536
  H    -22.739423   27.251659   50.429818
  H    -24.399591   27.817641   50.708203
  H    -26.465467   26.787706   49.244508

 Multiplicity           Mult            ....    1
 Number of Electrons    NEL             ....  102
 Basis Dimension        Dim             ....  149

ORBITAL ENERGIES
----------------

  NO   OCC          E(Eh)            E(eV)
   0   2.0000     -19.146694      -521.0080
   1   2.0000     -19.143959      -520.9336
   2   2.0000     -19.138576      -520.7871
   3   2.0000     -19.136747      -520.7374
   4   2.0000     -10.276737      -279.6442
   5   2.0000     -10.243410      -278.7374
   6   2.0000     -10.232682      -278.4454
   7   2.0000     -10.232634      -278.4441
   8   2.0000     -10.227992      -278.3178
   9   2.0000     -10.225901      -278.2609
  10   2.0000     -10.191041      -277.3123
  11   2.0000     -10.180949      -277.0377
  12   2.0000     -10.180097      -277.0145
  13   2.0000      -1.053806       -28.6755
  14   2.0000      -1.036316       -28.1996
  15   2.0000      -1.006863       -27.3981
  16   2.0000      -0.989911       -26.9369
  17   2.0000      -0.789944       -21.4955
  18   2.0000      -0.781258       -21.2591
  19   2.0000      -0.767130       -20.8747
  20   2.0000      -0.731075       -19.8936
  21   2.0000      -0.671465       -18.2715
  22   2.0000      -0.605757       -16.4835
  23   2.0000      -0.599137       -16.3034
  24   2.0000      -0.589801       -16.0493
  25   2.0000      -0.577348       -15.7104
  26   2.0000      -0.526819       -14.3355
  27   2.0000      -0.510559       -13.8930
  28   2.0000      -0.491662       -13.3788
  29   2.0000      -0.488069       -13.2810
  30   2.0000      -0.479418       -13.0456
  31   2.0000      -0.459244       -12.4967
  32   2.0000      -0.447941       -12.1891
  33   2.0000      -0.445685       -12.1277
  34   2.0000      -0.417110       -11.3501
  35   2.0000      -0.404674       -11.0117
  36   2.0000      -0.399063       -10.8591
  37   2.0000      -0.395536       -10.7631
  38   2.0000      -0.373176       -10.1546
  39   2.0000      -0.370389       -10.0788
  40   2.0000      -0.362617        -9.8673
  41   2.0000      -0.354224        -9.6389
  42   2.0000      -0.344664        -9.3788
  43   2.0000      -0.334365        -9.0985
  44   2.0000      -0.328313        -8.9339
  45   2.0000      -0.308173        -8.3858
  46   2.0000      -0.296607        -8.0711
  47   2.0000      -0.272037        -7.4025
  48   2.0000      -0.262192        -7.1346
  49   2.0000      -0.254714        -6.9311
  50   2.0000      -0.244705        -6.6588
  51   0.0000       0.053891         1.4664
  52   0.0000       0.083658         2.2764
  53   0.0000       0.094273         2.5653
  54   0.0000       0.100174         2.7259
  55   0.0000       0.101087         2.7507

MULLIKEN ATOMIC CHARGES
-----------------------
   0 C :    0.299818
   1 C :   -0.257930
   2 C :   -0.308428
   3 C :   -0.017812
   4 O :   -0.516834
   5 H :    0.146107
   6 H :    0.140222
   7 H :    0.163246
   8 H :    0.138617
   9 H :    0.186223
  10 H :    0.140603
  11 H :    0.147554
  12 C :   -0.004683
  13 H :    0.125558
  14 H :    0.159404
  15 O :   -0.528546
  16 C :    0.068073
  17 C :    0.075946
  18 C :   -0.298682
  19 C :   -0.031329
  20 O :   -0.514214
  21 H :    0.169030
  22 O :   -0.600435
  23 H :    0.154091
  24 H :    0.161949
  25 H :    0.148464
  26 H :    0.141138
  27 H :    0.148251
  28 H :    0.364595
Sum of atomic charges:   -0.0000000

LOEWDIN ATOMIC CHARGES
----------------------
   0 C :    0.181324
   1 C :   -0.214752
   2 C :   -0.220819
   3 C :   -0.029763
   4 O :   -0.325939
   5 H :    0.097406
   6 H :    0.111031
   7 H :    0.127611
   8 H :    0.113128
   9 H :    0.130552
  10 H :    0.098976
  11 H :    0.104777
  12 C :   -0.044982
  13 H :    0.095105
  14 H :    0.109540
  15 O :   -0.329915
  16 C :    0.016839
  17 C :    0.035390
  18 C :   -0.241830
  19 C :   -0.039487
  20 O :   -0.324818
  21 H :    0.120064
  22 O :   -0.413242
  23 H :    0.116703
  24 H :    0.126451
  25 H :    0.115033
  26 H :    0.099321
  27 H :    0.103067
  28 H :    0.283232

  Mayer bond orders larger than 0.100000
B(  0-C ,  1-C ) :   0.9458 B(  0-C ,  4-O ) :   0.9026 B(  0-C ,  5-H ) :   0.9233
B(  0-C , 15-O ) :   0.8461 B(  1-C ,  2-C ) :   0.9545 B(  1-C ,  6-H ) :   0.9383
B(  1-C ,  7-H ) :   0.9349 B(  2-C ,  3-C ) :   0.9575 B(  2-C ,  8-H ) :   0.9442
B(  2-C ,  9-H ) :   0.9303 B(  3-C ,  4-O ) :   0.8283 B(  3-C , 10-H ) :   0.9311
B(  3-C , 11-H ) :   0.9405 B( 12-C , 13-H ) :   0.9152 B( 12-C , 14-H ) :   0.9050
B( 12-C , 15-O ) :   0.8382 B( 12-C , 16-C ) :   0.9012 B( 16-C , 17-C ) :   0.9007
B( 16-C , 20-O ) :   0.8547 B( 16-C , 21-H ) :   0.9237 B( 17-C , 18-C ) :   0.9109
B( 17-C , 22-O ) :   0.8944 B( 17-C , 23-H ) :   0.9325 B( 18-C , 19-C ) :   0.9433
B( 18-C , 24-H ) :   0.9377 B( 18-C , 25-H ) :   0.9333 B( 19-C , 20-O ) :   0.8532
B( 19-C , 26-H ) :   0.9297 B( 19-C , 27-H ) :   0.9369 B( 22-O , 28-H ) :   0.7943

FINAL SINGLE POINT ENERGY      -652.865040715328

DIPOLE MOMENT
-------------
                                X             Y             Z
Electronic contribution:     -3.40447      -1.66765      -2.53927
Nuclear contribution   :      4.12633       1.91780       3.07040
                        -----------------------------------------
Total Dipole Moment    :      0.72186       0.25016       0.53112
                        -----------------------------------------
Magnitude (a.u.)       :      0.93046
Magnitude (Debye)      :      2.36504

Rotational constants in cm-1:     0.055167     0.015027     0.014032
Rotational constants in MHz :  1653.852071   450.497858   420.655428

                             ****ORCA TERMINATED NORMALLY****
TOTAL RUN TIME: 0 days 0 hours 20 minutes 32 seconds 752 msec
