                         Program Version 4.2.0 -  RELEASE  -
|  1> # Test redundant internal optimization
|  2> #
|  3> ! RKS B3LYP  Opt TightSCF SmallPrint
|  4>
|  5> %basis
|  6>         Basis "6-31G"
|  7> end
|  8>
|  9> %geom
| 10> Constraints
| 11> { D 4  0  15  12  240.0   C } # D for Dihedral angle
| 12> { D 0  15  12  16  60.0   C } # D for Dihedral angle
| 13> { D 0  4  3  2   C } # D for Dihedral angle
| 14> { D 4  3  2  1   C } # D for Dihedral angle
| 15> { D 3  2  1  0   C } # D for Dihedral angle
| 16> { D 2  1  0  4   C } # D for Dihedral angle
| 17> { D 1  0  4  3   C } # D for Dihedral angle
| 18> { D 16  20  19  18   C } # D for Dihedral angle
| 19> { D 20  19  18  17   C } # D for Dihedral angle
| 20> { D 19  18  17  16   C } # D for Dihedral angle
| 21> { D 18  17  16  20   C } # D for Dihedral angle
| 22> { D 17  16  20  19   C } # D for Dihedral angle
| 23> { D 15  12  16  20   C } # D for Dihedral angle
| 24> end
| 25> end
| 26>
| 27>
| 28> #%pal
| 29> #nprocs 8
| 30> #end
| 31>
| 32> * xyz 0 1
| 33> C  -21.048   26.222   46.251
| 34> C  -20.361   27.558   45.944
| 35> C  -20.329   28.222   47.341
| 36> C  -20.110   27.022   48.296
| 37> O  -20.473   25.807   47.535
| 38> H  -20.833   25.428   45.533
| 39> H  -19.344   27.382   45.576
| 40> H  -20.898   28.157   45.201
| 41> H  -19.543   28.978   47.434
| 42> H  -21.289   28.710   47.548
| 43> H  -20.733   27.082   49.195
| 44> H  -19.064   26.913   48.597
| 45> C  -23.430   25.483   45.442
| 46> H  -24.495   25.689   45.602
| 47> H  -23.195   25.688   44.390
| 48> O  -22.586   26.394   46.375
| 49> C  -23.182   23.970   45.696
| 50> C  -23.645   23.557   47.097
| 51> C  -25.174   23.431   46.897
| 52> C  -25.296   22.887   45.452
| 53> O  -24.002   23.158   44.790
| 54> H  -22.138   23.737   45.477
| 55> O  -23.026   22.185   47.480
| 56> H  -23.376   24.284   47.871
| 57> H  -25.645   22.770   47.633
| 58> H  -25.647   24.416   46.981
| 59> H  -26.096   23.376   44.886
| 60> H  -25.453   21.806   45.424
| 61> H  -23.283   21.439   46.718
| 62> *
| 63>
| 64>                          ****END OF INPUT****
 Total Charge           Charge          ....    0
 Multiplicity           Mult            ....    1
 Number of Electrons    NEL             ....  102
FINAL SINGLE POINT ENERGY      -652.836435994317
FINAL SINGLE POINT ENERGY      -652.858423806342
FINAL SINGLE POINT ENERGY      -652.861985391874
FINAL SINGLE POINT ENERGY      -652.862598592364
FINAL SINGLE POINT ENERGY      -652.862694283779
FINAL SINGLE POINT ENERGY      -652.862704601049
                    ***********************HURRAY********************

CARTESIAN COORDINATES (ANGSTROEM)
---------------------------------
  C    -21.030817   26.146561   46.212980
  C    -20.385081   27.503115   45.931833
  C    -20.457780   28.184988   47.319265
  C    -20.244357   27.006953   48.294769
  O    -20.520662   25.776527   47.509349
  H    -20.760478   25.350728   45.515568
  H    -19.343209   27.355154   45.623516
  H    -20.910289   28.057265   45.150536
  H    -19.706989   28.971083   47.443144
  H    -21.449451   28.625468   47.458584
  H    -20.918985   27.032045   49.154065
  H    -19.211640   26.926931   48.646851
  C    -23.308250   25.478315   45.433735
  H    -24.328409   25.809791   45.641452
  H    -23.101747   25.662248   44.369801
  O    -22.471714   26.320888   46.277635
  C    -23.156321   23.975402   45.701889
  C    -23.581271   23.515121   47.103039
  C    -25.122992   23.465856   46.960256
  C    -25.331981   22.998196   45.498322
  O    -24.047907   23.244739   44.790483
  H    -22.140354   23.637439   45.481348
  O    -23.031404   22.201707   47.404048
  H    -23.224776   24.174363   47.892848
  H    -25.555330   22.779122   47.691989
  H    -25.554474   24.458504   47.127907
  H    -26.129808   23.542918   44.985154
  H    -25.537346   21.925766   45.423838
  H    -23.130179   21.623808   46.617800

 Multiplicity           Mult            ....    1
 Number of Electrons    NEL             ....  102
 Basis Dimension        Dim             ....  149

ORBITAL ENERGIES
----------------

  NO   OCC          E(Eh)            E(eV)
   0   2.0000     -19.145702      -520.9810
   1   2.0000     -19.143878      -520.9314
   2   2.0000     -19.138783      -520.7928
   3   2.0000     -19.131888      -520.6051
   4   2.0000     -10.280018      -279.7335
   5   2.0000     -10.233124      -278.4575
   6   2.0000     -10.232988      -278.4538
   7   2.0000     -10.232689      -278.4456
   8   2.0000     -10.231788      -278.4211
   9   2.0000     -10.223605      -278.1984
  10   2.0000     -10.186068      -277.1770
  11   2.0000     -10.184618      -277.1375
  12   2.0000     -10.184348      -277.1302
  13   2.0000      -1.052553       -28.6414
  14   2.0000      -1.034579       -28.1523
  15   2.0000      -1.001844       -27.2616
  16   2.0000      -0.994598       -27.0644
  17   2.0000      -0.787301       -21.4236
  18   2.0000      -0.776575       -21.1317
  19   2.0000      -0.764956       -20.8155
  20   2.0000      -0.732899       -19.9432
  21   2.0000      -0.674499       -18.3540
  22   2.0000      -0.605232       -16.4692
  23   2.0000      -0.601007       -16.3542
  24   2.0000      -0.597216       -16.2511
  25   2.0000      -0.571758       -15.5583
  26   2.0000      -0.521493       -14.1906
  27   2.0000      -0.519806       -14.1446
  28   2.0000      -0.493120       -13.4185
  29   2.0000      -0.486588       -13.2407
  30   2.0000      -0.465767       -12.6742
  31   2.0000      -0.460057       -12.5188
  32   2.0000      -0.452309       -12.3080
  33   2.0000      -0.434094       -11.8123
  34   2.0000      -0.423965       -11.5367
  35   2.0000      -0.412339       -11.2203
  36   2.0000      -0.399894       -10.8817
  37   2.0000      -0.390318       -10.6211
  38   2.0000      -0.373166       -10.1544
  39   2.0000      -0.366832        -9.9820
  40   2.0000      -0.359955        -9.7949
  41   2.0000      -0.355633        -9.6773
  42   2.0000      -0.350761        -9.5447
  43   2.0000      -0.332446        -9.0463
  44   2.0000      -0.316927        -8.6240
  45   2.0000      -0.310028        -8.4363
  46   2.0000      -0.302345        -8.2272
  47   2.0000      -0.271371        -7.3844
  48   2.0000      -0.264271        -7.1912
  49   2.0000      -0.255185        -6.9439
  50   2.0000      -0.237684        -6.4677
  51   0.0000       0.065008         1.7690
  52   0.0000       0.076160         2.0724
  53   0.0000       0.094031         2.5587
  54   0.0000       0.098519         2.6808
  55   0.0000       0.103226         2.8089

MULLIKEN ATOMIC CHARGES
-----------------------
   0 C :    0.278150
   1 C :   -0.250724
   2 C :   -0.300539
   3 C :   -0.001228
   4 O :   -0.503001
   5 H :    0.145958
   6 H :    0.143309
   7 H :    0.147293
   8 H :    0.141206
   9 H :    0.163413
  10 H :    0.151107
  11 H :    0.142380
  12 C :   -0.018061
  13 H :    0.150455
  14 H :    0.145189
  15 O :   -0.519417
  16 C :    0.047596
  17 C :    0.090618
  18 C :   -0.297513
  19 C :   -0.034467
  20 O :   -0.530271
  21 H :    0.162845
  22 O :   -0.600938
  23 H :    0.182986
  24 H :    0.163749
  25 H :    0.145439
  26 H :    0.146768
  27 H :    0.147406
  28 H :    0.360293
Sum of atomic charges:    0.0000000

LOEWDIN ATOMIC CHARGES
----------------------
   0 C :    0.172208
   1 C :   -0.219079
   2 C :   -0.216563
   3 C :   -0.026057
   4 O :   -0.316147
   5 H :    0.100263
   6 H :    0.112462
   7 H :    0.118933
   8 H :    0.113842
   9 H :    0.119769
  10 H :    0.107619
  11 H :    0.102741
  12 C :   -0.040908
  13 H :    0.112912
  14 H :    0.101235
  15 O :   -0.332372
  16 C :    0.002637
  17 C :    0.038440
  18 C :   -0.240863
  19 C :   -0.039051
  20 O :   -0.332049
  21 H :    0.113028
  22 O :   -0.412951
  23 H :    0.131218
  24 H :    0.127479
  25 H :    0.113955
  26 H :    0.104224
  27 H :    0.103186
  28 H :    0.279890

  Mayer bond orders larger than 0.100000
B(  0-C ,  1-C ) :   0.9427 B(  0-C ,  4-O ) :   0.9261 B(  0-C ,  5-H ) :   0.9164
B(  0-C , 15-O ) :   0.8344 B(  1-C ,  2-C ) :   0.9568 B(  1-C ,  6-H ) :   0.9370
B(  1-C ,  7-H ) :   0.9385 B(  2-C ,  3-C ) :   0.9543 B(  2-C ,  8-H ) :   0.9453
B(  2-C ,  9-H ) :   0.9435 B(  3-C ,  4-O ) :   0.8363 B(  3-C , 10-H ) :   0.9350
B(  3-C , 11-H ) :   0.9398 B( 12-C , 13-H ) :   0.9411 B( 12-C , 14-H ) :   0.9201
B( 12-C , 15-O ) :   0.8470 B( 12-C , 16-C ) :   0.8784 B( 16-C , 17-C ) :   0.9106
B( 16-C , 20-O ) :   0.8305 B( 16-C , 21-H ) :   0.9226 B( 17-C , 18-C ) :   0.9112
B( 17-C , 22-O ) :   0.8880 B( 17-C , 23-H ) :   0.9206 B( 18-C , 19-C ) :   0.9422
B( 18-C , 24-H ) :   0.9372 B( 18-C , 25-H ) :   0.9345 B( 19-C , 20-O ) :   0.8431
B( 19-C , 26-H ) :   0.9356 B( 19-C , 27-H ) :   0.9379 B( 22-O , 28-H ) :   0.7969

FINAL SINGLE POINT ENERGY      -652.862706927815

DIPOLE MOMENT
-------------
                                X             Y             Z
Electronic contribution:      0.33090      -4.20677      -0.66371
Nuclear contribution   :     -0.65538       5.04799       0.25805
                        -----------------------------------------
Total Dipole Moment    :     -0.32449       0.84121      -0.40566
                        -----------------------------------------
Magnitude (a.u.)       :      0.98868
Magnitude (Debye)      :      2.51303

Rotational constants in cm-1:     0.058258     0.013417     0.012233
Rotational constants in MHz :  1746.530948   402.227621   366.745018

                             ****ORCA TERMINATED NORMALLY****
TOTAL RUN TIME: 0 days 0 hours 39 minutes 49 seconds 261 msec
