                         Program Version 4.2.1 -  RELEASE  -
|  1> # Test redundant internal optimization
|  2> #
|  3> ! RKS B3LYP  Opt TightSCF SmallPrint
|  4>
|  5> %basis
|  6>         Basis "6-31G"
|  7> end
|  8>
|  9> %geom
| 10> Constraints
| 11> { D 4  0  19  14  15.0   C } # D for Dihedral angle
| 12> { D 0  19  14  12  105.0   C } # D for Dihedral angle
| 13> { D 0  4  3  2   C } # D for Dihedral angle
| 14> { D 4  3  2  1   C } # D for Dihedral angle
| 15> { D 3  2  1  0   C } # D for Dihedral angle
| 16> { D 2  1  0  4   C } # D for Dihedral angle
| 17> { D 1  0  4  3   C } # D for Dihedral angle
| 18> { D 14  15  16  17   C } # D for Dihedral angle
| 19> { D 15  16  17  12   C } # D for Dihedral angle
| 20> { D 16  17  12  14   C } # D for Dihedral angle
| 21> { D 17  12  14  15   C } # D for Dihedral angle
| 22> { D 12  14  15  16   C } # D for Dihedral angle
| 23> end
| 24> end
| 25>
| 26>
| 27> #%pal
| 28> #nprocs 8
| 29> #end
| 30>
| 31> * xyz 0 1
| 32> C  -21.048   26.222   46.251
| 33> C  -20.361   27.558   45.944
| 34> C  -20.329   28.222   47.341
| 35> C  -20.110   27.022   48.296
| 36> O  -20.473   25.807   47.535
| 37> H  -20.833   25.428   45.533
| 38> H  -19.344   27.382   45.576
| 39> H  -20.898   28.157   45.201
| 40> H  -19.543   28.978   47.434
| 41> H  -21.289   28.710   47.548
| 42> H  -20.733   27.082   49.195
| 43> H  -19.064   26.913   48.597
| 44> C  -23.325   27.885   48.079
| 45> H  -23.417   28.014   49.169
| 46> C  -22.954   26.442   47.718
| 47> C  -24.318   25.725   47.845
| 48> C  -25.326   26.797   47.358
| 49> O  -24.623   28.097   47.428
| 50> H  -22.643   28.640   47.685
| 51> O  -22.472   26.381   46.366
| 52> H  -22.188   26.017   48.377
| 53> H  -24.371   24.805   47.255
| 54> H  -24.511   25.462   48.893
| 55> H  -26.226   26.842   47.981
| 56> H  -25.623   26.648   46.315
| 57> *
| 58>
| 59>                          ****END OF INPUT****
 Total Charge           Charge          ....    0
 Multiplicity           Mult            ....    1
 Number of Electrons    NEL             ....   86
FINAL SINGLE POINT ENERGY      -538.406282440702
FINAL SINGLE POINT ENERGY      -538.425907584450
FINAL SINGLE POINT ENERGY      -538.427984711052
FINAL SINGLE POINT ENERGY      -538.428236015808
FINAL SINGLE POINT ENERGY      -538.428269229689
FINAL SINGLE POINT ENERGY      -538.428278867978
                    ***********************HURRAY********************

CARTESIAN COORDINATES (ANGSTROEM)
---------------------------------
  C    -21.051713   26.265174   46.382373
  C    -20.347050   27.545051   45.921309
  C    -20.072570   28.262679   47.269239
  C    -19.780860   27.088287   48.232451
  O    -20.327225   25.872765   47.568697
  H    -20.937882   25.440733   45.674250
  H    -19.409559   27.271279   45.425012
  H    -20.962165   28.130565   45.234754
  H    -19.229495   28.958076   47.208050
  H    -20.948653   28.832739   47.586177
  H    -20.255624   27.200563   49.211834
  H    -18.710833   26.911066   48.371930
  C    -23.569440   27.865505   48.242063
  H    -23.794088   27.921325   49.318908
  C    -23.108184   26.455753   47.871493
  C    -24.448583   25.701579   47.788976
  C    -25.423084   26.761011   47.223056
  O    -24.776999   28.076814   47.440440
  H    -22.871736   28.658970   47.975960
  O    -22.492733   26.391453   46.548368
  H    -22.427037   26.016572   48.606342
  H    -24.355734   24.819111   47.152993
  H    -24.752293   25.382033   48.792428
  H    -26.395453   26.753396   47.727254
  H    -25.573006   26.653501   46.145640

 Multiplicity           Mult            ....    1
 Number of Electrons    NEL             ....   86
 Basis Dimension        Dim             ....  127

ORBITAL ENERGIES
----------------

  NO   OCC          E(Eh)            E(eV)
   0   2.0000     -19.152663      -521.1705
   1   2.0000     -19.135804      -520.7117
   2   2.0000     -19.124821      -520.4128
   3   2.0000     -10.279667      -279.7239
   4   2.0000     -10.235921      -278.5336
   5   2.0000     -10.235544      -278.5233
   6   2.0000     -10.220383      -278.1108
   7   2.0000     -10.215511      -277.9782
   8   2.0000     -10.193691      -277.3844
   9   2.0000     -10.187134      -277.2060
  10   2.0000     -10.180070      -277.0138
  11   2.0000      -1.054861       -28.7042
  12   2.0000      -1.011659       -27.5286
  13   2.0000      -0.987568       -26.8731
  14   2.0000      -0.793019       -21.5792
  15   2.0000      -0.780080       -21.2271
  16   2.0000      -0.739321       -20.1179
  17   2.0000      -0.722771       -19.6676
  18   2.0000      -0.616957       -16.7882
  19   2.0000      -0.605805       -16.4848
  20   2.0000      -0.594297       -16.1716
  21   2.0000      -0.563445       -15.3321
  22   2.0000      -0.518679       -14.1140
  23   2.0000      -0.504165       -13.7190
  24   2.0000      -0.490551       -13.3486
  25   2.0000      -0.483363       -13.1530
  26   2.0000      -0.452111       -12.3026
  27   2.0000      -0.436311       -11.8726
  28   2.0000      -0.434348       -11.8192
  29   2.0000      -0.416703       -11.3391
  30   2.0000      -0.410692       -11.1755
  31   2.0000      -0.381849       -10.3906
  32   2.0000      -0.371413       -10.1067
  33   2.0000      -0.362733        -9.8705
  34   2.0000      -0.359617        -9.7857
  35   2.0000      -0.358567        -9.7571
  36   2.0000      -0.345813        -9.4100
  37   2.0000      -0.328953        -8.9513
  38   2.0000      -0.304719        -8.2918
  39   2.0000      -0.299757        -8.1568
  40   2.0000      -0.267557        -7.2806
  41   2.0000      -0.250208        -6.8085
  42   2.0000      -0.228384        -6.2147
  43   0.0000       0.071317         1.9406
  44   0.0000       0.091154         2.4804
  45   0.0000       0.094483         2.5710
  46   0.0000       0.103786         2.8242
  47   0.0000       0.112276         3.0552

MULLIKEN ATOMIC CHARGES
-----------------------
   0 C :    0.306359
   1 C :   -0.260299
   2 C :   -0.317439
   3 C :   -0.019525
   4 O :   -0.512642
   5 H :    0.158808
   6 H :    0.147177
   7 H :    0.163906
   8 H :    0.149104
   9 H :    0.154801
  10 H :    0.141923
  11 H :    0.153963
  12 C :   -0.007100
  13 H :    0.121791
  14 C :    0.056726
  15 C :   -0.284253
  16 C :    0.001523
  17 O :   -0.523097
  18 H :    0.157071
  19 O :   -0.532016
  20 H :    0.157160
  21 H :    0.162454
  22 H :    0.137307
  23 H :    0.131948
  24 H :    0.154351
Sum of atomic charges:   -0.0000000

LOEWDIN ATOMIC CHARGES
----------------------
   0 C :    0.183535
   1 C :   -0.223068
   2 C :   -0.222527
   3 C :   -0.033892
   4 O :   -0.318947
   5 H :    0.106358
   6 H :    0.116288
   7 H :    0.127591
   8 H :    0.118231
   9 H :    0.111480
  10 H :    0.100718
  11 H :    0.108299
  12 C :   -0.048990
  13 H :    0.090497
  14 C :    0.036046
  15 C :   -0.223899
  16 C :   -0.028750
  17 O :   -0.332591
  18 H :    0.110814
  19 O :   -0.332906
  20 H :    0.111443
  21 H :    0.128250
  22 H :    0.110631
  23 H :    0.096729
  24 H :    0.108662

  Mayer bond orders larger than 0.100000
B(  0-C ,  1-C ) :   0.9204 B(  0-C ,  4-O ) :   0.9038 B(  0-C ,  5-H ) :   0.9335
B(  0-C , 19-O ) :   0.8673 B(  1-C ,  2-C ) :   0.9551 B(  1-C ,  6-H ) :   0.9344
B(  1-C ,  7-H ) :   0.9350 B(  2-C ,  3-C ) :   0.9514 B(  2-C ,  8-H ) :   0.9440
B(  2-C ,  9-H ) :   0.9301 B(  3-C ,  4-O ) :   0.8320 B(  3-C , 10-H ) :   0.9336
B(  3-C , 11-H ) :   0.9401 B( 12-C , 13-H ) :   0.9099 B( 12-C , 14-C ) :   0.9158
B( 12-C , 17-O ) :   0.8710 B( 12-C , 18-H ) :   0.9204 B( 14-C , 15-C ) :   0.9528
B( 14-C , 19-O ) :   0.8290 B( 14-C , 20-H ) :   0.9087 B( 15-C , 16-C ) :   0.9488
B( 15-C , 21-H ) :   0.9377 B( 15-C , 22-H ) :   0.9423 B( 16-C , 17-O ) :   0.8541
B( 16-C , 23-H ) :   0.9338 B( 16-C , 24-H ) :   0.9362

FINAL SINGLE POINT ENERGY      -538.428279414987

DIPOLE MOMENT
-------------
                                X             Y             Z
Electronic contribution:     -0.94097      -1.71675      -1.36185
Nuclear contribution   :      1.66634       1.73497       1.82632
                        -----------------------------------------
Total Dipole Moment    :      0.72537       0.01822       0.46448
                        -----------------------------------------
Magnitude (a.u.)       :      0.86153
Magnitude (Debye)      :      2.18984

Rotational constants in cm-1:     0.075876     0.022811     0.021671
Rotational constants in MHz :  2274.690734   683.853060   649.674658

                             ****ORCA TERMINATED NORMALLY****
TOTAL RUN TIME: 0 days 0 hours 7 minutes 37 seconds 570 msec
