                         Program Version 4.2.1 -  RELEASE  -
|  1> # Test redundant internal optimization
|  2> #
|  3> ! RKS B3LYP  Opt TightSCF SmallPrint
|  4>
|  5> %basis
|  6>         Basis "6-31G"
|  7> end
|  8>
|  9> %geom
| 10> Constraints
| 11> { D 4  0  19  14  330.0   C } # D for Dihedral angle
| 12> { D 0  19  14  12  195.0   C } # D for Dihedral angle
| 13> { D 0  4  3  2   C } # D for Dihedral angle
| 14> { D 4  3  2  1   C } # D for Dihedral angle
| 15> { D 3  2  1  0   C } # D for Dihedral angle
| 16> { D 2  1  0  4   C } # D for Dihedral angle
| 17> { D 1  0  4  3   C } # D for Dihedral angle
| 18> { D 14  15  16  17   C } # D for Dihedral angle
| 19> { D 15  16  17  12   C } # D for Dihedral angle
| 20> { D 16  17  12  14   C } # D for Dihedral angle
| 21> { D 17  12  14  15   C } # D for Dihedral angle
| 22> { D 12  14  15  16   C } # D for Dihedral angle
| 23> end
| 24> end
| 25>
| 26>
| 27> #%pal
| 28> #nprocs 8
| 29> #end
| 30>
| 31> * xyz 0 1
| 32> C  -21.048   26.222   46.251
| 33> C  -20.361   27.558   45.944
| 34> C  -20.329   28.222   47.341
| 35> C  -20.110   27.022   48.296
| 36> O  -20.473   25.807   47.535
| 37> H  -20.833   25.428   45.533
| 38> H  -19.344   27.382   45.576
| 39> H  -20.898   28.157   45.201
| 40> H  -19.543   28.978   47.434
| 41> H  -21.289   28.710   47.548
| 42> H  -20.733   27.082   49.195
| 43> H  -19.064   26.913   48.597
| 44> C  -24.605   25.493   47.131
| 45> H  -25.124   25.092   48.016
| 46> C  -23.087   25.523   47.341
| 47> C  -22.705   24.046   47.087
| 48> C  -23.692   23.614   45.974
| 49> O  -24.793   24.602   45.981
| 50> H  -25.045   26.456   46.864
| 51> O  -22.472   26.381   46.366
| 52> H  -22.798   25.872   48.338
| 53> H  -21.660   23.923   46.789
| 54> H  -22.866   23.454   47.997
| 55> H  -24.107   22.614   46.144
| 56> H  -23.238   23.644   44.979
| 57> *
| 58>
| 59>                          ****END OF INPUT****
 Total Charge           Charge          ....    0
 Multiplicity           Mult            ....    1
 Number of Electrons    NEL             ....   86
FINAL SINGLE POINT ENERGY      -538.429334345199
FINAL SINGLE POINT ENERGY      -538.434199115134
FINAL SINGLE POINT ENERGY      -538.434575552346
FINAL SINGLE POINT ENERGY      -538.434653488726
FINAL SINGLE POINT ENERGY      -538.434664455213
FINAL SINGLE POINT ENERGY      -538.434666931845
                    ***********************HURRAY********************

CARTESIAN COORDINATES (ANGSTROEM)
---------------------------------
  C    -20.983951   26.232978   46.249406
  C    -20.432955   27.629408   45.958695
  C    -20.358505   28.238817   47.376259
  C    -19.977493   27.032423   48.263004
  O    -20.299273   25.820486   47.458533
  H    -20.748528   25.472027   45.499589
  H    -19.436837   27.538500   45.510856
  H    -21.080536   28.190825   45.282116
  H    -19.628664   29.051080   47.447598
  H    -21.339737   28.632001   47.658190
  H    -20.537983   26.991822   49.201020
  H    -18.906769   26.984807   48.481643
  C    -24.578941   25.532914   47.029322
  H    -25.184975   25.196799   47.883827
  C    -23.090394   25.463309   47.366487
  C    -22.797198   23.964895   47.169580
  C    -23.711467   23.572510   45.986294
  O    -24.736808   24.634758   45.883422
  H    -24.895529   26.528163   46.715028
  O    -22.419465   26.336601   46.403222
  H    -22.860709   25.797964   48.383973
  H    -21.739044   23.762343   46.996319
  H    -23.088480   23.432120   48.082912
  H    -24.206290   22.606997   46.138788
  H    -23.176468   23.550452   45.031916

 Multiplicity           Mult            ....    1
 Number of Electrons    NEL             ....   86
 Basis Dimension        Dim             ....  127

ORBITAL ENERGIES
----------------

  NO   OCC          E(Eh)            E(eV)
   0   2.0000     -19.147999      -521.0435
   1   2.0000     -19.138491      -520.7848
   2   2.0000     -19.122834      -520.3588
   3   2.0000     -10.278971      -279.7050
   4   2.0000     -10.236010      -278.5360
   5   2.0000     -10.231296      -278.4077
   6   2.0000     -10.217237      -278.0251
   7   2.0000     -10.216397      -278.0023
   8   2.0000     -10.188934      -277.2550
   9   2.0000     -10.186152      -277.1793
  10   2.0000     -10.179422      -276.9962
  11   2.0000      -1.055462       -28.7206
  12   2.0000      -1.010543       -27.4983
  13   2.0000      -0.986776       -26.8515
  14   2.0000      -0.793887       -21.6028
  15   2.0000      -0.774220       -21.0676
  16   2.0000      -0.742271       -20.1982
  17   2.0000      -0.718876       -19.5616
  18   2.0000      -0.613150       -16.6847
  19   2.0000      -0.602770       -16.4022
  20   2.0000      -0.592197       -16.1145
  21   2.0000      -0.561475       -15.2785
  22   2.0000      -0.525511       -14.2999
  23   2.0000      -0.494526       -13.4567
  24   2.0000      -0.490175       -13.3383
  25   2.0000      -0.479284       -13.0420
  26   2.0000      -0.453866       -12.3503
  27   2.0000      -0.441479       -12.0133
  28   2.0000      -0.419179       -11.4064
  29   2.0000      -0.412931       -11.2364
  30   2.0000      -0.406613       -11.0645
  31   2.0000      -0.387294       -10.5388
  32   2.0000      -0.369129       -10.0445
  33   2.0000      -0.360568        -9.8116
  34   2.0000      -0.359353        -9.7785
  35   2.0000      -0.358624        -9.7586
  36   2.0000      -0.345622        -9.4048
  37   2.0000      -0.330664        -8.9978
  38   2.0000      -0.305214        -8.3053
  39   2.0000      -0.291580        -7.9343
  40   2.0000      -0.262401        -7.1403
  41   2.0000      -0.254703        -6.9308
  42   2.0000      -0.230170        -6.2632
  43   0.0000       0.071751         1.9524
  44   0.0000       0.098650         2.6844
  45   0.0000       0.100152         2.7253
  46   0.0000       0.106823         2.9068
  47   0.0000       0.118560         3.2262

MULLIKEN ATOMIC CHARGES
-----------------------
   0 C :    0.297101
   1 C :   -0.259123
   2 C :   -0.300384
   3 C :   -0.012755
   4 O :   -0.519309
   5 H :    0.148855
   6 H :    0.144145
   7 H :    0.164552
   8 H :    0.144481
   9 H :    0.158306
  10 H :    0.144038
  11 H :    0.148300
  12 C :   -0.000431
  13 H :    0.123527
  14 C :    0.095849
  15 C :   -0.314366
  16 C :    0.005699
  17 O :   -0.521322
  18 H :    0.164306
  19 O :   -0.532811
  20 H :    0.129129
  21 H :    0.176201
  22 H :    0.140031
  23 H :    0.133642
  24 H :    0.142339
Sum of atomic charges:    0.0000000

LOEWDIN ATOMIC CHARGES
----------------------
   0 C :    0.176251
   1 C :   -0.213718
   2 C :   -0.216920
   3 C :   -0.030664
   4 O :   -0.329641
   5 H :    0.097520
   6 H :    0.113542
   7 H :    0.128113
   8 H :    0.115610
   9 H :    0.117174
  10 H :    0.102260
  11 H :    0.105486
  12 C :   -0.034134
  13 H :    0.090267
  14 C :    0.043809
  15 C :   -0.237997
  16 C :   -0.029055
  17 O :   -0.330620
  18 H :    0.121455
  19 O :   -0.330379
  20 H :    0.097180
  21 H :    0.130334
  22 H :    0.114427
  23 H :    0.097705
  24 H :    0.101996

  Mayer bond orders larger than 0.100000
B(  0-C ,  1-C ) :   0.9461 B(  0-C ,  4-O ) :   0.8883 B(  0-C ,  5-H ) :   0.9220
B(  0-C , 19-O ) :   0.8518 B(  1-C ,  2-C ) :   0.9532 B(  1-C ,  6-H ) :   0.9379
B(  1-C ,  7-H ) :   0.9351 B(  2-C ,  3-C ) :   0.9549 B(  2-C ,  8-H ) :   0.9446
B(  2-C ,  9-H ) :   0.9450 B(  3-C ,  4-O ) :   0.8327 B(  3-C , 10-H ) :   0.9342
B(  3-C , 11-H ) :   0.9403 B( 12-C , 13-H ) :   0.9158 B( 12-C , 14-C ) :   0.9338
B( 12-C , 17-O ) :   0.8701 B( 12-C , 18-H ) :   0.9303 B( 14-C , 15-C ) :   0.9338
B( 14-C , 19-O ) :   0.8216 B( 14-C , 20-H ) :   0.9237 B( 15-C , 16-C ) :   0.9405
B( 15-C , 21-H ) :   0.9278 B( 15-C , 22-H ) :   0.9384 B( 16-C , 17-O ) :   0.8577
B( 16-C , 23-H ) :   0.9333 B( 16-C , 24-H ) :   0.9378

FINAL SINGLE POINT ENERGY      -538.434667098732

DIPOLE MOMENT
-------------
                                X             Y             Z
Electronic contribution:     -1.97901      -1.28940      -1.75316
Nuclear contribution   :      2.84827       1.69974       2.52324
                        -----------------------------------------
Total Dipole Moment    :      0.86926       0.41033       0.77008
                        -----------------------------------------
Magnitude (a.u.)       :      1.23167
Magnitude (Debye)      :      3.13065

Rotational constants in cm-1:     0.085044     0.021518     0.020572
Rotational constants in MHz :  2549.564019   645.101615   616.734461

                             ****ORCA TERMINATED NORMALLY****
TOTAL RUN TIME: 0 days 0 hours 8 minutes 16 seconds 486 msec
