                         Program Version 4.2.1 -  RELEASE  -
|  1> # Test redundant internal optimization
|  2> #
|  3> ! RKS B3LYP  Opt TightSCF SmallPrint
|  4>
|  5> %basis
|  6>         Basis "6-31G"
|  7> end
|  8>
|  9> %geom
| 10> Constraints
| 11> { D 4  0  19  14  270.0   C } # D for Dihedral angle
| 12> { D 0  19  14  12  105.0   C } # D for Dihedral angle
| 13> { D 0  4  3  2   C } # D for Dihedral angle
| 14> { D 4  3  2  1   C } # D for Dihedral angle
| 15> { D 3  2  1  0   C } # D for Dihedral angle
| 16> { D 2  1  0  4   C } # D for Dihedral angle
| 17> { D 1  0  4  3   C } # D for Dihedral angle
| 18> { D 14  15  16  17   C } # D for Dihedral angle
| 19> { D 15  16  17  12   C } # D for Dihedral angle
| 20> { D 16  17  12  14   C } # D for Dihedral angle
| 21> { D 17  12  14  15   C } # D for Dihedral angle
| 22> { D 12  14  15  16   C } # D for Dihedral angle
| 23> end
| 24> end
| 25>
| 26>
| 27> #%pal
| 28> #nprocs 8
| 29> #end
| 30>
| 31> * xyz 0 1
| 32> C  -21.048   26.222   46.251
| 33> C  -20.361   27.558   45.944
| 34> C  -20.329   28.222   47.341
| 35> C  -20.110   27.022   48.296
| 36> O  -20.473   25.807   47.535
| 37> H  -20.833   25.428   45.533
| 38> H  -19.344   27.382   45.576
| 39> H  -20.898   28.157   45.201
| 40> H  -19.543   28.978   47.434
| 41> H  -21.289   28.710   47.548
| 42> H  -20.733   27.082   49.195
| 43> H  -19.064   26.913   48.597
| 44> C  -23.750   24.578   47.386
| 45> H  -24.073   23.536   47.237
| 46> C  -23.226   25.191   46.082
| 47> C  -24.541   25.540   45.347
| 48> C  -25.489   25.956   46.500
| 49> O  -24.896   25.422   47.746
| 50> H  -23.049   24.620   48.220
| 51> O  -22.472   26.381   46.366
| 52> H  -22.589   24.507   45.512
| 53> H  -24.415   26.333   44.604
| 54> H  -24.929   24.654   44.829
| 55> H  -26.499   25.550   46.381
| 56> H  -25.555   27.042   46.615
| 57> *
| 58>
| 59>                          ****END OF INPUT****
 Total Charge           Charge          ....    0
 Multiplicity           Mult            ....    1
 Number of Electrons    NEL             ....   86
FINAL SINGLE POINT ENERGY      -538.434624197487
FINAL SINGLE POINT ENERGY      -538.436749160448
FINAL SINGLE POINT ENERGY      -538.437055669477
FINAL SINGLE POINT ENERGY      -538.437082728110
FINAL SINGLE POINT ENERGY      -538.437089993821
                    ***********************HURRAY********************

CARTESIAN COORDINATES (ANGSTROEM)
---------------------------------
  C    -20.985780   26.173846   46.241251
  C    -20.406461   27.558092   45.944405
  C    -20.429718   28.218563   47.343366
  C    -20.120231   27.037315   48.291085
  O    -20.390730   25.805061   47.508829
  H    -20.721573   25.382285   45.532173
  H    -19.378732   27.449211   45.578916
  H    -20.995589   28.097538   45.200335
  H    -19.702355   29.030378   47.439281
  H    -21.427911   28.619088   47.542130
  H    -20.748335   27.031599   49.185071
  H    -19.067694   26.995114   48.587305
  C    -23.772358   24.547815   47.385804
  H    -24.156484   23.527566   47.233179
  C    -23.221543   25.121277   46.080270
  C    -24.511919   25.559769   45.361115
  C    -25.418195   26.040781   46.519807
  O    -24.849458   25.465224   47.757259
  H    -23.035577   24.552187   48.190217
  O    -22.416534   26.311467   46.335487
  H    -22.636064   24.392203   45.504702
  H    -24.305628   26.341676   44.626444
  H    -24.952766   24.699190   44.844430
  H    -26.455554   25.705346   46.409515
  H    -25.400812   27.128410   46.633624

 Multiplicity           Mult            ....    1
 Number of Electrons    NEL             ....   86
 Basis Dimension        Dim             ....  127

ORBITAL ENERGIES
----------------

  NO   OCC          E(Eh)            E(eV)
   0   2.0000     -19.142614      -520.8970
   1   2.0000     -19.136754      -520.7375
   2   2.0000     -19.123989      -520.3902
   3   2.0000     -10.279120      -279.7091
   4   2.0000     -10.240313      -278.6531
   5   2.0000     -10.221615      -278.1443
   6   2.0000     -10.217771      -278.0397
   7   2.0000     -10.215560      -277.9795
   8   2.0000     -10.184619      -277.1376
   9   2.0000     -10.183786      -277.1149
  10   2.0000     -10.182327      -277.0752
  11   2.0000      -1.053262       -28.6607
  12   2.0000      -1.010811       -27.5056
  13   2.0000      -0.989235       -26.9185
  14   2.0000      -0.790925       -21.5222
  15   2.0000      -0.774713       -21.0810
  16   2.0000      -0.735993       -20.0274
  17   2.0000      -0.718774       -19.5588
  18   2.0000      -0.605703       -16.4820
  19   2.0000      -0.597725       -16.2649
  20   2.0000      -0.592459       -16.1216
  21   2.0000      -0.579748       -15.7757
  22   2.0000      -0.519385       -14.1332
  23   2.0000      -0.502578       -13.6758
  24   2.0000      -0.479462       -13.0468
  25   2.0000      -0.473987       -12.8978
  26   2.0000      -0.449150       -12.2220
  27   2.0000      -0.444278       -12.0894
  28   2.0000      -0.428654       -11.6643
  29   2.0000      -0.409702       -11.1485
  30   2.0000      -0.405443       -11.0327
  31   2.0000      -0.385312       -10.4849
  32   2.0000      -0.367794       -10.0082
  33   2.0000      -0.363152        -9.8819
  34   2.0000      -0.354432        -9.6446
  35   2.0000      -0.351356        -9.5609
  36   2.0000      -0.340890        -9.2761
  37   2.0000      -0.321981        -8.7615
  38   2.0000      -0.304758        -8.2929
  39   2.0000      -0.298792        -8.1305
  40   2.0000      -0.268362        -7.3025
  41   2.0000      -0.247786        -6.7426
  42   2.0000      -0.229418        -6.2428
  43   0.0000       0.077776         2.1164
  44   0.0000       0.097502         2.6532
  45   0.0000       0.100321         2.7299
  46   0.0000       0.115840         3.1522
  47   0.0000       0.125550         3.4164

MULLIKEN ATOMIC CHARGES
-----------------------
   0 C :    0.282417
   1 C :   -0.256879
   2 C :   -0.299135
   3 C :   -0.002126
   4 O :   -0.511024
   5 H :    0.138069
   6 H :    0.143239
   7 H :    0.151140
   8 H :    0.139614
   9 H :    0.166894
  10 H :    0.153204
  11 H :    0.140042
  12 C :    0.006098
  13 H :    0.118435
  14 C :    0.059510
  15 C :   -0.286925
  16 C :    0.001411
  17 O :   -0.519334
  18 H :    0.177072
  19 O :   -0.510183
  20 H :    0.126531
  21 H :    0.155901
  22 H :    0.139362
  23 H :    0.133348
  24 H :    0.153319
Sum of atomic charges:    0.0000000

LOEWDIN ATOMIC CHARGES
----------------------
   0 C :    0.171883
   1 C :   -0.216517
   2 C :   -0.215887
   3 C :   -0.027322
   4 O :   -0.330605
   5 H :    0.094998
   6 H :    0.112971
   7 H :    0.121184
   8 H :    0.112799
   9 H :    0.121422
  10 H :    0.108508
  11 H :    0.101375
  12 C :   -0.043660
  13 H :    0.089172
  14 C :    0.039294
  15 C :   -0.227672
  16 C :   -0.028786
  17 O :   -0.329727
  18 H :    0.126503
  19 O :   -0.318580
  20 H :    0.097929
  21 H :    0.124232
  22 H :    0.111792
  23 H :    0.097143
  24 H :    0.107551

  Mayer bond orders larger than 0.100000
B(  0-C ,  1-C ) :   0.9476 B(  0-C ,  4-O ) :   0.9126 B(  0-C ,  5-H ) :   0.9171
B(  0-C , 19-O ) :   0.8666 B(  1-C ,  2-C ) :   0.9582 B(  1-C ,  6-H ) :   0.9396
B(  1-C ,  7-H ) :   0.9374 B(  2-C ,  3-C ) :   0.9549 B(  2-C ,  8-H ) :   0.9453
B(  2-C ,  9-H ) :   0.9433 B(  3-C ,  4-O ) :   0.8364 B(  3-C , 10-H ) :   0.9346
B(  3-C , 11-H ) :   0.9403 B( 12-C , 13-H ) :   0.9112 B( 12-C , 14-C ) :   0.9226
B( 12-C , 17-O ) :   0.8688 B( 12-C , 18-H ) :   0.9265 B( 14-C , 15-C ) :   0.9547
B( 14-C , 19-O ) :   0.8292 B( 14-C , 20-H ) :   0.9180 B( 15-C , 16-C ) :   0.9481
B( 15-C , 21-H ) :   0.9382 B( 15-C , 22-H ) :   0.9410 B( 16-C , 17-O ) :   0.8593
B( 16-C , 23-H ) :   0.9328 B( 16-C , 24-H ) :   0.9360

FINAL SINGLE POINT ENERGY      -538.437090566416

DIPOLE MOMENT
-------------
                                X             Y             Z
Electronic contribution:     -0.39201      -2.29631       1.59504
Nuclear contribution   :      0.79325       2.52230      -2.65018
                        -----------------------------------------
Total Dipole Moment    :      0.40124       0.22599      -1.05514
                        -----------------------------------------
Magnitude (a.u.)       :      1.15125
Magnitude (Debye)      :      2.92625

Rotational constants in cm-1:     0.075768     0.021243     0.020237
Rotational constants in MHz :  2271.474597   636.838434   606.696124

                             ****ORCA TERMINATED NORMALLY****
TOTAL RUN TIME: 0 days 0 hours 5 minutes 45 seconds 305 msec
