                         Program Version 4.2.0 -  RELEASE  -
|  1> # Test redundant internal optimization
|  2> #
|  3> ! RKS B3LYP  Opt TightSCF SmallPrint
|  4>
|  5> %basis
|  6>         Basis "6-31G"
|  7> end
|  8>
|  9> %geom
| 10> Constraints
| 11> { D 4  0  15  12  240.0   C } # D for Dihedral angle
| 12> { D 0  15  12  16  90.0   C } # D for Dihedral angle
| 13> { D 0  4  3  2   C } # D for Dihedral angle
| 14> { D 4  3  2  1   C } # D for Dihedral angle
| 15> { D 3  2  1  0   C } # D for Dihedral angle
| 16> { D 2  1  0  4   C } # D for Dihedral angle
| 17> { D 1  0  4  3   C } # D for Dihedral angle
| 18> { D 16  20  19  18   C } # D for Dihedral angle
| 19> { D 20  19  18  17   C } # D for Dihedral angle
| 20> { D 19  18  17  16   C } # D for Dihedral angle
| 21> { D 18  17  16  20   C } # D for Dihedral angle
| 22> { D 17  16  20  19   C } # D for Dihedral angle
| 23> { D 15  12  16  20   C } # D for Dihedral angle
| 24> end
| 25> end
| 26>
| 27>
| 28> #%pal
| 29> #nprocs 8
| 30> #end
| 31>
| 32> * xyz 0 1
| 33> C  -21.048   26.222   46.251
| 34> C  -20.361   27.558   45.944
| 35> C  -20.329   28.222   47.341
| 36> C  -20.110   27.022   48.296
| 37> O  -20.473   25.807   47.535
| 38> H  -20.833   25.428   45.533
| 39> H  -19.344   27.382   45.576
| 40> H  -20.898   28.157   45.201
| 41> H  -19.543   28.978   47.434
| 42> H  -21.289   28.710   47.548
| 43> H  -20.733   27.082   49.195
| 44> H  -19.064   26.913   48.597
| 45> C  -23.430   25.483   45.442
| 46> H  -24.364   25.996   45.183
| 47> H  -22.884   25.274   44.513
| 48> O  -22.586   26.394   46.375
| 49> C  -23.787   24.120   46.097
| 50> C  -24.698   24.309   47.315
| 51> C  -26.076   24.524   46.645
| 52> C  -26.012   23.599   45.404
| 53> O  -24.582   23.301   45.175
| 54> H  -22.867   23.569   46.301
| 55> O  -24.704   23.020   48.181
| 56> H  -24.399   25.150   47.951
| 57> H  -26.913   24.278   47.307
| 58> H  -26.188   25.572   46.342
| 59> H  -26.429   24.070   44.508
| 60> H  -26.518   22.644   45.569
| 61> H  -25.002   22.163   47.565
| 62> *
| 63>
| 64>                          ****END OF INPUT****
 Total Charge           Charge          ....    0
 Multiplicity           Mult            ....    1
 Number of Electrons    NEL             ....  102
FINAL SINGLE POINT ENERGY      -652.838241789663
FINAL SINGLE POINT ENERGY      -652.860587958102
FINAL SINGLE POINT ENERGY      -652.863849130631
FINAL SINGLE POINT ENERGY      -652.864451227958
FINAL SINGLE POINT ENERGY      -652.864541627892
FINAL SINGLE POINT ENERGY      -652.864553408979
FINAL SINGLE POINT ENERGY      -652.864555782963
                    ***********************HURRAY********************

CARTESIAN COORDINATES (ANGSTROEM)
---------------------------------
  C    -21.089508   26.137225   46.204957
  C    -20.424346   27.487648   45.942316
  C    -20.476072   28.147180   47.341359
  C    -20.274503   26.949023   48.294963
  O    -20.576519   25.737876   47.489601
  H    -20.842674   25.342998   45.494186
  H    -19.387009   27.327135   45.624906
  H    -20.944989   28.063119   45.173714
  H    -19.711699   28.918773   47.472867
  H    -21.459292   28.601704   47.495914
  H    -20.942436   26.968828   49.159505
  H    -19.240602   26.846679   48.637680
  C    -23.345659   25.492597   45.391803
  H    -24.227128   26.090852   45.143596
  H    -22.817673   25.262052   44.456922
  O    -22.530628   26.324307   46.266183
  C    -23.741192   24.184113   46.081995
  C    -24.620049   24.354019   47.329322
  C    -26.017824   24.577571   46.698447
  C    -25.989329   23.672018   45.441600
  O    -24.559810   23.377197   45.167479
  H    -22.845585   23.600014   46.316330
  O    -24.591087   23.156137   48.153455
  H    -24.289174   25.167228   47.973318
  H    -26.805972   24.301893   47.403611
  H    -26.152271   25.630847   46.429437
  H    -26.428347   24.150374   44.560544
  H    -26.489927   22.712008   45.602342
  H    -24.642696   22.365585   47.575648

 Multiplicity           Mult            ....    1
 Number of Electrons    NEL             ....  102
 Basis Dimension        Dim             ....  149

ORBITAL ENERGIES
----------------

  NO   OCC          E(Eh)            E(eV)
   0   2.0000     -19.145272      -520.9693
   1   2.0000     -19.143497      -520.9210
   2   2.0000     -19.139136      -520.8024
   3   2.0000     -19.131629      -520.5981
   4   2.0000     -10.280990      -279.7600
   5   2.0000     -10.233341      -278.4634
   6   2.0000     -10.232740      -278.4470
   7   2.0000     -10.230690      -278.3912
   8   2.0000     -10.229855      -278.3685
   9   2.0000     -10.223994      -278.2090
  10   2.0000     -10.185573      -277.1635
  11   2.0000     -10.185310      -277.1564
  12   2.0000     -10.185191      -277.1531
  13   2.0000      -1.053209       -28.6593
  14   2.0000      -1.033427       -28.1210
  15   2.0000      -1.001445       -27.2507
  16   2.0000      -0.996044       -27.1037
  17   2.0000      -0.787963       -21.4416
  18   2.0000      -0.776312       -21.1245
  19   2.0000      -0.764738       -20.8096
  20   2.0000      -0.730949       -19.8901
  21   2.0000      -0.674253       -18.3474
  22   2.0000      -0.601038       -16.3551
  23   2.0000      -0.600401       -16.3377
  24   2.0000      -0.596763       -16.2387
  25   2.0000      -0.577226       -15.7071
  26   2.0000      -0.519842       -14.1456
  27   2.0000      -0.519243       -14.1293
  28   2.0000      -0.493361       -13.4250
  29   2.0000      -0.488672       -13.2974
  30   2.0000      -0.466510       -12.6944
  31   2.0000      -0.458360       -12.4726
  32   2.0000      -0.450900       -12.2696
  33   2.0000      -0.437650       -11.9091
  34   2.0000      -0.424351       -11.5472
  35   2.0000      -0.412199       -11.2165
  36   2.0000      -0.398775       -10.8512
  37   2.0000      -0.389638       -10.6026
  38   2.0000      -0.373390       -10.1605
  39   2.0000      -0.365665        -9.9502
  40   2.0000      -0.357058        -9.7160
  41   2.0000      -0.354037        -9.6338
  42   2.0000      -0.351778        -9.5724
  43   2.0000      -0.331089        -9.0094
  44   2.0000      -0.318277        -8.6608
  45   2.0000      -0.311765        -8.4836
  46   2.0000      -0.300705        -8.1826
  47   2.0000      -0.276883        -7.5344
  48   2.0000      -0.263045        -7.1578
  49   2.0000      -0.254045        -6.9129
  50   2.0000      -0.237162        -6.4535
  51   0.0000       0.065404         1.7797
  52   0.0000       0.075511         2.0548
  53   0.0000       0.095870         2.6088
  54   0.0000       0.100791         2.7427
  55   0.0000       0.105735         2.8772

MULLIKEN ATOMIC CHARGES
-----------------------
   0 C :    0.282182
   1 C :   -0.251568
   2 C :   -0.301856
   3 C :   -0.001442
   4 O :   -0.502362
   5 H :    0.143218
   6 H :    0.143447
   7 H :    0.147180
   8 H :    0.141833
   9 H :    0.162868
  10 H :    0.153258
  11 H :    0.142006
  12 C :   -0.037940
  13 H :    0.148279
  14 H :    0.145720
  15 O :   -0.512758
  16 C :    0.057240
  17 C :    0.095341
  18 C :   -0.301233
  19 C :   -0.032341
  20 O :   -0.527047
  21 H :    0.169899
  22 O :   -0.602538
  23 H :    0.175830
  24 H :    0.162195
  25 H :    0.146115
  26 H :    0.144543
  27 H :    0.147827
  28 H :    0.362104
Sum of atomic charges:   -0.0000000

LOEWDIN ATOMIC CHARGES
----------------------
   0 C :    0.174002
   1 C :   -0.220378
   2 C :   -0.216837
   3 C :   -0.025977
   4 O :   -0.315513
   5 H :    0.099606
   6 H :    0.112785
   7 H :    0.118738
   8 H :    0.114131
   9 H :    0.119422
  10 H :    0.108676
  11 H :    0.102588
  12 C :   -0.041578
  13 H :    0.108806
  14 H :    0.103667
  15 O :   -0.332455
  16 C :    0.004576
  17 C :    0.039848
  18 C :   -0.242828
  19 C :   -0.038700
  20 O :   -0.333199
  21 H :    0.118629
  22 O :   -0.413820
  23 H :    0.127947
  24 H :    0.126755
  25 H :    0.113737
  26 H :    0.102981
  27 H :    0.103180
  28 H :    0.281212

  Mayer bond orders larger than 0.100000
B(  0-C ,  1-C ) :   0.9437 B(  0-C ,  4-O ) :   0.9316 B(  0-C ,  5-H ) :   0.9175
B(  0-C , 15-O ) :   0.8330 B(  1-C ,  2-C ) :   0.9567 B(  1-C ,  6-H ) :   0.9366
B(  1-C ,  7-H ) :   0.9385 B(  2-C ,  3-C ) :   0.9542 B(  2-C ,  8-H ) :   0.9451
B(  2-C ,  9-H ) :   0.9437 B(  3-C ,  4-O ) :   0.8360 B(  3-C , 10-H ) :   0.9346
B(  3-C , 11-H ) :   0.9399 B( 12-C , 13-H ) :   0.9386 B( 12-C , 14-H ) :   0.9202
B( 12-C , 15-O ) :   0.8497 B( 12-C , 16-C ) :   0.8782 B( 16-C , 17-C ) :   0.9142
B( 16-C , 20-O ) :   0.8376 B( 16-C , 21-H ) :   0.9244 B( 17-C , 18-C ) :   0.9112
B( 17-C , 22-O ) :   0.8915 B( 17-C , 23-H ) :   0.9237 B( 18-C , 19-C ) :   0.9423
B( 18-C , 24-H ) :   0.9378 B( 18-C , 25-H ) :   0.9346 B( 19-C , 20-O ) :   0.8417
B( 19-C , 26-H ) :   0.9360 B( 19-C , 27-H ) :   0.9377 B( 22-O , 28-H ) :   0.7963

FINAL SINGLE POINT ENERGY      -652.864555590481

DIPOLE MOMENT
-------------
                                X             Y             Z
Electronic contribution:     -0.11131      -4.76933       0.42034
Nuclear contribution   :      0.00680       5.73941      -1.13504
                        -----------------------------------------
Total Dipole Moment    :     -0.10451       0.97008      -0.71470
                        -----------------------------------------
Magnitude (a.u.)       :      1.20945
Magnitude (Debye)      :      3.07419

Rotational constants in cm-1:     0.058080     0.012811     0.011830
Rotational constants in MHz :  1741.189261   384.074360   354.640375

                             ****ORCA TERMINATED NORMALLY****
TOTAL RUN TIME: 0 days 1 hours 2 minutes 33 seconds 128 msec
