                         Program Version 4.2.0 -  RELEASE  -
|  1> # Test redundant internal optimization
|  2> #
|  3> ! RKS B3LYP  Opt TightSCF SmallPrint
|  4>
|  5> %basis
|  6>         Basis "6-31G"
|  7> end
|  8>
|  9> %geom
| 10> Constraints
| 11> { D 4  0  15  12  0.0   C } # D for Dihedral angle
| 12> { D 0  15  12  16  270.0   C } # D for Dihedral angle
| 13> { D 0  4  3  2   C } # D for Dihedral angle
| 14> { D 4  3  2  1   C } # D for Dihedral angle
| 15> { D 3  2  1  0   C } # D for Dihedral angle
| 16> { D 2  1  0  4   C } # D for Dihedral angle
| 17> { D 1  0  4  3   C } # D for Dihedral angle
| 18> { D 16  20  19  18   C } # D for Dihedral angle
| 19> { D 20  19  18  17   C } # D for Dihedral angle
| 20> { D 19  18  17  16   C } # D for Dihedral angle
| 21> { D 18  17  16  20   C } # D for Dihedral angle
| 22> { D 17  16  20  19   C } # D for Dihedral angle
| 23> { D 15  12  16  20   C } # D for Dihedral angle
| 24> end
| 25> end
| 26>
| 27>
| 28> #%pal
| 29> #nprocs 8
| 30> #end
| 31>
| 32> * xyz 0 1
| 33> C  -21.048   26.222   46.251
| 34> C  -20.361   27.558   45.944
| 35> C  -20.329   28.222   47.341
| 36> C  -20.110   27.022   48.296
| 37> O  -20.473   25.807   47.535
| 38> H  -20.833   25.428   45.533
| 39> H  -19.344   27.382   45.576
| 40> H  -20.898   28.157   45.201
| 41> H  -19.543   28.978   47.434
| 42> H  -21.289   28.710   47.548
| 43> H  -20.733   27.082   49.195
| 44> H  -19.064   26.913   48.597
| 45> C  -23.172   26.101   47.783
| 46> H  -22.423   26.348   48.546
| 47> H  -24.062   26.717   47.965
| 48> O  -22.586   26.394   46.375
| 49> C  -23.581   24.613   47.966
| 50> C  -22.361   23.688   47.897
| 51> C  -21.760   23.856   49.312
| 52> C  -23.012   24.024   50.209
| 53> O  -24.126   24.392   49.309
| 54> H  -24.374   24.370   47.255
| 55> O  -22.818   22.221   47.665
| 56> H  -21.659   23.959   47.101
| 57> H  -21.142   23.005   49.615
| 58> H  -21.133   24.755   49.350
| 59> H  -22.886   24.808   50.963
| 60> H  -23.295   23.095   50.709
| 61> H  -23.523   21.926   48.452
| 62> *
| 63>
| 64>                          ****END OF INPUT****
 Total Charge           Charge          ....    0
 Multiplicity           Mult            ....    1
 Number of Electrons    NEL             ....  102
FINAL SINGLE POINT ENERGY      -652.829466694671
FINAL SINGLE POINT ENERGY      -652.852744864668
FINAL SINGLE POINT ENERGY      -652.858825549558
FINAL SINGLE POINT ENERGY      -652.861305575386
FINAL SINGLE POINT ENERGY      -652.861640156023
FINAL SINGLE POINT ENERGY      -652.861697790739
FINAL SINGLE POINT ENERGY      -652.861701699706
                    ***********************HURRAY********************

CARTESIAN COORDINATES (ANGSTROEM)
---------------------------------
  C    -21.026495   26.268826   46.321001
  C    -20.468115   27.639582   45.932011
  C    -20.318024   28.323307   47.312652
  C    -19.914519   27.157293   48.241860
  O    -20.293776   25.910562   47.514535
  H    -20.827261   25.479361   45.592300
  H    -19.493676   27.508707   45.447597
  H    -21.137194   28.173950   45.254925
  H    -19.571394   29.123169   47.307947
  H    -21.275438   28.755369   47.620910
  H    -20.428122   27.172753   49.207400
  H    -18.835432   27.099483   48.409680
  C    -23.116405   26.058074   47.760451
  H    -22.498627   26.394949   48.600155
  H    -24.034363   26.648835   47.749584
  O    -22.469186   26.334601   46.484502
  C    -23.490271   24.579927   47.951162
  C    -22.359228   23.539679   47.971404
  C    -21.823035   23.686474   49.420204
  C    -23.101950   23.994205   50.237844
  O    -24.128622   24.444165   49.267567
  H    -24.237964   24.299701   47.202343
  O    -22.899433   22.210106   47.720786
  H    -21.590985   23.691210   47.218112
  H    -21.324711   22.768898   49.743677
  H    -21.103005   24.507786   49.455050
  H    -22.951333   24.779630   50.985713
  H    -23.503182   23.108750   50.741172
  H    -23.716254   22.093649   48.250455

 Multiplicity           Mult            ....    1
 Number of Electrons    NEL             ....  102
 Basis Dimension        Dim             ....  149

ORBITAL ENERGIES
----------------

  NO   OCC          E(Eh)            E(eV)
   0   2.0000     -19.160579      -521.3858
   1   2.0000     -19.141744      -520.8733
   2   2.0000     -19.140031      -520.8267
   3   2.0000     -19.128795      -520.5210
   4   2.0000     -10.285632      -279.8863
   5   2.0000     -10.240838      -278.6674
   6   2.0000     -10.229666      -278.3634
   7   2.0000     -10.228950      -278.3439
   8   2.0000     -10.226068      -278.2655
   9   2.0000     -10.225557      -278.2516
  10   2.0000     -10.196944      -277.4730
  11   2.0000     -10.190881      -277.3080
  12   2.0000     -10.176713      -276.9225
  13   2.0000      -1.061299       -28.8794
  14   2.0000      -1.030518       -28.0418
  15   2.0000      -0.999382       -27.1946
  16   2.0000      -0.996074       -27.1046
  17   2.0000      -0.797014       -21.6878
  18   2.0000      -0.771795       -21.0016
  19   2.0000      -0.765008       -20.8169
  20   2.0000      -0.736993       -20.0546
  21   2.0000      -0.674444       -18.3525
  22   2.0000      -0.610760       -16.6196
  23   2.0000      -0.598509       -16.2862
  24   2.0000      -0.594378       -16.1739
  25   2.0000      -0.572917       -15.5899
  26   2.0000      -0.525886       -14.3101
  27   2.0000      -0.511093       -13.9076
  28   2.0000      -0.508093       -13.8259
  29   2.0000      -0.482195       -13.1212
  30   2.0000      -0.474143       -12.9021
  31   2.0000      -0.457162       -12.4400
  32   2.0000      -0.453361       -12.3366
  33   2.0000      -0.431657       -11.7460
  34   2.0000      -0.421277       -11.4635
  35   2.0000      -0.412130       -11.2146
  36   2.0000      -0.408660       -11.1202
  37   2.0000      -0.385848       -10.4995
  38   2.0000      -0.379302       -10.3213
  39   2.0000      -0.367773       -10.0076
  40   2.0000      -0.359263        -9.7760
  41   2.0000      -0.356552        -9.7023
  42   2.0000      -0.354514        -9.6468
  43   2.0000      -0.336552        -9.1580
  44   2.0000      -0.322954        -8.7880
  45   2.0000      -0.312041        -8.4911
  46   2.0000      -0.299723        -8.1559
  47   2.0000      -0.273072        -7.4307
  48   2.0000      -0.269028        -7.3206
  49   2.0000      -0.258119        -7.0238
  50   2.0000      -0.234040        -6.3686
  51   0.0000       0.061627         1.6770
  52   0.0000       0.071420         1.9434
  53   0.0000       0.088797         2.4163
  54   0.0000       0.096222         2.6183
  55   0.0000       0.107931         2.9370

MULLIKEN ATOMIC CHARGES
-----------------------
   0 C :    0.303607
   1 C :   -0.257437
   2 C :   -0.307282
   3 C :   -0.021584
   4 O :   -0.519866
   5 H :    0.161257
   6 H :    0.146575
   7 H :    0.165141
   8 H :    0.150358
   9 H :    0.158376
  10 H :    0.144784
  11 H :    0.155549
  12 C :   -0.006538
  13 H :    0.129929
  14 H :    0.163933
  15 O :   -0.539730
  16 C :    0.050126
  17 C :    0.093978
  18 C :   -0.303989
  19 C :   -0.031728
  20 O :   -0.528555
  21 H :    0.161699
  22 O :   -0.606244
  23 H :    0.171944
  24 H :    0.154203
  25 H :    0.166719
  26 H :    0.140018
  27 H :    0.143392
  28 H :    0.361367
Sum of atomic charges:   -0.0000000

LOEWDIN ATOMIC CHARGES
----------------------
   0 C :    0.179806
   1 C :   -0.218606
   2 C :   -0.218725
   3 C :   -0.034275
   4 O :   -0.322644
   5 H :    0.104952
   6 H :    0.114809
   7 H :    0.128169
   8 H :    0.119026
   9 H :    0.116442
  10 H :    0.100657
  11 H :    0.109101
  12 C :   -0.035802
  13 H :    0.096152
  14 H :    0.120210
  15 O :   -0.339988
  16 C :    0.006963
  17 C :    0.040113
  18 C :   -0.243048
  19 C :   -0.039989
  20 O :   -0.333383
  21 H :    0.115009
  22 O :   -0.417973
  23 H :    0.125192
  24 H :    0.123129
  25 H :    0.123467
  26 H :    0.100228
  27 H :    0.100624
  28 H :    0.280384

  Mayer bond orders larger than 0.100000
B(  0-C ,  1-C ) :   0.9324 B(  0-C ,  4-O ) :   0.8909 B(  0-C ,  5-H ) :   0.9261
B(  0-C , 15-O ) :   0.8469 B(  1-C ,  2-C ) :   0.9522 B(  1-C ,  6-H ) :   0.9350
B(  1-C ,  7-H ) :   0.9357 B(  2-C ,  3-C ) :   0.9543 B(  2-C ,  8-H ) :   0.9442
B(  2-C ,  9-H ) :   0.9449 B(  3-C ,  4-O ) :   0.8232 B(  3-C , 10-H ) :   0.9297
B(  3-C , 11-H ) :   0.9393 B( 12-C , 13-H ) :   0.9212 B( 12-C , 14-H ) :   0.9342
B( 12-C , 15-O ) :   0.8368 B( 12-C , 16-C ) :   0.8815 B( 16-C , 17-C ) :   0.9165
B( 16-C , 20-O ) :   0.8331 B( 16-C , 21-H ) :   0.9264 B( 17-C , 18-C ) :   0.9153
B( 17-C , 22-O ) :   0.8812 B( 17-C , 23-H ) :   0.9238 B( 18-C , 19-C ) :   0.9412
B( 18-C , 24-H ) :   0.9396 B( 18-C , 25-H ) :   0.9223 B( 19-C , 20-O ) :   0.8417
B( 19-C , 26-H ) :   0.9366 B( 19-C , 27-H ) :   0.9382 B( 22-O , 28-H ) :   0.7965

FINAL SINGLE POINT ENERGY      -652.861702359275

DIPOLE MOMENT
-------------
                                X             Y             Z
Electronic contribution:     -3.78262      -4.13602      -2.20614
Nuclear contribution   :      4.66837       5.33767       2.77574
                        -----------------------------------------
Total Dipole Moment    :      0.88575       1.20165       0.56960
                        -----------------------------------------
Magnitude (a.u.)       :      1.59780
Magnitude (Debye)      :      4.06128

Rotational constants in cm-1:     0.050707     0.015843     0.015458
Rotational constants in MHz :  1520.168071   474.975023   463.432320

                             ****ORCA TERMINATED NORMALLY****
TOTAL RUN TIME: 0 days 0 hours 34 minutes 44 seconds 781 msec
