                         Program Version 4.2.0 -  RELEASE  -
|  1> # Test redundant internal optimization
|  2> #
|  3> ! RKS B3LYP  Opt TightSCF SmallPrint
|  4>
|  5> %basis
|  6>         Basis "6-31G"
|  7> end
|  8>
|  9> %geom
| 10> Constraints
| 11> { D 4  0  15  12  105.0   C } # D for Dihedral angle
| 12> { D 0  15  12  16  165.0   C } # D for Dihedral angle
| 13> { D 0  4  3  2   C } # D for Dihedral angle
| 14> { D 4  3  2  1   C } # D for Dihedral angle
| 15> { D 3  2  1  0   C } # D for Dihedral angle
| 16> { D 2  1  0  4   C } # D for Dihedral angle
| 17> { D 1  0  4  3   C } # D for Dihedral angle
| 18> { D 16  20  19  18   C } # D for Dihedral angle
| 19> { D 20  19  18  17   C } # D for Dihedral angle
| 20> { D 19  18  17  16   C } # D for Dihedral angle
| 21> { D 18  17  16  20   C } # D for Dihedral angle
| 22> { D 17  16  20  19   C } # D for Dihedral angle
| 23> { D 15  12  16  20   C } # D for Dihedral angle
| 24> end
| 25> end
| 26>
| 27>
| 28> #%pal
| 29> #nprocs 8
| 30> #end
| 31>
| 32> * xyz 0 1
| 33> C  -21.048   26.222   46.251
| 34> C  -20.361   27.558   45.944
| 35> C  -20.329   28.222   47.341
| 36> C  -20.110   27.022   48.296
| 37> O  -20.473   25.807   47.535
| 38> H  -20.833   25.428   45.533
| 39> H  -19.344   27.382   45.576
| 40> H  -20.898   28.157   45.201
| 41> H  -19.543   28.978   47.434
| 42> H  -21.289   28.710   47.548
| 43> H  -20.733   27.082   49.195
| 44> H  -19.064   26.913   48.597
| 45> C  -23.085   27.864   46.420
| 46> H  -22.860   28.293   47.405
| 47> H  -22.573   28.467   45.659
| 48> O  -22.586   26.394   46.375
| 49> C  -24.613   27.988   46.171
| 50> C  -25.050   29.456   46.108
| 51> C  -24.628   29.847   44.671
| 52> C  -24.881   28.548   43.865
| 53> O  -24.963   27.450   44.852
| 54> H  -25.146   27.390   46.913
| 55> O  -26.590   29.562   46.275
| 56> H  -24.576   30.079   46.874
| 57> H  -25.194   30.698   44.279
| 58> H  -23.565   30.114   44.650
| 59> H  -24.075   28.332   43.155
| 60> H  -25.832   28.570   43.326
| 61> H  -27.086   28.945   45.517
| 62> *
| 63>
| 64>                          ****END OF INPUT****
 Total Charge           Charge          ....    0
 Multiplicity           Mult            ....    1
 Number of Electrons    NEL             ....  102
FINAL SINGLE POINT ENERGY      -652.812873259300
FINAL SINGLE POINT ENERGY      -652.838329919192
FINAL SINGLE POINT ENERGY      -652.849654041933
FINAL SINGLE POINT ENERGY      -652.851834289658
FINAL SINGLE POINT ENERGY      -652.852211292793
FINAL SINGLE POINT ENERGY      -652.852254136769
FINAL SINGLE POINT ENERGY      -652.852258549293
                    ***********************HURRAY********************

CARTESIAN COORDINATES (ANGSTROEM)
---------------------------------
  C    -21.206829   26.366217   46.340529
  C    -20.197510   27.467127   45.992770
  C    -19.964138   28.141250   47.374011
  C    -20.054181   26.942684   48.351747
  O    -20.740627   25.859117   47.611665
  H    -21.179498   25.510227   45.665228
  H    -19.278708   26.986256   45.641575
  H    -20.534810   28.158456   45.216214
  H    -18.994699   28.645856   47.430652
  H    -20.737809   28.886347   47.583484
  H    -20.620932   27.171190   49.259285
  H    -19.068602   26.561305   48.634101
  C    -23.087749   28.079803   46.426592
  H    -22.976736   28.505854   47.435189
  H    -22.543111   28.718146   45.718513
  O    -22.609210   26.715951   46.376452
  C    -24.573719   28.037278   46.073057
  C    -25.251261   29.414490   46.037190
  C    -24.884097   29.909697   44.612870
  C    -24.906718   28.607230   43.774969
  O    -24.813753   27.484669   44.738488
  H    -25.073690   27.363801   46.775333
  O    -26.688894   29.288156   46.207142
  H    -24.926216   30.093376   46.827532
  H    -25.605358   30.654674   44.267355
  H    -23.889057   30.369167   44.613745
  H    -24.072985   28.542073   43.068371
  H    -25.842130   28.481211   43.220826
  H    -27.004974   28.516389   45.691116

 Multiplicity           Mult            ....    1
 Number of Electrons    NEL             ....  102
 Basis Dimension        Dim             ....  149

ORBITAL ENERGIES
----------------

  NO   OCC          E(Eh)            E(eV)
   0   2.0000     -19.141927      -520.8783
   1   2.0000     -19.140205      -520.8315
   2   2.0000     -19.140122      -520.8292
   3   2.0000     -19.137258      -520.7513
   4   2.0000     -10.278186      -279.6837
   5   2.0000     -10.245585      -278.7965
   6   2.0000     -10.237616      -278.5797
   7   2.0000     -10.235185      -278.5136
   8   2.0000     -10.232096      -278.4295
   9   2.0000     -10.227922      -278.3159
  10   2.0000     -10.195989      -277.4470
  11   2.0000     -10.195831      -277.4427
  12   2.0000     -10.192781      -277.3597
  13   2.0000      -1.050724       -28.5917
  14   2.0000      -1.037360       -28.2280
  15   2.0000      -1.007993       -27.4289
  16   2.0000      -0.993791       -27.0424
  17   2.0000      -0.791615       -21.5409
  18   2.0000      -0.787882       -21.4393
  19   2.0000      -0.772599       -21.0235
  20   2.0000      -0.733873       -19.9697
  21   2.0000      -0.681576       -18.5466
  22   2.0000      -0.608184       -16.5495
  23   2.0000      -0.605124       -16.4663
  24   2.0000      -0.598904       -16.2970
  25   2.0000      -0.578293       -15.7362
  26   2.0000      -0.528026       -14.3683
  27   2.0000      -0.509666       -13.8687
  28   2.0000      -0.501804       -13.6548
  29   2.0000      -0.492675       -13.4064
  30   2.0000      -0.482796       -13.1376
  31   2.0000      -0.462534       -12.5862
  32   2.0000      -0.452478       -12.3126
  33   2.0000      -0.439650       -11.9635
  34   2.0000      -0.431010       -11.7284
  35   2.0000      -0.413185       -11.2433
  36   2.0000      -0.407181       -11.0800
  37   2.0000      -0.395769       -10.7694
  38   2.0000      -0.385198       -10.4818
  39   2.0000      -0.374546       -10.1919
  40   2.0000      -0.366029        -9.9602
  41   2.0000      -0.360369        -9.8061
  42   2.0000      -0.353546        -9.6205
  43   2.0000      -0.332389        -9.0448
  44   2.0000      -0.314717        -8.5639
  45   2.0000      -0.308431        -8.3928
  46   2.0000      -0.294042        -8.0013
  47   2.0000      -0.273036        -7.4297
  48   2.0000      -0.266485        -7.2514
  49   2.0000      -0.252240        -6.8638
  50   2.0000      -0.244347        -6.6490
  51   0.0000       0.058725         1.5980
  52   0.0000       0.074037         2.0146
  53   0.0000       0.079795         2.1713
  54   0.0000       0.095603         2.6015
  55   0.0000       0.102139         2.7793

MULLIKEN ATOMIC CHARGES
-----------------------
   0 C :    0.311841
   1 C :   -0.298947
   2 C :   -0.309370
   3 C :   -0.005492
   4 O :   -0.495580
   5 H :    0.167861
   6 H :    0.158901
   7 H :    0.145949
   8 H :    0.145831
   9 H :    0.144085
  10 H :    0.146222
  11 H :    0.145712
  12 C :    0.006189
  13 H :    0.129128
  14 H :    0.122709
  15 O :   -0.513754
  16 C :    0.065124
  17 C :    0.076368
  18 C :   -0.301043
  19 C :   -0.026678
  20 O :   -0.507356
  21 H :    0.177744
  22 O :   -0.601366
  23 H :    0.150339
  24 H :    0.166005
  25 H :    0.139580
  26 H :    0.145780
  27 H :    0.147022
  28 H :    0.367199
Sum of atomic charges:   -0.0000000

LOEWDIN ATOMIC CHARGES
----------------------
   0 C :    0.178644
   1 C :   -0.231443
   2 C :   -0.222331
   3 C :   -0.031602
   4 O :   -0.316957
   5 H :    0.113082
   6 H :    0.124219
   7 H :    0.114660
   8 H :    0.116170
   9 H :    0.107118
  10 H :    0.104026
  11 H :    0.104016
  12 C :   -0.039568
  13 H :    0.093386
  14 H :    0.089768
  15 O :   -0.312066
  16 C :    0.017829
  17 C :    0.035095
  18 C :   -0.243289
  19 C :   -0.038380
  20 O :   -0.317596
  21 H :    0.124823
  22 O :   -0.413345
  23 H :    0.114256
  24 H :    0.127745
  25 H :    0.110143
  26 H :    0.103627
  27 H :    0.103186
  28 H :    0.284785

  Mayer bond orders larger than 0.100000
B(  0-C ,  1-C ) :   0.9294 B(  0-C ,  4-O ) :   0.9061 B(  0-C ,  5-H ) :   0.9328
B(  0-C , 15-O ) :   0.8880 B(  1-C ,  2-C ) :   0.9500 B(  1-C ,  6-H ) :   0.9345
B(  1-C ,  7-H ) :   0.9308 B(  2-C ,  3-C ) :   0.9486 B(  2-C ,  8-H ) :   0.9457
B(  2-C ,  9-H ) :   0.9418 B(  3-C ,  4-O ) :   0.8507 B(  3-C , 10-H ) :   0.9342
B(  3-C , 11-H ) :   0.9389 B( 12-C , 13-H ) :   0.9048 B( 12-C , 14-H ) :   0.9080
B( 12-C , 15-O ) :   0.8508 B( 12-C , 16-C ) :   0.8952 B( 16-C , 17-C ) :   0.8997
B( 16-C , 20-O ) :   0.8686 B( 16-C , 21-H ) :   0.9210 B( 17-C , 18-C ) :   0.9103
B( 17-C , 22-O ) :   0.8963 B( 17-C , 23-H ) :   0.9325 B( 18-C , 19-C ) :   0.9401
B( 18-C , 24-H ) :   0.9370 B( 18-C , 25-H ) :   0.9342 B( 19-C , 20-O ) :   0.8528
B( 19-C , 26-H ) :   0.9345 B( 19-C , 27-H ) :   0.9377 B( 22-O , 28-H ) :   0.7925

FINAL SINGLE POINT ENERGY      -652.852247590329

DIPOLE MOMENT
-------------
                                X             Y             Z
Electronic contribution:     -4.60789      -5.38454       0.69590
Nuclear contribution   :      5.69341       6.85752      -1.22921
                        -----------------------------------------
Total Dipole Moment    :      1.08552       1.47297      -0.53331
                        -----------------------------------------
Magnitude (a.u.)       :      1.90589
Magnitude (Debye)      :      4.84440

Rotational constants in cm-1:     0.060003     0.012004     0.011834
Rotational constants in MHz :  1798.833358   359.869263   354.759881

                             ****ORCA TERMINATED NORMALLY****
TOTAL RUN TIME: 0 days 2 hours 4 minutes 15 seconds 787 msec
