                         Program Version 4.2.0 -  RELEASE  -
|  1> # Test redundant internal optimization
|  2> #
|  3> ! RKS B3LYP  Opt TightSCF SmallPrint
|  4>
|  5> %basis
|  6>         Basis "6-31G"
|  7> end
|  8>
|  9> %geom
| 10> Constraints
| 11> { D 4  0  15  12  240.0   C } # D for Dihedral angle
| 12> { D 0  15  12  16  0.0   C } # D for Dihedral angle
| 13> { D 0  4  3  2   C } # D for Dihedral angle
| 14> { D 4  3  2  1   C } # D for Dihedral angle
| 15> { D 3  2  1  0   C } # D for Dihedral angle
| 16> { D 2  1  0  4   C } # D for Dihedral angle
| 17> { D 1  0  4  3   C } # D for Dihedral angle
| 18> { D 16  20  19  18   C } # D for Dihedral angle
| 19> { D 20  19  18  17   C } # D for Dihedral angle
| 20> { D 19  18  17  16   C } # D for Dihedral angle
| 21> { D 18  17  16  20   C } # D for Dihedral angle
| 22> { D 17  16  20  19   C } # D for Dihedral angle
| 23> { D 15  12  16  20   C } # D for Dihedral angle
| 24> end
| 25> end
| 26>
| 27>
| 28> #%pal
| 29> #nprocs 8
| 30> #end
| 31>
| 32> * xyz 0 1
| 33> C  -21.048   26.222   46.251
| 34> C  -20.361   27.558   45.944
| 35> C  -20.329   28.222   47.341
| 36> C  -20.110   27.022   48.296
| 37> O  -20.473   25.807   47.535
| 38> H  -20.833   25.428   45.533
| 39> H  -19.344   27.382   45.576
| 40> H  -20.898   28.157   45.201
| 41> H  -19.543   28.978   47.434
| 42> H  -21.289   28.710   47.548
| 43> H  -20.733   27.082   49.195
| 44> H  -19.064   26.913   48.597
| 45> C  -23.430   25.483   45.442
| 46> H  -24.087   24.850   46.052
| 47> H  -24.058   26.090   44.778
| 48> O  -22.586   26.394   46.375
| 49> C  -22.553   24.560   44.551
| 50> C  -23.411   23.761   43.564
| 51> C  -23.691   24.815   42.466
| 52> C  -22.379   25.637   42.427
| 53> O  -21.671   25.361   43.695
| 54> H  -21.912   23.949   45.190
| 55> H  -22.836   22.922   43.157
| 56> O  -24.711   23.198   44.203
| 57> H  -23.931   24.365   41.497
| 58> H  -24.536   25.449   42.759
| 59> H  -22.562   26.715   42.345
| 60> H  -21.716   25.328   41.613
| 61> H  -25.305   24.020   44.616
| 62> *
| 63>
| 64>                          ****END OF INPUT****
 Total Charge           Charge          ....    0
 Multiplicity           Mult            ....    1
 Number of Electrons    NEL             ....  102
FINAL SINGLE POINT ENERGY      -652.821145448616
FINAL SINGLE POINT ENERGY      -652.844313960167
FINAL SINGLE POINT ENERGY      -652.850955865893
FINAL SINGLE POINT ENERGY      -652.852974550331
FINAL SINGLE POINT ENERGY      -652.853247097879
FINAL SINGLE POINT ENERGY      -652.853318919260
FINAL SINGLE POINT ENERGY      -652.853325952218
FINAL SINGLE POINT ENERGY      -652.853328559484
                    ***********************HURRAY********************

CARTESIAN COORDINATES (ANGSTROEM)
---------------------------------
  C    -20.863483   26.224290   46.231923
  C    -20.297864   27.629897   46.026374
  C    -20.447561   28.244953   47.439315
  C    -20.183604   27.038135   48.368113
  O    -20.361490   25.830896   47.527039
  H    -20.528337   25.485823   45.509361
  H    -19.241457   27.558164   45.741144
  H    -20.836932   28.178374   45.251695
  H    -19.751355   29.069753   47.618556
  H    -21.468612   28.614973   47.571086
  H    -20.878042   26.986519   49.211127
  H    -19.156316   27.010846   48.745285
  C    -23.195192   25.525224   45.443186
  H    -23.846816   24.951972   46.114977
  H    -23.816680   26.240215   44.886756
  O    -22.313048   26.323491   46.280697
  C    -22.540113   24.542796   44.474201
  C    -23.553000   23.788209   43.592850
  C    -23.820339   24.821797   42.453913
  C    -22.441404   25.497654   42.279697
  O    -21.661941   25.206488   43.511823
  H    -21.909975   23.842966   45.030705
  H    -23.076210   22.893646   43.187756
  O    -24.732710   23.295279   44.266708
  H    -24.176564   24.342241   41.538762
  H    -24.582947   25.540530   42.779635
  H    -22.509131   26.582282   42.151942
  H    -21.877801   25.077507   41.442020
  H    -25.331076   24.033081   44.504355

 Multiplicity           Mult            ....    1
 Number of Electrons    NEL             ....  102
 Basis Dimension        Dim             ....  149

ORBITAL ENERGIES
----------------

  NO   OCC          E(Eh)            E(eV)
   0   2.0000     -19.155467      -521.2467
   1   2.0000     -19.149865      -521.0943
   2   2.0000     -19.130393      -520.5645
   3   2.0000     -19.125483      -520.4309
   4   2.0000     -10.264506      -279.3114
   5   2.0000     -10.252910      -278.9959
   6   2.0000     -10.239626      -278.6344
   7   2.0000     -10.239371      -278.6274
   8   2.0000     -10.232264      -278.4341
   9   2.0000     -10.213538      -277.9245
  10   2.0000     -10.202093      -277.6131
  11   2.0000     -10.174215      -276.8545
  12   2.0000     -10.171558      -276.7822
  13   2.0000      -1.044587       -28.4247
  14   2.0000      -1.035900       -28.1883
  15   2.0000      -1.024006       -27.8646
  16   2.0000      -0.981044       -26.6956
  17   2.0000      -0.790492       -21.5104
  18   2.0000      -0.777111       -21.1463
  19   2.0000      -0.766733       -20.8639
  20   2.0000      -0.727837       -19.8054
  21   2.0000      -0.680428       -18.5154
  22   2.0000      -0.619745       -16.8641
  23   2.0000      -0.603488       -16.4217
  24   2.0000      -0.586229       -15.9521
  25   2.0000      -0.559470       -15.2240
  26   2.0000      -0.538607       -14.6563
  27   2.0000      -0.513075       -13.9615
  28   2.0000      -0.494111       -13.4454
  29   2.0000      -0.475800       -12.9472
  30   2.0000      -0.472516       -12.8578
  31   2.0000      -0.454095       -12.3565
  32   2.0000      -0.438488       -11.9319
  33   2.0000      -0.435974       -11.8634
  34   2.0000      -0.432887       -11.7795
  35   2.0000      -0.422623       -11.5002
  36   2.0000      -0.407345       -11.0844
  37   2.0000      -0.392575       -10.6825
  38   2.0000      -0.387155       -10.5350
  39   2.0000      -0.366622        -9.9763
  40   2.0000      -0.357048        -9.7158
  41   2.0000      -0.345077        -9.3900
  42   2.0000      -0.339851        -9.2478
  43   2.0000      -0.335482        -9.1289
  44   2.0000      -0.324955        -8.8425
  45   2.0000      -0.305009        -8.2997
  46   2.0000      -0.297861        -8.1052
  47   2.0000      -0.278840        -7.5876
  48   2.0000      -0.256945        -6.9918
  49   2.0000      -0.248017        -6.7489
  50   2.0000      -0.232984        -6.3398
  51   0.0000       0.046118         1.2549
  52   0.0000       0.071585         1.9479
  53   0.0000       0.085145         2.3169
  54   0.0000       0.095270         2.5924
  55   0.0000       0.102472         2.7884

MULLIKEN ATOMIC CHARGES
-----------------------
   0 C :    0.274091
   1 C :   -0.244019
   2 C :   -0.298991
   3 C :    0.001129
   4 O :   -0.506918
   5 H :    0.179780
   6 H :    0.139397
   7 H :    0.143204
   8 H :    0.134434
   9 H :    0.158413
  10 H :    0.145992
  11 H :    0.136131
  12 C :    0.033365
  13 H :    0.143513
  14 H :    0.122474
  15 O :   -0.542546
  16 C :    0.039790
  17 C :    0.087583
  18 C :   -0.322964
  19 C :   -0.010063
  20 O :   -0.525003
  21 H :    0.174181
  22 H :    0.170836
  23 O :   -0.594881
  24 H :    0.159648
  25 H :    0.138641
  26 H :    0.149574
  27 H :    0.154052
  28 H :    0.359155
Sum of atomic charges:   -0.0000000

LOEWDIN ATOMIC CHARGES
----------------------
   0 C :    0.174772
   1 C :   -0.216283
   2 C :   -0.217902
   3 C :   -0.027161
   4 O :   -0.321171
   5 H :    0.115145
   6 H :    0.110884
   7 H :    0.117127
   8 H :    0.110285
   9 H :    0.117255
  10 H :    0.104498
  11 H :    0.099128
  12 C :   -0.038897
  13 H :    0.107221
  14 H :    0.092539
  15 O :   -0.334614
  16 C :    0.001144
  17 C :    0.040321
  18 C :   -0.240815
  19 C :   -0.028842
  20 O :   -0.328797
  21 H :    0.120449
  22 H :    0.121138
  23 O :   -0.402303
  24 H :    0.124165
  25 H :    0.106507
  26 H :    0.105567
  27 H :    0.108515
  28 H :    0.280126

  Mayer bond orders larger than 0.100000
B(  0-C ,  1-C ) :   0.9434 B(  0-C ,  4-O ) :   0.9134 B(  0-C ,  5-H ) :   0.8999
B(  0-C , 15-O ) :   0.8321 B(  1-C ,  2-C ) :   0.9564 B(  1-C ,  6-H ) :   0.9390
B(  1-C ,  7-H ) :   0.9406 B(  2-C ,  3-C ) :   0.9543 B(  2-C ,  8-H ) :   0.9462
B(  2-C ,  9-H ) :   0.9443 B(  3-C ,  4-O ) :   0.8434 B(  3-C , 10-H ) :   0.9354
B(  3-C , 11-H ) :   0.9403 B( 12-C , 13-H ) :   0.9080 B( 12-C , 14-H ) :   0.9263
B( 12-C , 15-O ) :   0.8570 B( 12-C , 16-C ) :   0.9053 B( 16-C , 17-C ) :   0.8723
B( 16-C , 20-O ) :   0.8350 B( 16-C , 21-H ) :   0.9228 B( 17-C , 18-C ) :   0.9213
B( 17-C , 22-H ) :   0.9329 B( 17-C , 23-O ) :   0.9078 B( 18-C , 19-C ) :   0.9399
B( 18-C , 24-H ) :   0.9419 B( 18-C , 25-H ) :   0.9396 B( 19-C , 20-O ) :   0.8371
B( 19-C , 26-H ) :   0.9319 B( 19-C , 27-H ) :   0.9380 B( 23-O , 28-H ) :   0.7958

FINAL SINGLE POINT ENERGY      -652.853328803282

DIPOLE MOMENT
-------------
                                X             Y             Z
Electronic contribution:     -0.43286      -4.42902       1.08749
Nuclear contribution   :     -0.12586       5.24517      -2.16584
                        -----------------------------------------
Total Dipole Moment    :     -0.55872       0.81615      -1.07835
                        -----------------------------------------
Magnitude (a.u.)       :      1.46325
Magnitude (Debye)      :      3.71930

Rotational constants in cm-1:     0.060055     0.013117     0.011899
Rotational constants in MHz :  1800.416615   393.224539   356.726871

                             ****ORCA TERMINATED NORMALLY****
TOTAL RUN TIME: 0 days 0 hours 26 minutes 23 seconds 731 msec
