                         Program Version 4.2.0 -  RELEASE  -
|  1> # Test redundant internal optimization
|  2> #
|  3> ! RKS B3LYP  Opt TightSCF SmallPrint
|  4>
|  5> %basis
|  6>         Basis "6-31G"
|  7> end
|  8>
|  9> %geom
| 10> Constraints
| 11> { D 4  0  15  12  195.0   C } # D for Dihedral angle
| 12> { D 0  15  12  16  120.0   C } # D for Dihedral angle
| 13> { D 0  4  3  2   C } # D for Dihedral angle
| 14> { D 4  3  2  1   C } # D for Dihedral angle
| 15> { D 3  2  1  0   C } # D for Dihedral angle
| 16> { D 2  1  0  4   C } # D for Dihedral angle
| 17> { D 1  0  4  3   C } # D for Dihedral angle
| 18> { D 16  20  19  18   C } # D for Dihedral angle
| 19> { D 20  19  18  17   C } # D for Dihedral angle
| 20> { D 19  18  17  16   C } # D for Dihedral angle
| 21> { D 18  17  16  20   C } # D for Dihedral angle
| 22> { D 17  16  20  19   C } # D for Dihedral angle
| 23> { D 15  12  16  20   C } # D for Dihedral angle
| 24> end
| 25> end
| 26>
| 27>
| 28> #%pal
| 29> #nprocs 8
| 30> #end
| 31>
| 32> * xyz 0 1
| 33> C  -21.048   26.222   46.251
| 34> C  -20.361   27.558   45.944
| 35> C  -20.329   28.222   47.341
| 36> C  -20.110   27.022   48.296
| 37> O  -20.473   25.807   47.535
| 38> H  -20.833   25.428   45.533
| 39> H  -19.344   27.382   45.576
| 40> H  -20.898   28.157   45.201
| 41> H  -19.543   28.978   47.434
| 42> H  -21.289   28.710   47.548
| 43> H  -20.733   27.082   49.195
| 44> H  -19.064   26.913   48.597
| 45> C  -23.353   26.472   45.026
| 46> H  -23.872   27.437   44.960
| 47> H  -22.654   26.400   44.183
| 48> O  -22.586   26.394   46.375
| 49> C  -24.405   25.340   44.867
| 50> C  -25.058   25.378   43.481
| 51> C  -23.975   24.706   42.605
| 52> C  -23.372   23.637   43.549
| 53> O  -23.756   24.026   44.923
| 54> H  -25.109   25.385   45.701
| 55> O  -26.363   24.535   43.484
| 56> H  -25.304   26.393   43.150
| 57> H  -24.382   24.270   41.686
| 58> H  -23.214   25.441   42.317
| 59> H  -22.279   23.587   43.483
| 60> H  -23.784   22.640   43.369
| 61> H  -26.141   23.514   43.812
| 62> *
| 63>
| 64>                          ****END OF INPUT****
 Total Charge           Charge          ....    0
 Multiplicity           Mult            ....    1
 Number of Electrons    NEL             ....  102
FINAL SINGLE POINT ENERGY      -652.830195961985
FINAL SINGLE POINT ENERGY      -652.853266672326
FINAL SINGLE POINT ENERGY      -652.856976833952
FINAL SINGLE POINT ENERGY      -652.857673156874
FINAL SINGLE POINT ENERGY      -652.857767988560
FINAL SINGLE POINT ENERGY      -652.857777007376
                    ***********************HURRAY********************

CARTESIAN COORDINATES (ANGSTROEM)
---------------------------------
  C    -21.062114   26.235217   46.149979
  C    -20.359780   27.575628   45.946377
  C    -20.432446   28.195673   47.363220
  C    -20.283814   26.965860   48.282619
  O    -20.594277   25.788840   47.428077
  H    -20.824597   25.455256   45.420465
  H    -19.318760   27.398594   45.649925
  H    -20.833400   28.198949   45.182064
  H    -19.653493   28.944373   47.534954
  H    -21.408097   28.668968   47.508609
  H    -20.974700   26.972539   49.128933
  H    -19.261797   26.826056   48.647019
  C    -23.215613   26.516675   44.972240
  H    -23.738609   27.482210   44.953975
  H    -22.510879   26.496388   44.127399
  O    -22.507703   26.398482   46.234109
  C    -24.227270   25.378512   44.854384
  C    -25.025496   25.354749   43.542703
  C    -24.036314   24.642054   42.584837
  C    -23.331724   23.615883   43.506081
  O    -23.570213   24.067797   44.899405
  H    -24.890368   25.414570   45.723499
  O    -26.259399   24.602607   43.698774
  H    -25.331837   26.341120   43.190881
  H    -24.572269   24.175258   41.754836
  H    -23.322650   25.362692   42.168563
  H    -22.253338   23.556367   43.328902
  H    -23.754167   22.610681   43.415859
  H    -26.076874   23.794003   44.223312

 Multiplicity           Mult            ....    1
 Number of Electrons    NEL             ....  102
 Basis Dimension        Dim             ....  149

ORBITAL ENERGIES
----------------

  NO   OCC          E(Eh)            E(eV)
   0   2.0000     -19.142920      -520.9053
   1   2.0000     -19.139564      -520.8140
   2   2.0000     -19.137231      -520.7505
   3   2.0000     -19.136592      -520.7331
   4   2.0000     -10.276690      -279.6430
   5   2.0000     -10.244737      -278.7735
   6   2.0000     -10.236008      -278.5359
   7   2.0000     -10.233177      -278.4589
   8   2.0000     -10.232187      -278.4320
   9   2.0000     -10.222314      -278.1633
  10   2.0000     -10.192440      -277.3504
  11   2.0000     -10.186041      -277.1763
  12   2.0000     -10.185179      -277.1528
  13   2.0000      -1.051328       -28.6081
  14   2.0000      -1.036817       -28.2132
  15   2.0000      -1.007499       -27.4154
  16   2.0000      -0.991065       -26.9683
  17   2.0000      -0.787721       -21.4350
  18   2.0000      -0.783429       -21.3182
  19   2.0000      -0.768589       -20.9144
  20   2.0000      -0.730246       -19.8710
  21   2.0000      -0.677018       -18.4226
  22   2.0000      -0.605776       -16.4840
  23   2.0000      -0.600692       -16.3457
  24   2.0000      -0.592035       -16.1101
  25   2.0000      -0.582339       -15.8462
  26   2.0000      -0.527626       -14.3574
  27   2.0000      -0.507765       -13.8170
  28   2.0000      -0.498476       -13.5642
  29   2.0000      -0.489362       -13.3162
  30   2.0000      -0.476733       -12.9726
  31   2.0000      -0.459305       -12.4983
  32   2.0000      -0.451252       -12.2792
  33   2.0000      -0.447842       -12.1864
  34   2.0000      -0.421848       -11.4791
  35   2.0000      -0.412234       -11.2175
  36   2.0000      -0.397057       -10.8045
  37   2.0000      -0.395981       -10.7752
  38   2.0000      -0.375020       -10.2048
  39   2.0000      -0.371668       -10.1136
  40   2.0000      -0.365915        -9.9570
  41   2.0000      -0.355406        -9.6711
  42   2.0000      -0.350908        -9.5487
  43   2.0000      -0.334045        -9.0898
  44   2.0000      -0.310842        -8.4584
  45   2.0000      -0.307794        -8.3755
  46   2.0000      -0.302660        -8.2358
  47   2.0000      -0.272738        -7.4216
  48   2.0000      -0.262481        -7.1425
  49   2.0000      -0.253051        -6.8859
  50   2.0000      -0.237980        -6.4758
  51   0.0000       0.059162         1.6099
  52   0.0000       0.082637         2.2487
  53   0.0000       0.084522         2.3000
  54   0.0000       0.099992         2.7209
  55   0.0000       0.106050         2.8858

MULLIKEN ATOMIC CHARGES
-----------------------
   0 C :    0.300805
   1 C :   -0.270871
   2 C :   -0.298589
   3 C :   -0.000811
   4 O :   -0.499301
   5 H :    0.145382
   6 H :    0.143607
   7 H :    0.139342
   8 H :    0.141113
   9 H :    0.159441
  10 H :    0.155676
  11 H :    0.140525
  12 C :   -0.019833
  13 H :    0.138890
  14 H :    0.119813
  15 O :   -0.499692
  16 C :    0.077965
  17 C :    0.074893
  18 C :   -0.292513
  19 C :   -0.032790
  20 O :   -0.509317
  21 H :    0.174474
  22 O :   -0.600474
  23 H :    0.149183
  24 H :    0.163432
  25 H :    0.138336
  26 H :    0.145546
  27 H :    0.148955
  28 H :    0.366812
Sum of atomic charges:   -0.0000000

LOEWDIN ATOMIC CHARGES
----------------------
   0 C :    0.182580
   1 C :   -0.232438
   2 C :   -0.216982
   3 C :   -0.024878
   4 O :   -0.299419
   5 H :    0.099629
   6 H :    0.113174
   7 H :    0.112006
   8 H :    0.113824
   9 H :    0.117871
  10 H :    0.110160
  11 H :    0.101821
  12 C :   -0.044059
  13 H :    0.104094
  14 H :    0.091565
  15 O :   -0.327672
  16 C :    0.013508
  17 C :    0.034262
  18 C :   -0.240928
  19 C :   -0.040017
  20 O :   -0.321243
  21 H :    0.123389
  22 O :   -0.413356
  23 H :    0.114261
  24 H :    0.127245
  25 H :    0.109905
  26 H :    0.102997
  27 H :    0.104106
  28 H :    0.284595

  Mayer bond orders larger than 0.100000
B(  0-C ,  1-C ) :   0.9266 B(  0-C ,  4-O ) :   0.9416 B(  0-C ,  5-H ) :   0.9185
B(  0-C , 15-O ) :   0.8283 B(  1-C ,  2-C ) :   0.9526 B(  1-C ,  6-H ) :   0.9340
B(  1-C ,  7-H ) :   0.9365 B(  2-C ,  3-C ) :   0.9558 B(  2-C ,  8-H ) :   0.9451
B(  2-C ,  9-H ) :   0.9443 B(  3-C ,  4-O ) :   0.8367 B(  3-C , 10-H ) :   0.9342
B(  3-C , 11-H ) :   0.9397 B( 12-C , 13-H ) :   0.9214 B( 12-C , 14-H ) :   0.9194
B( 12-C , 15-O ) :   0.8578 B( 12-C , 16-C ) :   0.8888 B( 16-C , 17-C ) :   0.8947
B( 16-C , 20-O ) :   0.8653 B( 16-C , 21-H ) :   0.9236 B( 17-C , 18-C ) :   0.9103
B( 17-C , 22-O ) :   0.8946 B( 17-C , 23-H ) :   0.9336 B( 18-C , 19-C ) :   0.9388
B( 18-C , 24-H ) :   0.9378 B( 18-C , 25-H ) :   0.9352 B( 19-C , 20-O ) :   0.8529
B( 19-C , 26-H ) :   0.9339 B( 19-C , 27-H ) :   0.9378 B( 22-O , 28-H ) :   0.7928

FINAL SINGLE POINT ENERGY      -652.857778732225

DIPOLE MOMENT
-------------
                                X             Y             Z
Electronic contribution:     -3.52568      -4.04572       2.29186
Nuclear contribution   :      4.29915       4.97280      -3.30003
                        -----------------------------------------
Total Dipole Moment    :      0.77347       0.92708      -1.00816
                        -----------------------------------------
Magnitude (a.u.)       :      1.57294
Magnitude (Debye)      :      3.99809

Rotational constants in cm-1:     0.069081     0.011562     0.011300
Rotational constants in MHz :  2071.010595   346.628927   338.754563

                             ****ORCA TERMINATED NORMALLY****
TOTAL RUN TIME: 0 days 0 hours 22 minutes 52 seconds 750 msec
