                         Program Version 4.2.0 -  RELEASE  -
|  1> # Test redundant internal optimization
|  2> #
|  3> ! RKS B3LYP  Opt TightSCF SmallPrint
|  4>
|  5> %basis
|  6>         Basis "6-31G"
|  7> end
|  8>
|  9> %geom
| 10> Constraints
| 11> { D 4  0  15  12  300.0   C } # D for Dihedral angle
| 12> { D 0  15  12  16  345.0   C } # D for Dihedral angle
| 13> { D 0  4  3  2   C } # D for Dihedral angle
| 14> { D 4  3  2  1   C } # D for Dihedral angle
| 15> { D 3  2  1  0   C } # D for Dihedral angle
| 16> { D 2  1  0  4   C } # D for Dihedral angle
| 17> { D 1  0  4  3   C } # D for Dihedral angle
| 18> { D 16  20  19  18   C } # D for Dihedral angle
| 19> { D 20  19  18  17   C } # D for Dihedral angle
| 20> { D 19  18  17  16   C } # D for Dihedral angle
| 21> { D 18  17  16  20   C } # D for Dihedral angle
| 22> { D 17  16  20  19   C } # D for Dihedral angle
| 23> { D 15  12  16  20   C } # D for Dihedral angle
| 24> end
| 25> end
| 26>
| 27>
| 28> #%pal
| 29> #nprocs 8
| 30> #end
| 31>
| 32> * xyz 0 1
| 33> C  -21.048   26.222   46.251
| 34> C  -20.361   27.558   45.944
| 35> C  -20.329   28.222   47.341
| 36> C  -20.110   27.022   48.296
| 37> O  -20.473   25.807   47.535
| 38> H  -20.833   25.428   45.533
| 39> H  -19.344   27.382   45.576
| 40> H  -20.898   28.157   45.201
| 41> H  -19.543   28.978   47.434
| 42> H  -21.289   28.710   47.548
| 43> H  -20.733   27.082   49.195
| 44> H  -19.064   26.913   48.597
| 45> C  -23.362   25.116   46.798
| 46> H  -23.674   25.213   47.845
| 47> H  -24.261   24.991   46.181
| 48> O  -22.586   26.394   46.375
| 49> C  -22.510   23.824   46.659
| 50> C  -23.340   22.574   46.973
| 51> C  -24.128   22.382   45.655
| 52> C  -23.116   22.834   44.572
| 53> O  -22.087   23.635   45.268
| 54> H  -21.603   23.926   47.259
| 55> H  -22.680   21.719   47.158
| 56> O  -24.267   22.752   48.207
| 57> H  -24.463   21.350   45.508
| 58> H  -25.015   23.026   45.649
| 59> H  -23.582   23.447   43.793
| 60> H  -22.604   21.990   44.101
| 61> H  -24.939   23.602   48.046
| 62> *
| 63>
| 64>                          ****END OF INPUT****
 Total Charge           Charge          ....    0
 Multiplicity           Mult            ....    1
 Number of Electrons    NEL             ....  102
FINAL SINGLE POINT ENERGY      -652.831370807027
FINAL SINGLE POINT ENERGY      -652.855273505125
FINAL SINGLE POINT ENERGY      -652.860012427616
FINAL SINGLE POINT ENERGY      -652.860778916786
FINAL SINGLE POINT ENERGY      -652.860923409083
FINAL SINGLE POINT ENERGY      -652.860951213858
FINAL SINGLE POINT ENERGY      -652.860954657857
                    ***********************HURRAY********************

CARTESIAN COORDINATES (ANGSTROEM)
---------------------------------
  C    -20.973095   26.214045   46.224712
  C    -20.428474   27.621234   45.971136
  C    -20.426186   28.219764   47.396565
  C    -20.068374   27.007148   48.287153
  O    -20.335435   25.801035   47.462848
  H    -20.723771   25.451499   45.486128
  H    -19.411511   27.544810   45.570171
  H    -21.049892   28.179954   45.268619
  H    -19.711307   29.040759   47.509633
  H    -21.425535   28.593059   47.637380
  H    -20.668412   26.954396   49.199718
  H    -19.007457   26.975642   48.553495
  C    -23.196566   25.172821   46.741118
  H    -23.509952   25.310501   47.784065
  H    -24.085092   25.210838   46.100457
  O    -22.405752   26.340686   46.355358
  C    -22.502084   23.812529   46.639070
  C    -23.423549   22.631876   47.000383
  C    -24.201186   22.413034   45.664988
  C    -23.134119   22.738699   44.594178
  O    -22.066087   23.513973   45.274308
  H    -21.597222   23.827768   47.248381
  H    -22.810685   21.758224   47.231636
  O    -24.254831   22.813365   48.170045
  H    -24.594066   21.396761   45.578042
  H    -25.048495   23.109428   45.613791
  H    -23.530553   23.330919   43.763408
  H    -22.665592   21.836299   44.191345
  H    -24.986718   23.434936   47.979868

 Multiplicity           Mult            ....    1
 Number of Electrons    NEL             ....  102
 Basis Dimension        Dim             ....  149

ORBITAL ENERGIES
----------------

  NO   OCC          E(Eh)            E(eV)
   0   2.0000     -19.149430      -521.0825
   1   2.0000     -19.140572      -520.8414
   2   2.0000     -19.134461      -520.6752
   3   2.0000     -19.133738      -520.6555
   4   2.0000     -10.264931      -279.3230
   5   2.0000     -10.245505      -278.7944
   6   2.0000     -10.232109      -278.4298
   7   2.0000     -10.226583      -278.2795
   8   2.0000     -10.226204      -278.2691
   9   2.0000     -10.219324      -278.0820
  10   2.0000     -10.196240      -277.4538
  11   2.0000     -10.178555      -276.9726
  12   2.0000     -10.177088      -276.9326
  13   2.0000      -1.045318       -28.4446
  14   2.0000      -1.032979       -28.1088
  15   2.0000      -1.016337       -27.6559
  16   2.0000      -0.983403       -26.7598
  17   2.0000      -0.784869       -21.3574
  18   2.0000      -0.780147       -21.2289
  19   2.0000      -0.760878       -20.7045
  20   2.0000      -0.728102       -19.8127
  21   2.0000      -0.676376       -18.4051
  22   2.0000      -0.612842       -16.6763
  23   2.0000      -0.598183       -16.2774
  24   2.0000      -0.591385       -16.0924
  25   2.0000      -0.558159       -15.1883
  26   2.0000      -0.529153       -14.3990
  27   2.0000      -0.507768       -13.8171
  28   2.0000      -0.495630       -13.4868
  29   2.0000      -0.478414       -13.0183
  30   2.0000      -0.465477       -12.6663
  31   2.0000      -0.453966       -12.3531
  32   2.0000      -0.439112       -11.9488
  33   2.0000      -0.429577       -11.6894
  34   2.0000      -0.428553       -11.6615
  35   2.0000      -0.411835       -11.2066
  36   2.0000      -0.403197       -10.9715
  37   2.0000      -0.396279       -10.7833
  38   2.0000      -0.381735       -10.3875
  39   2.0000      -0.366314        -9.9679
  40   2.0000      -0.355852        -9.6832
  41   2.0000      -0.349685        -9.5154
  42   2.0000      -0.339989        -9.2516
  43   2.0000      -0.328952        -8.9512
  44   2.0000      -0.322627        -8.7791
  45   2.0000      -0.314777        -8.5655
  46   2.0000      -0.292971        -7.9721
  47   2.0000      -0.271342        -7.3836
  48   2.0000      -0.264409        -7.1949
  49   2.0000      -0.242767        -6.6060
  50   2.0000      -0.238145        -6.4803
  51   0.0000       0.051099         1.3905
  52   0.0000       0.078643         2.1400
  53   0.0000       0.093079         2.5328
  54   0.0000       0.095419         2.5965
  55   0.0000       0.106360         2.8942

MULLIKEN ATOMIC CHARGES
-----------------------
   0 C :    0.277771
   1 C :   -0.260496
   2 C :   -0.297797
   3 C :   -0.003234
   4 O :   -0.521456
   5 H :    0.186358
   6 H :    0.144118
   7 H :    0.156597
   8 H :    0.137555
   9 H :    0.159287
  10 H :    0.142732
  11 H :    0.141554
  12 C :    0.017280
  13 H :    0.137036
  14 H :    0.131152
  15 O :   -0.542478
  16 C :    0.041294
  17 C :    0.084533
  18 C :   -0.323507
  19 C :   -0.005777
  20 O :   -0.522207
  21 H :    0.204763
  22 H :    0.169758
  23 O :   -0.596880
  24 H :    0.156246
  25 H :    0.134018
  26 H :    0.145016
  27 H :    0.150934
  28 H :    0.355829
Sum of atomic charges:   -0.0000000

LOEWDIN ATOMIC CHARGES
----------------------
   0 C :    0.167108
   1 C :   -0.212142
   2 C :   -0.216234
   3 C :   -0.029542
   4 O :   -0.334657
   5 H :    0.116011
   6 H :    0.113489
   7 H :    0.124241
   8 H :    0.111503
   9 H :    0.117678
  10 H :    0.102727
  11 H :    0.101919
  12 C :   -0.045189
  13 H :    0.103431
  14 H :    0.099781
  15 O :   -0.327938
  16 C :   -0.002300
  17 C :    0.039506
  18 C :   -0.241400
  19 C :   -0.029436
  20 O :   -0.325424
  21 H :    0.135816
  22 H :    0.120414
  23 O :   -0.404292
  24 H :    0.122335
  25 H :    0.104338
  26 H :    0.103480
  27 H :    0.106848
  28 H :    0.277929

  Mayer bond orders larger than 0.100000
B(  0-C ,  1-C ) :   0.9454 B(  0-C ,  4-O ) :   0.8767 B(  0-C ,  5-H ) :   0.9009
B(  0-C , 15-O ) :   0.8523 B(  1-C ,  2-C ) :   0.9547 B(  1-C ,  6-H ) :   0.9412
B(  1-C ,  7-H ) :   0.9370 B(  2-C ,  3-C ) :   0.9558 B(  2-C ,  8-H ) :   0.9457
B(  2-C ,  9-H ) :   0.9447 B(  3-C ,  4-O ) :   0.8371 B(  3-C , 10-H ) :   0.9363
B(  3-C , 11-H ) :   0.9409 B( 12-C , 13-H ) :   0.9086 B( 12-C , 14-H ) :   0.9331
B( 12-C , 15-O ) :   0.8437 B( 12-C , 16-C ) :   0.9092 B( 16-C , 17-C ) :   0.8668
B( 16-C , 20-O ) :   0.8337 B( 16-C , 21-H ) :   0.9009 B( 17-C , 18-C ) :   0.9211
B( 17-C , 22-H ) :   0.9335 B( 17-C , 23-O ) :   0.9017 B( 18-C , 19-C ) :   0.9420
B( 18-C , 24-H ) :   0.9423 B( 18-C , 25-H ) :   0.9404 B( 19-C , 20-O ) :   0.8421
B( 19-C , 26-H ) :   0.9319 B( 19-C , 27-H ) :   0.9380 B( 23-O , 28-H ) :   0.7981

FINAL SINGLE POINT ENERGY      -652.860955203499

DIPOLE MOMENT
-------------
                                X             Y             Z
Electronic contribution:      0.10119      -2.59043       0.58735
Nuclear contribution   :     -0.73856       2.81618      -1.00310
                        -----------------------------------------
Total Dipole Moment    :     -0.63737       0.22574      -0.41576
                        -----------------------------------------
Magnitude (a.u.)       :      0.79376
Magnitude (Debye)      :      2.01758

Rotational constants in cm-1:     0.056531     0.014190     0.012904
Rotational constants in MHz :  1694.764634   425.416825   386.843528

                             ****ORCA TERMINATED NORMALLY****
TOTAL RUN TIME: 0 days 1 hours 30 minutes 24 seconds 409 msec
