                         Program Version 4.2.0 -  RELEASE  -
|  1> # Test redundant internal optimization
|  2> #
|  3> ! RKS B3LYP  Opt TightSCF SmallPrint
|  4>
|  5> %basis
|  6>         Basis "6-31G"
|  7> end
|  8>
|  9> %geom
| 10> Constraints
| 11> { D 4  0  15  12  225.0   C } # D for Dihedral angle
| 12> { D 0  15  12  16  90.0   C } # D for Dihedral angle
| 13> { D 0  4  3  2   C } # D for Dihedral angle
| 14> { D 4  3  2  1   C } # D for Dihedral angle
| 15> { D 3  2  1  0   C } # D for Dihedral angle
| 16> { D 2  1  0  4   C } # D for Dihedral angle
| 17> { D 1  0  4  3   C } # D for Dihedral angle
| 18> { D 16  20  19  18   C } # D for Dihedral angle
| 19> { D 20  19  18  17   C } # D for Dihedral angle
| 20> { D 19  18  17  16   C } # D for Dihedral angle
| 21> { D 18  17  16  20   C } # D for Dihedral angle
| 22> { D 17  16  20  19   C } # D for Dihedral angle
| 23> { D 15  12  16  20   C } # D for Dihedral angle
| 24> end
| 25> end
| 26>
| 27>
| 28> #%pal
| 29> #nprocs 8
| 30> #end
| 31>
| 32> * xyz 0 1
| 33> C  -21.048   26.222   46.251
| 34> C  -20.361   27.558   45.944
| 35> C  -20.329   28.222   47.341
| 36> C  -20.110   27.022   48.296
| 37> O  -20.473   25.807   47.535
| 38> H  -20.833   25.428   45.533
| 39> H  -19.344   27.382   45.576
| 40> H  -20.898   28.157   45.201
| 41> H  -19.543   28.978   47.434
| 42> H  -21.289   28.710   47.548
| 43> H  -20.733   27.082   49.195
| 44> H  -19.064   26.913   48.597
| 45> C  -23.415   25.773   45.218
| 46> H  -24.332   26.358   45.075
| 47> H  -22.844   25.796   44.281
| 48> O  -22.586   26.394   46.375
| 49> C  -23.816   24.297   45.491
| 50> C  -22.586   23.432   45.791
| 51> C  -22.304   23.791   47.270
| 52> C  -23.721   23.997   47.858
| 53> O  -24.629   24.203   46.708
| 54> H  -24.433   23.935   44.667
| 55> H  -22.840   22.371   45.692
| 56> O  -21.383   23.737   44.857
| 57> H  -21.743   23.012   47.796
| 58> H  -21.723   24.719   47.328
| 59> H  -23.778   24.867   48.521
| 60> H  -24.082   23.117   48.399
| 61> H  -21.112   24.795   44.940
| 62> *
| 63>
| 64>                          ****END OF INPUT****
 Total Charge           Charge          ....    0
 Multiplicity           Mult            ....    1
 Number of Electrons    NEL             ....  102
FINAL SINGLE POINT ENERGY      -652.765950031934
FINAL SINGLE POINT ENERGY      -652.826491037080
FINAL SINGLE POINT ENERGY      -652.848204399200
FINAL SINGLE POINT ENERGY      -652.853356508475
FINAL SINGLE POINT ENERGY      -652.854396232503
FINAL SINGLE POINT ENERGY      -652.854907592524
FINAL SINGLE POINT ENERGY      -652.855163282692
FINAL SINGLE POINT ENERGY      -652.855762739778
FINAL SINGLE POINT ENERGY      -652.856600472770
FINAL SINGLE POINT ENERGY      -652.857424026197
FINAL SINGLE POINT ENERGY      -652.858794283018
FINAL SINGLE POINT ENERGY      -652.859466552444
FINAL SINGLE POINT ENERGY      -652.860154493619
FINAL SINGLE POINT ENERGY      -652.860694627028
FINAL SINGLE POINT ENERGY      -652.861059320463
FINAL SINGLE POINT ENERGY      -652.861209211205
FINAL SINGLE POINT ENERGY      -652.861247684174
FINAL SINGLE POINT ENERGY      -652.861266267915
FINAL SINGLE POINT ENERGY      -652.861271721028
                    ***********************HURRAY********************

CARTESIAN COORDINATES (ANGSTROEM)
---------------------------------
  C    -20.983542   26.391761   46.251588
  C    -20.350333   27.745907   45.929104
  C    -20.396955   28.456560   47.304246
  C    -20.156800   27.298076   48.298536
  O    -20.443385   26.051313   47.545045
  H    -20.751556   25.574216   45.568576
  H    -19.314568   27.598463   45.599260
  H    -20.895700   28.281803   45.148549
  H    -19.648294   29.248923   47.398641
  H    -21.388748   28.891747   47.456446
  H    -20.813541   27.338786   49.171122
  H    -19.116081   27.231667   48.630431
  C    -23.259335   25.935523   45.341883
  H    -24.154038   26.562848   45.305380
  H    -22.760173   25.979922   44.363682
  O    -22.428035   26.555090   46.366751
  C    -23.736771   24.497240   45.580014
  C    -22.694104   23.376213   45.713639
  C    -22.343453   23.439367   47.231255
  C    -23.699897   23.817698   47.870143
  O    -24.541169   24.366886   46.783735
  H    -24.413728   24.283765   44.741558
  H    -23.172005   22.417583   45.470489
  O    -21.584586   23.616631   44.804838
  H    -21.972588   22.478288   47.605966
  H    -21.590137   24.204546   47.423941
  H    -23.588256   24.578059   48.648168
  H    -24.232378   22.953592   48.280319
  H    -20.921844   22.902528   44.884695

 Multiplicity           Mult            ....    1
 Number of Electrons    NEL             ....  102
 Basis Dimension        Dim             ....  149

ORBITAL ENERGIES
----------------

  NO   OCC          E(Eh)            E(eV)
   0   2.0000     -19.150915      -521.1229
   1   2.0000     -19.137712      -520.7636
   2   2.0000     -19.130603      -520.5702
   3   2.0000     -19.126497      -520.4584
   4   2.0000     -10.265032      -279.3257
   5   2.0000     -10.240080      -278.6467
   6   2.0000     -10.226175      -278.2684
   7   2.0000     -10.221518      -278.1416
   8   2.0000     -10.219623      -278.0901
   9   2.0000     -10.214560      -277.9523
  10   2.0000     -10.179958      -277.0107
  11   2.0000     -10.178154      -276.9616
  12   2.0000     -10.169999      -276.7397
  13   2.0000      -1.044572       -28.4243
  14   2.0000      -1.029401       -28.0114
  15   2.0000      -1.009653       -27.4741
  16   2.0000      -0.984120       -26.7793
  17   2.0000      -0.780158       -21.2292
  18   2.0000      -0.767954       -20.8971
  19   2.0000      -0.757962       -20.6252
  20   2.0000      -0.725224       -19.7343
  21   2.0000      -0.669355       -18.2141
  22   2.0000      -0.597363       -16.2551
  23   2.0000      -0.592873       -16.1329
  24   2.0000      -0.587802       -15.9949
  25   2.0000      -0.557251       -15.1636
  26   2.0000      -0.521921       -14.2022
  27   2.0000      -0.508157       -13.8277
  28   2.0000      -0.487778       -13.2731
  29   2.0000      -0.485406       -13.2086
  30   2.0000      -0.461526       -12.5588
  31   2.0000      -0.449808       -12.2399
  32   2.0000      -0.435126       -11.8404
  33   2.0000      -0.424649       -11.5553
  34   2.0000      -0.423616       -11.5272
  35   2.0000      -0.407632       -11.0922
  36   2.0000      -0.397229       -10.8092
  37   2.0000      -0.388966       -10.5843
  38   2.0000      -0.366673        -9.9777
  39   2.0000      -0.358411        -9.7529
  40   2.0000      -0.353297        -9.6137
  41   2.0000      -0.350505        -9.5377
  42   2.0000      -0.343293        -9.3415
  43   2.0000      -0.326799        -8.8926
  44   2.0000      -0.313594        -8.5333
  45   2.0000      -0.294363        -8.0100
  46   2.0000      -0.291119        -7.9217
  47   2.0000      -0.273274        -7.4362
  48   2.0000      -0.259737        -7.0678
  49   2.0000      -0.249237        -6.7821
  50   2.0000      -0.224830        -6.1179
  51   0.0000       0.055010         1.4969
  52   0.0000       0.085433         2.3247
  53   0.0000       0.097743         2.6597
  54   0.0000       0.112982         3.0744
  55   0.0000       0.120058         3.2670

MULLIKEN ATOMIC CHARGES
-----------------------
   0 C :    0.262307
   1 C :   -0.249010
   2 C :   -0.301393
   3 C :    0.004364
   4 O :   -0.520587
   5 H :    0.183368
   6 H :    0.137618
   7 H :    0.145910
   8 H :    0.138142
   9 H :    0.164923
  10 H :    0.149694
  11 H :    0.137969
  12 C :   -0.009836
  13 H :    0.160120
  14 H :    0.135546
  15 O :   -0.520006
  16 C :    0.101584
  17 C :    0.081959
  18 C :   -0.347447
  19 C :   -0.003620
  20 O :   -0.521536
  21 H :    0.141355
  22 H :    0.136559
  23 O :   -0.613754
  24 H :    0.121798
  25 H :    0.227934
  26 H :    0.155816
  27 H :    0.134579
  28 H :    0.365645
Sum of atomic charges:   -0.0000000

LOEWDIN ATOMIC CHARGES
----------------------
   0 C :    0.162132
   1 C :   -0.220106
   2 C :   -0.216955
   3 C :   -0.025808
   4 O :   -0.318575
   5 H :    0.115487
   6 H :    0.109508
   7 H :    0.117625
   8 H :    0.112322
   9 H :    0.120824
  10 H :    0.106846
  11 H :    0.100165
  12 C :   -0.037981
  13 H :    0.119215
  14 H :    0.101978
  15 O :   -0.335980
  16 C :    0.024439
  17 C :    0.032559
  18 C :   -0.256455
  19 C :   -0.022605
  20 O :   -0.322624
  21 H :    0.110763
  22 H :    0.096978
  23 O :   -0.417995
  24 H :    0.105019
  25 H :    0.146120
  26 H :    0.109464
  27 H :    0.096674
  28 H :    0.286966

  Mayer bond orders larger than 0.100000
B(  0-C ,  1-C ) :   0.9420 B(  0-C ,  4-O ) :   0.8818 B(  0-C ,  5-H ) :   0.8881
B(  0-C , 15-O ) :   0.8310 B(  1-C ,  2-C ) :   0.9535 B(  1-C ,  6-H ) :   0.9371
B(  1-C ,  7-H ) :   0.9404 B(  2-C ,  3-C ) :   0.9557 B(  2-C ,  8-H ) :   0.9456
B(  2-C ,  9-H ) :   0.9427 B(  3-C ,  4-O ) :   0.8307 B(  3-C , 10-H ) :   0.9355
B(  3-C , 11-H ) :   0.9407 B( 12-C , 13-H ) :   0.9338 B( 12-C , 14-H ) :   0.9110
B( 12-C , 15-O ) :   0.8800 B( 12-C , 16-C ) :   0.8957 B( 16-C , 17-C ) :   0.9252
B( 16-C , 20-O ) :   0.8828 B( 16-C , 21-H ) :   0.9210 B( 17-C , 18-C ) :   0.9239
B( 17-C , 22-H ) :   0.9256 B( 17-C , 23-O ) :   0.8592 B( 18-C , 19-C ) :   0.9459
B( 18-C , 24-H ) :   0.9443 B( 18-C , 25-H ) :   0.8879 B( 19-C , 20-O ) :   0.8397
B( 19-C , 26-H ) :   0.9314 B( 19-C , 27-H ) :   0.9375 B( 23-O , 28-H ) :   0.8005

FINAL SINGLE POINT ENERGY      -652.861269711567

DIPOLE MOMENT
-------------
                                X             Y             Z
Electronic contribution:     -2.71881      -2.82806      -1.38530
Nuclear contribution   :      3.69912       2.54957       1.10665
                        -----------------------------------------
Total Dipole Moment    :      0.98031      -0.27849      -0.27865
                        -----------------------------------------
Magnitude (a.u.)       :      1.05651
Magnitude (Debye)      :      2.68542

Rotational constants in cm-1:     0.045857     0.017238     0.016728
Rotational constants in MHz :  1374.756344   516.795990   501.507442

                             ****ORCA TERMINATED NORMALLY****
TOTAL RUN TIME: 0 days 1 hours 37 minutes 43 seconds 812 msec
