                         Program Version 4.2.0 -  RELEASE  -
|  1> # Test redundant internal optimization
|  2> #
|  3> ! RKS B3LYP  Opt TightSCF SmallPrint
|  4>
|  5> %basis
|  6>         Basis "6-31G"
|  7> end
|  8>
|  9> %geom
| 10> Constraints
| 11> { D 4  0  15  12  45.0   C } # D for Dihedral angle
| 12> { D 0  15  12  16  225.0   C } # D for Dihedral angle
| 13> { D 0  4  3  2   C } # D for Dihedral angle
| 14> { D 4  3  2  1   C } # D for Dihedral angle
| 15> { D 3  2  1  0   C } # D for Dihedral angle
| 16> { D 2  1  0  4   C } # D for Dihedral angle
| 17> { D 1  0  4  3   C } # D for Dihedral angle
| 18> { D 16  20  19  18   C } # D for Dihedral angle
| 19> { D 20  19  18  17   C } # D for Dihedral angle
| 20> { D 19  18  17  16   C } # D for Dihedral angle
| 21> { D 18  17  16  20   C } # D for Dihedral angle
| 22> { D 17  16  20  19   C } # D for Dihedral angle
| 23> { D 15  12  16  20   C } # D for Dihedral angle
| 24> end
| 25> end
| 26>
| 27>
| 28> #%pal
| 29> #nprocs 8
| 30> #end
| 31>
| 32> * xyz 0 1
| 33> C  -21.048   26.222   46.251
| 34> C  -20.361   27.558   45.944
| 35> C  -20.329   28.222   47.341
| 36> C  -20.110   27.022   48.296
| 37> O  -20.473   25.807   47.535
| 38> H  -20.833   25.428   45.533
| 39> H  -19.344   27.382   45.576
| 40> H  -20.898   28.157   45.201
| 41> H  -19.543   28.978   47.434
| 42> H  -21.289   28.710   47.548
| 43> H  -20.733   27.082   49.195
| 44> H  -19.064   26.913   48.597
| 45> C  -23.065   27.161   47.638
| 46> H  -22.239   27.227   48.357
| 47> H  -23.371   28.182   47.374
| 48> O  -22.586   26.394   46.375
| 49> C  -24.269   26.473   48.338
| 50> C  -24.788   27.315   49.509
| 51> C  -25.629   28.387   48.775
| 52> C  -26.231   27.605   47.581
| 53> O  -25.412   26.384   47.423
| 54> H  -23.992   25.451   48.604
| 55> H  -25.423   26.705   50.160
| 56> O  -23.650   27.929   50.370
| 57> H  -26.400   28.832   49.413
| 58> H  -24.980   29.197   48.420
| 59> H  -26.203   28.179   46.647
| 60> H  -27.259   27.283   47.768
| 61> H  -23.001   28.546   49.740
| 62> *
| 63>
| 64>                          ****END OF INPUT****
 Total Charge           Charge          ....    0
 Multiplicity           Mult            ....    1
 Number of Electrons    NEL             ....  102
FINAL SINGLE POINT ENERGY      -652.811761309334
FINAL SINGLE POINT ENERGY      -652.837917379294
FINAL SINGLE POINT ENERGY      -652.848348598597
FINAL SINGLE POINT ENERGY      -652.850459022519
FINAL SINGLE POINT ENERGY      -652.850888537263
FINAL SINGLE POINT ENERGY      -652.851004163630
FINAL SINGLE POINT ENERGY      -652.851017652957
FINAL SINGLE POINT ENERGY      -652.851008166877
FINAL SINGLE POINT ENERGY      -652.851005059893
                    ***********************HURRAY********************

CARTESIAN COORDINATES (ANGSTROEM)
---------------------------------
  C    -21.162208   26.307961   46.398337
  C    -20.323983   27.491644   45.897244
  C    -19.946657   28.206216   47.226257
  C    -19.774224   27.021856   48.210551
  O    -20.463495   25.864626   47.584802
  H    -21.163354   25.463026   45.708321
  H    -19.428681   27.107072   45.396752
  H    -20.876138   28.126337   45.200068
  H    -19.031945   28.800476   47.139344
  H    -20.750701   28.878396   47.543020
  H    -20.209146   27.206255   49.197848
  H    -18.725711   26.734748   48.334349
  C    -23.062151   27.304312   47.722424
  H    -22.311633   27.347000   48.517525
  H    -23.316476   28.325470   47.405410
  O    -22.573112   26.561248   46.573302
  C    -24.277433   26.570103   48.288153
  C    -24.920545   27.277785   49.492661
  C    -25.844116   28.322129   48.795055
  C    -26.317361   27.564846   47.533829
  O    -25.372330   26.440549   47.332005
  H    -23.963768   25.549494   48.522839
  H    -25.514944   26.560014   50.061822
  O    -23.989533   27.833889   50.456224
  H    -26.669755   28.641168   49.436613
  H    -25.256988   29.212146   48.530841
  H    -26.324330   28.193367   46.637308
  H    -27.312603   27.128670   47.663782
  H    -23.639676   28.690195   50.136317

 Multiplicity           Mult            ....    1
 Number of Electrons    NEL             ....  102
 Basis Dimension        Dim             ....  149

ORBITAL ENERGIES
----------------

  NO   OCC          E(Eh)            E(eV)
   0   2.0000     -19.150984      -521.1248
   1   2.0000     -19.144866      -520.9583
   2   2.0000     -19.137423      -520.7557
   3   2.0000     -19.133098      -520.6381
   4   2.0000     -10.275822      -279.6193
   5   2.0000     -10.244352      -278.7630
   6   2.0000     -10.231965      -278.4259
   7   2.0000     -10.229236      -278.3517
   8   2.0000     -10.228742      -278.3382
   9   2.0000     -10.225998      -278.2636
  10   2.0000     -10.196398      -277.4581
  11   2.0000     -10.194865      -277.4164
  12   2.0000     -10.187523      -277.2166
  13   2.0000      -1.051891       -28.6234
  14   2.0000      -1.033166       -28.1139
  15   2.0000      -1.014069       -27.5942
  16   2.0000      -0.992526       -27.0080
  17   2.0000      -0.789252       -21.4767
  18   2.0000      -0.782330       -21.2883
  19   2.0000      -0.770438       -20.9647
  20   2.0000      -0.732563       -19.9341
  21   2.0000      -0.680919       -18.5287
  22   2.0000      -0.611454       -16.6385
  23   2.0000      -0.604539       -16.4503
  24   2.0000      -0.597791       -16.2667
  25   2.0000      -0.568784       -15.4774
  26   2.0000      -0.524061       -14.2604
  27   2.0000      -0.513105       -13.9623
  28   2.0000      -0.501854       -13.6561
  29   2.0000      -0.494244       -13.4491
  30   2.0000      -0.469858       -12.7855
  31   2.0000      -0.461730       -12.5643
  32   2.0000      -0.442025       -12.0281
  33   2.0000      -0.432521       -11.7695
  34   2.0000      -0.422385       -11.4937
  35   2.0000      -0.419093       -11.4041
  36   2.0000      -0.415953       -11.3187
  37   2.0000      -0.399343       -10.8667
  38   2.0000      -0.379962       -10.3393
  39   2.0000      -0.374697       -10.1960
  40   2.0000      -0.361291        -9.8312
  41   2.0000      -0.354333        -9.6419
  42   2.0000      -0.348777        -9.4907
  43   2.0000      -0.328360        -8.9351
  44   2.0000      -0.321443        -8.7469
  45   2.0000      -0.315289        -8.5795
  46   2.0000      -0.303076        -8.2471
  47   2.0000      -0.270861        -7.3705
  48   2.0000      -0.263647        -7.1742
  49   2.0000      -0.253137        -6.8882
  50   2.0000      -0.233979        -6.3669
  51   0.0000       0.045774         1.2456
  52   0.0000       0.073040         1.9875
  53   0.0000       0.084863         2.3092
  54   0.0000       0.091987         2.5031
  55   0.0000       0.103248         2.8095

MULLIKEN ATOMIC CHARGES
-----------------------
   0 C :    0.291314
   1 C :   -0.264737
   2 C :   -0.311772
   3 C :   -0.021121
   4 O :   -0.505618
   5 H :    0.168060
   6 H :    0.150656
   7 H :    0.153227
   8 H :    0.147008
   9 H :    0.141518
  10 H :    0.148511
  11 H :    0.150276
  12 C :   -0.028940
  13 H :    0.149666
  14 H :    0.118498
  15 O :   -0.506368
  16 C :    0.104388
  17 C :    0.084176
  18 C :   -0.329558
  19 C :   -0.008666
  20 O :   -0.502204
  21 H :    0.167958
  22 H :    0.169432
  23 O :   -0.601263
  24 H :    0.158237
  25 H :    0.130420
  26 H :    0.144688
  27 H :    0.148927
  28 H :    0.353288
Sum of atomic charges:   -0.0000000

LOEWDIN ATOMIC CHARGES
----------------------
   0 C :    0.175927
   1 C :   -0.228042
   2 C :   -0.223903
   3 C :   -0.037131
   4 O :   -0.319791
   5 H :    0.114501
   6 H :    0.118322
   7 H :    0.121194
   8 H :    0.116740
   9 H :    0.106555
  10 H :    0.101786
  11 H :    0.106158
  12 C :   -0.054835
  13 H :    0.108784
  14 H :    0.088548
  15 O :   -0.310070
  16 C :    0.021092
  17 C :    0.034259
  18 C :   -0.242513
  19 C :   -0.029860
  20 O :   -0.310817
  21 H :    0.123310
  22 H :    0.120323
  23 O :   -0.409354
  24 H :    0.122303
  25 H :    0.102036
  26 H :    0.102954
  27 H :    0.105628
  28 H :    0.275897

  Mayer bond orders larger than 0.100000
B(  0-C ,  1-C ) :   0.9128 B(  0-C ,  4-O ) :   0.8996 B(  0-C ,  5-H ) :   0.9345
B(  0-C , 15-O ) :   0.8995 B(  1-C ,  2-C ) :   0.9555 B(  1-C ,  6-H ) :   0.9351
B(  1-C ,  7-H ) :   0.9378 B(  2-C ,  3-C ) :   0.9482 B(  2-C ,  8-H ) :   0.9450
B(  2-C ,  9-H ) :   0.9443 B(  3-C ,  4-O ) :   0.8410 B(  3-C , 10-H ) :   0.9284
B(  3-C , 11-H ) :   0.9387 B( 12-C , 13-H ) :   0.8926 B( 12-C , 14-H ) :   0.9246
B( 12-C , 15-O ) :   0.8455 B( 12-C , 16-C ) :   0.9005 B( 16-C , 17-C ) :   0.8712
B( 16-C , 20-O ) :   0.8715 B( 16-C , 21-H ) :   0.9283 B( 17-C , 18-C ) :   0.9254
B( 17-C , 22-H ) :   0.9327 B( 17-C , 23-O ) :   0.8898 B( 18-C , 19-C ) :   0.9404
B( 18-C , 24-H ) :   0.9413 B( 18-C , 25-H ) :   0.9406 B( 19-C , 20-O ) :   0.8522
B( 19-C , 26-H ) :   0.9314 B( 19-C , 27-H ) :   0.9373 B( 23-O , 28-H ) :   0.8005

FINAL SINGLE POINT ENERGY      -652.851005846153

DIPOLE MOMENT
-------------
                                X             Y             Z
Electronic contribution:     -1.86530      -5.42652      -0.14231
Nuclear contribution   :      2.19050       7.24007       0.20820
                        -----------------------------------------
Total Dipole Moment    :      0.32520       1.81354       0.06589
                        -----------------------------------------
Magnitude (a.u.)       :      1.84364
Magnitude (Debye)      :      4.68617

Rotational constants in cm-1:     0.049681     0.014408     0.012840
Rotational constants in MHz :  1489.401276   431.948413   384.943373

                             ****ORCA TERMINATED NORMALLY****
TOTAL RUN TIME: 0 days 0 hours 59 minutes 0 seconds 966 msec
