                         Program Version 4.2.0 -  RELEASE  -
|  1> # Test redundant internal optimization
|  2> #
|  3> ! RKS B3LYP  Opt TightSCF SmallPrint
|  4>
|  5> %basis
|  6>         Basis "6-31G"
|  7> end
|  8>
|  9> %geom
| 10> Constraints
| 11> { D 4  0  15  12  105.0   C } # D for Dihedral angle
| 12> { D 0  15  12  16  90.0   C } # D for Dihedral angle
| 13> { D 0  4  3  2   C } # D for Dihedral angle
| 14> { D 4  3  2  1   C } # D for Dihedral angle
| 15> { D 3  2  1  0   C } # D for Dihedral angle
| 16> { D 2  1  0  4   C } # D for Dihedral angle
| 17> { D 1  0  4  3   C } # D for Dihedral angle
| 18> { D 16  20  19  18   C } # D for Dihedral angle
| 19> { D 20  19  18  17   C } # D for Dihedral angle
| 20> { D 19  18  17  16   C } # D for Dihedral angle
| 21> { D 18  17  16  20   C } # D for Dihedral angle
| 22> { D 17  16  20  19   C } # D for Dihedral angle
| 23> { D 15  12  16  20   C } # D for Dihedral angle
| 24> end
| 25> end
| 26>
| 27>
| 28> #%pal
| 29> #nprocs 8
| 30> #end
| 31>
| 32> * xyz 0 1
| 33> C  -21.048   26.222   46.251
| 34> C  -20.361   27.558   45.944
| 35> C  -20.329   28.222   47.341
| 36> C  -20.110   27.022   48.296
| 37> O  -20.473   25.807   47.535
| 38> H  -20.833   25.428   45.533
| 39> H  -19.344   27.382   45.576
| 40> H  -20.898   28.157   45.201
| 41> H  -19.543   28.978   47.434
| 42> H  -21.289   28.710   47.548
| 43> H  -20.733   27.082   49.195
| 44> H  -19.064   26.913   48.597
| 45> C  -23.085   27.864   46.420
| 46> H  -24.001   27.918   47.021
| 47> H  -22.330   28.511   46.887
| 48> O  -22.586   26.394   46.375
| 49> C  -23.392   28.438   45.009
| 50> C  -24.559   27.695   44.349
| 51> C  -25.778   28.343   45.047
| 52> C  -25.330   29.813   45.245
| 53> O  -23.858   29.825   45.110
| 54> H  -22.473   28.451   44.421
| 55> O  -24.580   27.987   42.823
| 56> H  -24.514   26.610   44.490
| 57> H  -26.697   28.262   44.457
| 58> H  -25.958   27.859   46.014
| 59> H  -25.604   30.205   46.230
| 60> H  -25.730   30.478   44.476
| 61> H  -24.626   29.070   42.656
| 62> *
| 63>
| 64>                          ****END OF INPUT****
 Total Charge           Charge          ....    0
 Multiplicity           Mult            ....    1
 Number of Electrons    NEL             ....  102
FINAL SINGLE POINT ENERGY      -652.806659305858
FINAL SINGLE POINT ENERGY      -652.836997988967
FINAL SINGLE POINT ENERGY      -652.852073713665
FINAL SINGLE POINT ENERGY      -652.854433936826
FINAL SINGLE POINT ENERGY      -652.854799303833
FINAL SINGLE POINT ENERGY      -652.854858654400
FINAL SINGLE POINT ENERGY      -652.854851744742
                    ***********************HURRAY********************

CARTESIAN COORDINATES (ANGSTROEM)
---------------------------------
  C    -21.203489   26.372229   46.341185
  C    -20.231734   27.494083   45.948328
  C    -19.956967   28.185548   47.318698
  C    -19.983313   26.987362   48.301053
  O    -20.674798   25.887405   47.592598
  H    -21.172218   25.514454   45.667819
  H    -19.316373   27.030658   45.566685
  H    -20.612581   28.175532   45.184565
  H    -18.992053   28.701973   47.331386
  H    -20.726612   28.922780   47.558974
  H    -20.517565   27.205508   49.230431
  H    -18.979600   26.626569   48.543431
  C    -23.211382   27.991536   46.494449
  H    -24.134958   27.859250   47.065894
  H    -22.589003   28.711587   47.033159
  O    -22.622739   26.662056   46.424512
  C    -23.513633   28.546388   45.099223
  C    -24.546519   27.746400   44.292731
  C    -25.878046   28.254388   44.900116
  C    -25.583191   29.743215   45.211480
  O    -24.104144   29.885258   45.221307
  H    -22.590412   28.663183   44.524910
  O    -24.443964   28.048687   42.873158
  H    -24.408896   26.669229   44.376952
  H    -26.700034   28.122059   44.191956
  H    -26.119461   27.695319   45.810500
  H    -25.977021   30.062452   46.181113
  H    -25.965217   30.419601   44.440263
  H    -24.370079   29.019291   42.754123

 Multiplicity           Mult            ....    1
 Number of Electrons    NEL             ....  102
 Basis Dimension        Dim             ....  149

ORBITAL ENERGIES
----------------

  NO   OCC          E(Eh)            E(eV)
   0   2.0000     -19.148458      -521.0560
   1   2.0000     -19.144153      -520.9389
   2   2.0000     -19.139217      -520.8046
   3   2.0000     -19.138055      -520.7730
   4   2.0000     -10.281273      -279.7677
   5   2.0000     -10.238177      -278.5950
   6   2.0000     -10.235259      -278.5156
   7   2.0000     -10.234888      -278.5055
   8   2.0000     -10.234586      -278.4972
   9   2.0000     -10.228350      -278.3276
  10   2.0000     -10.196175      -277.4520
  11   2.0000     -10.195254      -277.4270
  12   2.0000     -10.189885      -277.2809
  13   2.0000      -1.050679       -28.5904
  14   2.0000      -1.038365       -28.2553
  15   2.0000      -1.007041       -27.4030
  16   2.0000      -0.996062       -27.1042
  17   2.0000      -0.790550       -21.5120
  18   2.0000      -0.783268       -21.3138
  19   2.0000      -0.771671       -20.9982
  20   2.0000      -0.736388       -20.0381
  21   2.0000      -0.681787       -18.5524
  22   2.0000      -0.607918       -16.5423
  23   2.0000      -0.604757       -16.4563
  24   2.0000      -0.603464       -16.4211
  25   2.0000      -0.574184       -15.6243
  26   2.0000      -0.530175       -14.4268
  27   2.0000      -0.510565       -13.8932
  28   2.0000      -0.502237       -13.6666
  29   2.0000      -0.493599       -13.4315
  30   2.0000      -0.474698       -12.9172
  31   2.0000      -0.461705       -12.5636
  32   2.0000      -0.447171       -12.1681
  33   2.0000      -0.441484       -12.0134
  34   2.0000      -0.430163       -11.7053
  35   2.0000      -0.414245       -11.2722
  36   2.0000      -0.412431       -11.2228
  37   2.0000      -0.395309       -10.7569
  38   2.0000      -0.385504       -10.4901
  39   2.0000      -0.372377       -10.1329
  40   2.0000      -0.365822        -9.9545
  41   2.0000      -0.358354        -9.7513
  42   2.0000      -0.352569        -9.5939
  43   2.0000      -0.332849        -9.0573
  44   2.0000      -0.315828        -8.5941
  45   2.0000      -0.310372        -8.4457
  46   2.0000      -0.293303        -7.9812
  47   2.0000      -0.280786        -7.6406
  48   2.0000      -0.267809        -7.2875
  49   2.0000      -0.257971        -7.0197
  50   2.0000      -0.242237        -6.5916
  51   0.0000       0.060847         1.6557
  52   0.0000       0.066834         1.8186
  53   0.0000       0.084144         2.2897
  54   0.0000       0.095564         2.6004
  55   0.0000       0.098184         2.6717

MULLIKEN ATOMIC CHARGES
-----------------------
   0 C :    0.313414
   1 C :   -0.305010
   2 C :   -0.313239
   3 C :   -0.006029
   4 O :   -0.495788
   5 H :    0.166094
   6 H :    0.161217
   7 H :    0.152595
   8 H :    0.147369
   9 H :    0.155649
  10 H :    0.147142
  11 H :    0.146850
  12 C :   -0.026902
  13 H :    0.155637
  14 H :    0.145426
  15 O :   -0.526787
  16 C :    0.049598
  17 C :    0.089954
  18 C :   -0.307303
  19 C :   -0.030213
  20 O :   -0.526645
  21 H :    0.159260
  22 O :   -0.602423
  23 H :    0.177205
  24 H :    0.163908
  25 H :    0.152979
  26 H :    0.146195
  27 H :    0.148497
  28 H :    0.361351
Sum of atomic charges:    0.0000000

LOEWDIN ATOMIC CHARGES
----------------------
   0 C :    0.178965
   1 C :   -0.232021
   2 C :   -0.221932
   3 C :   -0.031661
   4 O :   -0.314843
   5 H :    0.111491
   6 H :    0.125700
   7 H :    0.116827
   8 H :    0.116906
   9 H :    0.110293
  10 H :    0.104718
  11 H :    0.104600
  12 C :   -0.042287
  13 H :    0.112932
  14 H :    0.103424
  15 O :   -0.326371
  16 C :    0.004235
  17 C :    0.037266
  18 C :   -0.242881
  19 C :   -0.037888
  20 O :   -0.333001
  21 H :    0.108826
  22 O :   -0.414908
  23 H :    0.128261
  24 H :    0.127591
  25 H :    0.117344
  26 H :    0.104297
  27 H :    0.103172
  28 H :    0.280948

  Mayer bond orders larger than 0.100000
B(  0-C ,  1-C ) :   0.9264 B(  0-C ,  4-O ) :   0.9130 B(  0-C ,  5-H ) :   0.9337
B(  0-C , 15-O ) :   0.8783 B(  1-C ,  2-C ) :   0.9514 B(  1-C ,  6-H ) :   0.9338
B(  1-C ,  7-H ) :   0.9253 B(  2-C ,  3-C ) :   0.9474 B(  2-C ,  8-H ) :   0.9448
B(  2-C ,  9-H ) :   0.9359 B(  3-C ,  4-O ) :   0.8469 B(  3-C , 10-H ) :   0.9344
B(  3-C , 11-H ) :   0.9390 B( 12-C , 13-H ) :   0.9378 B( 12-C , 14-H ) :   0.9042
B( 12-C , 15-O ) :   0.8407 B( 12-C , 16-C ) :   0.8759 B( 16-C , 17-C ) :   0.9100
B( 16-C , 20-O ) :   0.8426 B( 16-C , 21-H ) :   0.9195 B( 17-C , 18-C ) :   0.9145
B( 17-C , 22-O ) :   0.8908 B( 17-C , 23-H ) :   0.9232 B( 18-C , 19-C ) :   0.9418
B( 18-C , 24-H ) :   0.9374 B( 18-C , 25-H ) :   0.9328 B( 19-C , 20-O ) :   0.8405
B( 19-C , 26-H ) :   0.9360 B( 19-C , 27-H ) :   0.9375 B( 22-O , 28-H ) :   0.7967

FINAL SINGLE POINT ENERGY      -652.854850269996

DIPOLE MOMENT
-------------
                                X             Y             Z
Electronic contribution:     -1.01703      -2.70723      -1.73636
Nuclear contribution   :      1.16352       3.77306       2.01905
                        -----------------------------------------
Total Dipole Moment    :      0.14649       1.06583       0.28269
                        -----------------------------------------
Magnitude (a.u.)       :      1.11237
Magnitude (Debye)      :      2.82743

Rotational constants in cm-1:     0.058424     0.012828     0.012399
Rotational constants in MHz :  1751.516445   384.588016   371.700983

                             ****ORCA TERMINATED NORMALLY****
TOTAL RUN TIME: 0 days 1 hours 47 minutes 6 seconds 331 msec
