                         Program Version 4.2.0 -  RELEASE  -
|  1> # Test redundant internal optimization
|  2> #
|  3> ! RKS B3LYP  Opt TightSCF SmallPrint
|  4>
|  5> %basis
|  6>         Basis "6-31G"
|  7> end
|  8>
|  9> %geom
| 10> Constraints
| 11> { D 4  0  15  12  345.0   C } # D for Dihedral angle
| 12> { D 0  15  12  16  120.0   C } # D for Dihedral angle
| 13> { D 0  4  3  2   C } # D for Dihedral angle
| 14> { D 4  3  2  1   C } # D for Dihedral angle
| 15> { D 3  2  1  0   C } # D for Dihedral angle
| 16> { D 2  1  0  4   C } # D for Dihedral angle
| 17> { D 1  0  4  3   C } # D for Dihedral angle
| 18> { D 16  20  19  18   C } # D for Dihedral angle
| 19> { D 20  19  18  17   C } # D for Dihedral angle
| 20> { D 19  18  17  16   C } # D for Dihedral angle
| 21> { D 18  17  16  20   C } # D for Dihedral angle
| 22> { D 17  16  20  19   C } # D for Dihedral angle
| 23> { D 15  12  16  20   C } # D for Dihedral angle
| 24> end
| 25> end
| 26>
| 27>
| 28> #%pal
| 29> #nprocs 8
| 30> #end
| 31>
| 32> * xyz 0 1
| 33> C  -21.048   26.222   46.251
| 34> C  -20.361   27.558   45.944
| 35> C  -20.329   28.222   47.341
| 36> C  -20.110   27.022   48.296
| 37> O  -20.473   25.807   47.535
| 38> H  -20.833   25.428   45.533
| 39> H  -19.344   27.382   45.576
| 40> H  -20.898   28.157   45.201
| 41> H  -19.543   28.978   47.434
| 42> H  -21.289   28.710   47.548
| 43> H  -20.733   27.082   49.195
| 44> H  -19.064   26.913   48.597
| 45> C  -23.221   25.764   47.645
| 46> H  -23.951   25.003   47.345
| 47> H  -22.451   25.278   48.258
| 48> O  -22.586   26.394   46.375
| 49> C  -23.944   26.811   48.537
| 50> C  -25.149   27.422   47.812
| 51> C  -26.214   26.312   47.983
| 52> C  -25.900   25.738   49.388
| 53> O  -24.524   26.164   49.719
| 54> H  -23.215   27.540   48.896
| 55> H  -25.465   28.342   48.318
| 56> O  -24.860   27.756   46.323
| 57> H  -27.237   26.691   47.906
| 58> H  -26.082   25.543   47.213
| 59> H  -25.954   24.645   49.416
| 60> H  -26.558   26.144   50.161
| 61> H  -24.542   26.849   45.798
| 62> *
| 63>
| 64>                          ****END OF INPUT****
 Total Charge           Charge          ....    0
 Multiplicity           Mult            ....    1
 Number of Electrons    NEL             ....  102
FINAL SINGLE POINT ENERGY      -652.833063887623
FINAL SINGLE POINT ENERGY      -652.856732083392
FINAL SINGLE POINT ENERGY      -652.862864535105
FINAL SINGLE POINT ENERGY      -652.864968011937
FINAL SINGLE POINT ENERGY      -652.866145692378
FINAL SINGLE POINT ENERGY      -652.866745224665
FINAL SINGLE POINT ENERGY      -652.866917554062
FINAL SINGLE POINT ENERGY      -652.866957994756
FINAL SINGLE POINT ENERGY      -652.866960451022
                    ***********************HURRAY********************

CARTESIAN COORDINATES (ANGSTROEM)
---------------------------------
  C    -21.096073   26.172246   46.333305
  C    -20.563885   27.556817   45.968284
  C    -20.447301   28.226706   47.356433
  C    -20.031040   27.062763   48.279159
  O    -20.376641   25.816457   47.525693
  H    -20.893280   25.383953   45.604841
  H    -19.581518   27.446658   45.495404
  H    -21.227969   28.093129   45.286641
  H    -19.717231   29.041654   47.366715
  H    -21.416902   28.638315   47.651671
  H    -20.558399   27.048466   49.235919
  H    -18.953668   27.019962   48.458291
  C    -23.174175   25.640652   47.708449
  H    -23.862605   24.861865   47.363348
  H    -22.409771   25.185164   48.340958
  O    -22.550686   26.235398   46.516370
  C    -23.914686   26.734883   48.485260
  C    -25.082648   27.389540   47.728320
  C    -26.209161   26.332497   47.913358
  C    -25.943478   25.778914   49.328694
  O    -24.536190   26.147983   49.670980
  H    -23.194715   27.476278   48.845508
  H    -25.365084   28.313108   48.246139
  O    -24.822483   27.737518   46.354531
  H    -27.202825   26.776573   47.811153
  H    -26.104775   25.562149   47.141421
  H    -26.045985   24.691367   49.396866
  H    -26.579310   26.241838   50.088581
  H    -24.015518   27.264146   46.041708

 Multiplicity           Mult            ....    1
 Number of Electrons    NEL             ....  102
 Basis Dimension        Dim             ....  149

ORBITAL ENERGIES
----------------

  NO   OCC          E(Eh)            E(eV)
   0   2.0000     -19.161872      -521.4210
   1   2.0000     -19.158091      -521.3182
   2   2.0000     -19.138895      -520.7958
   3   2.0000     -19.113188      -520.0963
   4   2.0000     -10.292560      -280.0748
   5   2.0000     -10.239893      -278.6417
   6   2.0000     -10.232232      -278.4332
   7   2.0000     -10.231164      -278.4041
   8   2.0000     -10.229216      -278.3511
   9   2.0000     -10.225545      -278.2512
  10   2.0000     -10.197453      -277.4868
  11   2.0000     -10.195785      -277.4414
  12   2.0000     -10.178063      -276.9592
  13   2.0000      -1.066963       -29.0335
  14   2.0000      -1.024273       -27.8719
  15   2.0000      -1.005250       -27.3542
  16   2.0000      -0.990910       -26.9640
  17   2.0000      -0.800252       -21.7760
  18   2.0000      -0.773793       -21.0560
  19   2.0000      -0.767269       -20.8784
  20   2.0000      -0.737575       -20.0704
  21   2.0000      -0.677443       -18.4342
  22   2.0000      -0.612086       -16.6557
  23   2.0000      -0.598257       -16.2794
  24   2.0000      -0.594854       -16.1868
  25   2.0000      -0.577638       -15.7183
  26   2.0000      -0.532445       -14.4886
  27   2.0000      -0.514183       -13.9916
  28   2.0000      -0.506489       -13.7823
  29   2.0000      -0.486221       -13.2307
  30   2.0000      -0.477139       -12.9836
  31   2.0000      -0.460647       -12.5348
  32   2.0000      -0.445190       -12.1142
  33   2.0000      -0.426369       -11.6021
  34   2.0000      -0.424385       -11.5481
  35   2.0000      -0.418493       -11.3878
  36   2.0000      -0.411195       -11.1892
  37   2.0000      -0.386265       -10.5108
  38   2.0000      -0.382890       -10.4190
  39   2.0000      -0.370317       -10.0768
  40   2.0000      -0.367102        -9.9894
  41   2.0000      -0.360559        -9.8113
  42   2.0000      -0.354218        -9.6388
  43   2.0000      -0.344800        -9.3825
  44   2.0000      -0.328652        -8.9431
  45   2.0000      -0.316019        -8.5993
  46   2.0000      -0.284617        -7.7448
  47   2.0000      -0.276592        -7.5264
  48   2.0000      -0.275334        -7.4922
  49   2.0000      -0.247340        -6.7305
  50   2.0000      -0.238610        -6.4929
  51   0.0000       0.059390         1.6161
  52   0.0000       0.071053         1.9335
  53   0.0000       0.089694         2.4407
  54   0.0000       0.094936         2.5833
  55   0.0000       0.099211         2.6997

MULLIKEN ATOMIC CHARGES
-----------------------
   0 C :    0.314663
   1 C :   -0.266095
   2 C :   -0.310754
   3 C :   -0.022826
   4 O :   -0.509260
   5 H :    0.161819
   6 H :    0.151896
   7 H :    0.165466
   8 H :    0.152408
   9 H :    0.163449
  10 H :    0.157792
  11 H :    0.157149
  12 C :   -0.038056
  13 H :    0.149122
  14 H :    0.189564
  15 O :   -0.576724
  16 C :    0.052650
  17 C :    0.121274
  18 C :   -0.299748
  19 C :   -0.024065
  20 O :   -0.521839
  21 H :    0.147859
  22 H :    0.144421
  23 O :   -0.643861
  24 H :    0.148266
  25 H :    0.147703
  26 H :    0.143726
  27 H :    0.149433
  28 H :    0.394567
Sum of atomic charges:    0.0000000

LOEWDIN ATOMIC CHARGES
----------------------
   0 C :    0.186446
   1 C :   -0.218192
   2 C :   -0.219142
   3 C :   -0.031403
   4 O :   -0.313245
   5 H :    0.106385
   6 H :    0.117902
   7 H :    0.127599
   8 H :    0.120179
   9 H :    0.116498
  10 H :    0.109275
  11 H :    0.110811
  12 C :   -0.050340
  13 H :    0.105566
  14 H :    0.128676
  15 O :   -0.354957
  16 C :    0.010843
  17 C :    0.041275
  18 C :   -0.236664
  19 C :   -0.033111
  20 O :   -0.325366
  21 H :    0.106007
  22 H :    0.103866
  23 O :   -0.436434
  24 H :    0.120226
  25 H :    0.112258
  26 H :    0.102567
  27 H :    0.105945
  28 H :    0.286530

  Mayer bond orders larger than 0.100000
B(  0-C ,  1-C ) :   0.9395 B(  0-C ,  4-O ) :   0.9268 B(  0-C ,  5-H ) :   0.9275
B(  0-C , 15-O ) :   0.7986 B(  1-C ,  2-C ) :   0.9509 B(  1-C ,  6-H ) :   0.9352
B(  1-C ,  7-H ) :   0.9344 B(  2-C ,  3-C ) :   0.9544 B(  2-C ,  8-H ) :   0.9434
B(  2-C ,  9-H ) :   0.9385 B(  3-C ,  4-O ) :   0.8190 B(  3-C , 10-H ) :   0.9317
B(  3-C , 11-H ) :   0.9395 B( 12-C , 13-H ) :   0.9319 B( 12-C , 14-H ) :   0.9096
B( 12-C , 15-O ) :   0.7828 B( 12-C , 16-C ) :   0.8963 B( 16-C , 17-C ) :   0.9134
B( 16-C , 20-O ) :   0.8510 B( 16-C , 21-H ) :   0.9274 B( 17-C , 18-C ) :   0.9010
B( 17-C , 22-H ) :   0.9318 B( 17-C , 23-O ) :   0.9332 B( 18-C , 19-C ) :   0.9412
B( 18-C , 24-H ) :   0.9453 B( 18-C , 25-H ) :   0.9429 B( 19-C , 20-O ) :   0.8334
B( 19-C , 26-H ) :   0.9337 B( 19-C , 27-H ) :   0.9381 B( 23-O , 28-H ) :   0.7220

FINAL SINGLE POINT ENERGY      -652.866961615304

DIPOLE MOMENT
-------------
                                X             Y             Z
Electronic contribution:      0.10638      -1.98758      -0.40644
Nuclear contribution   :      0.59156       2.10176       0.41122
                        -----------------------------------------
Total Dipole Moment    :      0.69794       0.11418       0.00478
                        -----------------------------------------
Magnitude (a.u.)       :      0.70724
Magnitude (Debye)      :      1.79766

Rotational constants in cm-1:     0.051648     0.015673     0.014204
Rotational constants in MHz :  1548.374801   469.868461   425.814026

                             ****ORCA TERMINATED NORMALLY****
TOTAL RUN TIME: 0 days 0 hours 31 minutes 53 seconds 103 msec
