                         Program Version 4.2.0 -  RELEASE  -
|  1> # Test redundant internal optimization
|  2> #
|  3> ! RKS B3LYP  Opt TightSCF SmallPrint
|  4>
|  5> %basis
|  6>         Basis "6-31G"
|  7> end
|  8>
|  9> %geom
| 10> Constraints
| 11> { D 4  0  15  12  285.0   C } # D for Dihedral angle
| 12> { D 0  15  12  16  255.0   C } # D for Dihedral angle
| 13> { D 0  4  3  2   C } # D for Dihedral angle
| 14> { D 4  3  2  1   C } # D for Dihedral angle
| 15> { D 3  2  1  0   C } # D for Dihedral angle
| 16> { D 2  1  0  4   C } # D for Dihedral angle
| 17> { D 1  0  4  3   C } # D for Dihedral angle
| 18> { D 16  20  19  18   C } # D for Dihedral angle
| 19> { D 20  19  18  17   C } # D for Dihedral angle
| 20> { D 19  18  17  16   C } # D for Dihedral angle
| 21> { D 18  17  16  20   C } # D for Dihedral angle
| 22> { D 17  16  20  19   C } # D for Dihedral angle
| 23> { D 15  12  16  20   C } # D for Dihedral angle
| 24> end
| 25> end
| 26>
| 27>
| 28> #%pal
| 29> #nprocs 8
| 30> #end
| 31>
| 32> * xyz 0 1
| 33> C  -21.048   26.222   46.251
| 34> C  -20.361   27.558   45.944
| 35> C  -20.329   28.222   47.341
| 36> C  -20.110   27.022   48.296
| 37> O  -20.473   25.807   47.535
| 38> H  -20.833   25.428   45.533
| 39> H  -19.344   27.382   45.576
| 40> H  -20.898   28.157   45.201
| 41> H  -19.543   28.978   47.434
| 42> H  -21.289   28.710   47.548
| 43> H  -20.733   27.082   49.195
| 44> H  -19.064   26.913   48.597
| 45> C  -23.396   25.070   46.435
| 46> H  -22.715   24.239   46.655
| 47> H  -24.149   25.116   47.232
| 48> O  -22.586   26.394   46.375
| 49> C  -24.135   24.757   45.105
| 50> C  -23.143   24.506   43.963
| 51> C  -22.705   23.049   44.242
| 52> C  -23.996   22.393   44.794
| 53> O  -24.881   23.499   45.217
| 54> H  -24.864   25.545   44.906
| 55> O  -23.870   24.608   42.594
| 56> H  -22.303   25.210   43.960
| 57> H  -22.328   22.541   43.349
| 58> H  -21.910   23.033   44.997
| 59> H  -23.802   21.741   45.651
| 60> H  -24.533   21.824   44.031
| 61> H  -24.717   23.911   42.574
| 62> *
| 63>
| 64>                          ****END OF INPUT****
 Total Charge           Charge          ....    0
 Multiplicity           Mult            ....    1
 Number of Electrons    NEL             ....  102
FINAL SINGLE POINT ENERGY      -652.838276916467
FINAL SINGLE POINT ENERGY      -652.861656468606
FINAL SINGLE POINT ENERGY      -652.865876326207
FINAL SINGLE POINT ENERGY      -652.866590816281
FINAL SINGLE POINT ENERGY      -652.866691741558
FINAL SINGLE POINT ENERGY      -652.866703212123
                    ***********************HURRAY********************

CARTESIAN COORDINATES (ANGSTROEM)
---------------------------------
  C    -21.050241   26.135731   46.254106
  C    -20.436230   27.498552   45.934127
  C    -20.451265   28.184832   47.318863
  C    -20.176119   27.017392   48.292507
  O    -20.472583   25.775646   47.531219
  H    -20.798158   25.320992   45.569476
  H    -19.410521   27.357104   45.575110
  H    -21.007802   28.040121   45.177735
  H    -19.703913   28.979880   47.402346
  H    -21.439464   28.615685   47.502737
  H    -20.808044   27.043672   49.183712
  H    -19.126762   26.953187   48.595147
  C    -23.290091   25.111303   46.444105
  H    -22.670916   24.268852   46.777043
  H    -24.044283   25.294025   47.213000
  O    -22.478967   26.322314   46.340154
  C    -23.997874   24.795213   45.121289
  C    -23.094010   24.487752   43.916936
  C    -22.701800   23.010934   44.185806
  C    -23.981413   22.420222   44.830052
  O    -24.789650   23.571915   45.297909
  H    -24.695465   25.601174   44.876733
  O    -23.834020   24.627231   42.671810
  H    -22.244779   25.161670   43.818497
  H    -22.423450   22.509924   43.255698
  H    -21.849865   22.957507   44.872988
  H    -23.765682   21.767811   45.681669
  H    -24.594850   21.866207   44.112504
  H    -24.719781   24.220152   42.777719

 Multiplicity           Mult            ....    1
 Number of Electrons    NEL             ....  102
 Basis Dimension        Dim             ....  149

ORBITAL ENERGIES
----------------

  NO   OCC          E(Eh)            E(eV)
   0   2.0000     -19.147021      -521.0169
   1   2.0000     -19.146939      -521.0147
   2   2.0000     -19.141137      -520.8568
   3   2.0000     -19.138623      -520.7884
   4   2.0000     -10.281764      -279.7810
   5   2.0000     -10.241809      -278.6938
   6   2.0000     -10.234038      -278.4823
   7   2.0000     -10.233607      -278.4706
   8   2.0000     -10.228896      -278.3424
   9   2.0000     -10.225727      -278.2562
  10   2.0000     -10.191177      -277.3160
  11   2.0000     -10.186332      -277.1842
  12   2.0000     -10.185309      -277.1563
  13   2.0000      -1.055718       -28.7276
  14   2.0000      -1.038576       -28.2611
  15   2.0000      -1.007220       -27.4078
  16   2.0000      -0.995513       -27.0893
  17   2.0000      -0.790240       -21.5035
  18   2.0000      -0.780395       -21.2356
  19   2.0000      -0.767280       -20.8788
  20   2.0000      -0.732987       -19.9456
  21   2.0000      -0.675580       -18.3835
  22   2.0000      -0.605639       -16.4803
  23   2.0000      -0.600234       -16.3332
  24   2.0000      -0.594103       -16.1664
  25   2.0000      -0.584525       -15.9057
  26   2.0000      -0.523291       -14.2395
  27   2.0000      -0.520541       -14.1647
  28   2.0000      -0.499984       -13.6053
  29   2.0000      -0.488370       -13.2892
  30   2.0000      -0.471382       -12.8270
  31   2.0000      -0.459549       -12.5050
  32   2.0000      -0.447824       -12.1859
  33   2.0000      -0.435080       -11.8391
  34   2.0000      -0.427150       -11.6233
  35   2.0000      -0.418210       -11.3801
  36   2.0000      -0.402797       -10.9607
  37   2.0000      -0.395376       -10.7587
  38   2.0000      -0.377564       -10.2741
  39   2.0000      -0.370752       -10.0887
  40   2.0000      -0.357831        -9.7371
  41   2.0000      -0.353585        -9.6215
  42   2.0000      -0.348909        -9.4943
  43   2.0000      -0.334921        -9.1137
  44   2.0000      -0.328637        -8.9427
  45   2.0000      -0.309174        -8.4131
  46   2.0000      -0.300615        -8.1801
  47   2.0000      -0.279220        -7.5980
  48   2.0000      -0.270902        -7.3716
  49   2.0000      -0.257189        -6.9985
  50   2.0000      -0.242201        -6.5906
  51   0.0000       0.064518         1.7556
  52   0.0000       0.069002         1.8776
  53   0.0000       0.092619         2.5203
  54   0.0000       0.099524         2.7082
  55   0.0000       0.102599         2.7918

MULLIKEN ATOMIC CHARGES
-----------------------
   0 C :    0.280844
   1 C :   -0.260855
   2 C :   -0.298436
   3 C :   -0.003107
   4 O :   -0.514673
   5 H :    0.139553
   6 H :    0.145149
   7 H :    0.159454
   8 H :    0.141645
   9 H :    0.165582
  10 H :    0.148989
  11 H :    0.142355
  12 C :   -0.026259
  13 H :    0.146461
  14 H :    0.166764
  15 O :   -0.519649
  16 C :    0.065456
  17 C :    0.082578
  18 C :   -0.303198
  19 C :   -0.033663
  20 O :   -0.524578
  21 H :    0.165609
  22 O :   -0.604132
  23 H :    0.159573
  24 H :    0.164008
  25 H :    0.149037
  26 H :    0.151663
  27 H :    0.148679
  28 H :    0.365151
Sum of atomic charges:   -0.0000000

LOEWDIN ATOMIC CHARGES
----------------------
   0 C :    0.167975
   1 C :   -0.214992
   2 C :   -0.215414
   3 C :   -0.026937
   4 O :   -0.330643
   5 H :    0.092410
   6 H :    0.114188
   7 H :    0.124965
   8 H :    0.113770
   9 H :    0.120778
  10 H :    0.106536
  11 H :    0.102710
  12 C :   -0.042193
  13 H :    0.105598
  14 H :    0.120733
  15 O :   -0.328170
  16 C :    0.010732
  17 C :    0.034449
  18 C :   -0.243032
  19 C :   -0.038923
  20 O :   -0.329901
  21 H :    0.117972
  22 O :   -0.414587
  23 H :    0.117924
  24 H :    0.127511
  25 H :    0.113805
  26 H :    0.106179
  27 H :    0.103435
  28 H :    0.283121

  Mayer bond orders larger than 0.100000
B(  0-C ,  1-C ) :   0.9489 B(  0-C ,  4-O ) :   0.9058 B(  0-C ,  5-H ) :   0.9128
B(  0-C , 15-O ) :   0.8588 B(  1-C ,  2-C ) :   0.9569 B(  1-C ,  6-H ) :   0.9399
B(  1-C ,  7-H ) :   0.9356 B(  2-C ,  3-C ) :   0.9555 B(  2-C ,  8-H ) :   0.9451
B(  2-C ,  9-H ) :   0.9437 B(  3-C ,  4-O ) :   0.8352 B(  3-C , 10-H ) :   0.9357
B(  3-C , 11-H ) :   0.9404 B( 12-C , 13-H ) :   0.9231 B( 12-C , 14-H ) :   0.9322
B( 12-C , 15-O ) :   0.8281 B( 12-C , 16-C ) :   0.8883 B( 16-C , 17-C ) :   0.9122
B( 16-C , 20-O ) :   0.8373 B( 16-C , 21-H ) :   0.9253 B( 17-C , 18-C ) :   0.9121
B( 17-C , 22-O ) :   0.8902 B( 17-C , 23-H ) :   0.9252 B( 18-C , 19-C ) :   0.9411
B( 18-C , 24-H ) :   0.9375 B( 18-C , 25-H ) :   0.9320 B( 19-C , 20-O ) :   0.8435
B( 19-C , 26-H ) :   0.9342 B( 19-C , 27-H ) :   0.9376 B( 22-O , 28-H ) :   0.7938

FINAL SINGLE POINT ENERGY      -652.866704607684

DIPOLE MOMENT
-------------
                                X             Y             Z
Electronic contribution:     -3.92668      -1.26975      -1.09939
Nuclear contribution   :      4.54273       1.21109       1.27680
                        -----------------------------------------
Total Dipole Moment    :      0.61605      -0.05866       0.17741
                        -----------------------------------------
Magnitude (a.u.)       :      0.64376
Magnitude (Debye)      :      1.63631

Rotational constants in cm-1:     0.058394     0.012913     0.012202
Rotational constants in MHz :  1750.595149   387.130568   365.806825

                             ****ORCA TERMINATED NORMALLY****
TOTAL RUN TIME: 0 days 1 hours 18 minutes 43 seconds 33 msec
