                         Program Version 4.2.1 -  RELEASE  -
|  1> # Test redundant internal optimization
|  2> #
|  3> ! RKS B3LYP  Opt TightSCF SmallPrint
|  4>
|  5> %basis
|  6>         Basis "6-31G"
|  7> end
|  8>
|  9> %geom
| 10> Constraints
| 11> { D 4  0  19  14  15.0   C } # D for Dihedral angle
| 12> { D 0  19  14  12  75.0   C } # D for Dihedral angle
| 13> { D 0  4  3  2   C } # D for Dihedral angle
| 14> { D 4  3  2  1   C } # D for Dihedral angle
| 15> { D 3  2  1  0   C } # D for Dihedral angle
| 16> { D 2  1  0  4   C } # D for Dihedral angle
| 17> { D 1  0  4  3   C } # D for Dihedral angle
| 18> { D 14  15  16  17   C } # D for Dihedral angle
| 19> { D 15  16  17  12   C } # D for Dihedral angle
| 20> { D 16  17  12  14   C } # D for Dihedral angle
| 21> { D 17  12  14  15   C } # D for Dihedral angle
| 22> { D 12  14  15  16   C } # D for Dihedral angle
| 23> end
| 24> end
| 25>
| 26>
| 27> #%pal
| 28> #nprocs 8
| 29> #end
| 30>
| 31> * xyz 0 1
| 32> C  -21.048   26.222   46.251
| 33> C  -20.361   27.558   45.944
| 34> C  -20.329   28.222   47.341
| 35> C  -20.110   27.022   48.296
| 36> O  -20.473   25.807   47.535
| 37> H  -20.833   25.428   45.533
| 38> H  -19.344   27.382   45.576
| 39> H  -20.898   28.157   45.201
| 40> H  -19.543   28.978   47.434
| 41> H  -21.289   28.710   47.548
| 42> H  -20.733   27.082   49.195
| 43> H  -19.064   26.913   48.597
| 44> C  -22.628   27.808   48.331
| 45> H  -22.717   27.787   49.429
| 46> C  -22.954   26.442   47.718
| 47> C  -24.500   26.445   47.747
| 48> C  -24.854   27.929   47.475
| 49> O  -23.630   28.711   47.754
| 50> H  -21.648   28.204   48.060
| 51> O  -22.472   26.381   46.366
| 52> H  -22.520   25.606   48.277
| 53> H  -24.941   25.768   47.009
| 54> H  -24.859   26.138   48.738
| 55> H  -25.666   28.292   48.115
| 56> H  -25.120   28.109   46.429
| 57> *
| 58>
| 59>                          ****END OF INPUT****
 Total Charge           Charge          ....    0
 Multiplicity           Mult            ....    1
 Number of Electrons    NEL             ....   86
FINAL SINGLE POINT ENERGY      -538.292359817804
FINAL SINGLE POINT ENERGY      -538.349327725017
FINAL SINGLE POINT ENERGY      -538.380308021868
FINAL SINGLE POINT ENERGY      -538.398815950720
FINAL SINGLE POINT ENERGY      -538.409457275127
FINAL SINGLE POINT ENERGY      -538.415361623578
FINAL SINGLE POINT ENERGY      -538.418523164213
FINAL SINGLE POINT ENERGY      -538.419950060678
FINAL SINGLE POINT ENERGY      -538.420611201486
FINAL SINGLE POINT ENERGY      -538.421069384833
FINAL SINGLE POINT ENERGY      -538.424702618842
FINAL SINGLE POINT ENERGY      -538.424722034889
FINAL SINGLE POINT ENERGY      -538.424729135472
FINAL SINGLE POINT ENERGY      -538.424732273360
FINAL SINGLE POINT ENERGY      -538.424734575727
FINAL SINGLE POINT ENERGY      -538.424737414656
FINAL SINGLE POINT ENERGY      -538.424740267324
FINAL SINGLE POINT ENERGY      -538.424742813134
FINAL SINGLE POINT ENERGY      -538.424744201195
                    ***********************HURRAY********************

CARTESIAN COORDINATES (ANGSTROEM)
---------------------------------
  C    -21.058805   26.294329   46.397364
  C    -20.335243   27.540886   45.875826
  C    -19.951518   28.262981   47.194737
  C    -19.645776   27.089790   48.156324
  O    -20.278179   25.887035   47.543962
  H    -20.984604   25.462669   45.689771
  H    -19.443438   27.216607   45.329029
  H    -20.964072   28.145859   45.219109
  H    -19.082174   28.917303   47.072111
  H    -20.782345   28.884515   47.536008
  H    -20.049164   27.228105   49.164047
  H    -18.575622   26.875920   48.228374
  C    -23.020435   27.766064   48.701202
  H    -23.374558   27.598012   49.730703
  C    -23.138187   26.459146   47.919983
  C    -24.641044   26.428307   47.594717
  C    -24.995535   27.916358   47.372766
  O    -23.899373   28.699770   47.991886
  H    -22.032100   28.211005   48.740396
  O    -22.489856   26.411788   46.608209
  H    -22.804768   25.600353   48.514089
  H    -24.828691   25.806112   46.717876
  H    -25.194625   26.013329   48.445122
  H    -25.943521   28.200238   47.841831
  H    -25.020365   28.184520   46.313561

 Multiplicity           Mult            ....    1
 Number of Electrons    NEL             ....   86
 Basis Dimension        Dim             ....  127

ORBITAL ENERGIES
----------------

  NO   OCC          E(Eh)            E(eV)
   0   2.0000     -19.148790      -521.0651
   1   2.0000     -19.135514      -520.7038
   2   2.0000     -19.128555      -520.5144
   3   2.0000     -10.276971      -279.6506
   4   2.0000     -10.238802      -278.6120
   5   2.0000     -10.232734      -278.4469
   6   2.0000     -10.222065      -278.1565
   7   2.0000     -10.218068      -278.0478
   8   2.0000     -10.189862      -277.2802
   9   2.0000     -10.185318      -277.1566
  10   2.0000     -10.181571      -277.0546
  11   2.0000      -1.050235       -28.5783
  12   2.0000      -1.013267       -27.5724
  13   2.0000      -0.987199       -26.8630
  14   2.0000      -0.791451       -21.5365
  15   2.0000      -0.781111       -21.2551
  16   2.0000      -0.739854       -20.1325
  17   2.0000      -0.722876       -19.6705
  18   2.0000      -0.621055       -16.8998
  19   2.0000      -0.603809       -16.4305
  20   2.0000      -0.594159       -16.1679
  21   2.0000      -0.562118       -15.2960
  22   2.0000      -0.509939       -13.8761
  23   2.0000      -0.504473       -13.7274
  24   2.0000      -0.495040       -13.4707
  25   2.0000      -0.484256       -13.1773
  26   2.0000      -0.451492       -12.2857
  27   2.0000      -0.440723       -11.9927
  28   2.0000      -0.430073       -11.7029
  29   2.0000      -0.415558       -11.3079
  30   2.0000      -0.411145       -11.1878
  31   2.0000      -0.379583       -10.3290
  32   2.0000      -0.370278       -10.0758
  33   2.0000      -0.362277        -9.8581
  34   2.0000      -0.357898        -9.7389
  35   2.0000      -0.356364        -9.6972
  36   2.0000      -0.343670        -9.3517
  37   2.0000      -0.326166        -8.8754
  38   2.0000      -0.307723        -8.3736
  39   2.0000      -0.302186        -8.2229
  40   2.0000      -0.263294        -7.1646
  41   2.0000      -0.247907        -6.7459
  42   2.0000      -0.233006        -6.3404
  43   0.0000       0.077590         2.1113
  44   0.0000       0.092380         2.5138
  45   0.0000       0.096122         2.6156
  46   0.0000       0.106713         2.9038
  47   0.0000       0.110345         3.0026

MULLIKEN ATOMIC CHARGES
-----------------------
   0 C :    0.314466
   1 C :   -0.262822
   2 C :   -0.326861
   3 C :   -0.022065
   4 O :   -0.515446
   5 H :    0.157407
   6 H :    0.148385
   7 H :    0.162199
   8 H :    0.146769
   9 H :    0.177999
  10 H :    0.145179
  11 H :    0.151976
  12 C :   -0.013677
  13 H :    0.127122
  14 C :    0.086061
  15 C :   -0.294522
  16 C :    0.007387
  17 O :   -0.527556
  18 H :    0.141882
  19 O :   -0.543842
  20 H :    0.147093
  21 H :    0.169111
  22 H :    0.139991
  23 H :    0.131972
  24 H :    0.151791
Sum of atomic charges:   -0.0000000

LOEWDIN ATOMIC CHARGES
----------------------
   0 C :    0.182187
   1 C :   -0.221816
   2 C :   -0.225518
   3 C :   -0.036160
   4 O :   -0.322335
   5 H :    0.104296
   6 H :    0.117031
   7 H :    0.127134
   8 H :    0.117084
   9 H :    0.120572
  10 H :    0.100798
  11 H :    0.107665
  12 C :   -0.052604
  13 H :    0.094101
  14 C :    0.045655
  15 C :   -0.222617
  16 C :   -0.025859
  17 O :   -0.335597
  18 H :    0.109791
  19 O :   -0.336320
  20 H :    0.105883
  21 H :    0.131196
  22 H :    0.110799
  23 H :    0.096913
  24 H :    0.107719

  Mayer bond orders larger than 0.100000
B(  0-C ,  1-C ) :   0.9196 B(  0-C ,  4-O ) :   0.9034 B(  0-C ,  5-H ) :   0.9349
B(  0-C , 19-O ) :   0.8632 B(  1-C ,  2-C ) :   0.9547 B(  1-C ,  6-H ) :   0.9349
B(  1-C ,  7-H ) :   0.9354 B(  2-C ,  3-C ) :   0.9518 B(  2-C ,  8-H ) :   0.9433
B(  2-C ,  9-H ) :   0.9255 B(  3-C ,  4-O ) :   0.8358 B(  3-C , 10-H ) :   0.9282
B(  3-C , 11-H ) :   0.9376 B( 12-C , 13-H ) :   0.9092 B( 12-C , 14-C ) :   0.9119
B( 12-C , 17-O ) :   0.8722 B( 12-C , 18-H ) :   0.9164 B( 14-C , 15-C ) :   0.9562
B( 14-C , 19-O ) :   0.8248 B( 14-C , 20-H ) :   0.9202 B( 15-C , 16-C ) :   0.9452
B( 15-C , 21-H ) :   0.9347 B( 15-C , 22-H ) :   0.9434 B( 16-C , 17-O ) :   0.8507
B( 16-C , 23-H ) :   0.9344 B( 16-C , 24-H ) :   0.9378

FINAL SINGLE POINT ENERGY      -538.424744524734

DIPOLE MOMENT
-------------
                                X             Y             Z
Electronic contribution:     -0.45050      -1.96694      -0.68346
Nuclear contribution   :      0.74410       1.95408       0.86549
                        -----------------------------------------
Total Dipole Moment    :      0.29359      -0.01287       0.18203
                        -----------------------------------------
Magnitude (a.u.)       :      0.34568
Magnitude (Debye)      :      0.87866

Rotational constants in cm-1:     0.070369     0.024781     0.023229
Rotational constants in MHz :  2109.617878   742.907289   696.376906

                             ****ORCA TERMINATED NORMALLY****
TOTAL RUN TIME: 0 days 0 hours 34 minutes 3 seconds 109 msec
