                         Program Version 4.2.0 -  RELEASE  -
|  1> # Test redundant internal optimization
|  2> #
|  3> ! RKS B3LYP  Opt TightSCF SmallPrint
|  4>
|  5> %basis
|  6>         Basis "6-31G"
|  7> end
|  8>
|  9> %geom
| 10> Constraints
| 11> { D 4  0  15  12  180.0   C } # D for Dihedral angle
| 12> { D 0  15  12  16  0.0   C } # D for Dihedral angle
| 13> { D 0  4  3  2   C } # D for Dihedral angle
| 14> { D 4  3  2  1   C } # D for Dihedral angle
| 15> { D 3  2  1  0   C } # D for Dihedral angle
| 16> { D 2  1  0  4   C } # D for Dihedral angle
| 17> { D 1  0  4  3   C } # D for Dihedral angle
| 18> { D 16  20  19  18   C } # D for Dihedral angle
| 19> { D 20  19  18  17   C } # D for Dihedral angle
| 20> { D 19  18  17  16   C } # D for Dihedral angle
| 21> { D 18  17  16  20   C } # D for Dihedral angle
| 22> { D 17  16  20  19   C } # D for Dihedral angle
| 23> { D 15  12  16  20   C } # D for Dihedral angle
| 24> end
| 25> end
| 26>
| 27>
| 28> #%pal
| 29> #nprocs 8
| 30> #end
| 31>
| 32> * xyz 0 1
| 33> C  -21.048   26.222   46.251
| 34> C  -20.361   27.558   45.944
| 35> C  -20.329   28.222   47.341
| 36> C  -20.110   27.022   48.296
| 37> O  -20.473   25.807   47.535
| 38> H  -20.833   25.428   45.533
| 39> H  -19.344   27.382   45.576
| 40> H  -20.898   28.157   45.201
| 41> H  -19.543   28.978   47.434
| 42> H  -21.289   28.710   47.548
| 43> H  -20.733   27.082   49.195
| 44> H  -19.064   26.913   48.597
| 45> C  -23.309   26.834   45.072
| 46> H  -24.051   26.075   44.796
| 47> H  -23.832   27.786   45.226
| 48> O  -22.586   26.394   46.375
| 49> C  -22.333   27.019   43.877
| 50> C  -21.679   25.690   43.481
| 51> C  -22.805   25.020   42.658
| 52> C  -23.476   26.218   41.940
| 53> O  -23.066   27.433   42.676
| 54> H  -21.627   27.817   44.112
| 55> O  -20.432   25.953   42.594
| 56> H  -21.368   25.089   44.343
| 57> H  -22.428   24.270   41.955
| 58> H  -23.517   24.523   43.328
| 59> H  -24.568   26.149   41.941
| 60> H  -23.130   26.333   40.909
| 61> H  -20.720   26.554   41.722
| 62> *
| 63>
| 64>                          ****END OF INPUT****
 Total Charge           Charge          ....    0
 Multiplicity           Mult            ....    1
 Number of Electrons    NEL             ....  102
FINAL SINGLE POINT ENERGY      -652.792994283724
FINAL SINGLE POINT ENERGY      -652.827684902418
FINAL SINGLE POINT ENERGY      -652.844719830866
FINAL SINGLE POINT ENERGY      -652.847174831272
FINAL SINGLE POINT ENERGY      -652.847613551421
FINAL SINGLE POINT ENERGY      -652.847694028038
FINAL SINGLE POINT ENERGY      -652.847699884423
FINAL SINGLE POINT ENERGY      -652.847701804504
                    ***********************HURRAY********************

CARTESIAN COORDINATES (ANGSTROEM)
---------------------------------
  C    -20.899510   26.217378   46.379824
  C    -20.042940   27.463560   46.154058
  C    -20.281346   28.262763   47.462806
  C    -20.405095   27.145526   48.519768
  O    -20.688294   25.901451   47.762488
  H    -20.601704   25.334741   45.809258
  H    -18.992800   27.157939   46.072791
  H    -20.297068   28.034029   45.259675
  H    -19.466050   28.958643   47.681103
  H    -21.213561   28.830102   47.388186
  H    -21.218259   27.313226   49.230373
  H    -19.473378   26.972183   49.067289
  C    -23.040228   26.831946   45.025313
  H    -23.822818   26.073705   44.898992
  H    -23.540540   27.786144   45.221595
  O    -22.329182   26.468758   46.253404
  C    -22.299154   26.989025   43.684836
  C    -21.631554   25.732506   43.100985
  C    -22.852446   24.969508   42.514860
  C    -23.767299   26.114085   42.010021
  O    -23.313216   27.352164   42.688676
  H    -21.592773   27.821600   43.712212
  O    -20.669482   26.098130   42.073652
  H    -21.069260   25.139367   43.818739
  H    -22.535561   24.293024   41.717087
  H    -23.341254   24.378694   43.295801
  H    -24.823636   25.949113   42.242432
  H    -23.669961   26.285395   40.932974
  H    -21.073629   26.763294   41.476802

 Multiplicity           Mult            ....    1
 Number of Electrons    NEL             ....  102
 Basis Dimension        Dim             ....  149

ORBITAL ENERGIES
----------------

  NO   OCC          E(Eh)            E(eV)
   0   2.0000     -19.154251      -521.2137
   1   2.0000     -19.146059      -520.9908
   2   2.0000     -19.138776      -520.7926
   3   2.0000     -19.135454      -520.7022
   4   2.0000     -10.282159      -279.7918
   5   2.0000     -10.249490      -278.9028
   6   2.0000     -10.244583      -278.7693
   7   2.0000     -10.239384      -278.6278
   8   2.0000     -10.233519      -278.4682
   9   2.0000     -10.223641      -278.1994
  10   2.0000     -10.196331      -277.4563
  11   2.0000     -10.187514      -277.2164
  12   2.0000     -10.186671      -277.1934
  13   2.0000      -1.050881       -28.5959
  14   2.0000      -1.045630       -28.4530
  15   2.0000      -1.015035       -27.6205
  16   2.0000      -0.986733       -26.8504
  17   2.0000      -0.787092       -21.4179
  18   2.0000      -0.785509       -21.3748
  19   2.0000      -0.772967       -21.0335
  20   2.0000      -0.738355       -20.0917
  21   2.0000      -0.680682       -18.5223
  22   2.0000      -0.612455       -16.6658
  23   2.0000      -0.607009       -16.5176
  24   2.0000      -0.599181       -16.3045
  25   2.0000      -0.579005       -15.7555
  26   2.0000      -0.531408       -14.4604
  27   2.0000      -0.513776       -13.9806
  28   2.0000      -0.503739       -13.7074
  29   2.0000      -0.484230       -13.1766
  30   2.0000      -0.480331       -13.0705
  31   2.0000      -0.463039       -12.5999
  32   2.0000      -0.446985       -12.1631
  33   2.0000      -0.442782       -12.0487
  34   2.0000      -0.427465       -11.6319
  35   2.0000      -0.419945       -11.4273
  36   2.0000      -0.403460       -10.9787
  37   2.0000      -0.401242       -10.9183
  38   2.0000      -0.381875       -10.3914
  39   2.0000      -0.376814       -10.2536
  40   2.0000      -0.365044        -9.9334
  41   2.0000      -0.356102        -9.6900
  42   2.0000      -0.353577        -9.6213
  43   2.0000      -0.339470        -9.2374
  44   2.0000      -0.317320        -8.6347
  45   2.0000      -0.312957        -8.5160
  46   2.0000      -0.301990        -8.2176
  47   2.0000      -0.278783        -7.5861
  48   2.0000      -0.257053        -6.9948
  49   2.0000      -0.252955        -6.8832
  50   2.0000      -0.246843        -6.7169
  51   0.0000       0.056898         1.5483
  52   0.0000       0.069598         1.8939
  53   0.0000       0.081208         2.2098
  54   0.0000       0.085877         2.3368
  55   0.0000       0.096846         2.6353

MULLIKEN ATOMIC CHARGES
-----------------------
   0 C :    0.304585
   1 C :   -0.280402
   2 C :   -0.298573
   3 C :   -0.001090
   4 O :   -0.500690
   5 H :    0.144542
   6 H :    0.150703
   7 H :    0.144885
   8 H :    0.142646
   9 H :    0.158709
  10 H :    0.154212
  11 H :    0.143265
  12 C :    0.011942
  13 H :    0.142305
  14 H :    0.157768
  15 O :   -0.532260
  16 C :    0.017575
  17 C :    0.074116
  18 C :   -0.299629
  19 C :   -0.037011
  20 O :   -0.523126
  21 H :    0.167603
  22 O :   -0.598832
  23 H :    0.165189
  24 H :    0.166834
  25 H :    0.155610
  26 H :    0.153997
  27 H :    0.150578
  28 H :    0.364552
Sum of atomic charges:   -0.0000000

LOEWDIN ATOMIC CHARGES
----------------------
   0 C :    0.185161
   1 C :   -0.231725
   2 C :   -0.216393
   3 C :   -0.025614
   4 O :   -0.300979
   5 H :    0.094199
   6 H :    0.117908
   7 H :    0.112558
   8 H :    0.114775
   9 H :    0.116822
  10 H :    0.109420
  11 H :    0.102660
  12 C :   -0.040350
  13 H :    0.104472
  14 H :    0.114053
  15 O :   -0.345388
  16 C :    0.000849
  17 C :    0.032403
  18 C :   -0.240510
  19 C :   -0.039991
  20 O :   -0.324136
  21 H :    0.111594
  22 O :   -0.412910
  23 H :    0.118024
  24 H :    0.128718
  25 H :    0.119261
  26 H :    0.107706
  27 H :    0.104231
  28 H :    0.283182

  Mayer bond orders larger than 0.100000
B(  0-C ,  1-C ) :   0.9269 B(  0-C ,  4-O ) :   0.9312 B(  0-C ,  5-H ) :   0.9099
B(  0-C , 15-O ) :   0.8324 B(  1-C ,  2-C ) :   0.9492 B(  1-C ,  6-H ) :   0.9325
B(  1-C ,  7-H ) :   0.9255 B(  2-C ,  3-C ) :   0.9550 B(  2-C ,  8-H ) :   0.9446
B(  2-C ,  9-H ) :   0.9452 B(  3-C ,  4-O ) :   0.8339 B(  3-C , 10-H ) :   0.9348
B(  3-C , 11-H ) :   0.9393 B( 12-C , 13-H ) :   0.9278 B( 12-C , 14-H ) :   0.9222
B( 12-C , 15-O ) :   0.8411 B( 12-C , 16-C ) :   0.8867 B( 16-C , 17-C ) :   0.8994
B( 16-C , 20-O ) :   0.8237 B( 16-C , 21-H ) :   0.9141 B( 17-C , 18-C ) :   0.9125
B( 17-C , 22-O ) :   0.8936 B( 17-C , 23-H ) :   0.9203 B( 18-C , 19-C ) :   0.9411
B( 18-C , 24-H ) :   0.9361 B( 18-C , 25-H ) :   0.9329 B( 19-C , 20-O ) :   0.8390
B( 19-C , 26-H ) :   0.9341 B( 19-C , 27-H ) :   0.9372 B( 22-O , 28-H ) :   0.7945

FINAL SINGLE POINT ENERGY      -652.847701931437

DIPOLE MOMENT
-------------
                                X             Y             Z
Electronic contribution:     -0.64602      -1.31039      -0.40852
Nuclear contribution   :      0.57719       1.69861      -0.17589
                        -----------------------------------------
Total Dipole Moment    :     -0.06883       0.38823      -0.58441
                        -----------------------------------------
Magnitude (a.u.)       :      0.70498
Magnitude (Debye)      :      1.79191

Rotational constants in cm-1:     0.058326     0.013377     0.012876
Rotational constants in MHz :  1748.583071   401.034206   385.999241

                             ****ORCA TERMINATED NORMALLY****
TOTAL RUN TIME: 0 days 0 hours 26 minutes 9 seconds 488 msec
