                         Program Version 4.2.0 -  RELEASE  -
|  1> # Test redundant internal optimization
|  2> #
|  3> ! RKS B3LYP  Opt TightSCF SmallPrint
|  4>
|  5> %basis
|  6>         Basis "6-31G"
|  7> end
|  8>
|  9> %geom
| 10> Constraints
| 11> { D 4  0  15  12  285.0   C } # D for Dihedral angle
| 12> { D 0  15  12  16  120.0   C } # D for Dihedral angle
| 13> { D 0  4  3  2   C } # D for Dihedral angle
| 14> { D 4  3  2  1   C } # D for Dihedral angle
| 15> { D 3  2  1  0   C } # D for Dihedral angle
| 16> { D 2  1  0  4   C } # D for Dihedral angle
| 17> { D 1  0  4  3   C } # D for Dihedral angle
| 18> { D 16  20  19  18   C } # D for Dihedral angle
| 19> { D 20  19  18  17   C } # D for Dihedral angle
| 20> { D 19  18  17  16   C } # D for Dihedral angle
| 21> { D 18  17  16  20   C } # D for Dihedral angle
| 22> { D 17  16  20  19   C } # D for Dihedral angle
| 23> { D 15  12  16  20   C } # D for Dihedral angle
| 24> end
| 25> end
| 26>
| 27>
| 28> #%pal
| 29> #nprocs 8
| 30> #end
| 31>
| 32> * xyz 0 1
| 33> C  -21.048   26.222   46.251
| 34> C  -20.361   27.558   45.944
| 35> C  -20.329   28.222   47.341
| 36> C  -20.110   27.022   48.296
| 37> O  -20.473   25.807   47.535
| 38> H  -20.833   25.428   45.533
| 39> H  -19.344   27.382   45.576
| 40> H  -20.898   28.157   45.201
| 41> H  -19.543   28.978   47.434
| 42> H  -21.289   28.710   47.548
| 43> H  -20.733   27.082   49.195
| 44> H  -19.064   26.913   48.597
| 45> C  -23.396   25.070   46.435
| 46> H  -24.090   25.031   45.586
| 47> H  -22.723   24.205   46.368
| 48> O  -22.586   26.394   46.375
| 49> C  -24.219   24.928   47.746
| 50> C  -24.911   23.563   47.823
| 51> C  -23.749   22.646   48.272
| 52> C  -22.924   23.559   49.213
| 53> O  -23.331   24.949   48.913
| 54> H  -24.892   25.783   47.840
| 55> H  -25.702   23.584   48.582
| 56> O  -25.540   23.121   46.474
| 57> H  -24.095   21.736   48.771
| 58> H  -23.150   22.345   47.404
| 59> H  -21.844   23.459   49.054
| 60> H  -23.145   23.379   50.269
| 61> H  -24.767   23.091   45.698
| 62> *
| 63>
| 64>                          ****END OF INPUT****
 Total Charge           Charge          ....    0
 Multiplicity           Mult            ....    1
 Number of Electrons    NEL             ....  102
FINAL SINGLE POINT ENERGY      -652.831606762092
FINAL SINGLE POINT ENERGY      -652.856298589401
FINAL SINGLE POINT ENERGY      -652.861144748960
FINAL SINGLE POINT ENERGY      -652.861949881902
FINAL SINGLE POINT ENERGY      -652.862065937332
FINAL SINGLE POINT ENERGY      -652.862095069189
FINAL SINGLE POINT ENERGY      -652.862099934629
                    ***********************HURRAY********************

CARTESIAN COORDINATES (ANGSTROEM)
---------------------------------
  C    -21.030858   26.158823   46.200345
  C    -20.481742   27.569613   45.992047
  C    -20.509066   28.137032   47.430079
  C    -20.170092   26.903582   48.297120
  O    -20.422269   25.721600   47.434579
  H    -20.773776   25.412459   45.442260
  H    -19.454704   27.507608   45.613447
  H    -21.087023   28.144584   45.288505
  H    -19.796580   28.955370   47.572167
  H    -21.513467   28.502256   47.660378
  H    -20.803523   26.816271   49.181570
  H    -19.115247   26.861124   48.585316
  C    -23.241854   25.077939   46.334422
  H    -23.944225   25.107238   45.492526
  H    -22.577086   24.211003   46.220064
  O    -22.464639   26.305576   46.312237
  C    -24.029160   24.996303   47.646536
  C    -24.835982   23.695105   47.788601
  C    -23.754375   22.699672   48.307003
  C    -22.872842   23.596929   49.204766
  O    -23.162370   25.000663   48.818049
  H    -24.654249   25.889556   47.728407
  H    -25.618779   23.831030   48.537987
  O    -25.544694   23.267273   46.598689
  H    -24.193949   21.855972   48.845607
  H    -23.185913   22.298992   47.457480
  H    -21.802108   23.418309   49.071623
  H    -23.126571   23.497462   50.264730
  H    -24.921857   22.884654   45.947460

 Multiplicity           Mult            ....    1
 Number of Electrons    NEL             ....  102
 Basis Dimension        Dim             ....  149

ORBITAL ENERGIES
----------------

  NO   OCC          E(Eh)            E(eV)
   0   2.0000     -19.147997      -521.0435
   1   2.0000     -19.138132      -520.7751
   2   2.0000     -19.133010      -520.6357
   3   2.0000     -19.130636      -520.5711
   4   2.0000     -10.273549      -279.5575
   5   2.0000     -10.242247      -278.7057
   6   2.0000     -10.227531      -278.3053
   7   2.0000     -10.226365      -278.2735
   8   2.0000     -10.224541      -278.2239
   9   2.0000     -10.213531      -277.9243
  10   2.0000     -10.192669      -277.3566
  11   2.0000     -10.178070      -276.9594
  12   2.0000     -10.175961      -276.9020
  13   2.0000      -1.047854       -28.5136
  14   2.0000      -1.030393       -28.0384
  15   2.0000      -1.011715       -27.5302
  16   2.0000      -0.986989       -26.8573
  17   2.0000      -0.783036       -21.3075
  18   2.0000      -0.777618       -21.1601
  19   2.0000      -0.760815       -20.7028
  20   2.0000      -0.723844       -19.6968
  21   2.0000      -0.675067       -18.3695
  22   2.0000      -0.608076       -16.5466
  23   2.0000      -0.589844       -16.0505
  24   2.0000      -0.584832       -15.9141
  25   2.0000      -0.576214       -15.6796
  26   2.0000      -0.525865       -14.3095
  27   2.0000      -0.509015       -13.8510
  28   2.0000      -0.491295       -13.3688
  29   2.0000      -0.481422       -13.1002
  30   2.0000      -0.466035       -12.6814
  31   2.0000      -0.452860       -12.3230
  32   2.0000      -0.441213       -12.0060
  33   2.0000      -0.428730       -11.6663
  34   2.0000      -0.419313       -11.4101
  35   2.0000      -0.416281       -11.3276
  36   2.0000      -0.399341       -10.8666
  37   2.0000      -0.393100       -10.6968
  38   2.0000      -0.377589       -10.2747
  39   2.0000      -0.367370        -9.9966
  40   2.0000      -0.348213        -9.4754
  41   2.0000      -0.345596        -9.4042
  42   2.0000      -0.338622        -9.2144
  43   2.0000      -0.328165        -8.9298
  44   2.0000      -0.320761        -8.7284
  45   2.0000      -0.311814        -8.4849
  46   2.0000      -0.294173        -8.0048
  47   2.0000      -0.269890        -7.3441
  48   2.0000      -0.263674        -7.1749
  49   2.0000      -0.247443        -6.7333
  50   2.0000      -0.230575        -6.2743
  51   0.0000       0.051908         1.4125
  52   0.0000       0.079884         2.1738
  53   0.0000       0.092353         2.5131
  54   0.0000       0.103025         2.8034
  55   0.0000       0.108706         2.9580

MULLIKEN ATOMIC CHARGES
-----------------------
   0 C :    0.283427
   1 C :   -0.260345
   2 C :   -0.297679
   3 C :   -0.001361
   4 O :   -0.510168
   5 H :    0.136002
   6 H :    0.139947
   7 H :    0.153956
   8 H :    0.135608
   9 H :    0.166516
  10 H :    0.166417
  11 H :    0.133303
  12 C :   -0.016146
  13 H :    0.142933
  14 H :    0.122637
  15 O :   -0.513217
  16 C :    0.104098
  17 C :    0.077599
  18 C :   -0.319868
  19 C :   -0.015529
  20 O :   -0.505678
  21 H :    0.161373
  22 H :    0.168067
  23 O :   -0.600541
  24 H :    0.154691
  25 H :    0.130774
  26 H :    0.162321
  27 H :    0.146300
  28 H :    0.354566
Sum of atomic charges:    0.0000000

LOEWDIN ATOMIC CHARGES
----------------------
   0 C :    0.172645
   1 C :   -0.215757
   2 C :   -0.215012
   3 C :   -0.027227
   4 O :   -0.327451
   5 H :    0.093210
   6 H :    0.111111
   7 H :    0.122381
   8 H :    0.110672
   9 H :    0.121368
  10 H :    0.115568
  11 H :    0.098218
  12 C :   -0.050869
  13 H :    0.106005
  14 H :    0.093782
  15 O :   -0.320313
  16 C :    0.018749
  17 C :    0.032359
  18 C :   -0.240325
  19 C :   -0.031871
  20 O :   -0.313459
  21 H :    0.118221
  22 H :    0.119273
  23 O :   -0.408702
  24 H :    0.121518
  25 H :    0.102937
  26 H :    0.111983
  27 H :    0.104168
  28 H :    0.276818

  Mayer bond orders larger than 0.100000
B(  0-C ,  1-C ) :   0.9515 B(  0-C ,  4-O ) :   0.9138 B(  0-C ,  5-H ) :   0.9202
B(  0-C , 15-O ) :   0.8631 B(  1-C ,  2-C ) :   0.9580 B(  1-C ,  6-H ) :   0.9412
B(  1-C ,  7-H ) :   0.9368 B(  2-C ,  3-C ) :   0.9573 B(  2-C ,  8-H ) :   0.9456
B(  2-C ,  9-H ) :   0.9430 B(  3-C ,  4-O ) :   0.8303 B(  3-C , 10-H ) :   0.9288
B(  3-C , 11-H ) :   0.9405 B( 12-C , 13-H ) :   0.9172 B( 12-C , 14-H ) :   0.9199
B( 12-C , 15-O ) :   0.8467 B( 12-C , 16-C ) :   0.8971 B( 16-C , 17-C ) :   0.8703
B( 16-C , 20-O ) :   0.8751 B( 16-C , 21-H ) :   0.9317 B( 17-C , 18-C ) :   0.9250
B( 17-C , 22-H ) :   0.9326 B( 17-C , 23-O ) :   0.8947 B( 18-C , 19-C ) :   0.9397
B( 18-C , 24-H ) :   0.9422 B( 18-C , 25-H ) :   0.9405 B( 19-C , 20-O ) :   0.8449
B( 19-C , 26-H ) :   0.9256 B( 19-C , 27-H ) :   0.9374 B( 23-O , 28-H ) :   0.7989

FINAL SINGLE POINT ENERGY      -652.862101256731

DIPOLE MOMENT
-------------
                                X             Y             Z
Electronic contribution:     -2.86722      -0.83939      -0.66684
Nuclear contribution   :      3.44649       0.39201       0.41164
                        -----------------------------------------
Total Dipole Moment    :      0.57927      -0.44738      -0.25519
                        -----------------------------------------
Magnitude (a.u.)       :      0.77513
Magnitude (Debye)      :      1.97023

Rotational constants in cm-1:     0.055127     0.015392     0.013499
Rotational constants in MHz :  1652.663537   461.426225   404.697163

                             ****ORCA TERMINATED NORMALLY****
TOTAL RUN TIME: 0 days 0 hours 26 minutes 25 seconds 761 msec
