                         Program Version 4.2.0 -  RELEASE  -
|  1> # Test redundant internal optimization
|  2> #
|  3> ! RKS B3LYP  Opt TightSCF SmallPrint
|  4>
|  5> %basis
|  6>         Basis "6-31G"
|  7> end
|  8>
|  9> %geom
| 10> Constraints
| 11> { D 4  0  15  12  195.0   C } # D for Dihedral angle
| 12> { D 0  15  12  16  210.0   C } # D for Dihedral angle
| 13> { D 0  4  3  2   C } # D for Dihedral angle
| 14> { D 4  3  2  1   C } # D for Dihedral angle
| 15> { D 3  2  1  0   C } # D for Dihedral angle
| 16> { D 2  1  0  4   C } # D for Dihedral angle
| 17> { D 1  0  4  3   C } # D for Dihedral angle
| 18> { D 16  20  19  18   C } # D for Dihedral angle
| 19> { D 20  19  18  17   C } # D for Dihedral angle
| 20> { D 19  18  17  16   C } # D for Dihedral angle
| 21> { D 18  17  16  20   C } # D for Dihedral angle
| 22> { D 17  16  20  19   C } # D for Dihedral angle
| 23> { D 15  12  16  20   C } # D for Dihedral angle
| 24> end
| 25> end
| 26>
| 27>
| 28> #%pal
| 29> #nprocs 8
| 30> #end
| 31>
| 32> * xyz 0 1
| 33> C  -21.048   26.222   46.251
| 34> C  -20.361   27.558   45.944
| 35> C  -20.329   28.222   47.341
| 36> C  -20.110   27.022   48.296
| 37> O  -20.473   25.807   47.535
| 38> H  -20.833   25.428   45.533
| 39> H  -19.344   27.382   45.576
| 40> H  -20.898   28.157   45.201
| 41> H  -19.543   28.978   47.434
| 42> H  -21.289   28.710   47.548
| 43> H  -20.733   27.082   49.195
| 44> H  -19.064   26.913   48.597
| 45> C  -23.353   26.472   45.026
| 46> H  -22.697   26.908   44.262
| 47> H  -23.647   25.469   44.693
| 48> O  -22.586   26.394   46.375
| 49> C  -24.640   27.337   45.117
| 50> C  -25.569   26.839   46.231
| 51> C  -24.895   27.435   47.490
| 52> C  -24.347   28.794   46.986
| 53> O  -24.309   28.711   45.509
| 54> H  -25.106   27.390   44.131
| 55> O  -26.992   27.429   46.041
| 56> H  -25.649   25.747   46.269
| 57> H  -25.588   27.551   48.329
| 58> H  -24.074   26.787   47.821
| 59> H  -23.340   29.006   47.360
| 60> H  -25.003   29.630   47.244
| 61> H  -26.937   28.522   46.000
| 62> *
| 63>
| 64>                          ****END OF INPUT****
 Total Charge           Charge          ....    0
 Multiplicity           Mult            ....    1
 Number of Electrons    NEL             ....  102
FINAL SINGLE POINT ENERGY      -652.835088725702
FINAL SINGLE POINT ENERGY      -652.857522213304
FINAL SINGLE POINT ENERGY      -652.861052235288
FINAL SINGLE POINT ENERGY      -652.862386689014
FINAL SINGLE POINT ENERGY      -652.862523109709
FINAL SINGLE POINT ENERGY      -652.862540835828
                    ***********************HURRAY********************

CARTESIAN COORDINATES (ANGSTROEM)
---------------------------------
  C    -21.077917   26.230787   46.183508
  C    -20.372601   27.551340   45.883996
  C    -20.337388   28.220007   47.279217
  C    -20.142369   27.021471   48.230628
  O    -20.528761   25.819585   47.441496
  H    -20.884314   25.426082   45.466210
  H    -19.359607   27.343015   45.520683
  H    -20.891409   28.162093   45.140227
  H    -19.535414   28.958948   47.368837
  H    -21.289396   28.722046   47.469583
  H    -20.770417   27.068053   49.123448
  H    -19.099590   26.876611   48.526788
  C    -23.261733   26.474063   45.091864
  H    -22.638276   26.933224   44.312685
  H    -23.539925   25.463198   44.757777
  O    -22.520946   26.395297   46.342700
  C    -24.515388   27.331775   45.238756
  C    -25.558674   26.867768   46.265804
  C    -25.002554   27.479176   47.577938
  C    -24.387540   28.818829   47.106554
  O    -24.204953   28.705477   45.638008
  H    -24.980494   27.392280   44.246912
  O    -26.876983   27.383704   45.924882
  H    -25.678708   25.784976   46.311470
  H    -25.799673   27.610715   48.314636
  H    -24.228043   26.823194   47.981124
  H    -23.419690   29.019536   47.571534
  H    -25.048170   29.675091   47.279036
  H    -26.806067   28.343658   45.738700

 Multiplicity           Mult            ....    1
 Number of Electrons    NEL             ....  102
 Basis Dimension        Dim             ....  149

ORBITAL ENERGIES
----------------

  NO   OCC          E(Eh)            E(eV)
   0   2.0000     -19.146415      -521.0004
   1   2.0000     -19.144582      -520.9506
   2   2.0000     -19.141934      -520.8785
   3   2.0000     -19.134400      -520.6735
   4   2.0000     -10.283201      -279.8201
   5   2.0000     -10.236388      -278.5463
   6   2.0000     -10.236380      -278.5461
   7   2.0000     -10.236102      -278.5385
   8   2.0000     -10.228412      -278.3292
   9   2.0000     -10.225771      -278.2574
  10   2.0000     -10.189204      -277.2623
  11   2.0000     -10.188546      -277.2444
  12   2.0000     -10.176154      -276.9072
  13   2.0000      -1.057425       -28.7740
  14   2.0000      -1.033844       -28.1323
  15   2.0000      -1.004782       -27.3415
  16   2.0000      -0.996421       -27.1140
  17   2.0000      -0.789649       -21.4874
  18   2.0000      -0.778315       -21.1790
  19   2.0000      -0.765507       -20.8305
  20   2.0000      -0.734352       -19.9827
  21   2.0000      -0.676781       -18.4161
  22   2.0000      -0.604816       -16.4579
  23   2.0000      -0.597614       -16.2619
  24   2.0000      -0.596508       -16.2318
  25   2.0000      -0.578508       -15.7420
  26   2.0000      -0.527487       -14.3536
  27   2.0000      -0.505252       -13.7486
  28   2.0000      -0.497881       -13.5480
  29   2.0000      -0.488586       -13.2951
  30   2.0000      -0.479327       -13.0431
  31   2.0000      -0.459286       -12.4978
  32   2.0000      -0.449467       -12.2306
  33   2.0000      -0.445230       -12.1153
  34   2.0000      -0.417745       -11.3674
  35   2.0000      -0.410665       -11.1748
  36   2.0000      -0.407020       -11.0756
  37   2.0000      -0.390427       -10.6241
  38   2.0000      -0.375894       -10.2286
  39   2.0000      -0.370994       -10.0953
  40   2.0000      -0.358891        -9.7659
  41   2.0000      -0.358326        -9.7506
  42   2.0000      -0.353856        -9.6289
  43   2.0000      -0.329462        -8.9651
  44   2.0000      -0.316946        -8.6245
  45   2.0000      -0.311180        -8.4676
  46   2.0000      -0.301479        -8.2037
  47   2.0000      -0.269333        -7.3289
  48   2.0000      -0.264638        -7.2012
  49   2.0000      -0.257105        -6.9962
  50   2.0000      -0.244136        -6.6433
  51   0.0000       0.061442         1.6719
  52   0.0000       0.082908         2.2560
  53   0.0000       0.091523         2.4905
  54   0.0000       0.099024         2.6946
  55   0.0000       0.105237         2.8636

MULLIKEN ATOMIC CHARGES
-----------------------
   0 C :    0.302066
   1 C :   -0.273562
   2 C :   -0.312218
   3 C :   -0.002953
   4 O :   -0.504730
   5 H :    0.141872
   6 H :    0.145968
   7 H :    0.160099
   8 H :    0.144835
   9 H :    0.170356
  10 H :    0.150461
  11 H :    0.144480
  12 C :   -0.004640
  13 H :    0.138134
  14 H :    0.133768
  15 O :   -0.517109
  16 C :    0.067397
  17 C :    0.075241
  18 C :   -0.296371
  19 C :   -0.026157
  20 O :   -0.529033
  21 H :    0.155295
  22 O :   -0.601877
  23 H :    0.157474
  24 H :    0.150678
  25 H :    0.186812
  26 H :    0.145925
  27 H :    0.136434
  28 H :    0.361354
Sum of atomic charges:   -0.0000000

LOEWDIN ATOMIC CHARGES
----------------------
   0 C :    0.180436
   1 C :   -0.229601
   2 C :   -0.216907
   3 C :   -0.025479
   4 O :   -0.303988
   5 H :    0.096967
   6 H :    0.114944
   7 H :    0.122296
   8 H :    0.116056
   9 H :    0.116832
  10 H :    0.107576
  11 H :    0.103892
  12 C :   -0.039843
  13 H :    0.100510
  14 H :    0.099129
  15 O :   -0.337829
  16 C :    0.013879
  17 C :    0.038639
  18 C :   -0.243674
  19 C :   -0.032631
  20 O :   -0.332564
  21 H :    0.115827
  22 O :   -0.416707
  23 H :    0.118901
  24 H :    0.119655
  25 H :    0.136075
  26 H :    0.100424
  27 H :    0.096228
  28 H :    0.280958

  Mayer bond orders larger than 0.100000
B(  0-C ,  1-C ) :   0.9297 B(  0-C ,  4-O ) :   0.9397 B(  0-C ,  5-H ) :   0.9211
B(  0-C , 15-O ) :   0.8227 B(  1-C ,  2-C ) :   0.9523 B(  1-C ,  6-H ) :   0.9332
B(  1-C ,  7-H ) :   0.9291 B(  2-C ,  3-C ) :   0.9560 B(  2-C ,  8-H ) :   0.9445
B(  2-C ,  9-H ) :   0.9306 B(  3-C ,  4-O ) :   0.8349 B(  3-C , 10-H ) :   0.9349
B(  3-C , 11-H ) :   0.9394 B( 12-C , 13-H ) :   0.9134 B( 12-C , 14-H ) :   0.9116
B( 12-C , 15-O ) :   0.8491 B( 12-C , 16-C ) :   0.9044 B( 16-C , 17-C ) :   0.9106
B( 16-C , 20-O ) :   0.8726 B( 16-C , 21-H ) :   0.9207 B( 17-C , 18-C ) :   0.9262
B( 17-C , 22-O ) :   0.8901 B( 17-C , 23-H ) :   0.9340 B( 18-C , 19-C ) :   0.9470
B( 18-C , 24-H ) :   0.9366 B( 18-C , 25-H ) :   0.9155 B( 19-C , 20-O ) :   0.8436
B( 19-C , 26-H ) :   0.9214 B( 19-C , 27-H ) :   0.9373 B( 22-O , 28-H ) :   0.7969

FINAL SINGLE POINT ENERGY      -652.862541357816

DIPOLE MOMENT
-------------
                                X             Y             Z
Electronic contribution:     -3.06900      -2.61888      -1.60108
Nuclear contribution   :      3.90135       3.25376       1.45081
                        -----------------------------------------
Total Dipole Moment    :      0.83235       0.63488      -0.15027
                        -----------------------------------------
Magnitude (a.u.)       :      1.05757
Magnitude (Debye)      :      2.68812

Rotational constants in cm-1:     0.055138     0.014975     0.014404
Rotational constants in MHz :  1652.998718   448.935726   431.832978

                             ****ORCA TERMINATED NORMALLY****
TOTAL RUN TIME: 0 days 0 hours 42 minutes 53 seconds 439 msec
