                         Program Version 4.2.0 -  RELEASE  -
|  1> # Test redundant internal optimization
|  2> #
|  3> ! RKS B3LYP  Opt TightSCF SmallPrint
|  4>
|  5> %basis
|  6>         Basis "6-31G"
|  7> end
|  8>
|  9> %geom
| 10> Constraints
| 11> { D 4  0  15  12  75.0   C } # D for Dihedral angle
| 12> { D 0  15  12  16  165.0   C } # D for Dihedral angle
| 13> { D 0  4  3  2   C } # D for Dihedral angle
| 14> { D 4  3  2  1   C } # D for Dihedral angle
| 15> { D 3  2  1  0   C } # D for Dihedral angle
| 16> { D 2  1  0  4   C } # D for Dihedral angle
| 17> { D 1  0  4  3   C } # D for Dihedral angle
| 18> { D 16  20  19  18   C } # D for Dihedral angle
| 19> { D 20  19  18  17   C } # D for Dihedral angle
| 20> { D 19  18  17  16   C } # D for Dihedral angle
| 21> { D 18  17  16  20   C } # D for Dihedral angle
| 22> { D 17  16  20  19   C } # D for Dihedral angle
| 23> { D 15  12  16  20   C } # D for Dihedral angle
| 24> end
| 25> end
| 26>
| 27>
| 28> #%pal
| 29> #nprocs 8
| 30> #end
| 31>
| 32> * xyz 0 1
| 33> C  -21.048   26.222   46.251
| 34> C  -20.361   27.558   45.944
| 35> C  -20.329   28.222   47.341
| 36> C  -20.110   27.022   48.296
| 37> O  -20.473   25.807   47.535
| 38> H  -20.833   25.428   45.533
| 39> H  -19.344   27.382   45.576
| 40> H  -20.898   28.157   45.201
| 41> H  -19.543   28.978   47.434
| 42> H  -21.289   28.710   47.548
| 43> H  -20.733   27.082   49.195
| 44> H  -19.064   26.913   48.597
| 45> C  -23.049   27.675   47.122
| 46> H  -22.879   27.547   48.198
| 47> H  -22.473   28.546   46.784
| 48> O  -22.586   26.394   46.375
| 49> C  -24.555   27.989   46.899
| 50> C  -24.887   28.091   45.406
| 51> C  -24.980   26.600   45.002
| 52> C  -25.587   25.932   46.261
| 53> O  -25.386   26.880   47.379
| 54> H  -24.827   28.869   47.484
| 55> H  -25.853   28.589   45.269
| 56> O  -23.815   28.869   44.594
| 57> H  -25.591   26.439   44.108
| 58> H  -23.978   26.202   44.799
| 59> H  -25.104   24.980   46.506
| 60> H  -26.665   25.769   46.168
| 61> H  -22.839   28.387   44.716
| 62> *
| 63>
| 64>                          ****END OF INPUT****
 Total Charge           Charge          ....    0
 Multiplicity           Mult            ....    1
 Number of Electrons    NEL             ....  102
FINAL SINGLE POINT ENERGY      -652.805746741777
FINAL SINGLE POINT ENERGY      -652.836133936195
FINAL SINGLE POINT ENERGY      -652.851972548075
FINAL SINGLE POINT ENERGY      -652.855443011396
FINAL SINGLE POINT ENERGY      -652.856037628976
FINAL SINGLE POINT ENERGY      -652.856143206095
FINAL SINGLE POINT ENERGY      -652.856161514283
FINAL SINGLE POINT ENERGY      -652.856162148269
                    ***********************HURRAY********************

CARTESIAN COORDINATES (ANGSTROEM)
---------------------------------
  C    -21.175863   26.348511   46.465074
  C    -20.306334   27.525609   45.996730
  C    -19.988186   28.253553   47.338880
  C    -19.871603   27.070938   48.335177
  O    -20.535705   25.916630   47.684849
  H    -21.132119   25.489347   45.793855
  H    -19.392080   27.126420   45.547144
  H    -20.802631   28.169448   45.263874
  H    -19.058162   28.827972   47.283806
  H    -20.785797   28.943315   47.620556
  H    -20.357678   27.266463   49.295342
  H    -18.832839   26.779091   48.514427
  C    -23.168707   27.723493   47.240775
  H    -23.067593   27.609150   48.326523
  H    -22.670636   28.646037   46.922034
  O    -22.601670   26.557496   46.571904
  C    -24.645997   27.871415   46.883385
  C    -24.951187   28.063733   45.387977
  C    -25.018476   26.590355   44.878795
  C    -25.640603   25.848405   46.082238
  O    -25.468134   26.733510   47.262879
  H    -25.015893   28.722674   47.469236
  H    -25.912932   28.567950   45.270484
  O    -23.997866   28.900476   44.683844
  H    -25.618446   26.497416   43.968785
  H    -24.004874   26.232436   44.686418
  H    -25.148501   24.894675   46.287962
  H    -26.716252   25.685606   45.964378
  H    -23.192236   28.376880   44.493666

 Multiplicity           Mult            ....    1
 Number of Electrons    NEL             ....  102
 Basis Dimension        Dim             ....  149

ORBITAL ENERGIES
----------------

  NO   OCC          E(Eh)            E(eV)
   0   2.0000     -19.152390      -521.1630
   1   2.0000     -19.146084      -520.9914
   2   2.0000     -19.143989      -520.9344
   3   2.0000     -19.131298      -520.5891
   4   2.0000     -10.286428      -279.9079
   5   2.0000     -10.237898      -278.5874
   6   2.0000     -10.233590      -278.4701
   7   2.0000     -10.232296      -278.4349
   8   2.0000     -10.230785      -278.3938
   9   2.0000     -10.219274      -278.0806
  10   2.0000     -10.201074      -277.5853
  11   2.0000     -10.198893      -277.5260
  12   2.0000     -10.180000      -277.0119
  13   2.0000      -1.057959       -28.7885
  14   2.0000      -1.028305       -27.9816
  15   2.0000      -1.010726       -27.5033
  16   2.0000      -1.000199       -27.2168
  17   2.0000      -0.795122       -21.6364
  18   2.0000      -0.777782       -21.1645
  19   2.0000      -0.767112       -20.8742
  20   2.0000      -0.736738       -20.0476
  21   2.0000      -0.682545       -18.5730
  22   2.0000      -0.611197       -16.6315
  23   2.0000      -0.604301       -16.4439
  24   2.0000      -0.602249       -16.3880
  25   2.0000      -0.563137       -15.3237
  26   2.0000      -0.525130       -14.2895
  27   2.0000      -0.516420       -14.0525
  28   2.0000      -0.506085       -13.7713
  29   2.0000      -0.491513       -13.3748
  30   2.0000      -0.473343       -12.8803
  31   2.0000      -0.457251       -12.4424
  32   2.0000      -0.442355       -12.0371
  33   2.0000      -0.434503       -11.8234
  34   2.0000      -0.425775       -11.5859
  35   2.0000      -0.420485       -11.4420
  36   2.0000      -0.405815       -11.0428
  37   2.0000      -0.400082       -10.8868
  38   2.0000      -0.387638       -10.5482
  39   2.0000      -0.371916       -10.1203
  40   2.0000      -0.368524       -10.0280
  41   2.0000      -0.361546        -9.8382
  42   2.0000      -0.347198        -9.4477
  43   2.0000      -0.324986        -8.8433
  44   2.0000      -0.320342        -8.7170
  45   2.0000      -0.310417        -8.4469
  46   2.0000      -0.306744        -8.3469
  47   2.0000      -0.273174        -7.4334
  48   2.0000      -0.263685        -7.1752
  49   2.0000      -0.258996        -7.0476
  50   2.0000      -0.237160        -6.4534
  51   0.0000       0.045236         1.2309
  52   0.0000       0.074468         2.0264
  53   0.0000       0.090593         2.4652
  54   0.0000       0.096134         2.6159
  55   0.0000       0.098800         2.6885

MULLIKEN ATOMIC CHARGES
-----------------------
   0 C :    0.307015
   1 C :   -0.289843
   2 C :   -0.313351
   3 C :   -0.010193
   4 O :   -0.499916
   5 H :    0.163473
   6 H :    0.161360
   7 H :    0.138365
   8 H :    0.148988
   9 H :    0.153165
  10 H :    0.149433
  11 H :    0.149296
  12 C :   -0.021889
  13 H :    0.157327
  14 H :    0.137534
  15 O :   -0.530058
  16 C :    0.093478
  17 C :    0.081052
  18 C :   -0.311548
  19 C :   -0.002666
  20 O :   -0.518779
  21 H :    0.148114
  22 H :    0.162405
  23 O :   -0.610256
  24 H :    0.142238
  25 H :    0.159679
  26 H :    0.154117
  27 H :    0.141357
  28 H :    0.360105
Sum of atomic charges:    0.0000000

LOEWDIN ATOMIC CHARGES
----------------------
   0 C :    0.172659
   1 C :   -0.231318
   2 C :   -0.223478
   3 C :   -0.032097
   4 O :   -0.316718
   5 H :    0.111705
   6 H :    0.125320
   7 H :    0.110865
   8 H :    0.117435
   9 H :    0.111450
  10 H :    0.105182
  11 H :    0.105538
  12 C :   -0.050598
  13 H :    0.110534
  14 H :    0.099105
  15 O :   -0.323028
  16 C :    0.020604
  17 C :    0.036963
  18 C :   -0.242257
  19 C :   -0.023711
  20 O :   -0.320517
  21 H :    0.113539
  22 H :    0.116193
  23 O :   -0.413063
  24 H :    0.113982
  25 H :    0.119229
  26 H :    0.109589
  27 H :    0.100838
  28 H :    0.276057

  Mayer bond orders larger than 0.100000
B(  0-C ,  1-C ) :   0.9198 B(  0-C ,  4-O ) :   0.9105 B(  0-C ,  5-H ) :   0.9367
B(  0-C , 15-O ) :   0.8893 B(  1-C ,  2-C ) :   0.9540 B(  1-C ,  6-H ) :   0.9341
B(  1-C ,  7-H ) :   0.9330 B(  2-C ,  3-C ) :   0.9468 B(  2-C ,  8-H ) :   0.9450
B(  2-C ,  9-H ) :   0.9381 B(  3-C ,  4-O ) :   0.8442 B(  3-C , 10-H ) :   0.9332
B(  3-C , 11-H ) :   0.9385 B( 12-C , 13-H ) :   0.9204 B( 12-C , 14-H ) :   0.8901
B( 12-C , 15-O ) :   0.8284 B( 12-C , 16-C ) :   0.9148 B( 16-C , 17-C ) :   0.8845
B( 16-C , 20-O ) :   0.8850 B( 16-C , 21-H ) :   0.9286 B( 17-C , 18-C ) :   0.9376
B( 17-C , 22-H ) :   0.9357 B( 17-C , 23-O ) :   0.8924 B( 18-C , 19-C ) :   0.9471
B( 18-C , 24-H ) :   0.9409 B( 18-C , 25-H ) :   0.9269 B( 19-C , 20-O ) :   0.8374
B( 19-C , 26-H ) :   0.9314 B( 19-C , 27-H ) :   0.9374 B( 23-O , 28-H ) :   0.7905

FINAL SINGLE POINT ENERGY      -652.856160403377

DIPOLE MOMENT
-------------
                                X             Y             Z
Electronic contribution:     -3.03814      -2.14180       0.98374
Nuclear contribution   :      4.01119       2.65839      -1.46992
                        -----------------------------------------
Total Dipole Moment    :      0.97305       0.51659      -0.48617
                        -----------------------------------------
Magnitude (a.u.)       :      1.20418
Magnitude (Debye)      :      3.06079

Rotational constants in cm-1:     0.049992     0.015768     0.014400
Rotational constants in MHz :  1498.720579   472.709981   431.700191

                             ****ORCA TERMINATED NORMALLY****
TOTAL RUN TIME: 0 days 0 hours 42 minutes 46 seconds 617 msec
