                         Program Version 4.2.0 -  RELEASE  -
|  1> # Test redundant internal optimization
|  2> #
|  3> ! RKS B3LYP  Opt TightSCF SmallPrint
|  4>
|  5> %basis
|  6>         Basis "6-31G"
|  7> end
|  8>
|  9> %geom
| 10> Constraints
| 11> { D 4  0  15  12  345.0   C } # D for Dihedral angle
| 12> { D 0  15  12  16  300.0   C } # D for Dihedral angle
| 13> { D 0  4  3  2   C } # D for Dihedral angle
| 14> { D 4  3  2  1   C } # D for Dihedral angle
| 15> { D 3  2  1  0   C } # D for Dihedral angle
| 16> { D 2  1  0  4   C } # D for Dihedral angle
| 17> { D 1  0  4  3   C } # D for Dihedral angle
| 18> { D 16  20  19  18   C } # D for Dihedral angle
| 19> { D 20  19  18  17   C } # D for Dihedral angle
| 20> { D 19  18  17  16   C } # D for Dihedral angle
| 21> { D 18  17  16  20   C } # D for Dihedral angle
| 22> { D 17  16  20  19   C } # D for Dihedral angle
| 23> { D 15  12  16  20   C } # D for Dihedral angle
| 24> end
| 25> end
| 26>
| 27>
| 28> #%pal
| 29> #nprocs 8
| 30> #end
| 31>
| 32> * xyz 0 1
| 33> C  -21.048   26.222   46.251
| 34> C  -20.361   27.558   45.944
| 35> C  -20.329   28.222   47.341
| 36> C  -20.110   27.022   48.296
| 37> O  -20.473   25.807   47.535
| 38> H  -20.833   25.428   45.533
| 39> H  -19.344   27.382   45.576
| 40> H  -20.898   28.157   45.201
| 41> H  -19.543   28.978   47.434
| 42> H  -21.289   28.710   47.548
| 43> H  -20.733   27.082   49.195
| 44> H  -19.064   26.913   48.597
| 45> C  -23.221   25.764   47.645
| 46> H  -22.786   26.232   48.537
| 47> H  -24.304   25.939   47.660
| 48> O  -22.586   26.394   46.375
| 49> C  -22.988   24.231   47.735
| 50> C  -23.492   23.516   46.476
| 51> C  -22.339   23.787   45.480
| 52> C  -21.080   23.755   46.381
| 53> O  -21.553   23.931   47.772
| 54> H  -23.416   23.858   48.668
| 55> O  -23.633   21.994   46.748
| 56> H  -24.457   23.895   46.122
| 57> H  -22.293   23.050   44.672
| 58> H  -22.461   24.777   45.023
| 59> H  -20.370   24.553   46.140
| 60> H  -20.560   22.793   46.338
| 61> H  -22.678   21.592   47.103
| 62> *
| 63>
| 64>                          ****END OF INPUT****
 Total Charge           Charge          ....    0
 Multiplicity           Mult            ....    1
 Number of Electrons    NEL             ....  102
FINAL SINGLE POINT ENERGY      -652.736001307522
FINAL SINGLE POINT ENERGY      -652.825633697726
FINAL SINGLE POINT ENERGY      -652.846454402410
FINAL SINGLE POINT ENERGY      -652.850975189547
FINAL SINGLE POINT ENERGY      -652.851851512253
FINAL SINGLE POINT ENERGY      -652.852115065714
FINAL SINGLE POINT ENERGY      -652.852202950199
FINAL SINGLE POINT ENERGY      -652.852258654128
FINAL SINGLE POINT ENERGY      -652.852273863806
FINAL SINGLE POINT ENERGY      -652.852277655015
                    ***********************HURRAY********************

CARTESIAN COORDINATES (ANGSTROEM)
---------------------------------
  C    -20.952280   26.540444   46.204812
  C    -20.541994   28.005479   46.063155
  C    -20.384113   28.436442   47.540277
  C    -19.829046   27.163661   48.217953
  O    -20.132939   26.046935   47.279999
  H    -20.730686   25.911761   45.339298
  H    -19.584772   28.061710   45.531399
  H    -21.287260   28.589991   45.520197
  H    -19.717051   29.295237   47.659622
  H    -21.361881   28.702815   47.953489
  H    -20.292208   26.943070   49.182996
  H    -18.741590   27.182124   48.336201
  C    -23.067286   25.749292   47.482539
  H    -22.759584   26.158110   48.455627
  H    -24.120786   26.002833   47.327504
  O    -22.387403   26.501343   46.434864
  C    -22.962396   24.212592   47.592553
  C    -23.523386   23.436725   46.393411
  C    -22.282186   23.339999   45.465010
  C    -21.112154   23.195663   46.472688
  O    -21.632673   23.654991   47.780823
  H    -23.536631   23.959147   48.493139
  O    -23.995912   22.121027   46.804327
  H    -24.381179   23.914130   45.919405
  H    -22.370991   22.489787   44.783610
  H    -22.194933   24.258925   44.877718
  H    -20.238649   23.800798   46.222723
  H    -20.798027   22.154940   46.602564
  H    -23.322005   21.712028   47.388097

 Multiplicity           Mult            ....    1
 Number of Electrons    NEL             ....  102
 Basis Dimension        Dim             ....  149

ORBITAL ENERGIES
----------------

  NO   OCC          E(Eh)            E(eV)
   0   2.0000     -19.146214      -520.9950
   1   2.0000     -19.139532      -520.8131
   2   2.0000     -19.134189      -520.6678
   3   2.0000     -19.131649      -520.5986
   4   2.0000     -10.281208      -279.7659
   5   2.0000     -10.233489      -278.4674
   6   2.0000     -10.233284      -278.4618
   7   2.0000     -10.230778      -278.3936
   8   2.0000     -10.229464      -278.3579
   9   2.0000     -10.219398      -278.0840
  10   2.0000     -10.189057      -277.2583
  11   2.0000     -10.185371      -277.1580
  12   2.0000     -10.180016      -277.0123
  13   2.0000      -1.053004       -28.6537
  14   2.0000      -1.030046       -28.0290
  15   2.0000      -0.999155       -27.1884
  16   2.0000      -0.991498       -26.9800
  17   2.0000      -0.790523       -21.5112
  18   2.0000      -0.774793       -21.0832
  19   2.0000      -0.765181       -20.8216
  20   2.0000      -0.733650       -19.9636
  21   2.0000      -0.673849       -18.3364
  22   2.0000      -0.605735       -16.4829
  23   2.0000      -0.601154       -16.3582
  24   2.0000      -0.595926       -16.2160
  25   2.0000      -0.562664       -15.3109
  26   2.0000      -0.524024       -14.2594
  27   2.0000      -0.506718       -13.7885
  28   2.0000      -0.496366       -13.5068
  29   2.0000      -0.478534       -13.0216
  30   2.0000      -0.471982       -12.8433
  31   2.0000      -0.461162       -12.5489
  32   2.0000      -0.446521       -12.1504
  33   2.0000      -0.432228       -11.7615
  34   2.0000      -0.418483       -11.3875
  35   2.0000      -0.413417       -11.2496
  36   2.0000      -0.396129       -10.7792
  37   2.0000      -0.386720       -10.5232
  38   2.0000      -0.376087       -10.2338
  39   2.0000      -0.368173       -10.0185
  40   2.0000      -0.359179        -9.7738
  41   2.0000      -0.358764        -9.7625
  42   2.0000      -0.346390        -9.4257
  43   2.0000      -0.331756        -9.0275
  44   2.0000      -0.321806        -8.7568
  45   2.0000      -0.304298        -8.2804
  46   2.0000      -0.293001        -7.9730
  47   2.0000      -0.268999        -7.3198
  48   2.0000      -0.263931        -7.1819
  49   2.0000      -0.253718        -6.9040
  50   2.0000      -0.229369        -6.2414
  51   0.0000       0.066360         1.8057
  52   0.0000       0.080364         2.1868
  53   0.0000       0.093231         2.5369
  54   0.0000       0.102254         2.7825
  55   0.0000       0.107153         2.9158

MULLIKEN ATOMIC CHARGES
-----------------------
   0 C :    0.313764
   1 C :   -0.255047
   2 C :   -0.305374
   3 C :   -0.014418
   4 O :   -0.502563
   5 H :    0.139553
   6 H :    0.142340
   7 H :    0.158880
   8 H :    0.144612
   9 H :    0.156234
  10 H :    0.151825
  11 H :    0.150232
  12 C :    0.007273
  13 H :    0.132627
  14 H :    0.150829
  15 O :   -0.553561
  16 C :    0.072040
  17 C :    0.076633
  18 C :   -0.297639
  19 C :   -0.028465
  20 O :   -0.511721
  21 H :    0.151373
  22 O :   -0.605068
  23 H :    0.151217
  24 H :    0.155872
  25 H :    0.155624
  26 H :    0.164304
  27 H :    0.136691
  28 H :    0.361933
Sum of atomic charges:   -0.0000000

LOEWDIN ATOMIC CHARGES
----------------------
   0 C :    0.180777
   1 C :   -0.216089
   2 C :   -0.218180
   3 C :   -0.030148
   4 O :   -0.309276
   5 H :    0.093838
   6 H :    0.112032
   7 H :    0.125100
   8 H :    0.116018
   9 H :    0.115673
  10 H :    0.106395
  11 H :    0.106363
  12 C :   -0.032691
  13 H :    0.096469
  14 H :    0.117137
  15 O :   -0.348842
  16 C :    0.003000
  17 C :    0.035500
  18 C :   -0.241476
  19 C :   -0.038171
  20 O :   -0.317323
  21 H :    0.115640
  22 O :   -0.418462
  23 H :    0.114878
  24 H :    0.122849
  25 H :    0.118101
  26 H :    0.111921
  27 H :    0.098002
  28 H :    0.280968

  Mayer bond orders larger than 0.100000
B(  0-C ,  1-C ) :   0.9379 B(  0-C ,  4-O ) :   0.9151 B(  0-C ,  5-H ) :   0.9186
B(  0-C , 15-O ) :   0.8311 B(  1-C ,  2-C ) :   0.9550 B(  1-C ,  6-H ) :   0.9372
B(  1-C ,  7-H ) :   0.9362 B(  2-C ,  3-C ) :   0.9537 B(  2-C ,  8-H ) :   0.9450
B(  2-C ,  9-H ) :   0.9449 B(  3-C ,  4-O ) :   0.8293 B(  3-C , 10-H ) :   0.9323
B(  3-C , 11-H ) :   0.9396 B( 12-C , 13-H ) :   0.9243 B( 12-C , 14-H ) :   0.9295
B( 12-C , 15-O ) :   0.8559 B( 12-C , 16-C ) :   0.8780 B( 16-C , 17-C ) :   0.9055
B( 16-C , 20-O ) :   0.8822 B( 16-C , 21-H ) :   0.9137 B( 17-C , 18-C ) :   0.9200
B( 17-C , 22-O ) :   0.8892 B( 17-C , 23-H ) :   0.9356 B( 18-C , 19-C ) :   0.9429
B( 18-C , 24-H ) :   0.9371 B( 18-C , 25-H ) :   0.9252 B( 19-C , 20-O ) :   0.8376
B( 19-C , 26-H ) :   0.9188 B( 19-C , 27-H ) :   0.9390 B( 22-O , 28-H ) :   0.7960

FINAL SINGLE POINT ENERGY      -652.852277770555

DIPOLE MOMENT
-------------
                                X             Y             Z
Electronic contribution:     -2.02124      -4.11927       0.88795
Nuclear contribution   :      2.59820       5.07129      -0.93580
                        -----------------------------------------
Total Dipole Moment    :      0.57696       0.95201      -0.04785
                        -----------------------------------------
Magnitude (a.u.)       :      1.11423
Magnitude (Debye)      :      2.83214

Rotational constants in cm-1:     0.060369     0.015695     0.015184
Rotational constants in MHz :  1809.812606   470.523042   455.217245

                             ****ORCA TERMINATED NORMALLY****
TOTAL RUN TIME: 0 days 0 hours 32 minutes 6 seconds 438 msec
