                         Program Version 4.2.0 -  RELEASE  -
|  1> # Test redundant internal optimization
|  2> #
|  3> ! RKS B3LYP  Opt TightSCF SmallPrint
|  4>
|  5> %basis
|  6>         Basis "6-31G"
|  7> end
|  8>
|  9> %geom
| 10> Constraints
| 11> { D 4  0  15  12  345.0   C } # D for Dihedral angle
| 12> { D 0  15  12  16  210.0   C } # D for Dihedral angle
| 13> { D 0  4  3  2   C } # D for Dihedral angle
| 14> { D 4  3  2  1   C } # D for Dihedral angle
| 15> { D 3  2  1  0   C } # D for Dihedral angle
| 16> { D 2  1  0  4   C } # D for Dihedral angle
| 17> { D 1  0  4  3   C } # D for Dihedral angle
| 18> { D 16  20  19  18   C } # D for Dihedral angle
| 19> { D 20  19  18  17   C } # D for Dihedral angle
| 20> { D 19  18  17  16   C } # D for Dihedral angle
| 21> { D 18  17  16  20   C } # D for Dihedral angle
| 22> { D 17  16  20  19   C } # D for Dihedral angle
| 23> { D 15  12  16  20   C } # D for Dihedral angle
| 24> end
| 25> end
| 26>
| 27>
| 28> #%pal
| 29> #nprocs 8
| 30> #end
| 31>
| 32> * xyz 0 1
| 33> C  -21.048   26.222   46.251
| 34> C  -20.361   27.558   45.944
| 35> C  -20.329   28.222   47.341
| 36> C  -20.110   27.022   48.296
| 37> O  -20.473   25.807   47.535
| 38> H  -20.833   25.428   45.533
| 39> H  -19.344   27.382   45.576
| 40> H  -20.898   28.157   45.201
| 41> H  -19.543   28.978   47.434
| 42> H  -21.289   28.710   47.548
| 43> H  -20.733   27.082   49.195
| 44> H  -19.064   26.913   48.597
| 45> C  -23.221   25.764   47.645
| 46> H  -22.624   24.897   47.956
| 47> H  -23.229   26.489   48.470
| 48> O  -22.586   26.394   46.375
| 49> C  -24.684   25.294   47.415
| 50> C  -25.560   26.437   46.891
| 51> C  -25.172   26.467   45.393
| 52> C  -24.929   24.973   45.062
| 53> O  -24.736   24.282   46.355
| 54> H  -25.055   24.821   48.327
| 55> O  -27.061   26.077   47.060
| 56> H  -25.374   27.390   47.397
| 57> H  -25.947   26.914   44.762
| 58> H  -24.252   27.048   45.254
| 59> H  -24.043   24.820   44.436
| 60> H  -25.791   24.508   44.574
| 61> H  -27.271   25.125   46.560
| 62> *
| 63>
| 64>                          ****END OF INPUT****
 Total Charge           Charge          ....    0
 Multiplicity           Mult            ....    1
 Number of Electrons    NEL             ....  102
FINAL SINGLE POINT ENERGY      -652.837221504564
FINAL SINGLE POINT ENERGY      -652.858995079722
FINAL SINGLE POINT ENERGY      -652.863034874422
FINAL SINGLE POINT ENERGY      -652.863984517677
FINAL SINGLE POINT ENERGY      -652.864089169603
FINAL SINGLE POINT ENERGY      -652.864105273631
                    ***********************HURRAY********************

CARTESIAN COORDINATES (ANGSTROEM)
---------------------------------
  C    -21.079917   26.169153   46.343639
  C    -20.464566   27.521829   45.987883
  C    -20.368916   28.199216   47.373361
  C    -20.047987   27.023541   48.321443
  O    -20.423449   25.789820   47.571391
  H    -20.889904   25.359636   45.634910
  H    -19.470118   27.363109   45.555043
  H    -21.077789   28.079462   45.276781
  H    -19.603206   28.980121   47.408395
  H    -21.331294   28.653735   47.629506
  H    -20.614233   27.050769   49.256095
  H    -18.982000   26.934323   48.547797
  C    -23.179222   25.780195   47.656490
  H    -22.625677   24.907951   48.014508
  H    -23.193646   26.533278   48.458713
  O    -22.527377   26.325296   46.470931
  C    -24.609916   25.358320   47.330417
  C    -25.558198   26.452285   46.819856
  C    -25.224340   26.478386   45.304085
  C    -24.923340   24.992348   44.988792
  O    -24.652500   24.332661   46.287750
  H    -25.026495   24.903141   48.237419
  O    -26.945651   26.090989   47.076605
  H    -25.419933   27.416631   47.309886
  H    -26.064897   26.875948   44.728278
  H    -24.337786   27.092406   45.139241
  H    -24.047241   24.873824   44.345683
  H    -25.773709   24.471581   44.535376
  H    -27.096693   25.171046   46.772727

 Multiplicity           Mult            ....    1
 Number of Electrons    NEL             ....  102
 Basis Dimension        Dim             ....  149

ORBITAL ENERGIES
----------------

  NO   OCC          E(Eh)            E(eV)
   0   2.0000     -19.153623      -521.1966
   1   2.0000     -19.143264      -520.9147
   2   2.0000     -19.134111      -520.6656
   3   2.0000     -19.131854      -520.6042
   4   2.0000     -10.283206      -279.8203
   5   2.0000     -10.235245      -278.5152
   6   2.0000     -10.232629      -278.4440
   7   2.0000     -10.229326      -278.3541
   8   2.0000     -10.227533      -278.3053
   9   2.0000     -10.219596      -278.0894
  10   2.0000     -10.194007      -277.3930
  11   2.0000     -10.190277      -277.2915
  12   2.0000     -10.172685      -276.8128
  13   2.0000      -1.058934       -28.8151
  14   2.0000      -1.028990       -28.0002
  15   2.0000      -1.000872       -27.2351
  16   2.0000      -0.991610       -26.9831
  17   2.0000      -0.795594       -21.6492
  18   2.0000      -0.774650       -21.0793
  19   2.0000      -0.761301       -20.7161
  20   2.0000      -0.735031       -20.0012
  21   2.0000      -0.670547       -18.2465
  22   2.0000      -0.607572       -16.5329
  23   2.0000      -0.598518       -16.2865
  24   2.0000      -0.593332       -16.1454
  25   2.0000      -0.568344       -15.4654
  26   2.0000      -0.524930       -14.2841
  27   2.0000      -0.510142       -13.8817
  28   2.0000      -0.496578       -13.5126
  29   2.0000      -0.488047       -13.2804
  30   2.0000      -0.469639       -12.7795
  31   2.0000      -0.459519       -12.5041
  32   2.0000      -0.446904       -12.1609
  33   2.0000      -0.437585       -11.9073
  34   2.0000      -0.419897       -11.4260
  35   2.0000      -0.407541       -11.0898
  36   2.0000      -0.402209       -10.9447
  37   2.0000      -0.384189       -10.4543
  38   2.0000      -0.375326       -10.2131
  39   2.0000      -0.368505       -10.0275
  40   2.0000      -0.364039        -9.9060
  41   2.0000      -0.357849        -9.7376
  42   2.0000      -0.349398        -9.5076
  43   2.0000      -0.338344        -9.2068
  44   2.0000      -0.321965        -8.7611
  45   2.0000      -0.306899        -8.3512
  46   2.0000      -0.296822        -8.0769
  47   2.0000      -0.268727        -7.3124
  48   2.0000      -0.265415        -7.2223
  49   2.0000      -0.253686        -6.9032
  50   2.0000      -0.238150        -6.4804
  51   0.0000       0.066106         1.7988
  52   0.0000       0.078938         2.1480
  53   0.0000       0.099182         2.6989
  54   0.0000       0.102712         2.7949
  55   0.0000       0.106472         2.8972

MULLIKEN ATOMIC CHARGES
-----------------------
   0 C :    0.304108
   1 C :   -0.257051
   2 C :   -0.305850
   3 C :   -0.014969
   4 O :   -0.510150
   5 H :    0.159135
   6 H :    0.145895
   7 H :    0.157909
   8 H :    0.148291
   9 H :    0.156403
  10 H :    0.147123
  11 H :    0.151915
  12 C :    0.002369
  13 H :    0.172674
  14 H :    0.121091
  15 O :   -0.548536
  16 C :    0.069183
  17 C :    0.078595
  18 C :   -0.287158
  19 C :   -0.017401
  20 O :   -0.528052
  21 H :    0.152603
  22 O :   -0.606376
  23 H :    0.147112
  24 H :    0.145351
  25 H :    0.173247
  26 H :    0.146469
  27 H :    0.133556
  28 H :    0.362515
Sum of atomic charges:   -0.0000000

LOEWDIN ATOMIC CHARGES
----------------------
   0 C :    0.183123
   1 C :   -0.217848
   2 C :   -0.218269
   3 C :   -0.031095
   4 O :   -0.317260
   5 H :    0.105609
   6 H :    0.114534
   7 H :    0.124176
   8 H :    0.117753
   9 H :    0.115703
  10 H :    0.104250
  11 H :    0.107879
  12 C :   -0.038344
  13 H :    0.120140
  14 H :    0.091410
  15 O :   -0.346758
  16 C :    0.014628
  17 C :    0.038664
  18 C :   -0.242326
  19 C :   -0.033172
  20 O :   -0.330485
  21 H :    0.114593
  22 O :   -0.419348
  23 H :    0.113953
  24 H :    0.116991
  25 H :    0.129329
  26 H :    0.105452
  27 H :    0.094959
  28 H :    0.281759

  Mayer bond orders larger than 0.100000
B(  0-C ,  1-C ) :   0.9396 B(  0-C ,  4-O ) :   0.9119 B(  0-C ,  5-H ) :   0.9260
B(  0-C , 15-O ) :   0.8295 B(  1-C ,  2-C ) :   0.9517 B(  1-C ,  6-H ) :   0.9357
B(  1-C ,  7-H ) :   0.9362 B(  2-C ,  3-C ) :   0.9549 B(  2-C ,  8-H ) :   0.9445
B(  2-C ,  9-H ) :   0.9455 B(  3-C ,  4-O ) :   0.8287 B(  3-C , 10-H ) :   0.9338
B(  3-C , 11-H ) :   0.9401 B( 12-C , 13-H ) :   0.9116 B( 12-C , 14-H ) :   0.9146
B( 12-C , 15-O ) :   0.8322 B( 12-C , 16-C ) :   0.9045 B( 16-C , 17-C ) :   0.9076
B( 16-C , 20-O ) :   0.8714 B( 16-C , 21-H ) :   0.9226 B( 17-C , 18-C ) :   0.9252
B( 17-C , 22-O ) :   0.8900 B( 17-C , 23-H ) :   0.9365 B( 18-C , 19-C ) :   0.9458
B( 18-C , 24-H ) :   0.9376 B( 18-C , 25-H ) :   0.9188 B( 19-C , 20-O ) :   0.8411
B( 19-C , 26-H ) :   0.9349 B( 19-C , 27-H ) :   0.9369 B( 22-O , 28-H ) :   0.7961

FINAL SINGLE POINT ENERGY      -652.864105184307

DIPOLE MOMENT
-------------
                                X             Y             Z
Electronic contribution:     -2.88307      -4.57582       0.74151
Nuclear contribution   :      3.83985       5.45899      -0.90060
                        -----------------------------------------
Total Dipole Moment    :      0.95679       0.88317      -0.15909
                        -----------------------------------------
Magnitude (a.u.)       :      1.31177
Magnitude (Debye)      :      3.33426

Rotational constants in cm-1:     0.058338     0.013462     0.013308
Rotational constants in MHz :  1748.937744   403.574693   398.960637

                             ****ORCA TERMINATED NORMALLY****
TOTAL RUN TIME: 0 days 0 hours 17 minutes 30 seconds 675 msec
