                         Program Version 4.2.0 -  RELEASE  -
|  1> # Test redundant internal optimization
|  2> #
|  3> ! RKS B3LYP  Opt TightSCF SmallPrint
|  4>
|  5> %basis
|  6>         Basis "6-31G"
|  7> end
|  8>
|  9> %geom
| 10> Constraints
| 11> { D 4  0  15  12  105.0   C } # D for Dihedral angle
| 12> { D 0  15  12  16  210.0   C } # D for Dihedral angle
| 13> { D 0  4  3  2   C } # D for Dihedral angle
| 14> { D 4  3  2  1   C } # D for Dihedral angle
| 15> { D 3  2  1  0   C } # D for Dihedral angle
| 16> { D 2  1  0  4   C } # D for Dihedral angle
| 17> { D 1  0  4  3   C } # D for Dihedral angle
| 18> { D 16  20  19  18   C } # D for Dihedral angle
| 19> { D 20  19  18  17   C } # D for Dihedral angle
| 20> { D 19  18  17  16   C } # D for Dihedral angle
| 21> { D 18  17  16  20   C } # D for Dihedral angle
| 22> { D 17  16  20  19   C } # D for Dihedral angle
| 23> { D 15  12  16  20   C } # D for Dihedral angle
| 24> end
| 25> end
| 26>
| 27>
| 28> #%pal
| 29> #nprocs 8
| 30> #end
| 31>
| 32> * xyz 0 1
| 33> C  -21.048   26.222   46.251
| 34> C  -20.361   27.558   45.944
| 35> C  -20.329   28.222   47.341
| 36> C  -20.110   27.022   48.296
| 37> O  -20.473   25.807   47.535
| 38> H  -20.833   25.428   45.533
| 39> H  -19.344   27.382   45.576
| 40> H  -20.898   28.157   45.201
| 41> H  -19.543   28.978   47.434
| 42> H  -21.289   28.710   47.548
| 43> H  -20.733   27.082   49.195
| 44> H  -19.064   26.913   48.597
| 45> C  -23.085   27.864   46.420
| 46> H  -22.309   28.496   46.872
| 47> H  -23.280   28.235   45.406
| 48> O  -22.586   26.394   46.375
| 49> C  -24.391   28.030   47.245
| 50> C  -25.499   27.106   46.724
| 51> C  -25.094   25.750   47.350
| 52> C  -24.502   26.158   48.722
| 53> O  -24.182   27.599   48.630
| 54> H  -24.662   29.087   47.276
| 55> O  -26.878   27.570   47.267
| 56> H  -25.552   27.071   45.631
| 57> H  -25.938   25.059   47.448
| 58> H  -24.333   25.262   46.730
| 59> H  -23.591   25.602   48.968
| 60> H  -25.220   26.039   49.539
| 61> H  -26.848   27.613   48.362
| 62> *
| 63>
| 64>                          ****END OF INPUT****
 Total Charge           Charge          ....    0
 Multiplicity           Mult            ....    1
 Number of Electrons    NEL             ....  102
FINAL SINGLE POINT ENERGY      -652.809515717770
FINAL SINGLE POINT ENERGY      -652.838755045986
FINAL SINGLE POINT ENERGY      -652.853529840493
FINAL SINGLE POINT ENERGY      -652.856078362737
FINAL SINGLE POINT ENERGY      -652.856425312796
FINAL SINGLE POINT ENERGY      -652.856475925960
FINAL SINGLE POINT ENERGY      -652.856465728602
FINAL SINGLE POINT ENERGY      -652.856462872970
                    ***********************HURRAY********************

CARTESIAN COORDINATES (ANGSTROEM)
---------------------------------
  C    -21.186823   26.397881   46.366137
  C    -20.240672   27.530046   45.942492
  C    -19.981162   28.261977   47.293358
  C    -19.979699   27.091831   48.309377
  O    -20.648003   25.956239   47.629927
  H    -21.135487   25.522845   45.715701
  H    -19.315685   27.083629   45.565101
  H    -20.653917   28.179594   45.165200
  H    -19.026640   28.797948   47.290462
  H    -20.763967   28.988503   47.520396
  H    -20.523483   27.323904   49.228768
  H    -18.968808   26.758694   48.560501
  C    -23.197975   27.997454   46.461288
  H    -22.549275   28.722520   46.957682
  H    -23.387061   28.343682   45.434640
  O    -22.604287   26.671589   46.434385
  C    -24.510017   27.952573   47.247009
  C    -25.605959   27.008786   46.727387
  C    -25.165048   25.649840   47.335814
  C    -24.567124   26.057053   48.705028
  O    -24.278239   27.511892   48.620696
  H    -24.897963   28.977565   47.298462
  O    -26.913103   27.437026   47.204209
  H    -25.690868   26.989354   45.640133
  H    -26.020285   24.973879   47.428922
  H    -24.399432   25.198529   46.703950
  H    -23.632143   25.534392   48.918893
  H    -25.265835   25.917799   49.536745
  H    -26.866042   27.578975   48.173334

 Multiplicity           Mult            ....    1
 Number of Electrons    NEL             ....  102
 Basis Dimension        Dim             ....  149

ORBITAL ENERGIES
----------------

  NO   OCC          E(Eh)            E(eV)
   0   2.0000     -19.145900      -520.9864
   1   2.0000     -19.141348      -520.8626
   2   2.0000     -19.133598      -520.6517
   3   2.0000     -19.130853      -520.5770
   4   2.0000     -10.283843      -279.8376
   5   2.0000     -10.236056      -278.5372
   6   2.0000     -10.232338      -278.4361
   7   2.0000     -10.231576      -278.4153
   8   2.0000     -10.228191      -278.3232
   9   2.0000     -10.215459      -277.9768
  10   2.0000     -10.198138      -277.5054
  11   2.0000     -10.196028      -277.4480
  12   2.0000     -10.169557      -276.7277
  13   2.0000      -1.053686       -28.6723
  14   2.0000      -1.028094       -27.9759
  15   2.0000      -1.001857       -27.2619
  16   2.0000      -0.992961       -27.0198
  17   2.0000      -0.792237       -21.5579
  18   2.0000      -0.778418       -21.1818
  19   2.0000      -0.760081       -20.6829
  20   2.0000      -0.733468       -19.9587
  21   2.0000      -0.677312       -18.4306
  22   2.0000      -0.609069       -16.5736
  23   2.0000      -0.600710       -16.3461
  24   2.0000      -0.591229       -16.0882
  25   2.0000      -0.567171       -15.4335
  26   2.0000      -0.525512       -14.2999
  27   2.0000      -0.508805       -13.8453
  28   2.0000      -0.499748       -13.5988
  29   2.0000      -0.484409       -13.1815
  30   2.0000      -0.472092       -12.8463
  31   2.0000      -0.458397       -12.4736
  32   2.0000      -0.446228       -12.1425
  33   2.0000      -0.434675       -11.8281
  34   2.0000      -0.426481       -11.6051
  35   2.0000      -0.412992       -11.2381
  36   2.0000      -0.402836       -10.9617
  37   2.0000      -0.388077       -10.5601
  38   2.0000      -0.381391       -10.3782
  39   2.0000      -0.363495        -9.8912
  40   2.0000      -0.361098        -9.8260
  41   2.0000      -0.356527        -9.7016
  42   2.0000      -0.351135        -9.5549
  43   2.0000      -0.324927        -8.8417
  44   2.0000      -0.314215        -8.5502
  45   2.0000      -0.301616        -8.2074
  46   2.0000      -0.290467        -7.9040
  47   2.0000      -0.275455        -7.4955
  48   2.0000      -0.260909        -7.0997
  49   2.0000      -0.254634        -6.9290
  50   2.0000      -0.237926        -6.4743
  51   0.0000       0.068455         1.8627
  52   0.0000       0.079151         2.1538
  53   0.0000       0.091357         2.4860
  54   0.0000       0.106612         2.9011
  55   0.0000       0.108644         2.9563

MULLIKEN ATOMIC CHARGES
-----------------------
   0 C :    0.319102
   1 C :   -0.297931
   2 C :   -0.314749
   3 C :   -0.006887
   4 O :   -0.499127
   5 H :    0.161168
   6 H :    0.159783
   7 H :    0.147656
   8 H :    0.146357
   9 H :    0.159191
  10 H :    0.158758
  11 H :    0.145255
  12 C :    0.005938
  13 H :    0.140115
  14 H :    0.127472
  15 O :   -0.537446
  16 C :    0.071382
  17 C :    0.074116
  18 C :   -0.292067
  19 C :   -0.023264
  20 O :   -0.531143
  21 H :    0.151247
  22 O :   -0.602394
  23 H :    0.150555
  24 H :    0.146285
  25 H :    0.181986
  26 H :    0.166549
  27 H :    0.130984
  28 H :    0.361108
Sum of atomic charges:   -0.0000000

LOEWDIN ATOMIC CHARGES
----------------------
   0 C :    0.179743
   1 C :   -0.230317
   2 C :   -0.222063
   3 C :   -0.030986
   4 O :   -0.317978
   5 H :    0.108483
   6 H :    0.124968
   7 H :    0.116625
   8 H :    0.116326
   9 H :    0.111405
  10 H :    0.110831
  11 H :    0.104025
  12 C :   -0.036456
  13 H :    0.102531
  14 H :    0.095037
  15 O :   -0.326956
  16 C :    0.014171
  17 C :    0.038258
  18 C :   -0.243484
  19 C :   -0.034023
  20 O :   -0.333303
  21 H :    0.113493
  22 O :   -0.417378
  23 H :    0.115318
  24 H :    0.116756
  25 H :    0.134052
  26 H :    0.115919
  27 H :    0.093935
  28 H :    0.281067

  Mayer bond orders larger than 0.100000
B(  0-C ,  1-C ) :   0.9295 B(  0-C ,  4-O ) :   0.9131 B(  0-C ,  5-H ) :   0.9348
B(  0-C , 15-O ) :   0.8752 B(  1-C ,  2-C ) :   0.9527 B(  1-C ,  6-H ) :   0.9345
B(  1-C ,  7-H ) :   0.9340 B(  2-C ,  3-C ) :   0.9482 B(  2-C ,  8-H ) :   0.9447
B(  2-C ,  9-H ) :   0.9338 B(  3-C ,  4-O ) :   0.8426 B(  3-C , 10-H ) :   0.9324
B(  3-C , 11-H ) :   0.9391 B( 12-C , 13-H ) :   0.9009 B( 12-C , 14-H ) :   0.9155
B( 12-C , 15-O ) :   0.8406 B( 12-C , 16-C ) :   0.8994 B( 16-C , 17-C ) :   0.9101
B( 16-C , 20-O ) :   0.8781 B( 16-C , 21-H ) :   0.9216 B( 17-C , 18-C ) :   0.9267
B( 17-C , 22-O ) :   0.8899 B( 17-C , 23-H ) :   0.9352 B( 18-C , 19-C ) :   0.9484
B( 18-C , 24-H ) :   0.9371 B( 18-C , 25-H ) :   0.9161 B( 19-C , 20-O ) :   0.8313
B( 19-C , 26-H ) :   0.9297 B( 19-C , 27-H ) :   0.9374 B( 22-O , 28-H ) :   0.7969

FINAL SINGLE POINT ENERGY      -652.856465262437

DIPOLE MOMENT
-------------
                                X             Y             Z
Electronic contribution:     -3.68754      -1.48261       0.63163
Nuclear contribution   :      4.83117       2.10444      -1.03522
                        -----------------------------------------
Total Dipole Moment    :      1.14363       0.62183      -0.40358
                        -----------------------------------------
Magnitude (a.u.)       :      1.36288
Magnitude (Debye)      :      3.46416

Rotational constants in cm-1:     0.058531     0.014767     0.014178
Rotational constants in MHz :  1754.712327   442.695644   425.041472

                             ****ORCA TERMINATED NORMALLY****
TOTAL RUN TIME: 0 days 0 hours 29 minutes 51 seconds 104 msec
