                         Program Version 4.2.0 -  RELEASE  -
|  1> # Test redundant internal optimization
|  2> #
|  3> ! RKS B3LYP  Opt TightSCF SmallPrint
|  4>
|  5> %basis
|  6>         Basis "6-31G"
|  7> end
|  8>
|  9> %geom
| 10> Constraints
| 11> { D 4  0  15  12  90.0   C } # D for Dihedral angle
| 12> { D 0  15  12  16  180.0   C } # D for Dihedral angle
| 13> { D 0  4  3  2   C } # D for Dihedral angle
| 14> { D 4  3  2  1   C } # D for Dihedral angle
| 15> { D 3  2  1  0   C } # D for Dihedral angle
| 16> { D 2  1  0  4   C } # D for Dihedral angle
| 17> { D 1  0  4  3   C } # D for Dihedral angle
| 18> { D 16  20  19  18   C } # D for Dihedral angle
| 19> { D 20  19  18  17   C } # D for Dihedral angle
| 20> { D 19  18  17  16   C } # D for Dihedral angle
| 21> { D 18  17  16  20   C } # D for Dihedral angle
| 22> { D 17  16  20  19   C } # D for Dihedral angle
| 23> { D 15  12  16  20   C } # D for Dihedral angle
| 24> end
| 25> end
| 26>
| 27>
| 28> #%pal
| 29> #nprocs 8
| 30> #end
| 31>
| 32> * xyz 0 1
| 33> C  -21.048   26.222   46.251
| 34> C  -20.361   27.558   45.944
| 35> C  -20.329   28.222   47.341
| 36> C  -20.110   27.022   48.296
| 37> O  -20.473   25.807   47.535
| 38> H  -20.833   25.428   45.533
| 39> H  -19.344   27.382   45.576
| 40> H  -20.898   28.157   45.201
| 41> H  -19.543   28.978   47.434
| 42> H  -21.289   28.710   47.548
| 43> H  -20.733   27.082   49.195
| 44> H  -19.064   26.913   48.597
| 45> C  -23.061   27.816   46.783
| 46> H  -22.628   28.076   47.757
| 47> H  -22.724   28.559   46.049
| 48> O  -22.586   26.394   46.375
| 49> C  -24.607   27.924   46.891
| 50> C  -25.045   29.364   47.181
| 51> C  -24.942   30.012   45.779
| 52> C  -25.365   28.863   44.830
| 53> O  -25.234   27.609   45.602
| 54> H  -24.969   27.188   47.611
| 55> H  -26.080   29.379   47.538
| 56> O  -24.153   30.072   48.237
| 57> H  -25.578   30.897   45.672
| 58> H  -23.908   30.317   45.580
| 59> H  -24.731   28.802   43.937
| 60> H  -26.410   28.942   44.517
| 61> H  -23.110   30.071   47.901
| 62> *
| 63>
| 64>                          ****END OF INPUT****
 Total Charge           Charge          ....    0
 Multiplicity           Mult            ....    1
 Number of Electrons    NEL             ....  102
FINAL SINGLE POINT ENERGY      -652.802728250582
FINAL SINGLE POINT ENERGY      -652.831124398367
FINAL SINGLE POINT ENERGY      -652.846310179195
FINAL SINGLE POINT ENERGY      -652.848857789264
FINAL SINGLE POINT ENERGY      -652.849323145252
FINAL SINGLE POINT ENERGY      -652.849441721451
FINAL SINGLE POINT ENERGY      -652.849458351200
FINAL SINGLE POINT ENERGY      -652.849460877025
                    ***********************HURRAY********************

CARTESIAN COORDINATES (ANGSTROEM)
---------------------------------
  C    -21.182868   26.340688   46.373188
  C    -20.193299   27.438757   45.958619
  C    -19.866358   28.113639   47.322584
  C    -19.896767   26.913844   48.304887
  O    -20.634539   25.832288   47.612827
  H    -21.191160   25.486205   45.695371
  H    -19.301029   26.960621   45.542563
  H    -20.595412   28.128785   45.211381
  H    -18.890232   28.608884   47.315930
  H    -20.615761   28.865223   47.582541
  H    -20.400427   27.144204   49.248713
  H    -18.895304   26.530414   48.521173
  C    -23.040032   27.997099   46.831384
  H    -22.728353   28.252272   47.853196
  H    -22.648736   28.755636   46.137069
  O    -22.581407   26.676032   46.451006
  C    -24.566861   27.958506   46.797762
  C    -25.232285   29.300880   47.143602
  C    -25.194892   30.040075   45.772023
  C    -25.409522   28.891306   44.762012
  O    -25.103150   27.628755   45.481577
  H    -24.891273   27.151451   47.459969
  H    -26.263846   29.122544   47.453951
  O    -24.637641   30.028098   48.247042
  H    -25.957333   30.820671   45.700706
  H    -24.212706   30.513623   45.639433
  H    -24.761880   28.968228   43.883175
  H    -26.448745   28.824395   44.427639
  H    -23.814183   30.472878   47.959680

 Multiplicity           Mult            ....    1
 Number of Electrons    NEL             ....  102
 Basis Dimension        Dim             ....  149

ORBITAL ENERGIES
----------------

  NO   OCC          E(Eh)            E(eV)
   0   2.0000     -19.152995      -521.1795
   1   2.0000     -19.141195      -520.8584
   2   2.0000     -19.137204      -520.7498
   3   2.0000     -19.136926      -520.7422
   4   2.0000     -10.276127      -279.6276
   5   2.0000     -10.247199      -278.8405
   6   2.0000     -10.233870      -278.4778
   7   2.0000     -10.231075      -278.4017
   8   2.0000     -10.230709      -278.3917
   9   2.0000     -10.227904      -278.3154
  10   2.0000     -10.198614      -277.5184
  11   2.0000     -10.195506      -277.4338
  12   2.0000     -10.194156      -277.3971
  13   2.0000      -1.050089       -28.5744
  14   2.0000      -1.035473       -28.1766
  15   2.0000      -1.016707       -27.6660
  16   2.0000      -0.994186       -27.0532
  17   2.0000      -0.790091       -21.4995
  18   2.0000      -0.785242       -21.3675
  19   2.0000      -0.773437       -21.0463
  20   2.0000      -0.732574       -19.9343
  21   2.0000      -0.685775       -18.6609
  22   2.0000      -0.613849       -16.7037
  23   2.0000      -0.605641       -16.4803
  24   2.0000      -0.597330       -16.2542
  25   2.0000      -0.572952       -15.5908
  26   2.0000      -0.527751       -14.3608
  27   2.0000      -0.510914       -13.9027
  28   2.0000      -0.502373       -13.6703
  29   2.0000      -0.495856       -13.4929
  30   2.0000      -0.475133       -12.9290
  31   2.0000      -0.461919       -12.5695
  32   2.0000      -0.443816       -12.0769
  33   2.0000      -0.436365       -11.8741
  34   2.0000      -0.426881       -11.6160
  35   2.0000      -0.421822       -11.4784
  36   2.0000      -0.411928       -11.2091
  37   2.0000      -0.404198       -10.9988
  38   2.0000      -0.384673       -10.4675
  39   2.0000      -0.379490       -10.3264
  40   2.0000      -0.362566        -9.8659
  41   2.0000      -0.355787        -9.6815
  42   2.0000      -0.351353        -9.5608
  43   2.0000      -0.331176        -9.0118
  44   2.0000      -0.317497        -8.6395
  45   2.0000      -0.313795        -8.5388
  46   2.0000      -0.295014        -8.0277
  47   2.0000      -0.273230        -7.4350
  48   2.0000      -0.266753        -7.2587
  49   2.0000      -0.250126        -6.8063
  50   2.0000      -0.242167        -6.5897
  51   0.0000       0.041363         1.1255
  52   0.0000       0.068419         1.8618
  53   0.0000       0.082182         2.2363
  54   0.0000       0.090720         2.4686
  55   0.0000       0.098464         2.6794

MULLIKEN ATOMIC CHARGES
-----------------------
   0 C :    0.305967
   1 C :   -0.294311
   2 C :   -0.307686
   3 C :   -0.007038
   4 O :   -0.498225
   5 H :    0.169048
   6 H :    0.158913
   7 H :    0.147177
   8 H :    0.144718
   9 H :    0.136387
  10 H :    0.146114
  11 H :    0.145992
  12 C :   -0.008543
  13 H :    0.136575
  14 H :    0.113305
  15 O :   -0.507280
  16 C :    0.093797
  17 C :    0.079363
  18 C :   -0.326357
  19 C :   -0.007760
  20 O :   -0.501459
  21 H :    0.173693
  22 H :    0.172079
  23 O :   -0.598429
  24 H :    0.160388
  25 H :    0.127990
  26 H :    0.143335
  27 H :    0.149272
  28 H :    0.352976
Sum of atomic charges:   -0.0000000

LOEWDIN ATOMIC CHARGES
----------------------
   0 C :    0.174659
   1 C :   -0.231138
   2 C :   -0.222983
   3 C :   -0.032749
   4 O :   -0.319661
   5 H :    0.114412
   6 H :    0.124121
   7 H :    0.115743
   8 H :    0.115257
   9 H :    0.104141
  10 H :    0.103390
  11 H :    0.104000
  12 C :   -0.050733
  13 H :    0.097966
  14 H :    0.083551
  15 O :   -0.303820
  16 C :    0.023496
  17 C :    0.034229
  18 C :   -0.242414
  19 C :   -0.029912
  20 O :   -0.309981
  21 H :    0.124923
  22 H :    0.121452
  23 O :   -0.407284
  24 H :    0.123371
  25 H :    0.101126
  26 H :    0.102619
  27 H :    0.106334
  28 H :    0.275885

  Mayer bond orders larger than 0.100000
B(  0-C ,  1-C ) :   0.9230 B(  0-C ,  4-O ) :   0.9001 B(  0-C ,  5-H ) :   0.9347
B(  0-C , 15-O ) :   0.9041 B(  1-C ,  2-C ) :   0.9527 B(  1-C ,  6-H ) :   0.9354
B(  1-C ,  7-H ) :   0.9341 B(  2-C ,  3-C ) :   0.9477 B(  2-C ,  8-H ) :   0.9456
B(  2-C ,  9-H ) :   0.9422 B(  3-C ,  4-O ) :   0.8517 B(  3-C , 10-H ) :   0.9336
B(  3-C , 11-H ) :   0.9386 B( 12-C , 13-H ) :   0.8953 B( 12-C , 14-H ) :   0.9107
B( 12-C , 15-O ) :   0.8516 B( 12-C , 16-C ) :   0.9037 B( 16-C , 17-C ) :   0.8758
B( 16-C , 20-O ) :   0.8720 B( 16-C , 21-H ) :   0.9268 B( 17-C , 18-C ) :   0.9236
B( 17-C , 22-H ) :   0.9322 B( 17-C , 23-O ) :   0.8925 B( 18-C , 19-C ) :   0.9401
B( 18-C , 24-H ) :   0.9412 B( 18-C , 25-H ) :   0.9411 B( 19-C , 20-O ) :   0.8543
B( 19-C , 26-H ) :   0.9312 B( 19-C , 27-H ) :   0.9375 B( 23-O , 28-H ) :   0.8000

FINAL SINGLE POINT ENERGY      -652.849450047676

DIPOLE MOMENT
-------------
                                X             Y             Z
Electronic contribution:     -3.50436      -5.18215       1.03503
Nuclear contribution   :      4.36072       7.03103      -1.60641
                        -----------------------------------------
Total Dipole Moment    :      0.85636       1.84888      -0.57138
                        -----------------------------------------
Magnitude (a.u.)       :      2.11617
Magnitude (Debye)      :      5.37888

Rotational constants in cm-1:     0.049619     0.013793     0.012595
Rotational constants in MHz :  1487.545504   413.512609   377.586304

                             ****ORCA TERMINATED NORMALLY****
TOTAL RUN TIME: 0 days 0 hours 41 minutes 27 seconds 2 msec
