                         Program Version 4.2.0 -  RELEASE  -
|  1> # Test redundant internal optimization
|  2> #
|  3> ! RKS B3LYP  Opt TightSCF SmallPrint
|  4>
|  5> %basis
|  6>         Basis "6-31G"
|  7> end
|  8>
|  9> %geom
| 10> Constraints
| 11> { D 4  0  15  12  15.0   C } # D for Dihedral angle
| 12> { D 0  15  12  16  225.0   C } # D for Dihedral angle
| 13> { D 0  4  3  2   C } # D for Dihedral angle
| 14> { D 4  3  2  1   C } # D for Dihedral angle
| 15> { D 3  2  1  0   C } # D for Dihedral angle
| 16> { D 2  1  0  4   C } # D for Dihedral angle
| 17> { D 1  0  4  3   C } # D for Dihedral angle
| 18> { D 16  20  19  18   C } # D for Dihedral angle
| 19> { D 20  19  18  17   C } # D for Dihedral angle
| 20> { D 19  18  17  16   C } # D for Dihedral angle
| 21> { D 18  17  16  20   C } # D for Dihedral angle
| 22> { D 17  16  20  19   C } # D for Dihedral angle
| 23> { D 15  12  16  20   C } # D for Dihedral angle
| 24> end
| 25> end
| 26>
| 27>
| 28> #%pal
| 29> #nprocs 8
| 30> #end
| 31>
| 32> * xyz 0 1
| 33> C  -21.048   26.222   46.251
| 34> C  -20.361   27.558   45.944
| 35> C  -20.329   28.222   47.341
| 36> C  -20.110   27.022   48.296
| 37> O  -20.473   25.807   47.535
| 38> H  -20.833   25.428   45.533
| 39> H  -19.344   27.382   45.576
| 40> H  -20.898   28.157   45.201
| 41> H  -19.543   28.978   47.434
| 42> H  -21.289   28.710   47.548
| 43> H  -20.733   27.082   49.195
| 44> H  -19.064   26.913   48.597
| 45> C  -23.128   26.462   47.829
| 46> H  -22.350   26.118   48.522
| 47> H  -23.390   27.495   48.093
| 48> O  -22.586   26.394   46.375
| 49> C  -24.393   25.585   48.041
| 50> C  -24.074   24.096   47.857
| 51> C  -23.416   23.747   49.214
| 52> C  -24.197   24.629   50.220
| 53> O  -24.860   25.686   49.427
| 54> H  -25.197   25.957   47.404
| 55> H  -25.001   23.528   47.720
| 56> O  -23.144   23.816   46.646
| 57> H  -23.481   22.682   49.455
| 58> H  -22.355   24.023   49.199
| 59> H  -23.542   25.097   50.963
| 60> H  -24.982   24.074   50.740
| 61> H  -22.209   24.375   46.763
| 62> *
| 63>
| 64>                          ****END OF INPUT****
 Total Charge           Charge          ....    0
 Multiplicity           Mult            ....    1
 Number of Electrons    NEL             ....  102
FINAL SINGLE POINT ENERGY      -652.822671101428
FINAL SINGLE POINT ENERGY      -652.848339808695
FINAL SINGLE POINT ENERGY      -652.854886097930
FINAL SINGLE POINT ENERGY      -652.857082253492
FINAL SINGLE POINT ENERGY      -652.857756847235
FINAL SINGLE POINT ENERGY      -652.858430331616
FINAL SINGLE POINT ENERGY      -652.859084754309
FINAL SINGLE POINT ENERGY      -652.859741169451
FINAL SINGLE POINT ENERGY      -652.860198520199
FINAL SINGLE POINT ENERGY      -652.860454966823
FINAL SINGLE POINT ENERGY      -652.860525408459
FINAL SINGLE POINT ENERGY      -652.860601751388
FINAL SINGLE POINT ENERGY      -652.860607596353
FINAL SINGLE POINT ENERGY      -652.860609931717
                    ***********************HURRAY********************

CARTESIAN COORDINATES (ANGSTROEM)
---------------------------------
  C    -21.036113   26.239207   46.408309
  C    -20.408333   27.560894   45.964597
  C    -20.245692   28.303955   47.312833
  C    -19.911563   27.167655   48.302710
  O    -20.342018   25.907373   47.623519
  H    -20.877422   25.408307   45.719360
  H    -19.433616   27.358058   45.506414
  H    -21.036300   28.094371   45.248173
  H    -19.461168   29.066030   47.281138
  H    -21.183265   28.800073   47.585425
  H    -20.437476   27.249552   49.257151
  H    -18.839488   27.062521   48.487749
  C    -23.098592   26.451470   47.884173
  H    -22.355819   26.172804   48.633488
  H    -23.424054   27.482686   48.054798
  O    -22.500858   26.347930   46.542475
  C    -24.311430   25.517139   47.988434
  C    -24.017692   24.014382   47.850467
  C    -23.457842   23.675254   49.259335
  C    -24.275777   24.588825   50.194951
  O    -24.865256   25.657290   49.335053
  H    -25.089065   25.844620   47.291998
  H    -24.970217   23.490150   47.701379
  O    -23.129759   23.651803   46.772111
  H    -23.570536   22.614541   49.500237
  H    -22.388423   23.913519   49.272485
  H    -23.671666   25.059791   50.976964
  H    -25.116268   24.069392   50.663783
  H    -22.874293   24.475405   46.299490

 Multiplicity           Mult            ....    1
 Number of Electrons    NEL             ....  102
 Basis Dimension        Dim             ....  149

ORBITAL ENERGIES
----------------

  NO   OCC          E(Eh)            E(eV)
   0   2.0000     -19.163798      -521.4735
   1   2.0000     -19.158439      -521.3276
   2   2.0000     -19.138401      -520.7824
   3   2.0000     -19.115512      -520.1595
   4   2.0000     -10.292406      -280.0706
   5   2.0000     -10.242550      -278.7140
   6   2.0000     -10.232136      -278.4306
   7   2.0000     -10.230872      -278.3962
   8   2.0000     -10.228133      -278.3217
   9   2.0000     -10.224394      -278.2199
  10   2.0000     -10.200834      -277.5788
  11   2.0000     -10.195726      -277.4398
  12   2.0000     -10.175418      -276.8872
  13   2.0000      -1.067080       -29.0367
  14   2.0000      -1.024437       -27.8764
  15   2.0000      -1.005742       -27.3676
  16   2.0000      -0.993057       -27.0225
  17   2.0000      -0.800399       -21.7800
  18   2.0000      -0.774882       -21.0856
  19   2.0000      -0.766141       -20.8478
  20   2.0000      -0.738043       -20.0832
  21   2.0000      -0.676802       -18.4167
  22   2.0000      -0.613807       -16.7025
  23   2.0000      -0.602388       -16.3918
  24   2.0000      -0.593210       -16.1421
  25   2.0000      -0.573280       -15.5997
  26   2.0000      -0.525018       -14.2865
  27   2.0000      -0.520684       -14.1685
  28   2.0000      -0.506266       -13.7762
  29   2.0000      -0.488580       -13.2949
  30   2.0000      -0.474143       -12.9021
  31   2.0000      -0.462314       -12.5802
  32   2.0000      -0.443585       -12.0706
  33   2.0000      -0.432067       -11.7571
  34   2.0000      -0.426990       -11.6190
  35   2.0000      -0.414597       -11.2818
  36   2.0000      -0.409809       -11.1515
  37   2.0000      -0.386662       -10.5216
  38   2.0000      -0.383146       -10.4259
  39   2.0000      -0.371331       -10.1044
  40   2.0000      -0.367844       -10.0095
  41   2.0000      -0.358980        -9.7683
  42   2.0000      -0.349974        -9.5233
  43   2.0000      -0.339226        -9.2308
  44   2.0000      -0.330258        -8.9868
  45   2.0000      -0.320343        -8.7170
  46   2.0000      -0.291158        -7.9228
  47   2.0000      -0.278951        -7.5906
  48   2.0000      -0.268832        -7.3153
  49   2.0000      -0.245088        -6.6692
  50   2.0000      -0.240802        -6.5525
  51   0.0000       0.058306         1.5866
  52   0.0000       0.070896         1.9292
  53   0.0000       0.089556         2.4369
  54   0.0000       0.098901         2.6912
  55   0.0000       0.102044         2.7767

MULLIKEN ATOMIC CHARGES
-----------------------
   0 C :    0.289543
   1 C :   -0.256660
   2 C :   -0.313599
   3 C :   -0.024405
   4 O :   -0.502989
   5 H :    0.168145
   6 H :    0.151649
   7 H :    0.163088
   8 H :    0.153440
   9 H :    0.158992
  10 H :    0.149929
  11 H :    0.158323
  12 C :   -0.018587
  13 H :    0.166535
  14 H :    0.151229
  15 O :   -0.561242
  16 C :    0.035291
  17 C :    0.126441
  18 C :   -0.316351
  19 C :   -0.013454
  20 O :   -0.521604
  21 H :    0.158174
  22 H :    0.142567
  23 O :   -0.639179
  24 H :    0.150899
  25 H :    0.167081
  26 H :    0.137638
  27 H :    0.146631
  28 H :    0.392475
Sum of atomic charges:   -0.0000000

LOEWDIN ATOMIC CHARGES
----------------------
   0 C :    0.177823
   1 C :   -0.220039
   2 C :   -0.220337
   3 C :   -0.033324
   4 O :   -0.310845
   5 H :    0.111178
   6 H :    0.117769
   7 H :    0.126862
   8 H :    0.120666
   9 H :    0.115899
  10 H :    0.104884
  11 H :    0.111100
  12 C :   -0.050193
  13 H :    0.113395
  14 H :    0.107054
  15 O :   -0.350952
  16 C :    0.014953
  17 C :    0.042381
  18 C :   -0.237770
  19 C :   -0.030839
  20 O :   -0.324546
  21 H :    0.113022
  22 H :    0.101028
  23 O :   -0.431429
  24 H :    0.120705
  25 H :    0.121107
  26 H :    0.099924
  27 H :    0.105123
  28 H :    0.285400

  Mayer bond orders larger than 0.100000
B(  0-C ,  1-C ) :   0.9302 B(  0-C ,  4-O ) :   0.9249 B(  0-C ,  5-H ) :   0.9285
B(  0-C , 15-O ) :   0.8126 B(  1-C ,  2-C ) :   0.9535 B(  1-C ,  6-H ) :   0.9345
B(  1-C ,  7-H ) :   0.9355 B(  2-C ,  3-C ) :   0.9510 B(  2-C ,  8-H ) :   0.9441
B(  2-C ,  9-H ) :   0.9439 B(  3-C ,  4-O ) :   0.8241 B(  3-C , 10-H ) :   0.9315
B(  3-C , 11-H ) :   0.9400 B( 12-C , 13-H ) :   0.9054 B( 12-C , 14-H ) :   0.9272
B( 12-C , 15-O ) :   0.7936 B( 12-C , 16-C ) :   0.9032 B( 16-C , 17-C ) :   0.9177
B( 16-C , 20-O ) :   0.8562 B( 16-C , 21-H ) :   0.9302 B( 17-C , 18-C ) :   0.9069
B( 17-C , 22-H ) :   0.9267 B( 17-C , 23-O ) :   0.9265 B( 18-C , 19-C ) :   0.9395
B( 18-C , 24-H ) :   0.9448 B( 18-C , 25-H ) :   0.9363 B( 19-C , 20-O ) :   0.8323
B( 19-C , 26-H ) :   0.9350 B( 19-C , 27-H ) :   0.9391 B( 23-O , 28-H ) :   0.7277

FINAL SINGLE POINT ENERGY      -652.860610321442

DIPOLE MOMENT
-------------
                                X             Y             Z
Electronic contribution:     -2.97234      -2.52058      -2.26482
Nuclear contribution   :      3.91021       3.68539       2.54281
                        -----------------------------------------
Total Dipole Moment    :      0.93787       1.16482       0.27799
                        -----------------------------------------
Magnitude (a.u.)       :      1.52108
Magnitude (Debye)      :      3.86628

Rotational constants in cm-1:     0.049280     0.016011     0.015023
Rotational constants in MHz :  1477.369364   480.000393   450.382033

                             ****ORCA TERMINATED NORMALLY****
TOTAL RUN TIME: 0 days 1 hours 34 minutes 4 seconds 268 msec
