                         Program Version 4.2.0 -  RELEASE  -
|  1> # Test redundant internal optimization
|  2> #
|  3> ! RKS B3LYP  Opt TightSCF SmallPrint
|  4>
|  5> %basis
|  6>         Basis "6-31G"
|  7> end
|  8>
|  9> %geom
| 10> Constraints
| 11> { D 4  0  15  12  255.0   C } # D for Dihedral angle
| 12> { D 0  15  12  16  150.0   C } # D for Dihedral angle
| 13> { D 0  4  3  2   C } # D for Dihedral angle
| 14> { D 4  3  2  1   C } # D for Dihedral angle
| 15> { D 3  2  1  0   C } # D for Dihedral angle
| 16> { D 2  1  0  4   C } # D for Dihedral angle
| 17> { D 1  0  4  3   C } # D for Dihedral angle
| 18> { D 16  20  19  18   C } # D for Dihedral angle
| 19> { D 20  19  18  17   C } # D for Dihedral angle
| 20> { D 19  18  17  16   C } # D for Dihedral angle
| 21> { D 18  17  16  20   C } # D for Dihedral angle
| 22> { D 17  16  20  19   C } # D for Dihedral angle
| 23> { D 15  12  16  20   C } # D for Dihedral angle
| 24> end
| 25> end
| 26>
| 27>
| 28> #%pal
| 29> #nprocs 8
| 30> #end
| 31>
| 32> * xyz 0 1
| 33> C  -21.048   26.222   46.251
| 34> C  -20.361   27.558   45.944
| 35> C  -20.329   28.222   47.341
| 36> C  -20.110   27.022   48.296
| 37> O  -20.473   25.807   47.535
| 38> H  -20.833   25.428   45.533
| 39> H  -19.344   27.382   45.576
| 40> H  -20.898   28.157   45.201
| 41> H  -19.543   28.978   47.434
| 42> H  -21.289   28.710   47.548
| 43> H  -20.733   27.082   49.195
| 44> H  -19.064   26.913   48.597
| 45> C  -23.431   25.260   45.734
| 46> H  -23.635   25.509   44.685
| 47> H  -22.882   24.310   45.760
| 48> O  -22.586   26.394   46.375
| 49> C  -24.789   25.040   46.456
| 50> C  -25.696   26.269   46.321
| 51> C  -26.254   26.091   44.889
| 52> C  -26.391   24.554   44.754
| 53> O  -25.545   23.961   45.811
| 54> H  -24.601   24.728   47.485
| 55> H  -26.505   26.222   47.060
| 56> O  -24.938   27.611   46.511
| 57> H  -27.205   26.610   44.737
| 58> H  -25.538   26.482   44.156
| 59> H  -26.055   24.187   43.778
| 60> H  -27.414   24.209   44.928
| 61> H  -24.123   27.679   45.781
| 62> *
| 63>
| 64>                          ****END OF INPUT****
 Total Charge           Charge          ....    0
 Multiplicity           Mult            ....    1
 Number of Electrons    NEL             ....  102
FINAL SINGLE POINT ENERGY      -652.832706647888
FINAL SINGLE POINT ENERGY      -652.856961332022
FINAL SINGLE POINT ENERGY      -652.863216484711
FINAL SINGLE POINT ENERGY      -652.865502906270
FINAL SINGLE POINT ENERGY      -652.866822487724
FINAL SINGLE POINT ENERGY      -652.867577599437
FINAL SINGLE POINT ENERGY      -652.867843969775
FINAL SINGLE POINT ENERGY      -652.867891170562
FINAL SINGLE POINT ENERGY      -652.867896035302
                    ***********************HURRAY********************

CARTESIAN COORDINATES (ANGSTROEM)
---------------------------------
  C    -21.065793   26.138454   46.198912
  C    -20.466739   27.514137   45.910079
  C    -20.560853   28.200595   47.293849
  C    -20.306843   27.036386   48.275736
  O    -20.543345   25.792947   47.493920
  H    -20.782670   25.337175   45.512192
  H    -19.420983   27.393722   45.604931
  H    -21.005230   28.047130   45.123464
  H    -19.833701   29.009598   47.409910
  H    -21.561865   28.618958   47.437869
  H    -20.981192   27.041785   49.135298
  H    -19.271775   26.990741   48.625835
  C    -23.312848   25.179289   45.642757
  H    -23.470911   25.384343   44.576484
  H    -22.791439   24.221053   45.746645
  O    -22.514680   26.259456   46.232961
  C    -24.639823   25.111644   46.405891
  C    -25.520106   26.368654   46.294141
  C    -26.179521   26.169104   44.898377
  C    -26.369469   24.640793   44.816873
  O    -25.464340   24.044645   45.844485
  H    -24.433242   24.844411   47.445555
  H    -26.292284   26.322843   47.070712
  O    -24.840926   27.632080   46.433543
  H    -27.119713   26.719526   44.811765
  H    -25.498634   26.544613   44.126993
  H    -26.112927   24.221961   43.838708
  H    -27.384220   24.327033   45.078348
  H    -23.866929   27.483924   46.385766

 Multiplicity           Mult            ....    1
 Number of Electrons    NEL             ....  102
 Basis Dimension        Dim             ....  149

ORBITAL ENERGIES
----------------

  NO   OCC          E(Eh)            E(eV)
   0   2.0000     -19.163840      -521.4746
   1   2.0000     -19.147838      -521.0392
   2   2.0000     -19.139694      -520.8175
   3   2.0000     -19.112601      -520.0803
   4   2.0000     -10.292608      -280.0761
   5   2.0000     -10.240053      -278.6460
   6   2.0000     -10.233100      -278.4568
   7   2.0000     -10.231275      -278.4071
   8   2.0000     -10.229715      -278.3647
   9   2.0000     -10.226003      -278.2637
  10   2.0000     -10.194475      -277.4058
  11   2.0000     -10.192681      -277.3570
  12   2.0000     -10.178698      -276.9764
  13   2.0000      -1.064977       -28.9795
  14   2.0000      -1.025176       -27.8965
  15   2.0000      -1.007545       -27.4167
  16   2.0000      -0.991837       -26.9893
  17   2.0000      -0.796177       -21.6651
  18   2.0000      -0.773049       -21.0357
  19   2.0000      -0.767595       -20.8873
  20   2.0000      -0.735382       -20.0108
  21   2.0000      -0.679087       -18.4789
  22   2.0000      -0.606450       -16.5023
  23   2.0000      -0.602195       -16.3866
  24   2.0000      -0.593627       -16.1534
  25   2.0000      -0.582343       -15.8464
  26   2.0000      -0.528411       -14.3788
  27   2.0000      -0.523248       -14.2383
  28   2.0000      -0.499504       -13.5922
  29   2.0000      -0.486651       -13.2424
  30   2.0000      -0.473265       -12.8782
  31   2.0000      -0.459546       -12.5049
  32   2.0000      -0.441208       -12.0059
  33   2.0000      -0.438379       -11.9289
  34   2.0000      -0.426062       -11.5937
  35   2.0000      -0.420259       -11.4358
  36   2.0000      -0.406795       -11.0695
  37   2.0000      -0.387935       -10.5563
  38   2.0000      -0.381781       -10.3888
  39   2.0000      -0.367901       -10.0111
  40   2.0000      -0.363721        -9.8973
  41   2.0000      -0.358312        -9.7502
  42   2.0000      -0.346982        -9.4419
  43   2.0000      -0.344397        -9.3715
  44   2.0000      -0.325927        -8.8689
  45   2.0000      -0.317074        -8.6280
  46   2.0000      -0.288867        -7.8605
  47   2.0000      -0.280907        -7.6439
  48   2.0000      -0.259763        -7.0685
  49   2.0000      -0.249392        -6.7863
  50   2.0000      -0.241489        -6.5712
  51   0.0000       0.053950         1.4681
  52   0.0000       0.082912         2.2562
  53   0.0000       0.092777         2.5246
  54   0.0000       0.097806         2.6614
  55   0.0000       0.101388         2.7589

MULLIKEN ATOMIC CHARGES
-----------------------
   0 C :    0.296630
   1 C :   -0.260296
   2 C :   -0.306624
   3 C :   -0.004942
   4 O :   -0.500772
   5 H :    0.149629
   6 H :    0.150823
   7 H :    0.152314
   8 H :    0.147692
   9 H :    0.166941
  10 H :    0.156772
  11 H :    0.146380
  12 C :   -0.019471
  13 H :    0.143493
  14 H :    0.166253
  15 O :   -0.563346
  16 C :    0.053814
  17 C :    0.118247
  18 C :   -0.303335
  19 C :   -0.013794
  20 O :   -0.522901
  21 H :    0.164206
  22 H :    0.149225
  23 O :   -0.644941
  24 H :    0.151504
  25 H :    0.143797
  26 H :    0.138974
  27 H :    0.147725
  28 H :    0.396003
Sum of atomic charges:   -0.0000000

LOEWDIN ATOMIC CHARGES
----------------------
   0 C :    0.179078
   1 C :   -0.218719
   2 C :   -0.216844
   3 C :   -0.026696
   4 O :   -0.316511
   5 H :    0.104466
   6 H :    0.117007
   7 H :    0.121175
   8 H :    0.117284
   9 H :    0.119887
  10 H :    0.110480
  11 H :    0.105064
  12 C :   -0.042488
  13 H :    0.098994
  14 H :    0.115991
  15 O :   -0.343973
  16 C :    0.017435
  17 C :    0.041493
  18 C :   -0.236980
  19 C :   -0.031044
  20 O :   -0.324237
  21 H :    0.118598
  22 H :    0.105843
  23 O :   -0.437443
  24 H :    0.121377
  25 H :    0.110303
  26 H :    0.100611
  27 H :    0.105538
  28 H :    0.284312

  Mayer bond orders larger than 0.100000
B(  0-C ,  1-C ) :   0.9477 B(  0-C ,  4-O ) :   0.9401 B(  0-C ,  5-H ) :   0.9214
B(  0-C , 15-O ) :   0.8097 B(  1-C ,  2-C ) :   0.9553 B(  1-C ,  6-H ) :   0.9371
B(  1-C ,  7-H ) :   0.9370 B(  2-C ,  3-C ) :   0.9525 B(  2-C ,  8-H ) :   0.9447
B(  2-C ,  9-H ) :   0.9426 B(  3-C ,  4-O ) :   0.8314 B(  3-C , 10-H ) :   0.9344
B(  3-C , 11-H ) :   0.9397 B( 12-C , 13-H ) :   0.9240 B( 12-C , 14-H ) :   0.9223
B( 12-C , 15-O ) :   0.7830 B( 12-C , 16-C ) :   0.9059 B( 16-C , 17-C ) :   0.9149
B( 16-C , 20-O ) :   0.8549 B( 16-C , 21-H ) :   0.9278 B( 17-C , 18-C ) :   0.9028
B( 17-C , 22-H ) :   0.9296 B( 17-C , 23-O ) :   0.9333 B( 18-C , 19-C ) :   0.9380
B( 18-C , 24-H ) :   0.9445 B( 18-C , 25-H ) :   0.9438 B( 19-C , 20-O ) :   0.8312
B( 19-C , 26-H ) :   0.9352 B( 19-C , 27-H ) :   0.9392 B( 23-O , 28-H ) :   0.7197

FINAL SINGLE POINT ENERGY      -652.867897328994

DIPOLE MOMENT
-------------
                                X             Y             Z
Electronic contribution:     -0.73943      -3.26471       1.83801
Nuclear contribution   :      1.52640       3.65549      -2.55324
                        -----------------------------------------
Total Dipole Moment    :      0.78698       0.39078      -0.71522
                        -----------------------------------------
Magnitude (a.u.)       :      1.13296
Magnitude (Debye)      :      2.87974

Rotational constants in cm-1:     0.060022     0.013177     0.012205
Rotational constants in MHz :  1799.411704   395.023316   365.900166

                             ****ORCA TERMINATED NORMALLY****
TOTAL RUN TIME: 0 days 0 hours 55 minutes 22 seconds 528 msec
