                         Program Version 4.2.0 -  RELEASE  -
|  1> # Test redundant internal optimization
|  2> #
|  3> ! RKS B3LYP  Opt TightSCF SmallPrint
|  4>
|  5> %basis
|  6>         Basis "6-31G"
|  7> end
|  8>
|  9> %geom
| 10> Constraints
| 11> { D 4  0  15  12  330.0   C } # D for Dihedral angle
| 12> { D 0  15  12  16  240.0   C } # D for Dihedral angle
| 13> { D 0  4  3  2   C } # D for Dihedral angle
| 14> { D 4  3  2  1   C } # D for Dihedral angle
| 15> { D 3  2  1  0   C } # D for Dihedral angle
| 16> { D 2  1  0  4   C } # D for Dihedral angle
| 17> { D 1  0  4  3   C } # D for Dihedral angle
| 18> { D 16  20  19  18   C } # D for Dihedral angle
| 19> { D 20  19  18  17   C } # D for Dihedral angle
| 20> { D 19  18  17  16   C } # D for Dihedral angle
| 21> { D 18  17  16  20   C } # D for Dihedral angle
| 22> { D 17  16  20  19   C } # D for Dihedral angle
| 23> { D 15  12  16  20   C } # D for Dihedral angle
| 24> end
| 25> end
| 26>
| 27>
| 28> #%pal
| 29> #nprocs 8
| 30> #end
| 31>
| 32> * xyz 0 1
| 33> C  -21.048   26.222   46.251
| 34> C  -20.361   27.558   45.944
| 35> C  -20.329   28.222   47.341
| 36> C  -20.110   27.022   48.296
| 37> O  -20.473   25.807   47.535
| 38> H  -20.833   25.428   45.533
| 39> H  -19.344   27.382   45.576
| 40> H  -20.898   28.157   45.201
| 41> H  -19.543   28.978   47.434
| 42> H  -21.289   28.710   47.548
| 43> H  -20.733   27.082   49.195
| 44> H  -19.064   26.913   48.597
| 45> C  -23.271   25.476   47.424
| 46> H  -22.510   24.854   47.912
| 47> H  -23.768   26.078   48.195
| 48> O  -22.586   26.394   46.375
| 49> C  -24.339   24.538   46.795
| 50> C  -25.074   23.731   47.871
| 51> C  -26.082   24.773   48.411
| 52> C  -26.454   25.589   47.148
| 53> O  -25.395   25.325   46.150
| 54> H  -23.870   23.932   46.017
| 55> O  -25.818   22.532   47.223
| 56> H  -24.406   23.344   48.649
| 57> H  -26.957   24.313   48.883
| 58> H  -25.598   25.415   49.157
| 59> H  -26.501   26.667   47.343
| 60> H  -27.401   25.267   46.706
| 61> H  -26.493   22.897   46.441
| 62> *
| 63>
| 64>                          ****END OF INPUT****
 Total Charge           Charge          ....    0
 Multiplicity           Mult            ....    1
 Number of Electrons    NEL             ....  102
FINAL SINGLE POINT ENERGY      -652.834660658585
FINAL SINGLE POINT ENERGY      -652.857134749220
FINAL SINGLE POINT ENERGY      -652.861003142537
FINAL SINGLE POINT ENERGY      -652.861689164670
FINAL SINGLE POINT ENERGY      -652.861778095685
FINAL SINGLE POINT ENERGY      -652.861790537818
                    ***********************HURRAY********************

CARTESIAN COORDINATES (ANGSTROEM)
---------------------------------
  C    -21.114544   26.142092   46.309688
  C    -20.520731   27.503401   45.950319
  C    -20.400977   28.169542   47.337934
  C    -20.047258   26.991044   48.270757
  O    -20.425864   25.757727   47.522446
  H    -20.924762   25.337367   45.593198
  H    -19.536004   27.358573   45.491358
  H    -21.160665   28.057152   45.260405
  H    -19.642291   28.957973   47.362374
  H    -21.363300   28.608586   47.617307
  H    -20.592653   27.009160   49.217966
  H    -18.975502   26.911003   48.473280
  C    -23.215539   25.506155   47.496015
  H    -22.483014   24.885609   48.023681
  H    -23.664480   26.203110   48.214894
  O    -22.549534   26.313498   46.480973
  C    -24.289086   24.631028   46.853847
  C    -25.076144   23.778376   47.859998
  C    -26.135219   24.790398   48.371923
  C    -26.442010   25.639326   47.112261
  O    -25.318469   25.421752   46.171844
  H    -23.825691   24.004864   46.084491
  O    -25.698466   22.640659   47.200588
  H    -24.465076   23.351473   48.656450
  H    -27.012411   24.267703   48.760271
  H    -25.715440   25.405244   49.176263
  H    -26.522395   26.708329   47.331566
  H    -27.357186   25.318102   46.604785
  H    -26.073291   22.936754   46.344117

 Multiplicity           Mult            ....    1
 Number of Electrons    NEL             ....  102
 Basis Dimension        Dim             ....  149

ORBITAL ENERGIES
----------------

  NO   OCC          E(Eh)            E(eV)
   0   2.0000     -19.149140      -521.0746
   1   2.0000     -19.136945      -520.7427
   2   2.0000     -19.136866      -520.7406
   3   2.0000     -19.136314      -520.7256
   4   2.0000     -10.277888      -279.6755
   5   2.0000     -10.240155      -278.6488
   6   2.0000     -10.231039      -278.4007
   7   2.0000     -10.229490      -278.3586
   8   2.0000     -10.227412      -278.3020
   9   2.0000     -10.224900      -278.2337
  10   2.0000     -10.187908      -277.2271
  11   2.0000     -10.187697      -277.2213
  12   2.0000     -10.184415      -277.1320
  13   2.0000      -1.054196       -28.6861
  14   2.0000      -1.033117       -28.1125
  15   2.0000      -1.003367       -27.3030
  16   2.0000      -0.989588       -26.9281
  17   2.0000      -0.791576       -21.5399
  18   2.0000      -0.780093       -21.2274
  19   2.0000      -0.764671       -20.8078
  20   2.0000      -0.732689       -19.9375
  21   2.0000      -0.670594       -18.2478
  22   2.0000      -0.603097       -16.4111
  23   2.0000      -0.601674       -16.3724
  24   2.0000      -0.594790       -16.1851
  25   2.0000      -0.572599       -15.5812
  26   2.0000      -0.524558       -14.2740
  27   2.0000      -0.506865       -13.7925
  28   2.0000      -0.497196       -13.5294
  29   2.0000      -0.491568       -13.3763
  30   2.0000      -0.473404       -12.8820
  31   2.0000      -0.457440       -12.4476
  32   2.0000      -0.452434       -12.3114
  33   2.0000      -0.435156       -11.8412
  34   2.0000      -0.421762       -11.4767
  35   2.0000      -0.410767       -11.1775
  36   2.0000      -0.399137       -10.8611
  37   2.0000      -0.391055       -10.6411
  38   2.0000      -0.370725       -10.0880
  39   2.0000      -0.369794       -10.0626
  40   2.0000      -0.359358        -9.7786
  41   2.0000      -0.354623        -9.6498
  42   2.0000      -0.349085        -9.4991
  43   2.0000      -0.337945        -9.1959
  44   2.0000      -0.326340        -8.8802
  45   2.0000      -0.306250        -8.3335
  46   2.0000      -0.296103        -8.0574
  47   2.0000      -0.268694        -7.3115
  48   2.0000      -0.265877        -7.2349
  49   2.0000      -0.259262        -7.0549
  50   2.0000      -0.234417        -6.3788
  51   0.0000       0.069487         1.8908
  52   0.0000       0.082527         2.2457
  53   0.0000       0.090830         2.4716
  54   0.0000       0.101402         2.7593
  55   0.0000       0.106075         2.8864

MULLIKEN ATOMIC CHARGES
-----------------------
   0 C :    0.291439
   1 C :   -0.258355
   2 C :   -0.302369
   3 C :   -0.012451
   4 O :   -0.514863
   5 H :    0.150162
   6 H :    0.143370
   7 H :    0.166497
   8 H :    0.144557
   9 H :    0.160124
  10 H :    0.143808
  11 H :    0.149442
  12 C :   -0.018910
  13 H :    0.163901
  14 H :    0.132075
  15 O :   -0.520302
  16 C :    0.071945
  17 C :    0.076849
  18 C :   -0.296749
  19 C :   -0.025892
  20 O :   -0.511557
  21 H :    0.159613
  22 O :   -0.603192
  23 H :    0.151558
  24 H :    0.161876
  25 H :    0.140943
  26 H :    0.148022
  27 H :    0.142828
  28 H :    0.365633
Sum of atomic charges:   -0.0000000

LOEWDIN ATOMIC CHARGES
----------------------
   0 C :    0.178303
   1 C :   -0.215185
   2 C :   -0.217362
   3 C :   -0.030552
   4 O :   -0.325208
   5 H :    0.098831
   6 H :    0.113168
   7 H :    0.129046
   8 H :    0.115649
   9 H :    0.118097
  10 H :    0.103155
  11 H :    0.106279
  12 C :   -0.048746
  13 H :    0.116776
  14 H :    0.099129
  15 O :   -0.328848
  16 C :    0.012433
  17 C :    0.034374
  18 C :   -0.240989
  19 C :   -0.037874
  20 O :   -0.323077
  21 H :    0.116103
  22 O :   -0.415479
  23 H :    0.115190
  24 H :    0.126275
  25 H :    0.111114
  26 H :    0.104892
  27 H :    0.101000
  28 H :    0.283508

  Mayer bond orders larger than 0.100000
B(  0-C ,  1-C ) :   0.9439 B(  0-C ,  4-O ) :   0.8984 B(  0-C ,  5-H ) :   0.9228
B(  0-C , 15-O ) :   0.8567 B(  1-C ,  2-C ) :   0.9534 B(  1-C ,  6-H ) :   0.9377
B(  1-C ,  7-H ) :   0.9344 B(  2-C ,  3-C ) :   0.9561 B(  2-C ,  8-H ) :   0.9447
B(  2-C ,  9-H ) :   0.9446 B(  3-C ,  4-O ) :   0.8293 B(  3-C , 10-H ) :   0.9359
B(  3-C , 11-H ) :   0.9405 B( 12-C , 13-H ) :   0.9010 B( 12-C , 14-H ) :   0.9333
B( 12-C , 15-O ) :   0.8391 B( 12-C , 16-C ) :   0.8920 B( 16-C , 17-C ) :   0.8981
B( 16-C , 20-O ) :   0.8612 B( 16-C , 21-H ) :   0.9275 B( 17-C , 18-C ) :   0.9112
B( 17-C , 22-O ) :   0.8911 B( 17-C , 23-H ) :   0.9331 B( 18-C , 19-C ) :   0.9398
B( 18-C , 24-H ) :   0.9378 B( 18-C , 25-H ) :   0.9349 B( 19-C , 20-O ) :   0.8539
B( 19-C , 26-H ) :   0.9340 B( 19-C , 27-H ) :   0.9381 B( 22-O , 28-H ) :   0.7935

FINAL SINGLE POINT ENERGY      -652.861792584339

DIPOLE MOMENT
-------------
                                X             Y             Z
Electronic contribution:     -1.33954      -4.19800      -2.99431
Nuclear contribution   :      1.62801       5.12932       3.65276
                        -----------------------------------------
Total Dipole Moment    :      0.28847       0.93132       0.65845
                        -----------------------------------------
Magnitude (a.u.)       :      1.17649
Magnitude (Debye)      :      2.99041

Rotational constants in cm-1:     0.062214     0.011762     0.011342
Rotational constants in MHz :  1865.124322   352.624768   340.010520

                             ****ORCA TERMINATED NORMALLY****
TOTAL RUN TIME: 0 days 0 hours 22 minutes 12 seconds 979 msec
