                         Program Version 4.2.0 -  RELEASE  -
|  1> # Test redundant internal optimization
|  2> #
|  3> ! RKS B3LYP  Opt TightSCF SmallPrint
|  4>
|  5> %basis
|  6>         Basis "6-31G"
|  7> end
|  8>
|  9> %geom
| 10> Constraints
| 11> { D 4  0  15  12  300.0   C } # D for Dihedral angle
| 12> { D 0  15  12  16  225.0   C } # D for Dihedral angle
| 13> { D 0  4  3  2   C } # D for Dihedral angle
| 14> { D 4  3  2  1   C } # D for Dihedral angle
| 15> { D 3  2  1  0   C } # D for Dihedral angle
| 16> { D 2  1  0  4   C } # D for Dihedral angle
| 17> { D 1  0  4  3   C } # D for Dihedral angle
| 18> { D 16  20  19  18   C } # D for Dihedral angle
| 19> { D 20  19  18  17   C } # D for Dihedral angle
| 20> { D 19  18  17  16   C } # D for Dihedral angle
| 21> { D 18  17  16  20   C } # D for Dihedral angle
| 22> { D 17  16  20  19   C } # D for Dihedral angle
| 23> { D 15  12  16  20   C } # D for Dihedral angle
| 24> end
| 25> end
| 26>
| 27>
| 28> #%pal
| 29> #nprocs 8
| 30> #end
| 31>
| 32> * xyz 0 1
| 33> C  -21.048   26.222   46.251
| 34> C  -20.361   27.558   45.944
| 35> C  -20.329   28.222   47.341
| 36> C  -20.110   27.022   48.296
| 37> O  -20.473   25.807   47.535
| 38> H  -20.833   25.428   45.533
| 39> H  -19.344   27.382   45.576
| 40> H  -20.898   28.157   45.201
| 41> H  -19.543   28.978   47.434
| 42> H  -21.289   28.710   47.548
| 43> H  -20.733   27.082   49.195
| 44> H  -19.064   26.913   48.597
| 45> C  -23.362   25.116   46.798
| 46> H  -22.707   24.242   46.687
| 47> H  -23.668   25.183   47.850
| 48> O  -22.586   26.394   46.375
| 49> C  -24.640   24.881   45.947
| 50> C  -24.289   24.606   44.480
| 51> C  -23.864   23.119   44.533
| 52> C  -24.804   22.522   45.610
| 53> O  -25.332   23.664   46.387
| 54> H  -25.329   25.713   46.099
| 55> O  -25.549   24.785   43.589
| 56> H  -23.500   25.261   44.095
| 57> H  -23.964   22.615   43.567
| 58> H  -22.816   23.039   44.846
| 59> H  -24.283   21.838   46.288
| 60> H  -25.662   22.004   45.175
| 61> H  -26.355   24.137   43.955
| 62> *
| 63>
| 64>                          ****END OF INPUT****
 Total Charge           Charge          ....    0
 Multiplicity           Mult            ....    1
 Number of Electrons    NEL             ....  102
FINAL SINGLE POINT ENERGY      -652.840192216460
FINAL SINGLE POINT ENERGY      -652.863941215284
FINAL SINGLE POINT ENERGY      -652.867750602351
FINAL SINGLE POINT ENERGY      -652.868435480329
FINAL SINGLE POINT ENERGY      -652.868524742922
FINAL SINGLE POINT ENERGY      -652.868535599437
FINAL SINGLE POINT ENERGY      -652.868537910826
                    ***********************HURRAY********************

CARTESIAN COORDINATES (ANGSTROEM)
---------------------------------
  C    -21.090094   26.112062   46.272338
  C    -20.505394   27.479050   45.918309
  C    -20.490505   28.180841   47.294158
  C    -20.170684   27.030960   48.274881
  O    -20.471187   25.774209   47.536777
  H    -20.846241   25.289042   45.592199
  H    -19.489638   27.345485   45.529663
  H    -21.106957   28.003849   45.173250
  H    -19.752876   28.987605   47.346779
  H    -21.478921   28.600607   47.501089
  H    -20.776607   27.059478   49.183924
  H    -19.112375   26.984833   48.547784
  C    -23.256536   25.091760   46.843492
  H    -22.612578   24.203457   46.811875
  H    -23.565550   25.239776   47.882207
  O    -22.519708   26.267231   46.381364
  C    -24.488350   24.908406   45.957667
  C    -24.195291   24.623899   44.477063
  C    -23.855099   23.111238   44.509642
  C    -24.796606   22.561276   45.609575
  O    -25.237090   23.730016   46.410998
  H    -25.150614   25.772350   46.060225
  O    -25.366826   24.892791   43.657674
  H    -23.402681   25.248564   44.069215
  H    -24.029123   22.654330   43.532174
  H    -22.802584   22.962393   44.775430
  H    -24.304088   21.842209   46.271226
  H    -25.697798   22.096425   45.197984
  H    -26.162999   24.545858   44.113041

 Multiplicity           Mult            ....    1
 Number of Electrons    NEL             ....  102
 Basis Dimension        Dim             ....  149

ORBITAL ENERGIES
----------------

  NO   OCC          E(Eh)            E(eV)
   0   2.0000     -19.148007      -521.0438
   1   2.0000     -19.144976      -520.9613
   2   2.0000     -19.143334      -520.9166
   3   2.0000     -19.135491      -520.7032
   4   2.0000     -10.282186      -279.7925
   5   2.0000     -10.236797      -278.5574
   6   2.0000     -10.231773      -278.4207
   7   2.0000     -10.231320      -278.4084
   8   2.0000     -10.228075      -278.3201
   9   2.0000     -10.227230      -278.2971
  10   2.0000     -10.188508      -277.2434
  11   2.0000     -10.187219      -277.2083
  12   2.0000     -10.186421      -277.1866
  13   2.0000      -1.057337       -28.7716
  14   2.0000      -1.035922       -28.1889
  15   2.0000      -1.004362       -27.3301
  16   2.0000      -0.996115       -27.1057
  17   2.0000      -0.791812       -21.5463
  18   2.0000      -0.778542       -21.1852
  19   2.0000      -0.767025       -20.8718
  20   2.0000      -0.731272       -19.8989
  21   2.0000      -0.673964       -18.3395
  22   2.0000      -0.603471       -16.4213
  23   2.0000      -0.601141       -16.3579
  24   2.0000      -0.591419       -16.0933
  25   2.0000      -0.582782       -15.8583
  26   2.0000      -0.521771       -14.1981
  27   2.0000      -0.519437       -14.1346
  28   2.0000      -0.496593       -13.5130
  29   2.0000      -0.492144       -13.3919
  30   2.0000      -0.470350       -12.7989
  31   2.0000      -0.457979       -12.4623
  32   2.0000      -0.447366       -12.1735
  33   2.0000      -0.437201       -11.8969
  34   2.0000      -0.425412       -11.5760
  35   2.0000      -0.412094       -11.2137
  36   2.0000      -0.404796       -11.0151
  37   2.0000      -0.392934       -10.6923
  38   2.0000      -0.376817       -10.2537
  39   2.0000      -0.368329       -10.0228
  40   2.0000      -0.359004        -9.7690
  41   2.0000      -0.352449        -9.5906
  42   2.0000      -0.349682        -9.5153
  43   2.0000      -0.339055        -9.2262
  44   2.0000      -0.327188        -8.9032
  45   2.0000      -0.306884        -8.3508
  46   2.0000      -0.300753        -8.1839
  47   2.0000      -0.274441        -7.4679
  48   2.0000      -0.268930        -7.3179
  49   2.0000      -0.258056        -7.0221
  50   2.0000      -0.243493        -6.6258
  51   0.0000       0.065874         1.7925
  52   0.0000       0.069627         1.8947
  53   0.0000       0.095394         2.5958
  54   0.0000       0.099350         2.7035
  55   0.0000       0.105331         2.8662

MULLIKEN ATOMIC CHARGES
-----------------------
   0 C :    0.283698
   1 C :   -0.262164
   2 C :   -0.298968
   3 C :   -0.005515
   4 O :   -0.513832
   5 H :    0.141011
   6 H :    0.145834
   7 H :    0.160628
   8 H :    0.142383
   9 H :    0.164316
  10 H :    0.148141
  11 H :    0.144343
  12 C :   -0.002598
  13 H :    0.139135
  14 H :    0.158888
  15 O :   -0.528579
  16 C :    0.063665
  17 C :    0.089298
  18 C :   -0.301023
  19 C :   -0.028773
  20 O :   -0.528509
  21 H :    0.165683
  22 O :   -0.604976
  23 H :    0.163387
  24 H :    0.162189
  25 H :    0.143654
  26 H :    0.148184
  27 H :    0.146761
  28 H :    0.363740
Sum of atomic charges:   -0.0000000

LOEWDIN ATOMIC CHARGES
----------------------
   0 C :    0.170991
   1 C :   -0.214468
   2 C :   -0.215823
   3 C :   -0.027980
   4 O :   -0.331325
   5 H :    0.093152
   6 H :    0.114701
   7 H :    0.125829
   8 H :    0.114231
   9 H :    0.120185
  10 H :    0.105991
  11 H :    0.103641
  12 C :   -0.036860
  13 H :    0.102378
  14 H :    0.114235
  15 O :   -0.331855
  16 C :    0.014620
  17 C :    0.037073
  18 C :   -0.242246
  19 C :   -0.037650
  20 O :   -0.331187
  21 H :    0.118136
  22 O :   -0.415307
  23 H :    0.121014
  24 H :    0.126638
  25 H :    0.112047
  26 H :    0.104740
  27 H :    0.102986
  28 H :    0.282112

  Mayer bond orders larger than 0.100000
B(  0-C ,  1-C ) :   0.9511 B(  0-C ,  4-O ) :   0.9027 B(  0-C ,  5-H ) :   0.9188
B(  0-C , 15-O ) :   0.8604 B(  1-C ,  2-C ) :   0.9557 B(  1-C ,  6-H ) :   0.9395
B(  1-C ,  7-H ) :   0.9354 B(  2-C ,  3-C ) :   0.9557 B(  2-C ,  8-H ) :   0.9449
B(  2-C ,  9-H ) :   0.9441 B(  3-C ,  4-O ) :   0.8345 B(  3-C , 10-H ) :   0.9358
B(  3-C , 11-H ) :   0.9404 B( 12-C , 13-H ) :   0.9221 B( 12-C , 14-H ) :   0.9270
B( 12-C , 15-O ) :   0.8112 B( 12-C , 16-C ) :   0.8984 B( 16-C , 17-C ) :   0.9105
B( 16-C , 20-O ) :   0.8417 B( 16-C , 21-H ) :   0.9255 B( 17-C , 18-C ) :   0.9124
B( 17-C , 22-O ) :   0.8898 B( 17-C , 23-H ) :   0.9264 B( 18-C , 19-C ) :   0.9397
B( 18-C , 24-H ) :   0.9381 B( 18-C , 25-H ) :   0.9347 B( 19-C , 20-O ) :   0.8440
B( 19-C , 26-H ) :   0.9353 B( 19-C , 27-H ) :   0.9380 B( 22-O , 28-H ) :   0.7952

FINAL SINGLE POINT ENERGY      -652.868538303339

DIPOLE MOMENT
-------------
                                X             Y             Z
Electronic contribution:     -3.89421      -1.11601      -0.18967
Nuclear contribution   :      4.63675       1.07856       0.26566
                        -----------------------------------------
Total Dipole Moment    :      0.74254      -0.03745       0.07599
                        -----------------------------------------
Magnitude (a.u.)       :      0.74735
Magnitude (Debye)      :      1.89962

Rotational constants in cm-1:     0.060299     0.012375     0.011609
Rotational constants in MHz :  1807.708466   370.990447   348.032319

                             ****ORCA TERMINATED NORMALLY****
TOTAL RUN TIME: 0 days 0 hours 27 minutes 40 seconds 7 msec
