                         Program Version 4.2.1 -  RELEASE  -
|  1> # Test redundant internal optimization
|  2> #
|  3> ! RKS B3LYP  Opt TightSCF SmallPrint
|  4>
|  5> %basis
|  6>         Basis "6-31G"
|  7> end
|  8>
|  9> %geom
| 10> Constraints
| 11> { D 4  0  19  14  90.0   C } # D for Dihedral angle
| 12> { D 0  19  14  12  90.0   C } # D for Dihedral angle
| 13> { D 0  4  3  2   C } # D for Dihedral angle
| 14> { D 4  3  2  1   C } # D for Dihedral angle
| 15> { D 3  2  1  0   C } # D for Dihedral angle
| 16> { D 2  1  0  4   C } # D for Dihedral angle
| 17> { D 1  0  4  3   C } # D for Dihedral angle
| 18> { D 14  15  16  17   C } # D for Dihedral angle
| 19> { D 15  16  17  12   C } # D for Dihedral angle
| 20> { D 16  17  12  14   C } # D for Dihedral angle
| 21> { D 17  12  14  15   C } # D for Dihedral angle
| 22> { D 12  14  15  16   C } # D for Dihedral angle
| 23> end
| 24> end
| 25>
| 26>
| 27> #%pal
| 28> #nprocs 8
| 29> #end
| 30>
| 31> * xyz 0 1
| 32> C  -21.048   26.222   46.251
| 33> C  -20.361   27.558   45.944
| 34> C  -20.329   28.222   47.341
| 35> C  -20.110   27.022   48.296
| 36> O  -20.473   25.807   47.535
| 37> H  -20.833   25.428   45.533
| 38> H  -19.344   27.382   45.576
| 39> H  -20.898   28.157   45.201
| 40> H  -19.543   28.978   47.434
| 41> H  -21.289   28.710   47.548
| 42> H  -20.733   27.082   49.195
| 43> H  -19.064   26.913   48.597
| 44> C  -23.116   28.560   45.494
| 45> H  -23.151   29.632   45.745
| 46> C  -22.892   27.702   46.744
| 47> C  -24.310   27.669   47.361
| 48> C  -25.234   27.650   46.118
| 49> O  -24.414   28.113   44.977
| 50> H  -22.384   28.403   44.700
| 51> O  -22.472   26.381   46.366
| 52> H  -22.142   28.121   47.425
| 53> H  -24.470   26.805   48.013
| 54> H  -24.483   28.574   47.957
| 55> H  -26.101   28.311   46.228
| 56> H  -25.585   26.643   45.874
| 57> *
| 58>
| 59>                          ****END OF INPUT****
 Total Charge           Charge          ....    0
 Multiplicity           Mult            ....    1
 Number of Electrons    NEL             ....   86
FINAL SINGLE POINT ENERGY      -538.361747971815
FINAL SINGLE POINT ENERGY      -538.419171132736
FINAL SINGLE POINT ENERGY      -538.423091247874
FINAL SINGLE POINT ENERGY      -538.423886421800
FINAL SINGLE POINT ENERGY      -538.424040770309
FINAL SINGLE POINT ENERGY      -538.424121682142
FINAL SINGLE POINT ENERGY      -538.424133673806
FINAL SINGLE POINT ENERGY      -538.424135465104
                    ***********************HURRAY********************

CARTESIAN COORDINATES (ANGSTROEM)
---------------------------------
  C    -21.125376   26.342889   46.406422
  C    -20.157440   27.445283   45.949738
  C    -19.848421   28.184023   47.286575
  C    -19.856537   27.023344   48.314884
  O    -20.568368   25.899626   47.666516
  H    -21.101495   25.464689   45.759826
  H    -19.252753   26.962177   45.566804
  H    -20.557094   28.093241   45.167698
  H    -18.882093   28.697314   47.260319
  H    -20.610859   28.933879   47.513666
  H    -20.365833   27.280056   49.248927
  H    -18.847298   26.670859   48.546964
  C    -23.377751   28.776746   45.593160
  H    -23.616781   29.805978   45.904167
  C    -23.134814   27.899944   46.821247
  C    -24.575557   27.590255   47.273060
  C    -25.353882   27.485972   45.940988
  O    -24.513107   28.150531   44.917298
  H    -22.554664   28.799731   44.878259
  O    -22.541511   26.611341   46.481217
  H    -22.566764   28.408741   47.606957
  H    -24.601137   26.669082   47.858404
  H    -24.953477   28.414097   47.890399
  H    -26.328119   27.984694   45.980332
  H    -25.487869   26.450510   45.619174

 Multiplicity           Mult            ....    1
 Number of Electrons    NEL             ....   86
 Basis Dimension        Dim             ....  127

ORBITAL ENERGIES
----------------

  NO   OCC          E(Eh)            E(eV)
   0   2.0000     -19.140948      -520.8517
   1   2.0000     -19.139285      -520.8064
   2   2.0000     -19.128346      -520.5087
   3   2.0000     -10.279059      -279.7074
   4   2.0000     -10.243390      -278.7368
   5   2.0000     -10.229785      -278.3666
   6   2.0000     -10.225005      -278.2365
   7   2.0000     -10.218254      -278.0528
   8   2.0000     -10.196711      -277.4666
   9   2.0000     -10.195158      -277.4244
  10   2.0000     -10.184338      -277.1299
  11   2.0000      -1.050675       -28.5903
  12   2.0000      -1.014746       -27.6126
  13   2.0000      -0.990327       -26.9482
  14   2.0000      -0.791795       -21.5459
  15   2.0000      -0.786601       -21.4045
  16   2.0000      -0.739542       -20.1240
  17   2.0000      -0.726629       -19.7726
  18   2.0000      -0.622828       -16.9480
  19   2.0000      -0.607138       -16.5211
  20   2.0000      -0.597398       -16.2560
  21   2.0000      -0.566290       -15.4095
  22   2.0000      -0.522065       -14.2061
  23   2.0000      -0.504894       -13.7389
  24   2.0000      -0.488517       -13.2932
  25   2.0000      -0.484479       -13.1834
  26   2.0000      -0.453580       -12.3425
  27   2.0000      -0.445057       -12.1106
  28   2.0000      -0.433046       -11.7838
  29   2.0000      -0.417067       -11.3490
  30   2.0000      -0.413987       -11.2652
  31   2.0000      -0.389754       -10.6058
  32   2.0000      -0.372142       -10.1265
  33   2.0000      -0.369543       -10.0558
  34   2.0000      -0.364930        -9.9303
  35   2.0000      -0.361830        -9.8459
  36   2.0000      -0.344567        -9.3761
  37   2.0000      -0.314521        -8.5585
  38   2.0000      -0.305689        -8.3182
  39   2.0000      -0.293628        -7.9900
  40   2.0000      -0.267972        -7.2919
  41   2.0000      -0.252389        -6.8678
  42   2.0000      -0.234299        -6.3756
  43   0.0000       0.064212         1.7473
  44   0.0000       0.086677         2.3586
  45   0.0000       0.092971         2.5299
  46   0.0000       0.105898         2.8816
  47   0.0000       0.113633         3.0921

MULLIKEN ATOMIC CHARGES
-----------------------
   0 C :    0.308238
   1 C :   -0.295456
   2 C :   -0.311905
   3 C :   -0.006799
   4 O :   -0.499217
   5 H :    0.167865
   6 H :    0.159883
   7 H :    0.150044
   8 H :    0.146473
   9 H :    0.143692
  10 H :    0.143122
  11 H :    0.146995
  12 C :   -0.002199
  13 H :    0.121844
  14 C :    0.064091
  15 C :   -0.288462
  16 C :    0.003411
  17 O :   -0.519282
  18 H :    0.156958
  19 O :   -0.518900
  20 H :    0.127297
  21 H :    0.172783
  22 H :    0.137547
  23 H :    0.134127
  24 H :    0.157848
Sum of atomic charges:   -0.0000000

LOEWDIN ATOMIC CHARGES
----------------------
   0 C :    0.177287
   1 C :   -0.230967
   2 C :   -0.223183
   3 C :   -0.033207
   4 O :   -0.319795
   5 H :    0.113745
   6 H :    0.124598
   7 H :    0.116708
   8 H :    0.116297
   9 H :    0.105561
  10 H :    0.102075
  11 H :    0.104606
  12 C :   -0.046938
  13 H :    0.090767
  14 C :    0.036662
  15 C :   -0.222948
  16 C :   -0.026413
  17 O :   -0.329783
  18 H :    0.112366
  19 O :   -0.314892
  20 H :    0.095603
  21 H :    0.133101
  22 H :    0.110043
  23 H :    0.097843
  24 H :    0.110863

  Mayer bond orders larger than 0.100000
B(  0-C ,  1-C ) :   0.9204 B(  0-C ,  4-O ) :   0.9010 B(  0-C ,  5-H ) :   0.9348
B(  0-C , 19-O ) :   0.9052 B(  1-C ,  2-C ) :   0.9536 B(  1-C ,  6-H ) :   0.9342
B(  1-C ,  7-H ) :   0.9279 B(  2-C ,  3-C ) :   0.9465 B(  2-C ,  8-H ) :   0.9448
B(  2-C ,  9-H ) :   0.9393 B(  3-C ,  4-O ) :   0.8510 B(  3-C , 10-H ) :   0.9343
B(  3-C , 11-H ) :   0.9386 B( 12-C , 13-H ) :   0.9087 B( 12-C , 14-C ) :   0.9130
B( 12-C , 17-O ) :   0.8779 B( 12-C , 18-H ) :   0.9274 B( 14-C , 15-C ) :   0.9551
B( 14-C , 19-O ) :   0.8264 B( 14-C , 20-H ) :   0.9102 B( 15-C , 16-C ) :   0.9487
B( 15-C , 21-H ) :   0.9347 B( 15-C , 22-H ) :   0.9421 B( 16-C , 17-O ) :   0.8500
B( 16-C , 23-H ) :   0.9335 B( 16-C , 24-H ) :   0.9359

FINAL SINGLE POINT ENERGY      -538.424134531118

DIPOLE MOMENT
-------------
                                X             Y             Z
Electronic contribution:     -1.42556      -3.70510      -1.60383
Nuclear contribution   :      2.09522       4.77937       2.23388
                        -----------------------------------------
Total Dipole Moment    :      0.66966       1.07427       0.63005
                        -----------------------------------------
Magnitude (a.u.)       :      1.41403
Magnitude (Debye)      :      3.59417

Rotational constants in cm-1:     0.081252     0.021623     0.020340
Rotational constants in MHz :  2435.881862   648.229690   609.773311

                             ****ORCA TERMINATED NORMALLY****
TOTAL RUN TIME: 0 days 0 hours 9 minutes 29 seconds 588 msec
