                         Program Version 4.2.0 -  RELEASE  -
|  1> # Test redundant internal optimization
|  2> #
|  3> ! RKS B3LYP  Opt TightSCF SmallPrint
|  4>
|  5> %basis
|  6>         Basis "6-31G"
|  7> end
|  8>
|  9> %geom
| 10> Constraints
| 11> { D 4  0  15  12  300.0   C } # D for Dihedral angle
| 12> { D 0  15  12  16  300.0   C } # D for Dihedral angle
| 13> { D 0  4  3  2   C } # D for Dihedral angle
| 14> { D 4  3  2  1   C } # D for Dihedral angle
| 15> { D 3  2  1  0   C } # D for Dihedral angle
| 16> { D 2  1  0  4   C } # D for Dihedral angle
| 17> { D 1  0  4  3   C } # D for Dihedral angle
| 18> { D 16  20  19  18   C } # D for Dihedral angle
| 19> { D 20  19  18  17   C } # D for Dihedral angle
| 20> { D 19  18  17  16   C } # D for Dihedral angle
| 21> { D 18  17  16  20   C } # D for Dihedral angle
| 22> { D 17  16  20  19   C } # D for Dihedral angle
| 23> { D 15  12  16  20   C } # D for Dihedral angle
| 24> end
| 25> end
| 26>
| 27>
| 28> #%pal
| 29> #nprocs 8
| 30> #end
| 31>
| 32> * xyz 0 1
| 33> C  -21.048   26.222   46.251
| 34> C  -20.361   27.558   45.944
| 35> C  -20.329   28.222   47.341
| 36> C  -20.110   27.022   48.296
| 37> O  -20.473   25.807   47.535
| 38> H  -20.833   25.428   45.533
| 39> H  -19.344   27.382   45.576
| 40> H  -20.898   28.157   45.201
| 41> H  -19.543   28.978   47.434
| 42> H  -21.289   28.710   47.548
| 43> H  -20.733   27.082   49.195
| 44> H  -19.064   26.913   48.597
| 45> C  -23.362   25.116   46.798
| 46> H  -23.008   24.788   47.783
| 47> H  -24.436   25.326   46.871
| 48> O  -22.586   26.394   46.375
| 49> C  -23.177   23.943   45.796
| 50> C  -21.719   23.469   45.758
| 51> C  -21.640   22.596   47.033
| 52> C  -23.046   21.950   47.106
| 53> O  -23.928   22.765   46.243
| 54> H  -23.584   24.233   44.826
| 55> O  -21.473   22.608   44.488
| 56> H  -20.998   24.293   45.760
| 57> H  -20.840   21.851   46.988
| 58> H  -21.459   23.229   47.910
| 59> H  -23.450   21.939   48.123
| 60> H  -23.058   20.931   46.709
| 61> H  -22.185   21.774   44.464
| 62> *
| 63>
| 64>                          ****END OF INPUT****
 Total Charge           Charge          ....    0
 Multiplicity           Mult            ....    1
 Number of Electrons    NEL             ....  102
FINAL SINGLE POINT ENERGY      -652.809894574190
FINAL SINGLE POINT ENERGY      -652.840134418713
FINAL SINGLE POINT ENERGY      -652.858953493977
FINAL SINGLE POINT ENERGY      -652.861866312025
FINAL SINGLE POINT ENERGY      -652.862435207124
FINAL SINGLE POINT ENERGY      -652.862535317020
FINAL SINGLE POINT ENERGY      -652.862544197671
FINAL SINGLE POINT ENERGY      -652.862550169260
                    ***********************HURRAY********************

CARTESIAN COORDINATES (ANGSTROEM)
---------------------------------
  C    -20.901935   26.298107   46.226776
  C    -20.426105   27.738632   46.028128
  C    -20.513954   28.301263   47.466211
  C    -20.125986   27.088799   48.342151
  O    -20.293499   25.890510   47.478478
  H    -20.560386   25.597113   45.466590
  H    -19.391191   27.729675   45.668056
  H    -21.050113   28.279450   45.314268
  H    -19.848631   29.155095   47.624776
  H    -21.540228   28.615647   47.674071
  H    -20.759149   26.978275   49.226296
  H    -19.076389   27.104866   48.650070
  C    -23.108550   25.156799   46.645064
  H    -22.858810   24.857621   47.670722
  H    -24.142988   25.504148   46.635906
  O    -22.334942   26.350827   46.311694
  C    -23.034187   23.902946   45.746770
  C    -21.699805   23.146290   45.615814
  C    -21.629919   22.387544   46.973378
  C    -23.114781   22.044009   47.251121
  O    -23.929085   22.935687   46.396147
  H    -23.446075   24.114901   44.755557
  O    -21.765965   22.229454   44.485412
  H    -20.823396   23.756146   45.429449
  H    -20.997165   21.501311   46.885648
  H    -21.209835   23.045967   47.740100
  H    -23.398802   22.199251   48.296474
  H    -23.365204   21.015210   46.972559
  H    -22.626925   21.760459   44.504313

 Multiplicity           Mult            ....    1
 Number of Electrons    NEL             ....  102
 Basis Dimension        Dim             ....  149

ORBITAL ENERGIES
----------------

  NO   OCC          E(Eh)            E(eV)
   0   2.0000     -19.145999      -520.9891
   1   2.0000     -19.145340      -520.9712
   2   2.0000     -19.144999      -520.9619
   3   2.0000     -19.136406      -520.7281
   4   2.0000     -10.280183      -279.7380
   5   2.0000     -10.239565      -278.6327
   6   2.0000     -10.235411      -278.5197
   7   2.0000     -10.230794      -278.3940
   8   2.0000     -10.228689      -278.3368
   9   2.0000     -10.227579      -278.3066
  10   2.0000     -10.186026      -277.1759
  11   2.0000     -10.185530      -277.1624
  12   2.0000     -10.184306      -277.1290
  13   2.0000      -1.055956       -28.7340
  14   2.0000      -1.038244       -28.2521
  15   2.0000      -1.005648       -27.3651
  16   2.0000      -0.994171       -27.0528
  17   2.0000      -0.790146       -21.5010
  18   2.0000      -0.775127       -21.0923
  19   2.0000      -0.765303       -20.8250
  20   2.0000      -0.736323       -20.0364
  21   2.0000      -0.674685       -18.3591
  22   2.0000      -0.603184       -16.4135
  23   2.0000      -0.602588       -16.3973
  24   2.0000      -0.597147       -16.2492
  25   2.0000      -0.578000       -15.7282
  26   2.0000      -0.522614       -14.2211
  27   2.0000      -0.519436       -14.1346
  28   2.0000      -0.500241       -13.6123
  29   2.0000      -0.480514       -13.0755
  30   2.0000      -0.469653       -12.7799
  31   2.0000      -0.459483       -12.5032
  32   2.0000      -0.452549       -12.3145
  33   2.0000      -0.429572       -11.6892
  34   2.0000      -0.421059       -11.4576
  35   2.0000      -0.418714       -11.3938
  36   2.0000      -0.403042       -10.9673
  37   2.0000      -0.391317       -10.6483
  38   2.0000      -0.375850       -10.2274
  39   2.0000      -0.367078        -9.9887
  40   2.0000      -0.361024        -9.8240
  41   2.0000      -0.356628        -9.7043
  42   2.0000      -0.348539        -9.4842
  43   2.0000      -0.333236        -9.0678
  44   2.0000      -0.325577        -8.8594
  45   2.0000      -0.308414        -8.3924
  46   2.0000      -0.299927        -8.1614
  47   2.0000      -0.276801        -7.5321
  48   2.0000      -0.269021        -7.3204
  49   2.0000      -0.256425        -6.9777
  50   2.0000      -0.242501        -6.5988
  51   0.0000       0.066989         1.8229
  52   0.0000       0.076326         2.0769
  53   0.0000       0.094603         2.5743
  54   0.0000       0.098633         2.6839
  55   0.0000       0.109487         2.9793

MULLIKEN ATOMIC CHARGES
-----------------------
   0 C :    0.285594
   1 C :   -0.258657
   2 C :   -0.295418
   3 C :   -0.005928
   4 O :   -0.523308
   5 H :    0.146657
   6 H :    0.144370
   7 H :    0.160240
   8 H :    0.140537
   9 H :    0.163660
  10 H :    0.147102
  11 H :    0.144800
  12 C :    0.003783
  13 H :    0.139868
  14 H :    0.167921
  15 O :   -0.528311
  16 C :    0.031256
  17 C :    0.083862
  18 C :   -0.307113
  19 C :   -0.027668
  20 O :   -0.524922
  21 H :    0.160824
  22 O :   -0.605344
  23 H :    0.166593
  24 H :    0.160783
  25 H :    0.174101
  26 H :    0.147387
  27 H :    0.143403
  28 H :    0.363929
Sum of atomic charges:    0.0000000

LOEWDIN ATOMIC CHARGES
----------------------
   0 C :    0.169105
   1 C :   -0.213016
   2 C :   -0.215066
   3 C :   -0.027326
   4 O :   -0.337039
   5 H :    0.095342
   6 H :    0.113224
   7 H :    0.126226
   8 H :    0.113587
   9 H :    0.120076
  10 H :    0.104925
  11 H :    0.103661
  12 C :   -0.042798
  13 H :    0.100117
  14 H :    0.124360
  15 O :   -0.326246
  16 C :    0.006227
  17 C :    0.035276
  18 C :   -0.243165
  19 C :   -0.038686
  20 O :   -0.327447
  21 H :    0.114695
  22 O :   -0.417142
  23 H :    0.119719
  24 H :    0.126097
  25 H :    0.127579
  26 H :    0.104445
  27 H :    0.101205
  28 H :    0.282066

  Mayer bond orders larger than 0.100000
B(  0-C ,  1-C ) :   0.9467 B(  0-C ,  4-O ) :   0.8943 B(  0-C ,  5-H ) :   0.9039
B(  0-C , 15-O ) :   0.8677 B(  1-C ,  2-C ) :   0.9557 B(  1-C ,  6-H ) :   0.9410
B(  1-C ,  7-H ) :   0.9355 B(  2-C ,  3-C ) :   0.9559 B(  2-C ,  8-H ) :   0.9454
B(  2-C ,  9-H ) :   0.9436 B(  3-C ,  4-O ) :   0.8313 B(  3-C , 10-H ) :   0.9361
B(  3-C , 11-H ) :   0.9404 B( 12-C , 13-H ) :   0.9232 B( 12-C , 14-H ) :   0.9349
B( 12-C , 15-O ) :   0.8394 B( 12-C , 16-C ) :   0.8792 B( 16-C , 17-C ) :   0.9113
B( 16-C , 20-O ) :   0.8265 B( 16-C , 21-H ) :   0.9251 B( 17-C , 18-C ) :   0.9148
B( 17-C , 22-O ) :   0.8831 B( 17-C , 23-H ) :   0.9163 B( 18-C , 19-C ) :   0.9407
B( 18-C , 24-H ) :   0.9375 B( 18-C , 25-H ) :   0.9240 B( 19-C , 20-O ) :   0.8347
B( 19-C , 26-H ) :   0.9359 B( 19-C , 27-H ) :   0.9384 B( 22-O , 28-H ) :   0.7943

FINAL SINGLE POINT ENERGY      -652.862567724949

DIPOLE MOMENT
-------------
                                X             Y             Z
Electronic contribution:     -2.66734      -2.85301      -3.15470
Nuclear contribution   :      3.01750       3.30219       3.82659
                        -----------------------------------------
Total Dipole Moment    :      0.35016       0.44918       0.67189
                        -----------------------------------------
Magnitude (a.u.)       :      0.88080
Magnitude (Debye)      :      2.23881

Rotational constants in cm-1:     0.054122     0.013926     0.013878
Rotational constants in MHz :  1622.538433   417.483799   416.042287

                             ****ORCA TERMINATED NORMALLY****
TOTAL RUN TIME: 0 days 2 hours 18 minutes 10 seconds 337 msec
