                         Program Version 4.2.0 -  RELEASE  -
|  1> # Test redundant internal optimization
|  2> #
|  3> ! RKS B3LYP  Opt TightSCF SmallPrint
|  4>
|  5> %basis
|  6>         Basis "6-31G"
|  7> end
|  8>
|  9> %geom
| 10> Constraints
| 11> { D 4  0  15  12  255.0   C } # D for Dihedral angle
| 12> { D 0  15  12  16  150.0   C } # D for Dihedral angle
| 13> { D 0  4  3  2   C } # D for Dihedral angle
| 14> { D 4  3  2  1   C } # D for Dihedral angle
| 15> { D 3  2  1  0   C } # D for Dihedral angle
| 16> { D 2  1  0  4   C } # D for Dihedral angle
| 17> { D 1  0  4  3   C } # D for Dihedral angle
| 18> { D 16  20  19  18   C } # D for Dihedral angle
| 19> { D 20  19  18  17   C } # D for Dihedral angle
| 20> { D 19  18  17  16   C } # D for Dihedral angle
| 21> { D 18  17  16  20   C } # D for Dihedral angle
| 22> { D 17  16  20  19   C } # D for Dihedral angle
| 23> { D 15  12  16  20   C } # D for Dihedral angle
| 24> end
| 25> end
| 26>
| 27>
| 28> #%pal
| 29> #nprocs 8
| 30> #end
| 31>
| 32> * xyz 0 1
| 33> C  -21.048   26.222   46.251
| 34> C  -20.361   27.558   45.944
| 35> C  -20.329   28.222   47.341
| 36> C  -20.110   27.022   48.296
| 37> O  -20.473   25.807   47.535
| 38> H  -20.833   25.428   45.533
| 39> H  -19.344   27.382   45.576
| 40> H  -20.898   28.157   45.201
| 41> H  -19.543   28.978   47.434
| 42> H  -21.289   28.710   47.548
| 43> H  -20.733   27.082   49.195
| 44> H  -19.064   26.913   48.597
| 45> C  -23.431   25.260   45.734
| 46> H  -23.635   25.509   44.685
| 47> H  -22.882   24.310   45.760
| 48> O  -22.586   26.394   46.375
| 49> C  -24.789   25.040   46.456
| 50> C  -25.696   26.269   46.321
| 51> C  -26.254   26.091   44.889
| 52> C  -26.391   24.554   44.754
| 53> O  -25.545   23.961   45.811
| 54> H  -24.601   24.728   47.485
| 55> O  -26.841   26.203   47.368
| 56> H  -25.162   27.216   46.455
| 57> H  -27.205   26.610   44.737
| 58> H  -25.538   26.482   44.156
| 59> H  -26.055   24.187   43.778
| 60> H  -27.414   24.209   44.928
| 61> H  -27.392   25.261   47.253
| 62> *
| 63>
| 64>                          ****END OF INPUT****
 Total Charge           Charge          ....    0
 Multiplicity           Mult            ....    1
 Number of Electrons    NEL             ....  102
FINAL SINGLE POINT ENERGY      -652.837968231208
FINAL SINGLE POINT ENERGY      -652.861196697744
FINAL SINGLE POINT ENERGY      -652.864878089256
FINAL SINGLE POINT ENERGY      -652.865534111763
FINAL SINGLE POINT ENERGY      -652.865621542921
FINAL SINGLE POINT ENERGY      -652.865632512109
FINAL SINGLE POINT ENERGY      -652.865635211683
                    ***********************HURRAY********************

CARTESIAN COORDINATES (ANGSTROEM)
---------------------------------
  C    -21.091183   26.128995   46.204533
  C    -20.502744   27.515301   45.942585
  C    -20.603545   28.173508   47.339262
  C    -20.340723   26.991551   48.298654
  O    -20.565108   25.761738   47.497188
  H    -20.791613   25.343653   45.505205
  H    -19.455804   27.413280   45.633718
  H    -21.050727   28.056539   45.168502
  H    -19.886005   28.988218   47.474227
  H    -21.612137   28.571203   47.485748
  H    -21.015629   26.978326   49.158093
  H    -19.305476   26.950909   48.650404
  C    -23.312055   25.176320   45.636607
  H    -23.476321   25.388117   44.571032
  H    -22.790451   24.215041   45.723199
  O    -22.534152   26.247745   46.242779
  C    -24.634966   25.086193   46.393938
  C    -25.520571   26.337836   46.308227
  C    -26.186183   26.155935   44.920769
  C    -26.370812   24.621835   44.814896
  O    -25.460722   24.017630   45.820470
  H    -24.433348   24.820995   47.434985
  O    -26.505239   26.347430   47.379087
  H    -24.958565   27.264421   46.411239
  H    -27.130787   26.702496   44.872245
  H    -25.529549   26.534846   44.130056
  H    -26.118176   24.228480   43.825385
  H    -27.386598   24.301920   45.067398
  H    -26.872810   25.444539   47.485568

 Multiplicity           Mult            ....    1
 Number of Electrons    NEL             ....  102
 Basis Dimension        Dim             ....  149

ORBITAL ENERGIES
----------------

  NO   OCC          E(Eh)            E(eV)
   0   2.0000     -19.145808      -520.9839
   1   2.0000     -19.144131      -520.9383
   2   2.0000     -19.138009      -520.7717
   3   2.0000     -19.133783      -520.6567
   4   2.0000     -10.281000      -279.7602
   5   2.0000     -10.234559      -278.4965
   6   2.0000     -10.232880      -278.4508
   7   2.0000     -10.231478      -278.4127
   8   2.0000     -10.231071      -278.4016
   9   2.0000     -10.223600      -278.1983
  10   2.0000     -10.186654      -277.1929
  11   2.0000     -10.185756      -277.1685
  12   2.0000     -10.184847      -277.1438
  13   2.0000      -1.053553       -28.6686
  14   2.0000      -1.034945       -28.1623
  15   2.0000      -1.003106       -27.2959
  16   2.0000      -0.995883       -27.0994
  17   2.0000      -0.789339       -21.4790
  18   2.0000      -0.777799       -21.1650
  19   2.0000      -0.767005       -20.8713
  20   2.0000      -0.728954       -19.8358
  21   2.0000      -0.674178       -18.3453
  22   2.0000      -0.603366       -16.4184
  23   2.0000      -0.597998       -16.2723
  24   2.0000      -0.590321       -16.0634
  25   2.0000      -0.584194       -15.8967
  26   2.0000      -0.520813       -14.1720
  27   2.0000      -0.520083       -14.1522
  28   2.0000      -0.496690       -13.5156
  29   2.0000      -0.486503       -13.2384
  30   2.0000      -0.468610       -12.7515
  31   2.0000      -0.455832       -12.4038
  32   2.0000      -0.451034       -12.2733
  33   2.0000      -0.439715       -11.9653
  34   2.0000      -0.426411       -11.6032
  35   2.0000      -0.413066       -11.2401
  36   2.0000      -0.400043       -10.8857
  37   2.0000      -0.391477       -10.6526
  38   2.0000      -0.373526       -10.1642
  39   2.0000      -0.365480        -9.9452
  40   2.0000      -0.359207        -9.7745
  41   2.0000      -0.355185        -9.6651
  42   2.0000      -0.349526        -9.5111
  43   2.0000      -0.329892        -8.9768
  44   2.0000      -0.320922        -8.7327
  45   2.0000      -0.308874        -8.4049
  46   2.0000      -0.302099        -8.2205
  47   2.0000      -0.276453        -7.5227
  48   2.0000      -0.263849        -7.1797
  49   2.0000      -0.249257        -6.7826
  50   2.0000      -0.245449        -6.6790
  51   0.0000       0.064119         1.7448
  52   0.0000       0.077396         2.1061
  53   0.0000       0.096228         2.6185
  54   0.0000       0.100986         2.7480
  55   0.0000       0.104776         2.8511

MULLIKEN ATOMIC CHARGES
-----------------------
   0 C :    0.285601
   1 C :   -0.253771
   2 C :   -0.300104
   3 C :   -0.002147
   4 O :   -0.504384
   5 H :    0.142647
   6 H :    0.144200
   7 H :    0.147302
   8 H :    0.141226
   9 H :    0.163774
  10 H :    0.152738
  11 H :    0.141368
  12 C :   -0.009321
  13 H :    0.129447
  14 H :    0.157011
  15 O :   -0.528238
  16 C :    0.055813
  17 C :    0.097554
  18 C :   -0.302271
  19 C :   -0.024024
  20 O :   -0.529177
  21 H :    0.169717
  22 O :   -0.605746
  23 H :    0.172513
  24 H :    0.161717
  25 H :    0.145569
  26 H :    0.143380
  27 H :    0.144568
  28 H :    0.363037
Sum of atomic charges:   -0.0000000

LOEWDIN ATOMIC CHARGES
----------------------
   0 C :    0.175700
   1 C :   -0.218329
   2 C :   -0.216099
   3 C :   -0.026916
   4 O :   -0.321480
   5 H :    0.099830
   6 H :    0.113209
   7 H :    0.119191
   8 H :    0.113802
   9 H :    0.119677
  10 H :    0.108299
  11 H :    0.102213
  12 C :   -0.038169
  13 H :    0.092121
  14 H :    0.110703
  15 O :   -0.337100
  16 C :    0.016505
  17 C :    0.039384
  18 C :   -0.242173
  19 C :   -0.036795
  20 O :   -0.331508
  21 H :    0.121273
  22 O :   -0.415748
  23 H :    0.125898
  24 H :    0.126677
  25 H :    0.113442
  26 H :    0.102673
  27 H :    0.102022
  28 H :    0.281699

  Mayer bond orders larger than 0.100000
B(  0-C ,  1-C ) :   0.9465 B(  0-C ,  4-O ) :   0.9258 B(  0-C ,  5-H ) :   0.9208
B(  0-C , 15-O ) :   0.8436 B(  1-C ,  2-C ) :   0.9577 B(  1-C ,  6-H ) :   0.9382
B(  1-C ,  7-H ) :   0.9382 B(  2-C ,  3-C ) :   0.9541 B(  2-C ,  8-H ) :   0.9453
B(  2-C ,  9-H ) :   0.9436 B(  3-C ,  4-O ) :   0.8369 B(  3-C , 10-H ) :   0.9347
B(  3-C , 11-H ) :   0.9400 B( 12-C , 13-H ) :   0.9231 B( 12-C , 14-H ) :   0.9161
B( 12-C , 15-O ) :   0.8237 B( 12-C , 16-C ) :   0.9061 B( 16-C , 17-C ) :   0.9146
B( 16-C , 20-O ) :   0.8420 B( 16-C , 21-H ) :   0.9239 B( 17-C , 18-C ) :   0.9118
B( 17-C , 22-O ) :   0.8890 B( 17-C , 23-H ) :   0.9253 B( 18-C , 19-C ) :   0.9399
B( 18-C , 24-H ) :   0.9379 B( 18-C , 25-H ) :   0.9351 B( 19-C , 20-O ) :   0.8428
B( 19-C , 26-H ) :   0.9364 B( 19-C , 27-H ) :   0.9388 B( 22-O , 28-H ) :   0.7955

FINAL SINGLE POINT ENERGY      -652.865635524763

DIPOLE MOMENT
-------------
                                X             Y             Z
Electronic contribution:     -1.76141      -3.88659       2.26259
Nuclear contribution   :      2.11353       4.41591      -3.28323
                        -----------------------------------------
Total Dipole Moment    :      0.35212       0.52932      -1.02064
                        -----------------------------------------
Magnitude (a.u.)       :      1.20244
Magnitude (Debye)      :      3.05637

Rotational constants in cm-1:     0.057020     0.012062     0.011579
Rotational constants in MHz :  1709.415808   361.604701   347.138252

                             ****ORCA TERMINATED NORMALLY****
TOTAL RUN TIME: 0 days 0 hours 42 minutes 46 seconds 283 msec
