                         Program Version 4.2.0 -  RELEASE  -
|  1> # Test redundant internal optimization
|  2> #
|  3> ! RKS B3LYP  Opt TightSCF SmallPrint
|  4>
|  5> %basis
|  6>         Basis "6-31G"
|  7> end
|  8>
|  9> %geom
| 10> Constraints
| 11> { D 4  0  15  12  285.0   C } # D for Dihedral angle
| 12> { D 0  15  12  16  60.0   C } # D for Dihedral angle
| 13> { D 0  4  3  2   C } # D for Dihedral angle
| 14> { D 4  3  2  1   C } # D for Dihedral angle
| 15> { D 3  2  1  0   C } # D for Dihedral angle
| 16> { D 2  1  0  4   C } # D for Dihedral angle
| 17> { D 1  0  4  3   C } # D for Dihedral angle
| 18> { D 16  20  19  18   C } # D for Dihedral angle
| 19> { D 20  19  18  17   C } # D for Dihedral angle
| 20> { D 19  18  17  16   C } # D for Dihedral angle
| 21> { D 18  17  16  20   C } # D for Dihedral angle
| 22> { D 17  16  20  19   C } # D for Dihedral angle
| 23> { D 15  12  16  20   C } # D for Dihedral angle
| 24> end
| 25> end
| 26>
| 27>
| 28> #%pal
| 29> #nprocs 8
| 30> #end
| 31>
| 32> * xyz 0 1
| 33> C  -21.048   26.222   46.251
| 34> C  -20.361   27.558   45.944
| 35> C  -20.329   28.222   47.341
| 36> C  -20.110   27.022   48.296
| 37> O  -20.473   25.807   47.535
| 38> H  -20.833   25.428   45.533
| 39> H  -19.344   27.382   45.576
| 40> H  -20.898   28.157   45.201
| 41> H  -19.543   28.978   47.434
| 42> H  -21.289   28.710   47.548
| 43> H  -20.733   27.082   49.195
| 44> H  -19.064   26.913   48.597
| 45> C  -23.396   25.070   46.435
| 46> H  -24.465   25.303   46.513
| 47> H  -23.238   24.482   45.522
| 48> O  -22.586   26.394   46.375
| 49> C  -23.001   24.179   47.646
| 50> C  -23.348   24.860   48.974
| 51> C  -24.869   24.592   49.076
| 52> C  -25.021   23.187   48.443
| 53> O  -23.794   22.945   47.654
| 54> H  -21.954   23.886   47.547
| 55> H  -22.813   24.372   49.797
| 56> O  -22.999   26.373   48.994
| 57> H  -25.238   24.628   50.106
| 58> H  -25.421   25.340   48.496
| 59> H  -25.892   23.117   47.782
| 60> H  -25.083   22.395   49.194
| 61> H  -23.524   26.882   48.178
| 62> *
| 63>
| 64>                          ****END OF INPUT****
 Total Charge           Charge          ....    0
 Multiplicity           Mult            ....    1
 Number of Electrons    NEL             ....  102
FINAL SINGLE POINT ENERGY      -652.836885358074
FINAL SINGLE POINT ENERGY      -652.862111212405
FINAL SINGLE POINT ENERGY      -652.867819988802
FINAL SINGLE POINT ENERGY      -652.869657557593
FINAL SINGLE POINT ENERGY      -652.870384617159
FINAL SINGLE POINT ENERGY      -652.870641157782
FINAL SINGLE POINT ENERGY      -652.870694136854
FINAL SINGLE POINT ENERGY      -652.870703932304
                    ***********************HURRAY********************

CARTESIAN COORDINATES (ANGSTROEM)
---------------------------------
  C    -21.065037   26.169136   46.286998
  C    -20.477318   27.538395   45.944924
  C    -20.444408   28.226093   47.331010
  C    -20.119645   27.061237   48.294407
  O    -20.438967   25.815997   47.531896
  H    -20.830943   25.365715   45.581199
  H    -19.464438   27.401768   45.550395
  H    -21.079017   28.073644   45.207762
  H    -19.699616   29.025931   47.384776
  H    -21.423848   28.659562   47.557269
  H    -20.726374   27.059268   49.199521
  H    -19.056781   27.001573   48.543633
  C    -23.294414   25.064162   46.442522
  H    -24.335506   25.394535   46.444527
  H    -23.121964   24.470899   45.534619
  O    -22.516692   26.315946   46.358444
  C    -22.975297   24.191980   47.669579
  C    -23.348034   24.857950   49.007989
  C    -24.895335   24.643613   49.052667
  C    -25.066997   23.263207   48.381637
  O    -23.811260   22.994313   47.624783
  H    -21.937955   23.858949   47.648462
  H    -22.865549   24.327375   49.832536
  O    -22.995144   26.254255   49.150811
  H    -25.277883   24.669689   50.076038
  H    -25.384749   25.445038   48.489924
  H    -25.912218   23.219938   47.687248
  H    -25.170210   22.453956   49.110522
  H    -22.931399   26.661875   48.256903

 Multiplicity           Mult            ....    1
 Number of Electrons    NEL             ....  102
 Basis Dimension        Dim             ....  149

ORBITAL ENERGIES
----------------

  NO   OCC          E(Eh)            E(eV)
   0   2.0000     -19.163466      -521.4644
   1   2.0000     -19.148128      -521.0470
   2   2.0000     -19.138441      -520.7835
   3   2.0000     -19.123175      -520.3680
   4   2.0000     -10.286895      -279.9206
   5   2.0000     -10.236015      -278.5361
   6   2.0000     -10.231439      -278.4116
   7   2.0000     -10.228849      -278.3411
   8   2.0000     -10.225744      -278.2566
   9   2.0000     -10.222331      -278.1638
  10   2.0000     -10.190250      -277.2908
  11   2.0000     -10.188798      -277.2513
  12   2.0000     -10.180386      -277.0224
  13   2.0000      -1.062145       -28.9024
  14   2.0000      -1.023904       -27.8618
  15   2.0000      -1.004270       -27.3276
  16   2.0000      -0.998731       -27.1769
  17   2.0000      -0.792824       -21.5738
  18   2.0000      -0.769789       -20.9470
  19   2.0000      -0.762729       -20.7549
  20   2.0000      -0.734620       -19.9900
  21   2.0000      -0.676528       -18.4093
  22   2.0000      -0.603620       -16.4253
  23   2.0000      -0.599031       -16.3005
  24   2.0000      -0.595520       -16.2049
  25   2.0000      -0.577260       -15.7081
  26   2.0000      -0.525321       -14.2947
  27   2.0000      -0.518410       -14.1066
  28   2.0000      -0.492874       -13.4118
  29   2.0000      -0.487649       -13.2696
  30   2.0000      -0.465215       -12.6591
  31   2.0000      -0.455457       -12.3936
  32   2.0000      -0.440631       -11.9902
  33   2.0000      -0.436779       -11.8854
  34   2.0000      -0.422762       -11.5040
  35   2.0000      -0.408494       -11.1157
  36   2.0000      -0.405412       -11.0318
  37   2.0000      -0.391529       -10.6541
  38   2.0000      -0.380417       -10.3517
  39   2.0000      -0.365853        -9.9554
  40   2.0000      -0.359344        -9.7782
  41   2.0000      -0.353796        -9.6273
  42   2.0000      -0.350932        -9.5493
  43   2.0000      -0.340061        -9.2535
  44   2.0000      -0.333775        -9.0825
  45   2.0000      -0.311607        -8.4792
  46   2.0000      -0.298403        -8.1200
  47   2.0000      -0.277519        -7.5517
  48   2.0000      -0.264458        -7.1963
  49   2.0000      -0.250263        -6.8100
  50   2.0000      -0.239045        -6.5047
  51   0.0000       0.059807         1.6274
  52   0.0000       0.084915         2.3107
  53   0.0000       0.096284         2.6200
  54   0.0000       0.101563         2.7637
  55   0.0000       0.105044         2.8584

MULLIKEN ATOMIC CHARGES
-----------------------
   0 C :    0.282218
   1 C :   -0.259565
   2 C :   -0.309992
   3 C :   -0.028095
   4 O :   -0.512016
   5 H :    0.151221
   6 H :    0.150684
   7 H :    0.159063
   8 H :    0.146751
   9 H :    0.158345
  10 H :    0.188329
  11 H :    0.142626
  12 C :   -0.050572
  13 H :    0.158059
  14 H :    0.155286
  15 O :   -0.533802
  16 C :    0.055077
  17 C :    0.115132
  18 C :   -0.303638
  19 C :   -0.022839
  20 O :   -0.522619
  21 H :    0.187123
  22 H :    0.154125
  23 O :   -0.633613
  24 H :    0.150128
  25 H :    0.144314
  26 H :    0.140638
  27 H :    0.150357
  28 H :    0.387276
Sum of atomic charges:   -0.0000000

LOEWDIN ATOMIC CHARGES
----------------------
   0 C :    0.167549
   1 C :   -0.213727
   2 C :   -0.217449
   3 C :   -0.037795
   4 O :   -0.322795
   5 H :    0.100750
   6 H :    0.117332
   7 H :    0.124777
   8 H :    0.116726
   9 H :    0.115711
  10 H :    0.124204
  11 H :    0.103660
  12 C :   -0.052984
  13 H :    0.114069
  14 H :    0.108701
  15 O :   -0.333139
  16 C :    0.005096
  17 C :    0.043636
  18 C :   -0.238058
  19 C :   -0.034749
  20 O :   -0.323341
  21 H :    0.127104
  22 H :    0.111789
  23 O :   -0.424891
  24 H :    0.121010
  25 H :    0.110165
  26 H :    0.100928
  27 H :    0.106425
  28 H :    0.279299

  Mayer bond orders larger than 0.100000
B(  0-C ,  1-C ) :   0.9481 B(  0-C ,  4-O ) :   0.9203 B(  0-C ,  5-H ) :   0.9199
B(  0-C , 15-O ) :   0.8225 B(  1-C ,  2-C ) :   0.9543 B(  1-C ,  6-H ) :   0.9393
B(  1-C ,  7-H ) :   0.9363 B(  2-C ,  3-C ) :   0.9546 B(  2-C ,  8-H ) :   0.9452
B(  2-C ,  9-H ) :   0.9446 B(  3-C ,  4-O ) :   0.8133 B(  3-C , 10-H ) :   0.9118
B(  3-C , 11-H ) :   0.9398 B( 12-C , 13-H ) :   0.9389 B( 12-C , 14-H ) :   0.9271
B( 12-C , 15-O ) :   0.8115 B( 12-C , 16-C ) :   0.8833 B( 16-C , 17-C ) :   0.9095
B( 16-C , 20-O ) :   0.8345 B( 16-C , 21-H ) :   0.9175 B( 17-C , 18-C ) :   0.9034
B( 17-C , 22-H ) :   0.9344 B( 17-C , 23-O ) :   0.9106 B( 18-C , 19-C ) :   0.9413
B( 18-C , 24-H ) :   0.9449 B( 18-C , 25-H ) :   0.9433 B( 19-C , 20-O ) :   0.8359
B( 19-C , 26-H ) :   0.9339 B( 19-C , 27-H ) :   0.9384 B( 23-O , 28-H ) :   0.7253

FINAL SINGLE POINT ENERGY      -652.870704940855

DIPOLE MOMENT
-------------
                                X             Y             Z
Electronic contribution:      0.42055      -3.10189      -0.54749
Nuclear contribution   :     -0.41343       3.69101       0.08531
                        -----------------------------------------
Total Dipole Moment    :      0.00712       0.58912      -0.46217
                        -----------------------------------------
Magnitude (a.u.)       :      0.74881
Magnitude (Debye)      :      1.90332

Rotational constants in cm-1:     0.058519     0.016420     0.014962
Rotational constants in MHz :  1754.349176   492.262916   448.561634

                             ****ORCA TERMINATED NORMALLY****
TOTAL RUN TIME: 0 days 0 hours 58 minutes 51 seconds 752 msec
