                         Program Version 4.2.0 -  RELEASE  -
|  1> # Test redundant internal optimization
|  2> #
|  3> ! RKS B3LYP  Opt TightSCF SmallPrint
|  4>
|  5> %basis
|  6>         Basis "6-31G"
|  7> end
|  8>
|  9> %geom
| 10> Constraints
| 11> { D 4  0  15  12  345.0   C } # D for Dihedral angle
| 12> { D 0  15  12  16  285.0   C } # D for Dihedral angle
| 13> { D 0  4  3  2   C } # D for Dihedral angle
| 14> { D 4  3  2  1   C } # D for Dihedral angle
| 15> { D 3  2  1  0   C } # D for Dihedral angle
| 16> { D 2  1  0  4   C } # D for Dihedral angle
| 17> { D 1  0  4  3   C } # D for Dihedral angle
| 18> { D 16  20  19  18   C } # D for Dihedral angle
| 19> { D 20  19  18  17   C } # D for Dihedral angle
| 20> { D 19  18  17  16   C } # D for Dihedral angle
| 21> { D 18  17  16  20   C } # D for Dihedral angle
| 22> { D 17  16  20  19   C } # D for Dihedral angle
| 23> { D 15  12  16  20   C } # D for Dihedral angle
| 24> end
| 25> end
| 26>
| 27>
| 28> #%pal
| 29> #nprocs 8
| 30> #end
| 31>
| 32> * xyz 0 1
| 33> C  -21.048   26.222   46.251
| 34> C  -20.361   27.558   45.944
| 35> C  -20.329   28.222   47.341
| 36> C  -20.110   27.022   48.296
| 37> O  -20.473   25.807   47.535
| 38> H  -20.833   25.428   45.533
| 39> H  -19.344   27.382   45.576
| 40> H  -20.898   28.157   45.201
| 41> H  -19.543   28.978   47.434
| 42> H  -21.289   28.710   47.548
| 43> H  -20.733   27.082   49.195
| 44> H  -19.064   26.913   48.597
| 45> C  -23.221   25.764   47.645
| 46> H  -22.613   26.025   48.521
| 47> H  -24.234   26.155   47.802
| 48> O  -22.586   26.394   46.375
| 49> C  -23.319   24.216   47.563
| 50> C  -24.082   23.773   46.308
| 51> C  -22.996   23.915   45.215
| 52> C  -21.695   23.519   45.957
| 53> O  -21.987   23.625   47.403
| 54> H  -23.729   23.833   48.499
| 55> H  -24.394   22.727   46.409
| 56> O  -25.341   24.635   46.022
| 57> H  -23.187   23.284   44.341
| 58> H  -22.943   24.955   44.871
| 59> H  -20.855   24.176   45.710
| 60> H  -21.403   22.483   45.762
| 61> H  -25.051   25.687   45.919
| 62> *
| 63>
| 64>                          ****END OF INPUT****
 Total Charge           Charge          ....    0
 Multiplicity           Mult            ....    1
 Number of Electrons    NEL             ....  102
FINAL SINGLE POINT ENERGY      -652.799224511597
FINAL SINGLE POINT ENERGY      -652.835627129496
FINAL SINGLE POINT ENERGY      -652.852943338667
FINAL SINGLE POINT ENERGY      -652.856218366886
FINAL SINGLE POINT ENERGY      -652.856601997393
FINAL SINGLE POINT ENERGY      -652.856665655845
FINAL SINGLE POINT ENERGY      -652.856675084386
FINAL SINGLE POINT ENERGY      -652.856675420835
                    ***********************HURRAY********************

CARTESIAN COORDINATES (ANGSTROEM)
---------------------------------
  C    -20.999892   26.413474   46.274515
  C    -20.467660   27.829264   46.057765
  C    -20.338766   28.345595   47.509825
  C    -19.917534   27.085452   48.294654
  O    -20.269642   25.931265   47.417458
  H    -20.795316   25.715887   45.459890
  H    -19.488371   27.774714   45.568048
  H    -21.139968   28.433262   45.444509
  H    -19.610073   29.156407   47.604160
  H    -21.308162   28.716093   47.857191
  H    -20.438035   26.971217   49.249237
  H    -18.838582   27.026493   48.463667
  C    -23.115237   25.808158   47.565512
  H    -22.596831   26.044872   48.501594
  H    -24.111293   26.258240   47.593621
  O    -22.444983   26.485312   46.459414
  C    -23.289171   24.283175   47.488376
  C    -24.140920   23.816470   46.293230
  C    -23.064862   23.642780   45.174695
  C    -21.839515   23.137066   45.969529
  O    -22.088814   23.472244   47.392480
  H    -23.765347   24.000817   48.436057
  H    -24.620205   22.862630   46.524236
  O    -25.227554   24.704622   45.938896
  H    -23.383460   22.946289   44.394502
  H    -22.870609   24.619989   44.719169
  H    -20.896188   23.593766   45.660068
  H    -21.733756   22.048738   45.918069
  H    -24.860254   25.522710   45.542633

 Multiplicity           Mult            ....    1
 Number of Electrons    NEL             ....  102
 Basis Dimension        Dim             ....  149

ORBITAL ENERGIES
----------------

  NO   OCC          E(Eh)            E(eV)
   0   2.0000     -19.147616      -521.0331
   1   2.0000     -19.144303      -520.9430
   2   2.0000     -19.137559      -520.7595
   3   2.0000     -19.131941      -520.6066
   4   2.0000     -10.281765      -279.7810
   5   2.0000     -10.234145      -278.4853
   6   2.0000     -10.230807      -278.3944
   7   2.0000     -10.228194      -278.3233
   8   2.0000     -10.225909      -278.2611
   9   2.0000     -10.222013      -278.1551
  10   2.0000     -10.190389      -277.2946
  11   2.0000     -10.187518      -277.2165
  12   2.0000     -10.183052      -277.0949
  13   2.0000      -1.055357       -28.7177
  14   2.0000      -1.025232       -27.8980
  15   2.0000      -1.007724       -27.4216
  16   2.0000      -0.993114       -27.0240
  17   2.0000      -0.791740       -21.5443
  18   2.0000      -0.770780       -20.9740
  19   2.0000      -0.766553       -20.8590
  20   2.0000      -0.733552       -19.9610
  21   2.0000      -0.676544       -18.4097
  22   2.0000      -0.605375       -16.4731
  23   2.0000      -0.601963       -16.3803
  24   2.0000      -0.600834       -16.3495
  25   2.0000      -0.557062       -15.1584
  26   2.0000      -0.528490       -14.3809
  27   2.0000      -0.507431       -13.8079
  28   2.0000      -0.497345       -13.5334
  29   2.0000      -0.485022       -13.1981
  30   2.0000      -0.469887       -12.7863
  31   2.0000      -0.461321       -12.5532
  32   2.0000      -0.438729       -11.9384
  33   2.0000      -0.429772       -11.6947
  34   2.0000      -0.420858       -11.4521
  35   2.0000      -0.412566       -11.2265
  36   2.0000      -0.405390       -11.0312
  37   2.0000      -0.390608       -10.6290
  38   2.0000      -0.375280       -10.2119
  39   2.0000      -0.373847       -10.1729
  40   2.0000      -0.360502        -9.8098
  41   2.0000      -0.355317        -9.6687
  42   2.0000      -0.346850        -9.4383
  43   2.0000      -0.332721        -9.0538
  44   2.0000      -0.322680        -8.7806
  45   2.0000      -0.307864        -8.3774
  46   2.0000      -0.298704        -8.1281
  47   2.0000      -0.266638        -7.2556
  48   2.0000      -0.261195        -7.1075
  49   2.0000      -0.259122        -7.0511
  50   2.0000      -0.230034        -6.2596
  51   0.0000       0.066617         1.8127
  52   0.0000       0.084557         2.3009
  53   0.0000       0.093114         2.5338
  54   0.0000       0.093912         2.5555
  55   0.0000       0.104319         2.8387

MULLIKEN ATOMIC CHARGES
-----------------------
   0 C :    0.313584
   1 C :   -0.259368
   2 C :   -0.301887
   3 C :   -0.019355
   4 O :   -0.497409
   5 H :    0.139755
   6 H :    0.145052
   7 H :    0.156810
   8 H :    0.146224
   9 H :    0.155502
  10 H :    0.148947
  11 H :    0.151368
  12 C :   -0.030844
  13 H :    0.146630
  14 H :    0.155837
  15 O :   -0.557805
  16 C :    0.104333
  17 C :    0.088121
  18 C :   -0.322166
  19 C :   -0.011427
  20 O :   -0.507934
  21 H :    0.142625
  22 H :    0.161333
  23 O :   -0.608822
  24 H :    0.149649
  25 H :    0.152283
  26 H :    0.147183
  27 H :    0.144876
  28 H :    0.366903
Sum of atomic charges:   -0.0000000

LOEWDIN ATOMIC CHARGES
----------------------
   0 C :    0.180722
   1 C :   -0.218079
   2 C :   -0.218039
   3 C :   -0.031465
   4 O :   -0.307058
   5 H :    0.094587
   6 H :    0.113555
   7 H :    0.124009
   8 H :    0.116610
   9 H :    0.115573
  10 H :    0.104152
  11 H :    0.107298
  12 C :   -0.048547
  13 H :    0.104805
  14 H :    0.117756
  15 O :   -0.353797
  16 C :    0.009741
  17 C :    0.034849
  18 C :   -0.243720
  19 C :   -0.028799
  20 O :   -0.311226
  21 H :    0.113205
  22 H :    0.115595
  23 O :   -0.411722
  24 H :    0.118211
  25 H :    0.113577
  26 H :    0.101522
  27 H :    0.103239
  28 H :    0.283444

  Mayer bond orders larger than 0.100000
B(  0-C ,  1-C ) :   0.9379 B(  0-C ,  4-O ) :   0.9257 B(  0-C ,  5-H ) :   0.9163
B(  0-C , 15-O ) :   0.8224 B(  1-C ,  2-C ) :   0.9547 B(  1-C ,  6-H ) :   0.9366
B(  1-C ,  7-H ) :   0.9360 B(  2-C ,  3-C ) :   0.9521 B(  2-C ,  8-H ) :   0.9446
B(  2-C ,  9-H ) :   0.9455 B(  3-C ,  4-O ) :   0.8327 B(  3-C , 10-H ) :   0.9316
B(  3-C , 11-H ) :   0.9398 B( 12-C , 13-H ) :   0.9253 B( 12-C , 14-H ) :   0.9198
B( 12-C , 15-O ) :   0.8433 B( 12-C , 16-C ) :   0.8861 B( 16-C , 17-C ) :   0.8826
B( 16-C , 20-O ) :   0.8838 B( 16-C , 21-H ) :   0.9223 B( 17-C , 18-C ) :   0.9290
B( 17-C , 22-H ) :   0.9372 B( 17-C , 23-O ) :   0.8989 B( 18-C , 19-C ) :   0.9423
B( 18-C , 24-H ) :   0.9413 B( 18-C , 25-H ) :   0.9317 B( 19-C , 20-O ) :   0.8425
B( 19-C , 26-H ) :   0.9208 B( 19-C , 27-H ) :   0.9381 B( 23-O , 28-H ) :   0.7900

FINAL SINGLE POINT ENERGY      -652.856674538064

DIPOLE MOMENT
-------------
                                X             Y             Z
Electronic contribution:     -2.46459      -3.22257       0.76030
Nuclear contribution   :      3.10037       4.11842      -1.05824
                        -----------------------------------------
Total Dipole Moment    :      0.63578       0.89585      -0.29794
                        -----------------------------------------
Magnitude (a.u.)       :      1.13821
Magnitude (Debye)      :      2.89311

Rotational constants in cm-1:     0.050638     0.017113     0.015792
Rotational constants in MHz :  1518.091617   513.031068   473.437609

                             ****ORCA TERMINATED NORMALLY****
TOTAL RUN TIME: 0 days 0 hours 41 minutes 42 seconds 894 msec
