                         Program Version 4.2.0 -  RELEASE  -
|  1> # Test redundant internal optimization
|  2> #
|  3> ! RKS B3LYP  Opt TightSCF SmallPrint
|  4>
|  5> %basis
|  6>         Basis "6-31G"
|  7> end
|  8>
|  9> %geom
| 10> Constraints
| 11> { D 4  0  15  12  165.0   C } # D for Dihedral angle
| 12> { D 0  15  12  16  45.0   C } # D for Dihedral angle
| 13> { D 0  4  3  2   C } # D for Dihedral angle
| 14> { D 4  3  2  1   C } # D for Dihedral angle
| 15> { D 3  2  1  0   C } # D for Dihedral angle
| 16> { D 2  1  0  4   C } # D for Dihedral angle
| 17> { D 1  0  4  3   C } # D for Dihedral angle
| 18> { D 16  20  19  18   C } # D for Dihedral angle
| 19> { D 20  19  18  17   C } # D for Dihedral angle
| 20> { D 19  18  17  16   C } # D for Dihedral angle
| 21> { D 18  17  16  20   C } # D for Dihedral angle
| 22> { D 17  16  20  19   C } # D for Dihedral angle
| 23> { D 15  12  16  20   C } # D for Dihedral angle
| 24> end
| 25> end
| 26>
| 27>
| 28> #%pal
| 29> #nprocs 8
| 30> #end
| 31>
| 32> * xyz 0 1
| 33> C  -21.048   26.222   46.251
| 34> C  -20.361   27.558   45.944
| 35> C  -20.329   28.222   47.341
| 36> C  -20.110   27.022   48.296
| 37> O  -20.473   25.807   47.535
| 38> H  -20.833   25.428   45.533
| 39> H  -19.344   27.382   45.576
| 40> H  -20.898   28.157   45.201
| 41> H  -19.543   28.978   47.434
| 42> H  -21.289   28.710   47.548
| 43> H  -20.733   27.082   49.195
| 44> H  -19.064   26.913   48.597
| 45> C  -23.260   27.170   45.210
| 46> H  -24.345   27.016   45.253
| 47> H  -23.063   28.246   45.301
| 48> O  -22.586   26.394   46.375
| 49> C  -22.755   26.714   43.813
| 50> C  -23.142   25.257   43.531
| 51> C  -24.626   25.401   43.119
| 52> C  -24.652   26.754   42.363
| 53> O  -23.423   27.477   42.753
| 54> H  -21.687   26.922   43.733
| 55> O  -22.297   24.702   42.352
| 56> H  -23.002   24.599   44.395
| 57> H  -24.977   24.570   42.499
| 58> H  -25.262   25.445   44.011
| 59> H  -25.524   27.363   42.623
| 60> H  -24.620   26.626   41.278
| 61> H  -22.421   25.345   41.473
| 62> *
| 63>
| 64>                          ****END OF INPUT****
 Total Charge           Charge          ....    0
 Multiplicity           Mult            ....    1
 Number of Electrons    NEL             ....  102
FINAL SINGLE POINT ENERGY      -652.830226153745
FINAL SINGLE POINT ENERGY      -652.852140775033
FINAL SINGLE POINT ENERGY      -652.855973842627
FINAL SINGLE POINT ENERGY      -652.856536793214
FINAL SINGLE POINT ENERGY      -652.856627914459
FINAL SINGLE POINT ENERGY      -652.856639580803
                    ***********************HURRAY********************

CARTESIAN COORDINATES (ANGSTROEM)
---------------------------------
  C    -21.040107   26.230570   46.215978
  C    -20.246224   27.506693   45.935951
  C    -20.311224   28.236403   47.303999
  C    -20.264621   27.067585   48.309875
  O    -20.630401   25.854438   47.536493
  H    -20.827114   25.386810   45.555280
  H    -19.213665   27.231180   45.691639
  H    -20.635359   28.114702   45.116522
  H    -19.484391   28.939689   47.440729
  H    -21.252243   28.788217   47.391069
  H    -20.971318   27.180081   49.135717
  H    -19.262045   26.891211   48.710324
  C    -23.167756   27.162556   45.206323
  H    -24.229381   26.977066   45.387866
  H    -22.997784   28.245985   45.281993
  O    -22.486400   26.457294   46.285230
  C    -22.773170   26.722619   43.789666
  C    -23.110532   25.263452   43.446491
  C    -24.623143   25.359992   43.122657
  C    -24.754258   26.747957   42.446684
  O    -23.532318   27.511000   42.811986
  H    -21.717521   26.927174   43.593571
  O    -22.329446   24.802213   42.310096
  H    -22.889948   24.567012   44.255472
  H    -24.930603   24.538178   42.470840
  H    -25.212604   25.304568   44.043303
  H    -25.633777   27.304931   42.783648
  H    -24.777609   26.685182   41.354153
  H    -22.362037   25.477242   41.599446

 Multiplicity           Mult            ....    1
 Number of Electrons    NEL             ....  102
 Basis Dimension        Dim             ....  149

ORBITAL ENERGIES
----------------

  NO   OCC          E(Eh)            E(eV)
   0   2.0000     -19.151200      -521.1306
   1   2.0000     -19.142055      -520.8818
   2   2.0000     -19.140802      -520.8477
   3   2.0000     -19.140182      -520.8308
   4   2.0000     -10.280796      -279.7547
   5   2.0000     -10.243242      -278.7328
   6   2.0000     -10.239438      -278.6293
   7   2.0000     -10.237274      -278.5704
   8   2.0000     -10.233564      -278.4694
   9   2.0000     -10.225302      -278.2446
  10   2.0000     -10.192745      -277.3587
  11   2.0000     -10.190315      -277.2926
  12   2.0000     -10.189304      -277.2651
  13   2.0000      -1.053006       -28.6537
  14   2.0000      -1.041512       -28.3410
  15   2.0000      -1.010906       -27.5081
  16   2.0000      -0.992593       -27.0098
  17   2.0000      -0.788018       -21.4431
  18   2.0000      -0.784413       -21.3450
  19   2.0000      -0.770120       -20.9560
  20   2.0000      -0.737711       -20.0741
  21   2.0000      -0.680398       -18.5146
  22   2.0000      -0.609613       -16.5884
  23   2.0000      -0.606483       -16.5032
  24   2.0000      -0.601706       -16.3732
  25   2.0000      -0.573325       -15.6010
  26   2.0000      -0.530153       -14.4262
  27   2.0000      -0.512783       -13.9535
  28   2.0000      -0.501693       -13.6518
  29   2.0000      -0.489767       -13.3272
  30   2.0000      -0.477387       -12.9904
  31   2.0000      -0.462878       -12.5956
  32   2.0000      -0.452010       -12.2998
  33   2.0000      -0.440493       -11.9864
  34   2.0000      -0.424969       -11.5640
  35   2.0000      -0.417409       -11.3583
  36   2.0000      -0.405919       -11.0456
  37   2.0000      -0.398113       -10.8332
  38   2.0000      -0.380352       -10.3499
  39   2.0000      -0.373323       -10.1586
  40   2.0000      -0.365605        -9.9486
  41   2.0000      -0.359486        -9.7821
  42   2.0000      -0.355556        -9.6752
  43   2.0000      -0.336623        -9.1600
  44   2.0000      -0.316323        -8.6076
  45   2.0000      -0.312318        -8.4986
  46   2.0000      -0.303859        -8.2684
  47   2.0000      -0.273623        -7.4457
  48   2.0000      -0.265547        -7.2259
  49   2.0000      -0.256800        -6.9879
  50   2.0000      -0.243856        -6.6357
  51   0.0000       0.058856         1.6015
  52   0.0000       0.071604         1.9484
  53   0.0000       0.084419         2.2971
  54   0.0000       0.094851         2.5810
  55   0.0000       0.098677         2.6851

MULLIKEN ATOMIC CHARGES
-----------------------
   0 C :    0.302749
   1 C :   -0.294436
   2 C :   -0.299060
   3 C :    0.000003
   4 O :   -0.501370
   5 H :    0.155266
   6 H :    0.152802
   7 H :    0.149886
   8 H :    0.144310
   9 H :    0.157997
  10 H :    0.154586
  11 H :    0.143137
  12 C :   -0.015493
  13 H :    0.153818
  14 H :    0.144184
  15 O :   -0.517086
  16 C :    0.036921
  17 C :    0.081309
  18 C :   -0.299856
  19 C :   -0.036936
  20 O :   -0.527325
  21 H :    0.159629
  22 O :   -0.601792
  23 H :    0.175798
  24 H :    0.164236
  25 H :    0.154341
  26 H :    0.149327
  27 H :    0.150943
  28 H :    0.362112
Sum of atomic charges:   -0.0000000

LOEWDIN ATOMIC CHARGES
----------------------
   0 C :    0.178805
   1 C :   -0.235305
   2 C :   -0.216167
   3 C :   -0.024938
   4 O :   -0.300835
   5 H :    0.102284
   6 H :    0.119306
   7 H :    0.115557
   8 H :    0.115498
   9 H :    0.115806
  10 H :    0.109631
  11 H :    0.103281
  12 C :   -0.046340
  13 H :    0.114696
  14 H :    0.100055
  15 O :   -0.335703
  16 C :   -0.001681
  17 C :    0.034114
  18 C :   -0.240106
  19 C :   -0.039421
  20 O :   -0.329108
  21 H :    0.110416
  22 O :   -0.413738
  23 H :    0.125449
  24 H :    0.127888
  25 H :    0.118710
  26 H :    0.105709
  27 H :    0.104352
  28 H :    0.281784

  Mayer bond orders larger than 0.100000
B(  0-C ,  1-C ) :   0.9282 B(  0-C ,  4-O ) :   0.9335 B(  0-C ,  5-H ) :   0.9177
B(  0-C , 15-O ) :   0.8287 B(  1-C ,  2-C ) :   0.9476 B(  1-C ,  6-H ) :   0.9342
B(  1-C ,  7-H ) :   0.9260 B(  2-C ,  3-C ) :   0.9550 B(  2-C ,  8-H ) :   0.9449
B(  2-C ,  9-H ) :   0.9452 B(  3-C ,  4-O ) :   0.8345 B(  3-C , 10-H ) :   0.9346
B(  3-C , 11-H ) :   0.9397 B( 12-C , 13-H ) :   0.9359 B( 12-C , 14-H ) :   0.9115
B( 12-C , 15-O ) :   0.8475 B( 12-C , 16-C ) :   0.8807 B( 16-C , 17-C ) :   0.9018
B( 16-C , 20-O ) :   0.8349 B( 16-C , 21-H ) :   0.9188 B( 17-C , 18-C ) :   0.9149
B( 17-C , 22-O ) :   0.8905 B( 17-C , 23-H ) :   0.9240 B( 18-C , 19-C ) :   0.9429
B( 18-C , 24-H ) :   0.9367 B( 18-C , 25-H ) :   0.9326 B( 19-C , 20-O ) :   0.8428
B( 19-C , 26-H ) :   0.9348 B( 19-C , 27-H ) :   0.9373 B( 22-O , 28-H ) :   0.7966

FINAL SINGLE POINT ENERGY      -652.856641364341

DIPOLE MOMENT
-------------
                                X             Y             Z
Electronic contribution:      0.08088      -2.98786      -0.79284
Nuclear contribution   :     -0.32844       3.92156       0.42794
                        -----------------------------------------
Total Dipole Moment    :     -0.24756       0.93370      -0.36490
                        -----------------------------------------
Magnitude (a.u.)       :      1.03259
Magnitude (Debye)      :      2.62464

Rotational constants in cm-1:     0.060693     0.013094     0.012526
Rotational constants in MHz :  1819.516480   392.551513   375.533524

                             ****ORCA TERMINATED NORMALLY****
TOTAL RUN TIME: 0 days 1 hours 42 minutes 22 seconds 295 msec
