                         Program Version 4.2.0 -  RELEASE  -
|  1> # Test redundant internal optimization
|  2> #
|  3> ! RKS B3LYP  Opt TightSCF SmallPrint
|  4>
|  5> %basis
|  6>         Basis "6-31G"
|  7> end
|  8>
|  9> %geom
| 10> Constraints
| 11> { D 4  0  15  12  45.0   C } # D for Dihedral angle
| 12> { D 0  15  12  16  165.0   C } # D for Dihedral angle
| 13> { D 0  4  3  2   C } # D for Dihedral angle
| 14> { D 4  3  2  1   C } # D for Dihedral angle
| 15> { D 3  2  1  0   C } # D for Dihedral angle
| 16> { D 2  1  0  4   C } # D for Dihedral angle
| 17> { D 1  0  4  3   C } # D for Dihedral angle
| 18> { D 16  20  19  18   C } # D for Dihedral angle
| 19> { D 20  19  18  17   C } # D for Dihedral angle
| 20> { D 19  18  17  16   C } # D for Dihedral angle
| 21> { D 18  17  16  20   C } # D for Dihedral angle
| 22> { D 17  16  20  19   C } # D for Dihedral angle
| 23> { D 15  12  16  20   C } # D for Dihedral angle
| 24> end
| 25> end
| 26>
| 27>
| 28> #%pal
| 29> #nprocs 8
| 30> #end
| 31>
| 32> * xyz 0 1
| 33> C  -21.048   26.222   46.251
| 34> C  -20.361   27.558   45.944
| 35> C  -20.329   28.222   47.341
| 36> C  -20.110   27.022   48.296
| 37> O  -20.473   25.807   47.535
| 38> H  -20.833   25.428   45.533
| 39> H  -19.344   27.382   45.576
| 40> H  -20.898   28.157   45.201
| 41> H  -19.543   28.978   47.434
| 42> H  -21.289   28.710   47.548
| 43> H  -20.733   27.082   49.195
| 44> H  -19.064   26.913   48.597
| 45> C  -23.065   27.161   47.638
| 46> H  -22.970   26.510   48.515
| 47> H  -22.446   28.053   47.803
| 48> O  -22.586   26.394   46.375
| 49> C  -24.544   27.626   47.533
| 50> C  -24.947   28.477   48.742
| 51> C  -24.329   29.849   48.380
| 52> C  -24.488   29.911   46.840
| 53> O  -24.719   28.523   46.386
| 54> H  -25.181   26.756   47.360
| 55> O  -26.494   28.580   48.830
| 56> H  -24.572   28.080   49.692
| 57> H  -24.825   30.685   48.885
| 58> H  -23.269   29.870   48.660
| 59> H  -23.597   30.308   46.342
| 60> H  -25.358   30.500   46.534
| 61> H  -26.891   28.976   47.889
| 62> *
| 63>
| 64>                          ****END OF INPUT****
 Total Charge           Charge          ....    0
 Multiplicity           Mult            ....    1
 Number of Electrons    NEL             ....  102
FINAL SINGLE POINT ENERGY      -652.811235523204
FINAL SINGLE POINT ENERGY      -652.838405778517
FINAL SINGLE POINT ENERGY      -652.852214469888
FINAL SINGLE POINT ENERGY      -652.854567228469
FINAL SINGLE POINT ENERGY      -652.854981806278
FINAL SINGLE POINT ENERGY      -652.855037330712
FINAL SINGLE POINT ENERGY      -652.855043575506
                    ***********************HURRAY********************

CARTESIAN COORDINATES (ANGSTROEM)
---------------------------------
  C    -21.215211   26.328819   46.396420
  C    -20.346182   27.505465   45.928443
  C    -19.914402   28.146881   47.279013
  C    -19.762394   26.913600   48.204817
  O    -20.504714   25.809312   47.546778
  H    -21.246685   25.517364   45.667095
  H    -19.477768   27.108805   45.391753
  H    -20.892495   28.188039   45.273374
  H    -18.975369   28.703440   47.194133
  H    -20.675025   28.842652   47.642460
  H    -20.172346   27.070524   49.207382
  H    -18.722200   26.586767   48.292981
  C    -23.083353   27.275366   47.803933
  H    -23.056340   26.592838   48.663959
  H    -22.470252   28.152615   48.037754
  O    -22.615204   26.592527   46.613167
  C    -24.520001   27.710806   47.527314
  C    -25.174066   28.494035   48.674251
  C    -24.643723   29.929644   48.418784
  C    -24.584591   30.010724   46.873437
  O    -24.613395   28.614112   46.376847
  H    -25.105771   26.824821   47.264517
  O    -26.623220   28.434161   48.583175
  H    -24.930784   28.114947   49.667880
  H    -25.312932   30.671013   48.861912
  H    -23.650480   30.053298   48.865402
  H    -23.676504   30.501975   46.508662
  H    -25.451563   30.524571   46.446142
  H    -26.889030   28.520879   47.643212

 Multiplicity           Mult            ....    1
 Number of Electrons    NEL             ....  102
 Basis Dimension        Dim             ....  149

ORBITAL ENERGIES
----------------

  NO   OCC          E(Eh)            E(eV)
   0   2.0000     -19.144930      -520.9600
   1   2.0000     -19.141945      -520.8788
   2   2.0000     -19.140241      -520.8324
   3   2.0000     -19.139975      -520.8252
   4   2.0000     -10.277266      -279.6586
   5   2.0000     -10.244934      -278.7788
   6   2.0000     -10.234679      -278.4998
   7   2.0000     -10.233493      -278.4675
   8   2.0000     -10.232745      -278.4471
   9   2.0000     -10.232507      -278.4407
  10   2.0000     -10.195336      -277.4292
  11   2.0000     -10.192275      -277.3459
  12   2.0000     -10.188135      -277.2332
  13   2.0000      -1.053366       -28.6636
  14   2.0000      -1.037380       -28.2286
  15   2.0000      -1.007908       -27.4266
  16   2.0000      -0.994256       -27.0551
  17   2.0000      -0.790681       -21.5155
  18   2.0000      -0.786654       -21.4060
  19   2.0000      -0.772695       -21.0261
  20   2.0000      -0.734251       -19.9800
  21   2.0000      -0.678474       -18.4622
  22   2.0000      -0.607002       -16.5174
  23   2.0000      -0.605959       -16.4890
  24   2.0000      -0.597944       -16.2709
  25   2.0000      -0.579293       -15.7634
  26   2.0000      -0.527744       -14.3607
  27   2.0000      -0.507413       -13.8074
  28   2.0000      -0.501592       -13.6490
  29   2.0000      -0.493558       -13.4304
  30   2.0000      -0.479178       -13.0391
  31   2.0000      -0.462537       -12.5863
  32   2.0000      -0.455569       -12.3967
  33   2.0000      -0.438006       -11.9188
  34   2.0000      -0.424306       -11.5459
  35   2.0000      -0.417287       -11.3550
  36   2.0000      -0.404674       -11.0117
  37   2.0000      -0.395811       -10.7706
  38   2.0000      -0.381213       -10.3733
  39   2.0000      -0.373828       -10.1724
  40   2.0000      -0.363216        -9.8836
  41   2.0000      -0.361052        -9.8247
  42   2.0000      -0.349560        -9.5120
  43   2.0000      -0.334192        -9.0938
  44   2.0000      -0.321568        -8.7503
  45   2.0000      -0.311005        -8.4629
  46   2.0000      -0.305300        -8.3076
  47   2.0000      -0.272702        -7.4206
  48   2.0000      -0.263237        -7.1630
  49   2.0000      -0.249675        -6.7940
  50   2.0000      -0.246165        -6.6985
  51   0.0000       0.051482         1.4009
  52   0.0000       0.075198         2.0462
  53   0.0000       0.084802         2.3076
  54   0.0000       0.098622         2.6836
  55   0.0000       0.101924         2.7735

MULLIKEN ATOMIC CHARGES
-----------------------
   0 C :    0.300095
   1 C :   -0.265849
   2 C :   -0.318176
   3 C :   -0.012734
   4 O :   -0.509830
   5 H :    0.166991
   6 H :    0.151627
   7 H :    0.161050
   8 H :    0.145588
   9 H :    0.147812
  10 H :    0.141002
  11 H :    0.150724
  12 C :    0.002336
  13 H :    0.147091
  14 H :    0.116915
  15 O :   -0.515466
  16 C :    0.061781
  17 C :    0.079423
  18 C :   -0.290504
  19 C :   -0.030006
  20 O :   -0.509468
  21 H :    0.175060
  22 O :   -0.601436
  23 H :    0.149667
  24 H :    0.163872
  25 H :    0.136168
  26 H :    0.142300
  27 H :    0.147152
  28 H :    0.366815
Sum of atomic charges:    0.0000000

LOEWDIN ATOMIC CHARGES
----------------------
   0 C :    0.177731
   1 C :   -0.226745
   2 C :   -0.223924
   3 C :   -0.034726
   4 O :   -0.322716
   5 H :    0.113525
   6 H :    0.119326
   7 H :    0.125243
   8 H :    0.115591
   9 H :    0.106290
  10 H :    0.100565
  11 H :    0.106540
  12 C :   -0.041454
  13 H :    0.105745
  14 H :    0.088216
  15 O :   -0.313511
  16 C :    0.018392
  17 C :    0.036661
  18 C :   -0.241014
  19 C :   -0.039175
  20 O :   -0.320399
  21 H :    0.123145
  22 O :   -0.413438
  23 H :    0.114564
  24 H :    0.127367
  25 H :    0.108842
  26 H :    0.101749
  27 H :    0.103052
  28 H :    0.284561

  Mayer bond orders larger than 0.100000
B(  0-C ,  1-C ) :   0.9148 B(  0-C ,  4-O ) :   0.8966 B(  0-C ,  5-H ) :   0.9360
B(  0-C , 15-O ) :   0.8916 B(  1-C ,  2-C ) :   0.9551 B(  1-C ,  6-H ) :   0.9348
B(  1-C ,  7-H ) :   0.9356 B(  2-C ,  3-C ) :   0.9479 B(  2-C ,  8-H ) :   0.9443
B(  2-C ,  9-H ) :   0.9394 B(  3-C ,  4-O ) :   0.8442 B(  3-C , 10-H ) :   0.9338
B(  3-C , 11-H ) :   0.9389 B( 12-C , 13-H ) :   0.9122 B( 12-C , 14-H ) :   0.9024
B( 12-C , 15-O ) :   0.8392 B( 12-C , 16-C ) :   0.9033 B( 16-C , 17-C ) :   0.9007
B( 16-C , 20-O ) :   0.8624 B( 16-C , 21-H ) :   0.9214 B( 17-C , 18-C ) :   0.9091
B( 17-C , 22-O ) :   0.8969 B( 17-C , 23-H ) :   0.9339 B( 18-C , 19-C ) :   0.9379
B( 18-C , 24-H ) :   0.9376 B( 18-C , 25-H ) :   0.9354 B( 19-C , 20-O ) :   0.8539
B( 19-C , 26-H ) :   0.9348 B( 19-C , 27-H ) :   0.9378 B( 22-O , 28-H ) :   0.7927

FINAL SINGLE POINT ENERGY      -652.855043275013

DIPOLE MOMENT
-------------
                                X             Y             Z
Electronic contribution:     -4.61334      -5.03375      -1.74356
Nuclear contribution   :      5.62649       6.33339       2.03178
                        -----------------------------------------
Total Dipole Moment    :      1.01315       1.29964       0.28822
                        -----------------------------------------
Magnitude (a.u.)       :      1.67291
Magnitude (Debye)      :      4.25219

Rotational constants in cm-1:     0.055025     0.013335     0.012981
Rotational constants in MHz :  1649.619419   399.777724   389.164922

                             ****ORCA TERMINATED NORMALLY****
TOTAL RUN TIME: 0 days 0 hours 20 minutes 55 seconds 215 msec
