                         Program Version 4.2.0 -  RELEASE  -
|  1> # Test redundant internal optimization
|  2> #
|  3> ! RKS B3LYP  Opt TightSCF SmallPrint
|  4>
|  5> %basis
|  6>         Basis "6-31G"
|  7> end
|  8>
|  9> %geom
| 10> Constraints
| 11> { D 4  0  15  12  150.0   C } # D for Dihedral angle
| 12> { D 0  15  12  16  225.0   C } # D for Dihedral angle
| 13> { D 0  4  3  2   C } # D for Dihedral angle
| 14> { D 4  3  2  1   C } # D for Dihedral angle
| 15> { D 3  2  1  0   C } # D for Dihedral angle
| 16> { D 2  1  0  4   C } # D for Dihedral angle
| 17> { D 1  0  4  3   C } # D for Dihedral angle
| 18> { D 16  20  19  18   C } # D for Dihedral angle
| 19> { D 20  19  18  17   C } # D for Dihedral angle
| 20> { D 19  18  17  16   C } # D for Dihedral angle
| 21> { D 18  17  16  20   C } # D for Dihedral angle
| 22> { D 17  16  20  19   C } # D for Dihedral angle
| 23> { D 15  12  16  20   C } # D for Dihedral angle
| 24> end
| 25> end
| 26>
| 27>
| 28> #%pal
| 29> #nprocs 8
| 30> #end
| 31>
| 32> * xyz 0 1
| 33> C  -21.048   26.222   46.251
| 34> C  -20.361   27.558   45.944
| 35> C  -20.329   28.222   47.341
| 36> C  -20.110   27.022   48.296
| 37> O  -20.473   25.807   47.535
| 38> H  -20.833   25.428   45.533
| 39> H  -19.344   27.382   45.576
| 40> H  -20.898   28.157   45.201
| 41> H  -19.543   28.978   47.434
| 42> H  -21.289   28.710   47.548
| 43> H  -20.733   27.082   49.195
| 44> H  -19.064   26.913   48.597
| 45> C  -23.210   27.459   45.431
| 46> H  -22.412   28.089   45.019
| 47> H  -23.730   26.973   44.596
| 48> O  -22.586   26.394   46.375
| 49> C  -24.232   28.378   46.156
| 50> C  -24.912   29.337   45.173
| 51> C  -25.969   28.418   44.517
| 52> C  -26.397   27.489   45.680
| 53> O  -25.336   27.583   46.705
| 54> H  -23.739   28.867   46.998
| 55> O  -25.597   30.497   45.947
| 56> H  -24.216   29.771   44.445
| 57> H  -26.813   28.974   44.095
| 58> H  -25.512   27.837   43.707
| 59> H  -26.500   26.444   45.366
| 60> H  -27.330   27.812   46.151
| 61> H  -26.298   30.085   46.681
| 62> *
| 63>
| 64>                          ****END OF INPUT****
 Total Charge           Charge          ....    0
 Multiplicity           Mult            ....    1
 Number of Electrons    NEL             ....  102
FINAL SINGLE POINT ENERGY      -652.818036756091
FINAL SINGLE POINT ENERGY      -652.841777985863
FINAL SINGLE POINT ENERGY      -652.847284793686
FINAL SINGLE POINT ENERGY      -652.849556618110
FINAL SINGLE POINT ENERGY      -652.849837529220
FINAL SINGLE POINT ENERGY      -652.849884153426
FINAL SINGLE POINT ENERGY      -652.849889744223
                    ***********************HURRAY********************

CARTESIAN COORDINATES (ANGSTROEM)
---------------------------------
  C    -21.082904   26.297949   46.204153
  C    -20.211683   27.528824   45.950104
  C    -20.297300   28.273940   47.309113
  C    -20.355401   27.111854   48.323858
  O    -20.749874   25.913574   47.545483
  H    -20.860340   25.438968   45.565886
  H    -19.187855   27.182749   45.767726
  H    -20.503512   28.144713   45.096544
  H    -19.440588   28.933419   47.476797
  H    -21.207659   28.880397   47.355613
  H    -21.089166   27.270679   49.117994
  H    -19.380819   26.890215   48.768847
  C    -23.159930   27.478991   45.291658
  H    -22.437425   28.172016   44.842040
  H    -23.644823   26.926306   44.475518
  O    -22.527801   26.526639   46.181861
  C    -24.188174   28.296398   46.075241
  C    -24.955140   29.310933   45.214969
  C    -26.066666   28.424308   44.592656
  C    -26.388012   27.422178   45.729285
  O    -25.237612   27.462844   46.663382
  H    -23.683754   28.788105   46.912501
  O    -25.510334   30.371310   46.041122
  H    -24.341357   29.819710   44.470018
  H    -26.926086   29.032197   44.299792
  H    -25.687973   27.910607   43.701883
  H    -26.516689   26.397887   45.368429
  H    -27.277822   27.705704   46.300305
  H    -25.897301   29.974587   46.850220

 Multiplicity           Mult            ....    1
 Number of Electrons    NEL             ....  102
 Basis Dimension        Dim             ....  149

ORBITAL ENERGIES
----------------

  NO   OCC          E(Eh)            E(eV)
   0   2.0000     -19.141140      -520.8569
   1   2.0000     -19.140290      -520.8338
   2   2.0000     -19.137617      -520.7610
   3   2.0000     -19.135369      -520.6999
   4   2.0000     -10.280562      -279.7483
   5   2.0000     -10.245142      -278.7845
   6   2.0000     -10.235454      -278.5209
   7   2.0000     -10.235236      -278.5149
   8   2.0000     -10.229654      -278.3630
   9   2.0000     -10.224921      -278.2342
  10   2.0000     -10.193759      -277.3863
  11   2.0000     -10.192137      -277.3421
  12   2.0000     -10.191069      -277.3131
  13   2.0000      -1.050480       -28.5850
  14   2.0000      -1.037189       -28.2234
  15   2.0000      -1.007362       -27.4117
  16   2.0000      -0.989326       -26.9209
  17   2.0000      -0.789954       -21.4957
  18   2.0000      -0.786427       -21.3998
  19   2.0000      -0.769677       -20.9440
  20   2.0000      -0.733905       -19.9706
  21   2.0000      -0.679160       -18.4809
  22   2.0000      -0.606626       -16.5071
  23   2.0000      -0.605373       -16.4730
  24   2.0000      -0.595021       -16.1913
  25   2.0000      -0.577716       -15.7204
  26   2.0000      -0.522792       -14.2259
  27   2.0000      -0.517027       -14.0690
  28   2.0000      -0.500914       -13.6306
  29   2.0000      -0.495108       -13.4726
  30   2.0000      -0.473160       -12.8753
  31   2.0000      -0.460531       -12.5317
  32   2.0000      -0.453178       -12.3316
  33   2.0000      -0.441587       -12.0162
  34   2.0000      -0.430769       -11.7218
  35   2.0000      -0.413694       -11.2572
  36   2.0000      -0.400738       -10.9046
  37   2.0000      -0.394698       -10.7403
  38   2.0000      -0.379442       -10.3251
  39   2.0000      -0.373630       -10.1670
  40   2.0000      -0.363047        -9.8790
  41   2.0000      -0.358542        -9.7564
  42   2.0000      -0.355906        -9.6847
  43   2.0000      -0.334019        -9.0891
  44   2.0000      -0.312773        -8.5110
  45   2.0000      -0.307149        -8.3580
  46   2.0000      -0.292127        -7.9492
  47   2.0000      -0.273603        -7.4451
  48   2.0000      -0.265367        -7.2210
  49   2.0000      -0.251705        -6.8492
  50   2.0000      -0.237625        -6.4661
  51   0.0000       0.063218         1.7202
  52   0.0000       0.073513         2.0004
  53   0.0000       0.085642         2.3304
  54   0.0000       0.090437         2.4609
  55   0.0000       0.098507         2.6805

MULLIKEN ATOMIC CHARGES
-----------------------
   0 C :    0.316472
   1 C :   -0.301565
   2 C :   -0.302333
   3 C :    0.000237
   4 O :   -0.492787
   5 H :    0.148157
   6 H :    0.155021
   7 H :    0.143118
   8 H :    0.145525
   9 H :    0.153094
  10 H :    0.156664
  11 H :    0.143260
  12 C :    0.001677
  13 H :    0.115672
  14 H :    0.135581
  15 O :   -0.511014
  16 C :    0.073654
  17 C :    0.074052
  18 C :   -0.295584
  19 C :   -0.024023
  20 O :   -0.507432
  21 H :    0.161214
  22 O :   -0.603465
  23 H :    0.147838
  24 H :    0.163016
  25 H :    0.141587
  26 H :    0.151192
  27 H :    0.144391
  28 H :    0.366780
Sum of atomic charges:   -0.0000000

LOEWDIN ATOMIC CHARGES
----------------------
   0 C :    0.186433
   1 C :   -0.235177
   2 C :   -0.217494
   3 C :   -0.026579
   4 O :   -0.302294
   5 H :    0.100300
   6 H :    0.121204
   7 H :    0.111963
   8 H :    0.115985
   9 H :    0.110914
  10 H :    0.110655
  11 H :    0.103274
  12 C :   -0.041175
  13 H :    0.092663
  14 H :    0.097953
  15 O :   -0.326119
  16 C :    0.015410
  17 C :    0.033380
  18 C :   -0.240777
  19 C :   -0.036654
  20 O :   -0.317600
  21 H :    0.114167
  22 O :   -0.415437
  23 H :    0.112968
  24 H :    0.126789
  25 H :    0.111704
  26 H :    0.107147
  27 H :    0.101968
  28 H :    0.284430

  Mayer bond orders larger than 0.100000
B(  0-C ,  1-C ) :   0.9297 B(  0-C ,  4-O ) :   0.9331 B(  0-C ,  5-H ) :   0.9256
B(  0-C , 15-O ) :   0.8466 B(  1-C ,  2-C ) :   0.9497 B(  1-C ,  6-H ) :   0.9328
B(  1-C ,  7-H ) :   0.9255 B(  2-C ,  3-C ) :   0.9536 B(  2-C ,  8-H ) :   0.9450
B(  2-C ,  9-H ) :   0.9421 B(  3-C ,  4-O ) :   0.8384 B(  3-C , 10-H ) :   0.9335
B(  3-C , 11-H ) :   0.9395 B( 12-C , 13-H ) :   0.9005 B( 12-C , 14-H ) :   0.9237
B( 12-C , 15-O ) :   0.8525 B( 12-C , 16-C ) :   0.8913 B( 16-C , 17-C ) :   0.8964
B( 16-C , 20-O ) :   0.8694 B( 16-C , 21-H ) :   0.9228 B( 17-C , 18-C ) :   0.9101
B( 17-C , 22-O ) :   0.8930 B( 17-C , 23-H ) :   0.9332 B( 18-C , 19-C ) :   0.9397
B( 18-C , 24-H ) :   0.9373 B( 18-C , 25-H ) :   0.9345 B( 19-C , 20-O ) :   0.8511
B( 19-C , 26-H ) :   0.9340 B( 19-C , 27-H ) :   0.9377 B( 22-O , 28-H ) :   0.7925

FINAL SINGLE POINT ENERGY      -652.849891175278

DIPOLE MOMENT
-------------
                                X             Y             Z
Electronic contribution:     -1.80469      -2.79892       2.40272
Nuclear contribution   :      2.20997       3.51249      -3.42629
                        -----------------------------------------
Total Dipole Moment    :      0.40528       0.71357      -1.02357
                        -----------------------------------------
Magnitude (a.u.)       :      1.31192
Magnitude (Debye)      :      3.33462

Rotational constants in cm-1:     0.055461     0.012941     0.012223
Rotational constants in MHz :  1662.678662   387.963679   366.430743

                             ****ORCA TERMINATED NORMALLY****
TOTAL RUN TIME: 0 days 2 hours 15 minutes 23 seconds 539 msec
