                         Program Version 4.2.0 -  RELEASE  -
|  1> # Test redundant internal optimization
|  2> #
|  3> ! RKS B3LYP  Opt TightSCF SmallPrint
|  4>
|  5> %basis
|  6>         Basis "6-31G"
|  7> end
|  8>
|  9> %geom
| 10> Constraints
| 11> { D 4  0  15  12  195.0   C } # D for Dihedral angle
| 12> { D 0  15  12  16  300.0   C } # D for Dihedral angle
| 13> { D 0  4  3  2   C } # D for Dihedral angle
| 14> { D 4  3  2  1   C } # D for Dihedral angle
| 15> { D 3  2  1  0   C } # D for Dihedral angle
| 16> { D 2  1  0  4   C } # D for Dihedral angle
| 17> { D 1  0  4  3   C } # D for Dihedral angle
| 18> { D 16  20  19  18   C } # D for Dihedral angle
| 19> { D 20  19  18  17   C } # D for Dihedral angle
| 20> { D 19  18  17  16   C } # D for Dihedral angle
| 21> { D 18  17  16  20   C } # D for Dihedral angle
| 22> { D 17  16  20  19   C } # D for Dihedral angle
| 23> { D 15  12  16  20   C } # D for Dihedral angle
| 24> end
| 25> end
| 26>
| 27>
| 28> #%pal
| 29> #nprocs 8
| 30> #end
| 31>
| 32> * xyz 0 1
| 33> C  -21.048   26.222   46.251
| 34> C  -20.361   27.558   45.944
| 35> C  -20.329   28.222   47.341
| 36> C  -20.110   27.022   48.296
| 37> O  -20.473   25.807   47.535
| 38> H  -20.833   25.428   45.533
| 39> H  -19.344   27.382   45.576
| 40> H  -20.898   28.157   45.201
| 41> H  -19.543   28.978   47.434
| 42> H  -21.289   28.710   47.548
| 43> H  -20.733   27.082   49.195
| 44> H  -19.064   26.913   48.597
| 45> C  -23.353   26.472   45.026
| 46> H  -23.191   25.544   44.464
| 47> H  -24.430   26.583   45.203
| 48> O  -22.586   26.394   46.375
| 49> C  -22.894   27.665   44.143
| 50> C  -23.748   27.780   42.876
| 51> C  -25.021   28.472   43.418
| 52> C  -24.468   29.423   44.507
| 53> O  -23.113   28.935   44.842
| 54> H  -21.820   27.582   43.959
| 55> O  -23.035   28.683   41.832
| 56> H  -23.957   26.811   42.408
| 57> H  -25.578   29.006   42.641
| 58> H  -25.695   27.728   43.860
| 59> H  -25.083   29.425   45.415
| 60> H  -24.362   30.451   44.150
| 61> H  -22.817   29.660   42.279
| 62> *
| 63>
| 64>                          ****END OF INPUT****
 Total Charge           Charge          ....    0
 Multiplicity           Mult            ....    1
 Number of Electrons    NEL             ....  102
FINAL SINGLE POINT ENERGY      -652.823433437781
FINAL SINGLE POINT ENERGY      -652.847779810943
FINAL SINGLE POINT ENERGY      -652.853290956000
FINAL SINGLE POINT ENERGY      -652.855509696394
FINAL SINGLE POINT ENERGY      -652.855757800132
FINAL SINGLE POINT ENERGY      -652.855805605269
                    ***********************HURRAY********************

CARTESIAN COORDINATES (ANGSTROEM)
---------------------------------
  C    -20.962798   26.249940   46.162388
  C    -20.221891   27.575698   45.985918
  C    -20.342615   28.205782   47.399157
  C    -20.260972   26.973347   48.323051
  O    -20.558739   25.801657   47.462979
  H    -20.708699   25.465535   45.439675
  H    -19.173446   27.361844   45.742720
  H    -20.633292   28.230269   45.220468
  H    -19.553617   28.935885   47.601370
  H    -21.313627   28.700915   47.486242
  H    -20.986951   26.996170   49.139833
  H    -19.258605   26.813885   48.732302
  C    -23.198978   26.543546   45.021020
  H    -23.110582   25.616672   44.425771
  H    -24.224284   26.609216   45.393845
  O    -22.411461   26.413848   46.231082
  C    -22.895128   27.718218   44.085382
  C    -23.849635   27.772641   42.882120
  C    -25.090046   28.481245   43.493347
  C    -24.459661   29.482614   44.494433
  O    -23.074304   29.015834   44.742288
  H    -21.863011   27.679467   43.731315
  O    -23.266737   28.540933   41.794059
  H    -24.076773   26.796770   42.451726
  H    -25.678922   28.970375   42.713565
  H    -25.732143   27.754634   44.003143
  H    -24.995253   29.523918   45.446891
  H    -24.390578   30.496431   44.087681
  H    -22.883252   29.367709   42.155232

 Multiplicity           Mult            ....    1
 Number of Electrons    NEL             ....  102
 Basis Dimension        Dim             ....  149

ORBITAL ENERGIES
----------------

  NO   OCC          E(Eh)            E(eV)
   0   2.0000     -19.151138      -521.1290
   1   2.0000     -19.146582      -521.0050
   2   2.0000     -19.136201      -520.7225
   3   2.0000     -19.134216      -520.6685
   4   2.0000     -10.276190      -279.6293
   5   2.0000     -10.250558      -278.9319
   6   2.0000     -10.241384      -278.6822
   7   2.0000     -10.238413      -278.6014
   8   2.0000     -10.235773      -278.5295
   9   2.0000     -10.218016      -278.0463
  10   2.0000     -10.197129      -277.4780
  11   2.0000     -10.178206      -276.9631
  12   2.0000     -10.177199      -276.9357
  13   2.0000      -1.050183       -28.5769
  14   2.0000      -1.042959       -28.3804
  15   2.0000      -1.014082       -27.5946
  16   2.0000      -0.988332       -26.8939
  17   2.0000      -0.791889       -21.5484
  18   2.0000      -0.777589       -21.1593
  19   2.0000      -0.772244       -21.0138
  20   2.0000      -0.732450       -19.9310
  21   2.0000      -0.676909       -18.4196
  22   2.0000      -0.612882       -16.6774
  23   2.0000      -0.605966       -16.4892
  24   2.0000      -0.592243       -16.1158
  25   2.0000      -0.574868       -15.6430
  26   2.0000      -0.529002       -14.3949
  27   2.0000      -0.515073       -14.0159
  28   2.0000      -0.492899       -13.4125
  29   2.0000      -0.490884       -13.3576
  30   2.0000      -0.473154       -12.8752
  31   2.0000      -0.455234       -12.3876
  32   2.0000      -0.452364       -12.3094
  33   2.0000      -0.451091       -12.2748
  34   2.0000      -0.424209       -11.5433
  35   2.0000      -0.414658       -11.2834
  36   2.0000      -0.404112       -10.9965
  37   2.0000      -0.398524       -10.8444
  38   2.0000      -0.379684       -10.3317
  39   2.0000      -0.368885       -10.0379
  40   2.0000      -0.367204        -9.9921
  41   2.0000      -0.349908        -9.5215
  42   2.0000      -0.343658        -9.3514
  43   2.0000      -0.338253        -9.2043
  44   2.0000      -0.317839        -8.6488
  45   2.0000      -0.307180        -8.3588
  46   2.0000      -0.296791        -8.0761
  47   2.0000      -0.279496        -7.6055
  48   2.0000      -0.264689        -7.2026
  49   2.0000      -0.252182        -6.8622
  50   2.0000      -0.240563        -6.5460
  51   0.0000       0.057917         1.5760
  52   0.0000       0.083799         2.2803
  53   0.0000       0.085738         2.3330
  54   0.0000       0.089104         2.4247
  55   0.0000       0.100870         2.7448

MULLIKEN ATOMIC CHARGES
-----------------------
   0 C :    0.292983
   1 C :   -0.276123
   2 C :   -0.300957
   3 C :   -0.000183
   4 O :   -0.502095
   5 H :    0.133442
   6 H :    0.138963
   7 H :    0.167651
   8 H :    0.137543
   9 H :    0.173168
  10 H :    0.152387
  11 H :    0.138007
  12 C :    0.007879
  13 H :    0.119970
  14 H :    0.153415
  15 O :   -0.503533
  16 C :    0.043176
  17 C :    0.076194
  18 C :   -0.296604
  19 C :   -0.029647
  20 O :   -0.523049
  21 H :    0.159791
  22 O :   -0.599078
  23 H :    0.155613
  24 H :    0.164976
  25 H :    0.147854
  26 H :    0.156222
  27 H :    0.147609
  28 H :    0.364426
Sum of atomic charges:    0.0000000

LOEWDIN ATOMIC CHARGES
----------------------
   0 C :    0.181646
   1 C :   -0.233174
   2 C :   -0.216027
   3 C :   -0.025720
   4 O :   -0.303837
   5 H :    0.093618
   6 H :    0.111390
   7 H :    0.124336
   8 H :    0.112661
   9 H :    0.124428
  10 H :    0.108245
  11 H :    0.100333
  12 C :   -0.040058
  13 H :    0.091333
  14 H :    0.115348
  15 O :   -0.325481
  16 C :   -0.003708
  17 C :    0.037368
  18 C :   -0.240349
  19 C :   -0.036654
  20 O :   -0.330896
  21 H :    0.112206
  22 O :   -0.412621
  23 H :    0.117194
  24 H :    0.127958
  25 H :    0.114903
  26 H :    0.109221
  27 H :    0.103265
  28 H :    0.283070

  Mayer bond orders larger than 0.100000
B(  0-C ,  1-C ) :   0.9305 B(  0-C ,  4-O ) :   0.9394 B(  0-C ,  5-H ) :   0.9187
B(  0-C , 15-O ) :   0.8323 B(  1-C ,  2-C ) :   0.9522 B(  1-C ,  6-H ) :   0.9332
B(  1-C ,  7-H ) :   0.9186 B(  2-C ,  3-C ) :   0.9557 B(  2-C ,  8-H ) :   0.9451
B(  2-C ,  9-H ) :   0.9389 B(  3-C ,  4-O ) :   0.8323 B(  3-C , 10-H ) :   0.9352
B(  3-C , 11-H ) :   0.9399 B( 12-C , 13-H ) :   0.9091 B( 12-C , 14-H ) :   0.9381
B( 12-C , 15-O ) :   0.8779 B( 12-C , 16-C ) :   0.8746 B( 16-C , 17-C ) :   0.8951
B( 16-C , 20-O ) :   0.8472 B( 16-C , 21-H ) :   0.9181 B( 17-C , 18-C ) :   0.9130
B( 17-C , 22-O ) :   0.8948 B( 17-C , 23-H ) :   0.9321 B( 18-C , 19-C ) :   0.9385
B( 18-C , 24-H ) :   0.9372 B( 18-C , 25-H ) :   0.9333 B( 19-C , 20-O ) :   0.8425
B( 19-C , 26-H ) :   0.9333 B( 19-C , 27-H ) :   0.9373 B( 22-O , 28-H ) :   0.7944

FINAL SINGLE POINT ENERGY      -652.855809161653

DIPOLE MOMENT
-------------
                                X             Y             Z
Electronic contribution:      0.42231      -2.58834      -0.56965
Nuclear contribution   :     -0.82864       3.40443       0.20480
                        -----------------------------------------
Total Dipole Moment    :     -0.40633       0.81609      -0.36484
                        -----------------------------------------
Magnitude (a.u.)       :      0.98194
Magnitude (Debye)      :      2.49590

Rotational constants in cm-1:     0.059495     0.013233     0.012892
Rotational constants in MHz :  1783.600281   396.708088   386.504961

                             ****ORCA TERMINATED NORMALLY****
TOTAL RUN TIME: 0 days 0 hours 27 minutes 8 seconds 268 msec
