                         Program Version 4.2.0 -  RELEASE  -
|  1> # Test redundant internal optimization
|  2> #
|  3> ! RKS B3LYP  Opt TightSCF SmallPrint
|  4>
|  5> %basis
|  6>         Basis "6-31G"
|  7> end
|  8>
|  9> %geom
| 10> Constraints
| 11> { D 4  0  15  12  180.0   C } # D for Dihedral angle
| 12> { D 0  15  12  16  225.0   C } # D for Dihedral angle
| 13> { D 0  4  3  2   C } # D for Dihedral angle
| 14> { D 4  3  2  1   C } # D for Dihedral angle
| 15> { D 3  2  1  0   C } # D for Dihedral angle
| 16> { D 2  1  0  4   C } # D for Dihedral angle
| 17> { D 1  0  4  3   C } # D for Dihedral angle
| 18> { D 16  20  19  18   C } # D for Dihedral angle
| 19> { D 20  19  18  17   C } # D for Dihedral angle
| 20> { D 19  18  17  16   C } # D for Dihedral angle
| 21> { D 18  17  16  20   C } # D for Dihedral angle
| 22> { D 17  16  20  19   C } # D for Dihedral angle
| 23> { D 15  12  16  20   C } # D for Dihedral angle
| 24> end
| 25> end
| 26>
| 27>
| 28> #%pal
| 29> #nprocs 8
| 30> #end
| 31>
| 32> * xyz 0 1
| 33> C  -21.048   26.222   46.251
| 34> C  -20.361   27.558   45.944
| 35> C  -20.329   28.222   47.341
| 36> C  -20.110   27.022   48.296
| 37> O  -20.473   25.807   47.535
| 38> H  -20.833   25.428   45.533
| 39> H  -19.344   27.382   45.576
| 40> H  -20.898   28.157   45.201
| 41> H  -19.543   28.978   47.434
| 42> H  -21.289   28.710   47.548
| 43> H  -20.733   27.082   49.195
| 44> H  -19.064   26.913   48.597
| 45> C  -23.309   26.834   45.072
| 46> H  -22.565   27.195   44.351
| 47> H  -23.839   25.985   44.622
| 48> O  -22.586   26.394   46.375
| 49> C  -24.346   27.965   45.313
| 50> C  -25.120   28.292   44.032
| 51> C  -26.154   27.142   43.987
| 52> C  -26.478   26.903   45.483
| 53> O  -25.379   27.520   46.255
| 54> H  -23.844   28.820   45.769
| 55> H  -25.623   29.261   44.132
| 56> O  -24.217   28.339   42.769
| 57> H  -27.045   27.394   43.403
| 58> H  -25.704   26.247   43.542
| 59> H  -26.538   25.838   45.734
| 60> H  -27.406   27.393   45.793
| 61> H  -23.704   27.379   42.646
| 62> *
| 63>
| 64>                          ****END OF INPUT****
 Total Charge           Charge          ....    0
 Multiplicity           Mult            ....    1
 Number of Electrons    NEL             ....  102
FINAL SINGLE POINT ENERGY      -652.822762688052
FINAL SINGLE POINT ENERGY      -652.845846606651
FINAL SINGLE POINT ENERGY      -652.850207127292
FINAL SINGLE POINT ENERGY      -652.851060524113
FINAL SINGLE POINT ENERGY      -652.851244083445
FINAL SINGLE POINT ENERGY      -652.851280175315
FINAL SINGLE POINT ENERGY      -652.851285564609
FINAL SINGLE POINT ENERGY      -652.851285855975
                    ***********************HURRAY********************

CARTESIAN COORDINATES (ANGSTROEM)
---------------------------------
  C    -21.047631   26.224034   46.195576
  C    -20.338935   27.549421   45.920576
  C    -20.439376   28.261317   47.294296
  C    -20.311006   27.091574   48.291371
  O    -20.605654   25.862859   47.508660
  H    -20.784539   25.402941   45.520547
  H    -19.292883   27.345513   45.662940
  H    -20.779172   28.132283   45.106971
  H    -19.659771   29.016677   47.430991
  H    -21.414539   28.746327   47.392218
  H    -21.019344   27.151756   49.120900
  H    -19.296574   26.974564   48.683966
  C    -23.182951   26.736894   45.033091
  H    -22.480972   27.114930   44.277828
  H    -23.671461   25.838441   44.628663
  O    -22.500318   26.369105   46.261929
  C    -24.207089   27.833804   45.323713
  C    -25.017239   28.261409   44.089000
  C    -26.136748   27.177401   44.047473
  C    -26.402465   26.908497   45.545037
  O    -25.223455   27.424450   46.286229
  H    -23.683615   28.676959   45.784082
  H    -25.449551   29.249109   44.263745
  O    -24.252596   28.403877   42.865507
  H    -27.025502   27.519765   43.510871
  H    -25.758777   26.280013   43.539292
  H    -26.528215   25.845747   45.772253
  H    -27.275679   27.453896   45.914563
  H    -24.095943   27.528435   42.456711

 Multiplicity           Mult            ....    1
 Number of Electrons    NEL             ....  102
 Basis Dimension        Dim             ....  149

ORBITAL ENERGIES
----------------

  NO   OCC          E(Eh)            E(eV)
   0   2.0000     -19.153645      -521.1972
   1   2.0000     -19.136814      -520.7392
   2   2.0000     -19.136623      -520.7340
   3   2.0000     -19.134957      -520.6886
   4   2.0000     -10.276976      -279.6507
   5   2.0000     -10.247646      -278.8526
   6   2.0000     -10.231972      -278.4261
   7   2.0000     -10.230981      -278.3992
   8   2.0000     -10.230369      -278.3825
   9   2.0000     -10.221054      -278.1290
  10   2.0000     -10.198246      -277.5084
  11   2.0000     -10.186202      -277.1807
  12   2.0000     -10.184209      -277.1264
  13   2.0000      -1.049808       -28.5667
  14   2.0000      -1.036080       -28.1932
  15   2.0000      -1.016892       -27.6710
  16   2.0000      -0.989185       -26.9171
  17   2.0000      -0.785123       -21.3643
  18   2.0000      -0.783439       -21.3184
  19   2.0000      -0.768359       -20.9081
  20   2.0000      -0.730092       -19.8668
  21   2.0000      -0.682213       -18.5640
  22   2.0000      -0.614036       -16.7088
  23   2.0000      -0.599016       -16.3001
  24   2.0000      -0.589006       -16.0277
  25   2.0000      -0.576139       -15.6775
  26   2.0000      -0.525800       -14.3077
  27   2.0000      -0.511951       -13.9309
  28   2.0000      -0.503399       -13.6982
  29   2.0000      -0.492693       -13.4069
  30   2.0000      -0.465065       -12.6551
  31   2.0000      -0.455757       -12.4018
  32   2.0000      -0.449773       -12.2390
  33   2.0000      -0.434360       -11.8195
  34   2.0000      -0.427101       -11.6220
  35   2.0000      -0.423662       -11.5284
  36   2.0000      -0.403780       -10.9874
  37   2.0000      -0.401905       -10.9364
  38   2.0000      -0.378041       -10.2870
  39   2.0000      -0.373839       -10.1727
  40   2.0000      -0.357094        -9.7170
  41   2.0000      -0.352758        -9.5990
  42   2.0000      -0.351714        -9.5706
  43   2.0000      -0.331513        -9.0209
  44   2.0000      -0.319213        -8.6862
  45   2.0000      -0.307899        -8.3784
  46   2.0000      -0.297320        -8.0905
  47   2.0000      -0.274211        -7.4617
  48   2.0000      -0.257117        -6.9965
  49   2.0000      -0.253718        -6.9040
  50   2.0000      -0.235944        -6.4204
  51   0.0000       0.047798         1.3006
  52   0.0000       0.076674         2.0864
  53   0.0000       0.083068         2.2604
  54   0.0000       0.088989         2.4215
  55   0.0000       0.102810         2.7976

MULLIKEN ATOMIC CHARGES
-----------------------
   0 C :    0.300991
   1 C :   -0.285586
   2 C :   -0.300731
   3 C :    0.000031
   4 O :   -0.500250
   5 H :    0.138109
   6 H :    0.147423
   7 H :    0.147050
   8 H :    0.141655
   9 H :    0.164124
  10 H :    0.159059
  11 H :    0.140209
  12 C :   -0.020464
  13 H :    0.126528
  14 H :    0.127368
  15 O :   -0.496856
  16 C :    0.098102
  17 C :    0.083777
  18 C :   -0.329452
  19 C :   -0.004521
  20 O :   -0.501771
  21 H :    0.154684
  22 H :    0.166975
  23 O :   -0.602530
  24 H :    0.158975
  25 H :    0.134774
  26 H :    0.148617
  27 H :    0.147336
  28 H :    0.356377
Sum of atomic charges:    0.0000000

LOEWDIN ATOMIC CHARGES
----------------------
   0 C :    0.181137
   1 C :   -0.234878
   2 C :   -0.217127
   3 C :   -0.024331
   4 O :   -0.301240
   5 H :    0.094987
   6 H :    0.115646
   7 H :    0.114133
   8 H :    0.114214
   9 H :    0.117935
  10 H :    0.112063
  11 H :    0.101677
  12 C :   -0.053544
  13 H :    0.096785
  14 H :    0.093855
  15 O :   -0.322827
  16 C :    0.020105
  17 C :    0.033266
  18 C :   -0.241665
  19 C :   -0.027984
  20 O :   -0.311170
  21 H :    0.113731
  22 H :    0.119179
  23 O :   -0.409924
  24 H :    0.122811
  25 H :    0.103929
  26 H :    0.105708
  27 H :    0.105571
  28 H :    0.277957

  Mayer bond orders larger than 0.100000
B(  0-C ,  1-C ) :   0.9275 B(  0-C ,  4-O ) :   0.9415 B(  0-C ,  5-H ) :   0.9216
B(  0-C , 15-O ) :   0.8378 B(  1-C ,  2-C ) :   0.9508 B(  1-C ,  6-H ) :   0.9333
B(  1-C ,  7-H ) :   0.9302 B(  2-C ,  3-C ) :   0.9556 B(  2-C ,  8-H ) :   0.9447
B(  2-C ,  9-H ) :   0.9416 B(  3-C ,  4-O ) :   0.8337 B(  3-C , 10-H ) :   0.9338
B(  3-C , 11-H ) :   0.9399 B( 12-C , 13-H ) :   0.8985 B( 12-C , 14-H ) :   0.9243
B( 12-C , 15-O ) :   0.8511 B( 12-C , 16-C ) :   0.9007 B( 16-C , 17-C ) :   0.8701
B( 16-C , 20-O ) :   0.8753 B( 16-C , 21-H ) :   0.9309 B( 17-C , 18-C ) :   0.9252
B( 17-C , 22-H ) :   0.9330 B( 17-C , 23-O ) :   0.8922 B( 18-C , 19-C ) :   0.9383
B( 18-C , 24-H ) :   0.9412 B( 18-C , 25-H ) :   0.9399 B( 19-C , 20-O ) :   0.8513
B( 19-C , 26-H ) :   0.9314 B( 19-C , 27-H ) :   0.9378 B( 23-O , 28-H ) :   0.7991

FINAL SINGLE POINT ENERGY      -652.851285872657

DIPOLE MOMENT
-------------
                                X             Y             Z
Electronic contribution:     -0.72192      -2.09091       1.26319
Nuclear contribution   :      0.63151       2.37870      -2.40752
                        -----------------------------------------
Total Dipole Moment    :     -0.09041       0.28779      -1.14433
                        -----------------------------------------
Magnitude (a.u.)       :      1.18343
Magnitude (Debye)      :      3.00803

Rotational constants in cm-1:     0.054360     0.013087     0.011999
Rotational constants in MHz :  1629.657123   392.337832   359.712810

                             ****ORCA TERMINATED NORMALLY****
TOTAL RUN TIME: 0 days 0 hours 25 minutes 58 seconds 432 msec
