                         Program Version 4.2.0 -  RELEASE  -
|  1> # Test redundant internal optimization
|  2> #
|  3> ! RKS B3LYP  Opt TightSCF SmallPrint
|  4>
|  5> %basis
|  6>         Basis "6-31G"
|  7> end
|  8>
|  9> %geom
| 10> Constraints
| 11> { D 4  0  15  12  285.0   C } # D for Dihedral angle
| 12> { D 0  15  12  16  150.0   C } # D for Dihedral angle
| 13> { D 0  4  3  2   C } # D for Dihedral angle
| 14> { D 4  3  2  1   C } # D for Dihedral angle
| 15> { D 3  2  1  0   C } # D for Dihedral angle
| 16> { D 2  1  0  4   C } # D for Dihedral angle
| 17> { D 1  0  4  3   C } # D for Dihedral angle
| 18> { D 16  20  19  18   C } # D for Dihedral angle
| 19> { D 20  19  18  17   C } # D for Dihedral angle
| 20> { D 19  18  17  16   C } # D for Dihedral angle
| 21> { D 18  17  16  20   C } # D for Dihedral angle
| 22> { D 17  16  20  19   C } # D for Dihedral angle
| 23> { D 15  12  16  20   C } # D for Dihedral angle
| 24> end
| 25> end
| 26>
| 27>
| 28> #%pal
| 29> #nprocs 8
| 30> #end
| 31>
| 32> * xyz 0 1
| 33> C  -21.048   26.222   46.251
| 34> C  -20.361   27.558   45.944
| 35> C  -20.329   28.222   47.341
| 36> C  -20.110   27.022   48.296
| 37> O  -20.473   25.807   47.535
| 38> H  -20.833   25.428   45.533
| 39> H  -19.344   27.382   45.576
| 40> H  -20.898   28.157   45.201
| 41> H  -19.543   28.978   47.434
| 42> H  -21.289   28.710   47.548
| 43> H  -20.733   27.082   49.195
| 44> H  -19.064   26.913   48.597
| 45> C  -23.396   25.070   46.435
| 46> H  -23.660   24.760   45.416
| 47> H  -22.795   24.273   46.891
| 48> O  -22.586   26.394   46.375
| 49> C  -24.706   25.204   47.260
| 50> C  -25.419   23.855   47.395
| 51> C  -24.599   23.178   48.519
| 52> C  -24.222   24.364   49.442
| 53> O  -24.405   25.593   48.641
| 54> H  -25.320   25.999   46.830
| 55> H  -26.457   24.007   47.712
| 56> O  -25.426   23.033   46.077
| 57> H  -25.162   22.401   49.047
| 58> H  -23.699   22.713   48.101
| 59> H  -23.184   24.312   49.788
| 60> H  -24.882   24.443   50.311
| 61> H  -24.397   22.867   45.740
| 62> *
| 63>
| 64>                          ****END OF INPUT****
 Total Charge           Charge          ....    0
 Multiplicity           Mult            ....    1
 Number of Electrons    NEL             ....  102
FINAL SINGLE POINT ENERGY      -652.830958438880
FINAL SINGLE POINT ENERGY      -652.856152816500
FINAL SINGLE POINT ENERGY      -652.861019779196
FINAL SINGLE POINT ENERGY      -652.861930351863
FINAL SINGLE POINT ENERGY      -652.862076147440
FINAL SINGLE POINT ENERGY      -652.862099570237
FINAL SINGLE POINT ENERGY      -652.862105765272
FINAL SINGLE POINT ENERGY      -652.862106942107
                    ***********************HURRAY********************

CARTESIAN COORDINATES (ANGSTROEM)
---------------------------------
  C    -21.047153   26.159188   46.203709
  C    -20.505639   27.572223   45.987195
  C    -20.546630   28.148831   47.420331
  C    -20.205941   26.926612   48.300760
  O    -20.442990   25.732487   47.448948
  H    -20.775432   25.411694   45.451974
  H    -19.476828   27.513544   45.613494
  H    -21.112256   28.137636   45.277016
  H    -19.840992   28.973145   47.561962
  H    -21.555377   28.507860   47.640928
  H    -20.840708   26.853281   49.186663
  H    -19.153379   26.893237   48.598014
  C    -23.209892   25.027762   46.357055
  H    -23.489112   24.734612   45.335659
  H    -22.576134   24.248242   46.800938
  O    -22.477420   26.282429   46.327887
  C    -24.466459   25.239605   47.198613
  C    -25.322656   23.973906   47.366331
  C    -24.594135   23.248280   48.537206
  C    -24.114273   24.421585   49.418994
  O    -24.153281   25.638253   48.567406
  H    -25.032576   26.070761   46.768096
  H    -26.334876   24.256834   47.663060
  O    -25.503003   23.178697   46.168690
  H    -25.253106   22.555770   49.068088
  H    -23.746719   22.673343   48.141072
  H    -23.095414   24.283262   49.792679
  H    -24.782268   24.602738   50.266305
  H    -24.685352   22.681183   45.961926

 Multiplicity           Mult            ....    1
 Number of Electrons    NEL             ....  102
 Basis Dimension        Dim             ....  149

ORBITAL ENERGIES
----------------

  NO   OCC          E(Eh)            E(eV)
   0   2.0000     -19.148904      -521.0682
   1   2.0000     -19.138650      -520.7891
   2   2.0000     -19.134044      -520.6638
   3   2.0000     -19.134000      -520.6626
   4   2.0000     -10.274269      -279.5771
   5   2.0000     -10.243533      -278.7407
   6   2.0000     -10.227929      -278.3161
   7   2.0000     -10.227169      -278.2954
   8   2.0000     -10.226406      -278.2747
   9   2.0000     -10.218031      -278.0467
  10   2.0000     -10.193700      -277.3847
  11   2.0000     -10.179618      -277.0015
  12   2.0000     -10.177404      -276.9412
  13   2.0000      -1.050632       -28.5892
  14   2.0000      -1.031598       -28.0712
  15   2.0000      -1.013000       -27.5651
  16   2.0000      -0.988206       -26.8904
  17   2.0000      -0.784886       -21.3578
  18   2.0000      -0.779179       -21.2025
  19   2.0000      -0.763151       -20.7664
  20   2.0000      -0.725188       -19.7334
  21   2.0000      -0.676184       -18.3999
  22   2.0000      -0.609385       -16.5822
  23   2.0000      -0.592292       -16.1171
  24   2.0000      -0.584923       -15.9166
  25   2.0000      -0.576852       -15.6969
  26   2.0000      -0.528424       -14.3792
  27   2.0000      -0.509441       -13.8626
  28   2.0000      -0.491634       -13.3780
  29   2.0000      -0.483426       -13.1547
  30   2.0000      -0.469844       -12.7851
  31   2.0000      -0.455443       -12.3932
  32   2.0000      -0.440452       -11.9853
  33   2.0000      -0.432854       -11.7786
  34   2.0000      -0.423375       -11.5206
  35   2.0000      -0.414483       -11.2787
  36   2.0000      -0.397992       -10.8299
  37   2.0000      -0.396095       -10.7783
  38   2.0000      -0.377090       -10.2612
  39   2.0000      -0.371229       -10.1017
  40   2.0000      -0.350960        -9.5501
  41   2.0000      -0.347440        -9.4543
  42   2.0000      -0.340391        -9.2625
  43   2.0000      -0.328514        -8.9393
  44   2.0000      -0.323228        -8.7955
  45   2.0000      -0.313061        -8.5188
  46   2.0000      -0.295142        -8.0312
  47   2.0000      -0.270657        -7.3650
  48   2.0000      -0.263100        -7.1593
  49   2.0000      -0.245577        -6.6825
  50   2.0000      -0.238942        -6.5019
  51   0.0000       0.051933         1.4132
  52   0.0000       0.079225         2.1558
  53   0.0000       0.092578         2.5192
  54   0.0000       0.101560         2.7636
  55   0.0000       0.106439         2.8963

MULLIKEN ATOMIC CHARGES
-----------------------
   0 C :    0.280804
   1 C :   -0.258897
   2 C :   -0.297920
   3 C :   -0.001385
   4 O :   -0.515263
   5 H :    0.136479
   6 H :    0.140862
   7 H :    0.155470
   8 H :    0.136407
   9 H :    0.172942
  10 H :    0.156429
  11 H :    0.136727
  12 C :   -0.014438
  13 H :    0.132186
  14 H :    0.138931
  15 O :   -0.511111
  16 C :    0.096371
  17 C :    0.079948
  18 C :   -0.325880
  19 C :   -0.010471
  20 O :   -0.506894
  21 H :    0.163874
  22 H :    0.167985
  23 O :   -0.600286
  24 H :    0.157214
  25 H :    0.135710
  26 H :    0.150638
  27 H :    0.147875
  28 H :    0.355694
Sum of atomic charges:   -0.0000000

LOEWDIN ATOMIC CHARGES
----------------------
   0 C :    0.171706
   1 C :   -0.214842
   2 C :   -0.215199
   3 C :   -0.026507
   4 O :   -0.333503
   5 H :    0.094242
   6 H :    0.111706
   7 H :    0.123456
   8 H :    0.111276
   9 H :    0.124614
  10 H :    0.110240
  11 H :    0.099739
  12 C :   -0.053661
  13 H :    0.098097
  14 H :    0.099439
  15 O :   -0.317264
  16 C :    0.022073
  17 C :    0.034533
  18 C :   -0.242184
  19 C :   -0.030096
  20 O :   -0.314531
  21 H :    0.119277
  22 H :    0.119480
  23 O :   -0.408047
  24 H :    0.122105
  25 H :    0.105092
  26 H :    0.106283
  27 H :    0.104914
  28 H :    0.277562

  Mayer bond orders larger than 0.100000
B(  0-C ,  1-C ) :   0.9514 B(  0-C ,  4-O ) :   0.9046 B(  0-C ,  5-H ) :   0.9199
B(  0-C , 15-O ) :   0.8686 B(  1-C ,  2-C ) :   0.9569 B(  1-C ,  6-H ) :   0.9411
B(  1-C ,  7-H ) :   0.9365 B(  2-C ,  3-C ) :   0.9571 B(  2-C ,  8-H ) :   0.9455
B(  2-C ,  9-H ) :   0.9414 B(  3-C ,  4-O ) :   0.8328 B(  3-C , 10-H ) :   0.9338
B(  3-C , 11-H ) :   0.9404 B( 12-C , 13-H ) :   0.9089 B( 12-C , 14-H ) :   0.9135
B( 12-C , 15-O ) :   0.8383 B( 12-C , 16-C ) :   0.9067 B( 16-C , 17-C ) :   0.8748
B( 16-C , 20-O ) :   0.8709 B( 16-C , 21-H ) :   0.9303 B( 17-C , 18-C ) :   0.9245
B( 17-C , 22-H ) :   0.9330 B( 17-C , 23-O ) :   0.8961 B( 18-C , 19-C ) :   0.9397
B( 18-C , 24-H ) :   0.9420 B( 18-C , 25-H ) :   0.9402 B( 19-C , 20-O ) :   0.8494
B( 19-C , 26-H ) :   0.9302 B( 19-C , 27-H ) :   0.9378 B( 23-O , 28-H ) :   0.7983

FINAL SINGLE POINT ENERGY      -652.862107143023

DIPOLE MOMENT
-------------
                                X             Y             Z
Electronic contribution:     -2.65338      -1.05180      -1.69198
Nuclear contribution   :      3.21625       0.64830       1.81764
                        -----------------------------------------
Total Dipole Moment    :      0.56287      -0.40350       0.12566
                        -----------------------------------------
Magnitude (a.u.)       :      0.70387
Magnitude (Debye)      :      1.78909

Rotational constants in cm-1:     0.053687     0.014363     0.012886
Rotational constants in MHz :  1609.504593   430.596585   386.306152

                             ****ORCA TERMINATED NORMALLY****
TOTAL RUN TIME: 0 days 0 hours 27 minutes 43 seconds 328 msec
