                         Program Version 4.2.0 -  RELEASE  -
|  1> # Test redundant internal optimization
|  2> #
|  3> ! RKS B3LYP  Opt TightSCF SmallPrint
|  4>
|  5> %basis
|  6>         Basis "6-31G"
|  7> end
|  8>
|  9> %geom
| 10> Constraints
| 11> { D 4  0  15  12  150.0   C } # D for Dihedral angle
| 12> { D 0  15  12  16  165.0   C } # D for Dihedral angle
| 13> { D 0  4  3  2   C } # D for Dihedral angle
| 14> { D 4  3  2  1   C } # D for Dihedral angle
| 15> { D 3  2  1  0   C } # D for Dihedral angle
| 16> { D 2  1  0  4   C } # D for Dihedral angle
| 17> { D 1  0  4  3   C } # D for Dihedral angle
| 18> { D 16  20  19  18   C } # D for Dihedral angle
| 19> { D 20  19  18  17   C } # D for Dihedral angle
| 20> { D 19  18  17  16   C } # D for Dihedral angle
| 21> { D 18  17  16  20   C } # D for Dihedral angle
| 22> { D 17  16  20  19   C } # D for Dihedral angle
| 23> { D 15  12  16  20   C } # D for Dihedral angle
| 24> end
| 25> end
| 26>
| 27>
| 28> #%pal
| 29> #nprocs 8
| 30> #end
| 31>
| 32> * xyz 0 1
| 33> C  -21.048   26.222   46.251
| 34> C  -20.361   27.558   45.944
| 35> C  -20.329   28.222   47.341
| 36> C  -20.110   27.022   48.296
| 37> O  -20.473   25.807   47.535
| 38> H  -20.833   25.428   45.533
| 39> H  -19.344   27.382   45.576
| 40> H  -20.898   28.157   45.201
| 41> H  -19.543   28.978   47.434
| 42> H  -21.289   28.710   47.548
| 43> H  -20.733   27.082   49.195
| 44> H  -19.064   26.913   48.597
| 45> C  -23.210   27.459   45.431
| 46> H  -22.970   28.461   45.808
| 47> H  -22.796   27.364   44.419
| 48> O  -22.586   26.394   46.375
| 49> C  -24.755   27.334   45.324
| 50> C  -25.431   27.622   46.669
| 51> C  -25.404   29.169   46.709
| 52> C  -25.608   29.562   45.224
| 53> O  -25.290   28.361   44.423
| 54> H  -25.006   26.365   44.889
| 55> O  -26.894   27.100   46.652
| 56> H  -24.913   27.166   47.519
| 57> H  -26.175   29.590   47.362
| 58> H  -24.430   29.518   47.072
| 59> H  -24.953   30.383   44.914
| 60> H  -26.643   29.834   45.002
| 61> H  -27.435   27.544   45.808
| 62> *
| 63>
| 64>                          ****END OF INPUT****
 Total Charge           Charge          ....    0
 Multiplicity           Mult            ....    1
 Number of Electrons    NEL             ....  102
FINAL SINGLE POINT ENERGY      -652.830596500428
FINAL SINGLE POINT ENERGY      -652.853853690520
FINAL SINGLE POINT ENERGY      -652.857849748605
FINAL SINGLE POINT ENERGY      -652.858512012310
FINAL SINGLE POINT ENERGY      -652.858607333652
FINAL SINGLE POINT ENERGY      -652.858617941340
                    ***********************HURRAY********************

CARTESIAN COORDINATES (ANGSTROEM)
---------------------------------
  C    -21.173439   26.278820   46.211867
  C    -20.280834   27.486112   45.925001
  C    -20.278741   28.219129   47.291559
  C    -20.320713   27.051736   48.300584
  O    -20.787679   25.870901   47.532186
  H    -21.019311   25.419505   45.554145
  H    -19.276270   27.122343   45.681797
  H    -20.618538   28.113502   45.096588
  H    -19.397447   28.853862   47.423026
  H    -21.169672   28.849338   47.386903
  H    -21.009261   27.223690   49.131620
  H    -19.332969   26.797121   48.695241
  C    -23.148024   27.583957   45.346700
  H    -22.879370   28.597843   45.674468
  H    -22.786998   27.451141   44.317962
  O    -22.603721   26.581247   46.245314
  C    -24.663917   27.395219   45.354034
  C    -25.343526   27.628319   46.710117
  C    -25.430701   29.175058   46.754937
  C    -25.681671   29.558924   45.275431
  O    -25.283714   28.381638   44.461927
  H    -24.905969   26.403439   44.963785
  O    -26.664167   27.018656   46.735186
  H    -24.794512   27.188949   47.541175
  H    -26.234860   29.496952   47.421086
  H    -24.490533   29.599996   47.123219
  H    -25.098647   30.427077   44.953368
  H    -26.738138   29.751914   45.064749
  H    -27.110659   27.180613   45.877026

 Multiplicity           Mult            ....    1
 Number of Electrons    NEL             ....  102
 Basis Dimension        Dim             ....  149

ORBITAL ENERGIES
----------------

  NO   OCC          E(Eh)            E(eV)
   0   2.0000     -19.145459      -520.9744
   1   2.0000     -19.143891      -520.9318
   2   2.0000     -19.143207      -520.9131
   3   2.0000     -19.132903      -520.6327
   4   2.0000     -10.283722      -279.8343
   5   2.0000     -10.235220      -278.5145
   6   2.0000     -10.233858      -278.4774
   7   2.0000     -10.232939      -278.4524
   8   2.0000     -10.232347      -278.4363
   9   2.0000     -10.229889      -278.3694
  10   2.0000     -10.195909      -277.4448
  11   2.0000     -10.195559      -277.4353
  12   2.0000     -10.187386      -277.2129
  13   2.0000      -1.055996       -28.7351
  14   2.0000      -1.035856       -28.1871
  15   2.0000      -1.003008       -27.2932
  16   2.0000      -0.997196       -27.1351
  17   2.0000      -0.793704       -21.5978
  18   2.0000      -0.780744       -21.2451
  19   2.0000      -0.770009       -20.9530
  20   2.0000      -0.734301       -19.9814
  21   2.0000      -0.679461       -18.4891
  22   2.0000      -0.607945       -16.5430
  23   2.0000      -0.603599       -16.4248
  24   2.0000      -0.595605       -16.2072
  25   2.0000      -0.577222       -15.7070
  26   2.0000      -0.524029       -14.2596
  27   2.0000      -0.516780       -14.0623
  28   2.0000      -0.504135       -13.7182
  29   2.0000      -0.494081       -13.4446
  30   2.0000      -0.474737       -12.9182
  31   2.0000      -0.455993       -12.4082
  32   2.0000      -0.453738       -12.3468
  33   2.0000      -0.444267       -12.0891
  34   2.0000      -0.428578       -11.6622
  35   2.0000      -0.413210       -11.2440
  36   2.0000      -0.407167       -11.0796
  37   2.0000      -0.391609       -10.6562
  38   2.0000      -0.384371       -10.4593
  39   2.0000      -0.368991       -10.0408
  40   2.0000      -0.363819        -9.9000
  41   2.0000      -0.361050        -9.8247
  42   2.0000      -0.356456        -9.6996
  43   2.0000      -0.333127        -9.0649
  44   2.0000      -0.317680        -8.6445
  45   2.0000      -0.307163        -8.3583
  46   2.0000      -0.298526        -8.1233
  47   2.0000      -0.270823        -7.3695
  48   2.0000      -0.266329        -7.2472
  49   2.0000      -0.256003        -6.9662
  50   2.0000      -0.246005        -6.6941
  51   0.0000       0.058185         1.5833
  52   0.0000       0.066712         1.8153
  53   0.0000       0.091894         2.5006
  54   0.0000       0.100171         2.7258
  55   0.0000       0.101799         2.7701

MULLIKEN ATOMIC CHARGES
-----------------------
   0 C :    0.318586
   1 C :   -0.294404
   2 C :   -0.301624
   3 C :   -0.000934
   4 O :   -0.496186
   5 H :    0.152372
   6 H :    0.153848
   7 H :    0.147668
   8 H :    0.146629
   9 H :    0.150035
  10 H :    0.153283
  11 H :    0.145542
  12 C :   -0.004768
  13 H :    0.121377
  14 H :    0.144758
  15 O :   -0.529059
  16 C :    0.057322
  17 C :    0.091497
  18 C :   -0.297250
  19 C :   -0.028646
  20 O :   -0.530884
  21 H :    0.168176
  22 O :   -0.603969
  23 H :    0.181623
  24 H :    0.164625
  25 H :    0.138873
  26 H :    0.143253
  27 H :    0.146053
  28 H :    0.362203
Sum of atomic charges:   -0.0000000

LOEWDIN ATOMIC CHARGES
----------------------
   0 C :    0.185077
   1 C :   -0.233322
   2 C :   -0.217107
   3 C :   -0.026563
   4 O :   -0.303390
   5 H :    0.103313
   6 H :    0.120709
   7 H :    0.116317
   8 H :    0.116610
   9 H :    0.110373
  10 H :    0.108741
  11 H :    0.104580
  12 C :   -0.040765
  13 H :    0.086883
  14 H :    0.101564
  15 O :   -0.340252
  16 C :    0.019545
  17 C :    0.039286
  18 C :   -0.241113
  19 C :   -0.038030
  20 O :   -0.332624
  21 H :    0.119950
  22 O :   -0.414520
  23 H :    0.130468
  24 H :    0.127578
  25 H :    0.110452
  26 H :    0.102317
  27 H :    0.102858
  28 H :    0.281067

  Mayer bond orders larger than 0.100000
B(  0-C ,  1-C ) :   0.9311 B(  0-C ,  4-O ) :   0.9367 B(  0-C ,  5-H ) :   0.9247
B(  0-C , 15-O ) :   0.8319 B(  1-C ,  2-C ) :   0.9497 B(  1-C ,  6-H ) :   0.9339
B(  1-C ,  7-H ) :   0.9276 B(  2-C ,  3-C ) :   0.9530 B(  2-C ,  8-H ) :   0.9452
B(  2-C ,  9-H ) :   0.9441 B(  3-C ,  4-O ) :   0.8378 B(  3-C , 10-H ) :   0.9344
B(  3-C , 11-H ) :   0.9393 B( 12-C , 13-H ) :   0.9117 B( 12-C , 14-H ) :   0.9153
B( 12-C , 15-O ) :   0.8312 B( 12-C , 16-C ) :   0.8993 B( 16-C , 17-C ) :   0.9152
B( 16-C , 20-O ) :   0.8411 B( 16-C , 21-H ) :   0.9251 B( 17-C , 18-C ) :   0.9109
B( 17-C , 22-O ) :   0.8874 B( 17-C , 23-H ) :   0.9222 B( 18-C , 19-C ) :   0.9407
B( 18-C , 24-H ) :   0.9373 B( 18-C , 25-H ) :   0.9355 B( 19-C , 20-O ) :   0.8443
B( 19-C , 26-H ) :   0.9361 B( 19-C , 27-H ) :   0.9386 B( 22-O , 28-H ) :   0.7959

FINAL SINGLE POINT ENERGY      -652.858620299827

DIPOLE MOMENT
-------------
                                X             Y             Z
Electronic contribution:     -3.57342      -5.68152      -1.10329
Nuclear contribution   :      4.55046       7.22124       0.78168
                        -----------------------------------------
Total Dipole Moment    :      0.97705       1.53972      -0.32162
                        -----------------------------------------
Magnitude (a.u.)       :      1.85170
Magnitude (Debye)      :      4.70666

Rotational constants in cm-1:     0.052579     0.013058     0.012622
Rotational constants in MHz :  1576.289084   391.478335   378.403333

                             ****ORCA TERMINATED NORMALLY****
TOTAL RUN TIME: 0 days 0 hours 19 minutes 34 seconds 285 msec
