                         Program Version 4.2.0 -  RELEASE  -
|  1> # Test redundant internal optimization
|  2> #
|  3> ! RKS B3LYP  Opt TightSCF SmallPrint
|  4>
|  5> %basis
|  6>         Basis "6-31G"
|  7> end
|  8>
|  9> %geom
| 10> Constraints
| 11> { D 4  0  15  12  240.0   C } # D for Dihedral angle
| 12> { D 0  15  12  16  120.0   C } # D for Dihedral angle
| 13> { D 0  4  3  2   C } # D for Dihedral angle
| 14> { D 4  3  2  1   C } # D for Dihedral angle
| 15> { D 3  2  1  0   C } # D for Dihedral angle
| 16> { D 2  1  0  4   C } # D for Dihedral angle
| 17> { D 1  0  4  3   C } # D for Dihedral angle
| 18> { D 16  20  19  18   C } # D for Dihedral angle
| 19> { D 20  19  18  17   C } # D for Dihedral angle
| 20> { D 19  18  17  16   C } # D for Dihedral angle
| 21> { D 18  17  16  20   C } # D for Dihedral angle
| 22> { D 17  16  20  19   C } # D for Dihedral angle
| 23> { D 15  12  16  20   C } # D for Dihedral angle
| 24> end
| 25> end
| 26>
| 27>
| 28> #%pal
| 29> #nprocs 8
| 30> #end
| 31>
| 32> * xyz 0 1
| 33> C  -21.048   26.222   46.251
| 34> C  -20.361   27.558   45.944
| 35> C  -20.329   28.222   47.341
| 36> C  -20.110   27.022   48.296
| 37> O  -20.473   25.807   47.535
| 38> H  -20.833   25.428   45.533
| 39> H  -19.344   27.382   45.576
| 40> H  -20.898   28.157   45.201
| 41> H  -19.543   28.978   47.434
| 42> H  -21.289   28.710   47.548
| 43> H  -20.733   27.082   49.195
| 44> H  -19.064   26.913   48.597
| 45> C  -23.430   25.483   45.442
| 46> H  -24.035   26.109   44.775
| 47> H  -22.775   24.855   44.823
| 48> O  -22.586   26.394   46.375
| 49> C  -24.384   24.540   46.226
| 50> C  -25.114   23.578   45.283
| 51> C  -24.026   22.510   45.021
| 52> C  -23.279   22.429   46.376
| 53> O  -23.619   23.662   47.117
| 54> H  -25.043   25.142   46.857
| 55> H  -25.977   23.133   45.792
| 56> O  -25.614   24.261   43.981
| 57> H  -24.443   21.544   44.716
| 58> H  -23.350   22.849   44.227
| 59> H  -22.192   22.373   46.252
| 60> H  -23.611   21.583   46.985
| 61> H  -24.767   24.713   43.453
| 62> *
| 63>
| 64>                          ****END OF INPUT****
 Total Charge           Charge          ....    0
 Multiplicity           Mult            ....    1
 Number of Electrons    NEL             ....  102
FINAL SINGLE POINT ENERGY      -652.825826082823
FINAL SINGLE POINT ENERGY      -652.849053326624
FINAL SINGLE POINT ENERGY      -652.853388496957
FINAL SINGLE POINT ENERGY      -652.854121608936
FINAL SINGLE POINT ENERGY      -652.854247566205
FINAL SINGLE POINT ENERGY      -652.854282672536
FINAL SINGLE POINT ENERGY      -652.854290337799
FINAL SINGLE POINT ENERGY      -652.854292285361
                    ***********************HURRAY********************

CARTESIAN COORDINATES (ANGSTROEM)
---------------------------------
  C    -21.004121   26.203951   46.185634
  C    -20.397449   27.589362   45.966756
  C    -20.460221   28.195913   47.390005
  C    -20.199201   26.971800   48.295267
  O    -20.460675   25.781137   47.449049
  H    -20.728357   25.444032   45.447451
  H    -19.357027   27.484549   45.635462
  H    -20.948877   28.170932   45.224572
  H    -19.727274   28.993750   47.542007
  H    -21.460106   28.601653   47.570861
  H    -20.858308   26.932274   49.165680
  H    -19.157894   26.900864   48.624436
  C    -23.258692   25.518745   45.366875
  H    -23.862035   26.190186   44.743496
  H    -22.609427   24.920519   44.708786
  O    -22.446132   26.330262   46.250861
  C    -24.188894   24.617830   46.180496
  C    -25.062030   23.683076   45.326730
  C    -24.088420   22.497097   45.052349
  C    -23.276931   22.413545   46.364210
  O    -23.460155   23.712557   47.061253
  H    -24.786117   25.255619   46.837723
  H    -25.915595   23.344522   45.917405
  O    -25.652775   24.280322   44.145608
  H    -24.620640   21.571207   44.819083
  H    -23.444523   22.740324   44.196225
  H    -22.208269   22.246507   46.198289
  H    -23.654272   21.635791   47.034809
  H    -24.975584   24.410672   43.450621

 Multiplicity           Mult            ....    1
 Number of Electrons    NEL             ....  102
 Basis Dimension        Dim             ....  149

ORBITAL ENERGIES
----------------

  NO   OCC          E(Eh)            E(eV)
   0   2.0000     -19.149594      -521.0870
   1   2.0000     -19.136681      -520.7356
   2   2.0000     -19.133721      -520.6550
   3   2.0000     -19.130891      -520.5780
   4   2.0000     -10.275735      -279.6170
   5   2.0000     -10.244152      -278.7576
   6   2.0000     -10.232459      -278.4394
   7   2.0000     -10.227670      -278.3090
   8   2.0000     -10.226574      -278.2792
   9   2.0000     -10.217364      -278.0286
  10   2.0000     -10.194995      -277.4199
  11   2.0000     -10.180253      -277.0188
  12   2.0000     -10.179828      -277.0072
  13   2.0000      -1.046818       -28.4854
  14   2.0000      -1.032049       -28.0835
  15   2.0000      -1.013330       -27.5741
  16   2.0000      -0.989256       -26.9190
  17   2.0000      -0.783600       -21.3228
  18   2.0000      -0.779639       -21.2151
  19   2.0000      -0.764326       -20.7984
  20   2.0000      -0.726571       -19.7710
  21   2.0000      -0.678831       -18.4719
  22   2.0000      -0.610051       -16.6003
  23   2.0000      -0.592786       -16.1305
  24   2.0000      -0.588242       -16.0069
  25   2.0000      -0.578493       -15.7416
  26   2.0000      -0.527985       -14.3672
  27   2.0000      -0.509306       -13.8589
  28   2.0000      -0.496743       -13.5171
  29   2.0000      -0.484118       -13.1735
  30   2.0000      -0.463767       -12.6197
  31   2.0000      -0.455023       -12.3818
  32   2.0000      -0.447840       -12.1863
  33   2.0000      -0.429626       -11.6907
  34   2.0000      -0.427175       -11.6240
  35   2.0000      -0.416066       -11.3217
  36   2.0000      -0.404617       -11.0102
  37   2.0000      -0.392679       -10.6853
  38   2.0000      -0.379334       -10.3222
  39   2.0000      -0.365999        -9.9593
  40   2.0000      -0.351786        -9.5726
  41   2.0000      -0.349149        -9.5008
  42   2.0000      -0.345145        -9.3919
  43   2.0000      -0.330258        -8.9868
  44   2.0000      -0.312374        -8.5001
  45   2.0000      -0.309389        -8.4189
  46   2.0000      -0.302684        -8.2364
  47   2.0000      -0.269753        -7.3404
  48   2.0000      -0.261610        -7.1188
  49   2.0000      -0.246962        -6.7202
  50   2.0000      -0.231198        -6.2912
  51   0.0000       0.049362         1.3432
  52   0.0000       0.070739         1.9249
  53   0.0000       0.090219         2.4550
  54   0.0000       0.097768         2.6604
  55   0.0000       0.108555         2.9539

MULLIKEN ATOMIC CHARGES
-----------------------
   0 C :    0.293153
   1 C :   -0.253592
   2 C :   -0.300608
   3 C :    0.000251
   4 O :   -0.494270
   5 H :    0.132703
   6 H :    0.139242
   7 H :    0.143276
   8 H :    0.138432
   9 H :    0.163389
  10 H :    0.154817
  11 H :    0.137180
  12 C :   -0.013160
  13 H :    0.141789
  14 H :    0.107011
  15 O :   -0.512054
  16 C :    0.104972
  17 C :    0.077447
  18 C :   -0.318225
  19 C :   -0.017280
  20 O :   -0.498171
  21 H :    0.164264
  22 H :    0.169223
  23 O :   -0.598458
  24 H :    0.156064
  25 H :    0.128207
  26 H :    0.149497
  27 H :    0.151247
  28 H :    0.353653
Sum of atomic charges:   -0.0000000

LOEWDIN ATOMIC CHARGES
----------------------
   0 C :    0.179829
   1 C :   -0.222615
   2 C :   -0.216823
   3 C :   -0.026119
   4 O :   -0.309736
   5 H :    0.093808
   6 H :    0.110534
   7 H :    0.116558
   8 H :    0.112337
   9 H :    0.119732
  10 H :    0.109516
  11 H :    0.099988
  12 C :   -0.044462
  13 H :    0.104410
  14 H :    0.084690
  15 O :   -0.322759
  16 C :    0.015602
  17 C :    0.032930
  18 C :   -0.241039
  19 C :   -0.031778
  20 O :   -0.309515
  21 H :    0.120321
  22 H :    0.120343
  23 O :   -0.407585
  24 H :    0.122223
  25 H :    0.101321
  26 H :    0.105181
  27 H :    0.106787
  28 H :    0.276321

  Mayer bond orders larger than 0.100000
B(  0-C ,  1-C ) :   0.9406 B(  0-C ,  4-O ) :   0.9365 B(  0-C ,  5-H ) :   0.9185
B(  0-C , 15-O ) :   0.8425 B(  1-C ,  2-C ) :   0.9587 B(  1-C ,  6-H ) :   0.9372
B(  1-C ,  7-H ) :   0.9391 B(  2-C ,  3-C ) :   0.9537 B(  2-C ,  8-H ) :   0.9455
B(  2-C ,  9-H ) :   0.9435 B(  3-C ,  4-O ) :   0.8404 B(  3-C , 10-H ) :   0.9340
B(  3-C , 11-H ) :   0.9399 B( 12-C , 13-H ) :   0.9154 B( 12-C , 14-H ) :   0.9188
B( 12-C , 15-O ) :   0.8630 B( 12-C , 16-C ) :   0.8943 B( 16-C , 17-C ) :   0.8703
B( 16-C , 20-O ) :   0.8766 B( 16-C , 21-H ) :   0.9302 B( 17-C , 18-C ) :   0.9221
B( 17-C , 22-H ) :   0.9324 B( 17-C , 23-O ) :   0.8940 B( 18-C , 19-C ) :   0.9387
B( 18-C , 24-H ) :   0.9425 B( 18-C , 25-H ) :   0.9412 B( 19-C , 20-O ) :   0.8520
B( 19-C , 26-H ) :   0.9304 B( 19-C , 27-H ) :   0.9371 B( 23-O , 28-H ) :   0.7995

FINAL SINGLE POINT ENERGY      -652.854292955751

DIPOLE MOMENT
-------------
                                X             Y             Z
Electronic contribution:     -2.87016      -1.44169       1.17899
Nuclear contribution   :      3.46033       1.43293      -2.23711
                        -----------------------------------------
Total Dipole Moment    :      0.59018      -0.00876      -1.05813
                        -----------------------------------------
Magnitude (a.u.)       :      1.21162
Magnitude (Debye)      :      3.07969

Rotational constants in cm-1:     0.058331     0.013017     0.011675
Rotational constants in MHz :  1748.710870   390.232174   350.010418

                             ****ORCA TERMINATED NORMALLY****
TOTAL RUN TIME: 0 days 0 hours 28 minutes 54 seconds 497 msec
