                         Program Version 4.2.0 -  RELEASE  -
|  1> # Test redundant internal optimization
|  2> #
|  3> ! RKS B3LYP  Opt TightSCF SmallPrint
|  4>
|  5> %basis
|  6>         Basis "6-31G"
|  7> end
|  8>
|  9> %geom
| 10> Constraints
| 11> { D 4  0  15  12  270.0   C } # D for Dihedral angle
| 12> { D 0  15  12  16  300.0   C } # D for Dihedral angle
| 13> { D 0  4  3  2   C } # D for Dihedral angle
| 14> { D 4  3  2  1   C } # D for Dihedral angle
| 15> { D 3  2  1  0   C } # D for Dihedral angle
| 16> { D 2  1  0  4   C } # D for Dihedral angle
| 17> { D 1  0  4  3   C } # D for Dihedral angle
| 18> { D 16  20  19  18   C } # D for Dihedral angle
| 19> { D 20  19  18  17   C } # D for Dihedral angle
| 20> { D 19  18  17  16   C } # D for Dihedral angle
| 21> { D 18  17  16  20   C } # D for Dihedral angle
| 22> { D 17  16  20  19   C } # D for Dihedral angle
| 23> { D 15  12  16  20   C } # D for Dihedral angle
| 24> end
| 25> end
| 26>
| 27>
| 28> #%pal
| 29> #nprocs 8
| 30> #end
| 31>
| 32> * xyz 0 1
| 33> C  -21.048   26.222   46.251
| 34> C  -20.361   27.558   45.944
| 35> C  -20.329   28.222   47.341
| 36> C  -20.110   27.022   48.296
| 37> O  -20.473   25.807   47.535
| 38> H  -20.833   25.428   45.533
| 39> H  -19.344   27.382   45.576
| 40> H  -20.898   28.157   45.201
| 41> H  -19.543   28.978   47.434
| 42> H  -21.289   28.710   47.548
| 43> H  -20.733   27.082   49.195
| 44> H  -19.064   26.913   48.597
| 45> C  -23.420   25.119   46.072
| 46> H  -23.140   24.328   46.779
| 47> H  -24.491   25.323   46.192
| 48> O  -22.586   26.394   46.375
| 49> C  -23.199   24.585   44.630
| 50> C  -23.484   25.670   43.585
| 51> C  -22.183   26.507   43.640
| 52> C  -21.091   25.442   43.907
| 53> O  -21.788   24.243   44.420
| 54> H  -23.774   23.667   44.496
| 55> O  -23.662   25.026   42.183
| 56> H  -24.378   26.261   43.810
| 57> H  -22.001   27.070   42.718
| 58> H  -22.232   27.226   44.467
| 59> H  -20.353   25.773   44.646
| 60> H  -20.567   25.143   42.994
| 61> H  -22.777   24.430   41.936
| 62> *
| 63>
| 64>                          ****END OF INPUT****
 Total Charge           Charge          ....    0
 Multiplicity           Mult            ....    1
 Number of Electrons    NEL             ....  102
FINAL SINGLE POINT ENERGY      -652.745507414881
FINAL SINGLE POINT ENERGY      -652.829813602255
FINAL SINGLE POINT ENERGY      -652.850614385580
FINAL SINGLE POINT ENERGY      -652.855826871792
FINAL SINGLE POINT ENERGY      -652.857040500002
FINAL SINGLE POINT ENERGY      -652.857544503413
FINAL SINGLE POINT ENERGY      -652.857724357513
FINAL SINGLE POINT ENERGY      -652.857842917835
FINAL SINGLE POINT ENERGY      -652.857871959671
FINAL SINGLE POINT ENERGY      -652.857876268582
                    ***********************HURRAY********************

CARTESIAN COORDINATES (ANGSTROEM)
---------------------------------
  C    -20.889880   26.341927   46.413367
  C    -20.309865   27.752685   46.302874
  C    -20.437799   28.263213   47.757338
  C    -20.178567   26.990696   48.596053
  O    -20.378020   25.846411   47.675049
  H    -20.581855   25.608439   45.675824
  H    -19.257798   27.688460   46.001460
  H    -20.850342   28.371464   45.583536
  H    -19.728504   29.064189   47.985932
  H    -21.451944   28.636691   47.926421
  H    -20.864743   26.890445   49.441230
  H    -19.148322   26.926283   48.959876
  C    -23.150514   25.333681   46.056812
  H    -22.960632   24.513029   46.762544
  H    -24.180592   25.674107   46.200414
  O    -22.333132   26.470130   46.457640
  C    -23.048531   24.744622   44.636088
  C    -23.511873   25.623449   43.462709
  C    -22.186612   26.318255   43.047161
  C    -21.120954   25.222549   43.296861
  O    -21.748489   24.224676   44.205182
  H    -23.707876   23.866602   44.679518
  O    -24.062426   24.809682   42.389862
  H    -24.301530   26.326612   43.726338
  H    -22.223365   26.650531   42.007050
  H    -22.017165   27.185918   43.692961
  H    -20.205995   25.610594   43.752265
  H    -20.847087   24.683788   42.384651
  H    -23.466586   24.048873   42.223984

 Multiplicity           Mult            ....    1
 Number of Electrons    NEL             ....  102
 Basis Dimension        Dim             ....  149

ORBITAL ENERGIES
----------------

  NO   OCC          E(Eh)            E(eV)
   0   2.0000     -19.154344      -521.2162
   1   2.0000     -19.143257      -520.9145
   2   2.0000     -19.141480      -520.8661
   3   2.0000     -19.133621      -520.6523
   4   2.0000     -10.272848      -279.5384
   5   2.0000     -10.244322      -278.7622
   6   2.0000     -10.240830      -278.6671
   7   2.0000     -10.237976      -278.5895
   8   2.0000     -10.233780      -278.4753
   9   2.0000     -10.220790      -278.1218
  10   2.0000     -10.191911      -277.3360
  11   2.0000     -10.185405      -277.1590
  12   2.0000     -10.183288      -277.1013
  13   2.0000      -1.050786       -28.5933
  14   2.0000      -1.040817       -28.3221
  15   2.0000      -1.011086       -27.5131
  16   2.0000      -0.990260       -26.9464
  17   2.0000      -0.789252       -21.4766
  18   2.0000      -0.782542       -21.2941
  19   2.0000      -0.771920       -21.0050
  20   2.0000      -0.730932       -19.8897
  21   2.0000      -0.679802       -18.4984
  22   2.0000      -0.608828       -16.5671
  23   2.0000      -0.606636       -16.5074
  24   2.0000      -0.595699       -16.2098
  25   2.0000      -0.573587       -15.6081
  26   2.0000      -0.528649       -14.3853
  27   2.0000      -0.508893       -13.8477
  28   2.0000      -0.503555       -13.7024
  29   2.0000      -0.482462       -13.1285
  30   2.0000      -0.471493       -12.8300
  31   2.0000      -0.461783       -12.5657
  32   2.0000      -0.448040       -12.1918
  33   2.0000      -0.444175       -12.0866
  34   2.0000      -0.421999       -11.4832
  35   2.0000      -0.415216       -11.2986
  36   2.0000      -0.401562       -10.9270
  37   2.0000      -0.395611       -10.7651
  38   2.0000      -0.378801       -10.3077
  39   2.0000      -0.373403       -10.1608
  40   2.0000      -0.363749        -9.8981
  41   2.0000      -0.353955        -9.6316
  42   2.0000      -0.345449        -9.4001
  43   2.0000      -0.337843        -9.1932
  44   2.0000      -0.321426        -8.7464
  45   2.0000      -0.312217        -8.4958
  46   2.0000      -0.305121        -8.3028
  47   2.0000      -0.274527        -7.4703
  48   2.0000      -0.272890        -7.4257
  49   2.0000      -0.249956        -6.8017
  50   2.0000      -0.241846        -6.5810
  51   0.0000       0.057484         1.5642
  52   0.0000       0.081160         2.2085
  53   0.0000       0.084184         2.2908
  54   0.0000       0.099868         2.7175
  55   0.0000       0.102590         2.7916

MULLIKEN ATOMIC CHARGES
-----------------------
   0 C :    0.264581
   1 C :   -0.263486
   2 C :   -0.299280
   3 C :   -0.000944
   4 O :   -0.511206
   5 H :    0.181033
   6 H :    0.142264
   7 H :    0.150863
   8 H :    0.139147
   9 H :    0.163205
  10 H :    0.147841
  11 H :    0.139146
  12 C :   -0.015164
  13 H :    0.158194
  14 H :    0.150414
  15 O :   -0.526540
  16 C :    0.060535
  17 C :    0.081439
  18 C :   -0.293223
  19 C :   -0.043559
  20 O :   -0.520526
  21 H :    0.162184
  22 O :   -0.600336
  23 H :    0.158067
  24 H :    0.160021
  25 H :    0.160060
  26 H :    0.140280
  27 H :    0.151092
  28 H :    0.363898
Sum of atomic charges:   -0.0000000

LOEWDIN ATOMIC CHARGES
----------------------
   0 C :    0.164792
   1 C :   -0.218303
   2 C :   -0.215741
   3 C :   -0.027925
   4 O :   -0.323753
   5 H :    0.115497
   6 H :    0.112314
   7 H :    0.117448
   8 H :    0.112411
   9 H :    0.119459
  10 H :    0.105474
  11 H :    0.100891
  12 C :   -0.041326
  13 H :    0.109305
  14 H :    0.118598
  15 O :   -0.332349
  16 C :    0.000042
  17 C :    0.037191
  18 C :   -0.240364
  19 C :   -0.041794
  20 O :   -0.329063
  21 H :    0.119766
  22 O :   -0.414487
  23 H :    0.119059
  24 H :    0.125873
  25 H :    0.120577
  26 H :    0.099422
  27 H :    0.104540
  28 H :    0.282445

  Mayer bond orders larger than 0.100000
B(  0-C ,  1-C ) :   0.9433 B(  0-C ,  4-O ) :   0.9038 B(  0-C ,  5-H ) :   0.8937
B(  0-C , 15-O ) :   0.8396 B(  1-C ,  2-C ) :   0.9548 B(  1-C ,  6-H ) :   0.9404
B(  1-C ,  7-H ) :   0.9342 B(  2-C ,  3-C ) :   0.9546 B(  2-C ,  8-H ) :   0.9456
B(  2-C ,  9-H ) :   0.9437 B(  3-C ,  4-O ) :   0.8422 B(  3-C , 10-H ) :   0.9355
B(  3-C , 11-H ) :   0.9402 B( 12-C , 13-H ) :   0.9183 B( 12-C , 14-H ) :   0.9296
B( 12-C , 15-O ) :   0.8725 B( 12-C , 16-C ) :   0.8909 B( 16-C , 17-C ) :   0.9017
B( 16-C , 20-O ) :   0.8554 B( 16-C , 21-H ) :   0.9131 B( 17-C , 18-C ) :   0.9199
B( 17-C , 22-O ) :   0.8959 B( 17-C , 23-H ) :   0.9345 B( 18-C , 19-C ) :   0.9420
B( 18-C , 24-H ) :   0.9366 B( 18-C , 25-H ) :   0.9246 B( 19-C , 20-O ) :   0.8376
B( 19-C , 26-H ) :   0.9237 B( 19-C , 27-H ) :   0.9398 B( 22-O , 28-H ) :   0.7958

FINAL SINGLE POINT ENERGY      -652.857875202584

DIPOLE MOMENT
-------------
                                X             Y             Z
Electronic contribution:     -2.50649      -4.97672      -0.89345
Nuclear contribution   :      2.93818       5.78952       0.69025
                        -----------------------------------------
Total Dipole Moment    :      0.43169       0.81280      -0.20319
                        -----------------------------------------
Magnitude (a.u.)       :      0.94249
Magnitude (Debye)      :      2.39562

Rotational constants in cm-1:     0.060718     0.014226     0.013757
Rotational constants in MHz :  1820.290363   426.485246   412.427695

                             ****ORCA TERMINATED NORMALLY****
TOTAL RUN TIME: 0 days 0 hours 30 minutes 44 seconds 379 msec
