                         Program Version 4.2.0 -  RELEASE  -
|  1> # Test redundant internal optimization
|  2> #
|  3> ! RKS B3LYP  Opt TightSCF SmallPrint
|  4>
|  5> %basis
|  6>         Basis "6-31G"
|  7> end
|  8>
|  9> %geom
| 10> Constraints
| 11> { D 4  0  15  12  135.0   C } # D for Dihedral angle
| 12> { D 0  15  12  16  120.0   C } # D for Dihedral angle
| 13> { D 0  4  3  2   C } # D for Dihedral angle
| 14> { D 4  3  2  1   C } # D for Dihedral angle
| 15> { D 3  2  1  0   C } # D for Dihedral angle
| 16> { D 2  1  0  4   C } # D for Dihedral angle
| 17> { D 1  0  4  3   C } # D for Dihedral angle
| 18> { D 16  20  19  18   C } # D for Dihedral angle
| 19> { D 20  19  18  17   C } # D for Dihedral angle
| 20> { D 19  18  17  16   C } # D for Dihedral angle
| 21> { D 18  17  16  20   C } # D for Dihedral angle
| 22> { D 17  16  20  19   C } # D for Dihedral angle
| 23> { D 15  12  16  20   C } # D for Dihedral angle
| 24> end
| 25> end
| 26>
| 27>
| 28> #%pal
| 29> #nprocs 8
| 30> #end
| 31>
| 32> * xyz 0 1
| 33> C  -21.048   26.222   46.251
| 34> C  -20.361   27.558   45.944
| 35> C  -20.329   28.222   47.341
| 36> C  -20.110   27.022   48.296
| 37> O  -20.473   25.807   47.535
| 38> H  -20.833   25.428   45.533
| 39> H  -19.344   27.382   45.576
| 40> H  -20.898   28.157   45.201
| 41> H  -19.543   28.978   47.434
| 42> H  -21.289   28.710   47.548
| 43> H  -20.733   27.082   49.195
| 44> H  -19.064   26.913   48.597
| 45> C  -23.162   27.680   45.721
| 46> H  -23.653   28.289   46.490
| 47> H  -22.356   28.277   45.273
| 48> O  -22.586   26.394   46.375
| 49> C  -24.198   27.373   44.604
| 50> C  -25.444   26.686   45.176
| 51> C  -26.216   27.884   45.777
| 52> C  -25.902   29.036   44.788
| 53> O  -24.708   28.619   44.023
| 54> H  -23.706   26.822   43.801
| 55> O  -26.260   26.026   44.030
| 56> H  -25.209   25.915   45.918
| 57> H  -27.289   27.694   45.869
| 58> H  -25.829   28.117   46.776
| 59> H  -25.689   29.980   45.299
| 60> H  -26.708   29.197   44.067
| 61> H  -26.508   26.780   43.273
| 62> *
| 63>
| 64>                          ****END OF INPUT****
 Total Charge           Charge          ....    0
 Multiplicity           Mult            ....    1
 Number of Electrons    NEL             ....  102
FINAL SINGLE POINT ENERGY      -652.821439834581
FINAL SINGLE POINT ENERGY      -652.845206173138
FINAL SINGLE POINT ENERGY      -652.853305695622
FINAL SINGLE POINT ENERGY      -652.855234707134
FINAL SINGLE POINT ENERGY      -652.855540070952
FINAL SINGLE POINT ENERGY      -652.855595875391
FINAL SINGLE POINT ENERGY      -652.855602068996
                    ***********************HURRAY********************

CARTESIAN COORDINATES (ANGSTROEM)
---------------------------------
  C    -21.173372   26.337375   46.210561
  C    -20.210292   27.491744   45.928378
  C    -20.125483   28.187838   47.312096
  C    -20.218620   26.998723   48.293873
  O    -20.780722   25.870657   47.512833
  H    -21.075859   25.481900   45.539505
  H    -19.240652   27.058658   45.658447
  H    -20.506928   28.160519   45.117566
  H    -19.200506   28.759107   47.433900
  H    -20.967700   28.875616   47.446674
  H    -20.871876   27.196296   49.147795
  H    -19.239332   26.673319   48.656329
  C    -23.174553   27.884660   45.705926
  H    -23.642851   28.445309   46.524398
  H    -22.436343   28.537762   45.231281
  O    -22.592844   26.676603   46.265821
  C    -24.210417   27.485602   44.652915
  C    -25.404533   26.680277   45.186068
  C    -26.295460   27.798556   45.780669
  C    -26.065377   28.988914   44.816053
  O    -24.813953   28.691068   44.071438
  H    -23.713966   26.948976   43.838826
  O    -26.074494   25.972721   44.105594
  H    -25.111576   25.917272   45.905212
  H    -27.340016   27.479178   45.820190
  H    -25.974285   28.041546   46.799017
  H    -25.949060   29.943853   45.337454
  H    -26.863667   29.091473   44.074297
  H    -26.173263   26.574478   43.337883

 Multiplicity           Mult            ....    1
 Number of Electrons    NEL             ....  102
 Basis Dimension        Dim             ....  149

ORBITAL ENERGIES
----------------

  NO   OCC          E(Eh)            E(eV)
   0   2.0000     -19.145439      -520.9739
   1   2.0000     -19.141471      -520.8659
   2   2.0000     -19.140405      -520.8369
   3   2.0000     -19.133031      -520.6363
   4   2.0000     -10.283771      -279.8356
   5   2.0000     -10.234579      -278.4970
   6   2.0000     -10.233334      -278.4632
   7   2.0000     -10.231977      -278.4262
   8   2.0000     -10.231668      -278.4178
   9   2.0000     -10.228464      -278.3306
  10   2.0000     -10.196397      -277.4581
  11   2.0000     -10.195318      -277.4287
  12   2.0000     -10.186307      -277.1835
  13   2.0000      -1.052416       -28.6377
  14   2.0000      -1.034906       -28.1612
  15   2.0000      -1.002749       -27.2862
  16   2.0000      -0.994060       -27.0497
  17   2.0000      -0.793076       -21.5807
  18   2.0000      -0.779946       -21.2234
  19   2.0000      -0.769168       -20.9301
  20   2.0000      -0.734579       -19.9889
  21   2.0000      -0.680193       -18.5090
  22   2.0000      -0.606637       -16.5074
  23   2.0000      -0.602402       -16.3922
  24   2.0000      -0.599444       -16.3117
  25   2.0000      -0.573013       -15.5925
  26   2.0000      -0.524630       -14.2759
  27   2.0000      -0.515720       -14.0335
  28   2.0000      -0.503424       -13.6989
  29   2.0000      -0.492212       -13.3938
  30   2.0000      -0.473659       -12.8889
  31   2.0000      -0.459757       -12.5106
  32   2.0000      -0.452125       -12.3030
  33   2.0000      -0.438387       -11.9291
  34   2.0000      -0.429030       -11.6745
  35   2.0000      -0.411455       -11.1963
  36   2.0000      -0.407393       -11.0857
  37   2.0000      -0.391179       -10.6445
  38   2.0000      -0.384104       -10.4520
  39   2.0000      -0.367239        -9.9931
  40   2.0000      -0.364256        -9.9119
  41   2.0000      -0.359575        -9.7845
  42   2.0000      -0.355352        -9.6696
  43   2.0000      -0.330180        -8.9846
  44   2.0000      -0.316393        -8.6095
  45   2.0000      -0.306404        -8.3377
  46   2.0000      -0.293746        -7.9932
  47   2.0000      -0.275807        -7.5051
  48   2.0000      -0.265600        -7.2273
  49   2.0000      -0.257522        -7.0075
  50   2.0000      -0.239453        -6.5158
  51   0.0000       0.064047         1.7428
  52   0.0000       0.069733         1.8975
  53   0.0000       0.094054         2.5593
  54   0.0000       0.096311         2.6207
  55   0.0000       0.103807         2.8247

MULLIKEN ATOMIC CHARGES
-----------------------
   0 C :    0.319453
   1 C :   -0.305070
   2 C :   -0.305104
   3 C :   -0.000983
   4 O :   -0.493545
   5 H :    0.157650
   6 H :    0.157492
   7 H :    0.150841
   8 H :    0.146706
   9 H :    0.153531
  10 H :    0.150686
  11 H :    0.145071
  12 C :   -0.014854
  13 H :    0.138509
  14 H :    0.143553
  15 O :   -0.534355
  16 C :    0.063456
  17 C :    0.090317
  18 C :   -0.302266
  19 C :   -0.031835
  20 O :   -0.529914
  21 H :    0.156449
  22 O :   -0.603133
  23 H :    0.184049
  24 H :    0.162976
  25 H :    0.148378
  26 H :    0.144090
  27 H :    0.147443
  28 H :    0.360409
Sum of atomic charges:   -0.0000000

LOEWDIN ATOMIC CHARGES
----------------------
   0 C :    0.185215
   1 C :   -0.233552
   2 C :   -0.218943
   3 C :   -0.027877
   4 O :   -0.307863
   5 H :    0.106056
   6 H :    0.123036
   7 H :    0.116352
   8 H :    0.116867
   9 H :    0.112068
  10 H :    0.107270
  11 H :    0.104220
  12 C :   -0.040651
  13 H :    0.099285
  14 H :    0.104213
  15 O :   -0.338428
  16 C :    0.011124
  17 C :    0.038348
  18 C :   -0.242262
  19 C :   -0.038921
  20 O :   -0.334795
  21 H :    0.113703
  22 O :   -0.414591
  23 H :    0.131567
  24 H :    0.126984
  25 H :    0.115455
  26 H :    0.102934
  27 H :    0.102965
  28 H :    0.280223

  Mayer bond orders larger than 0.100000
B(  0-C ,  1-C ) :   0.9339 B(  0-C ,  4-O ) :   0.9279 B(  0-C ,  5-H ) :   0.9282
B(  0-C , 15-O ) :   0.8465 B(  1-C ,  2-C ) :   0.9492 B(  1-C ,  6-H ) :   0.9327
B(  1-C ,  7-H ) :   0.9250 B(  2-C ,  3-C ) :   0.9518 B(  2-C ,  8-H ) :   0.9455
B(  2-C ,  9-H ) :   0.9444 B(  3-C ,  4-O ) :   0.8417 B(  3-C , 10-H ) :   0.9345
B(  3-C , 11-H ) :   0.9394 B( 12-C , 13-H ) :   0.9298 B( 12-C , 14-H ) :   0.9068
B( 12-C , 15-O ) :   0.8351 B( 12-C , 16-C ) :   0.8867 B( 16-C , 17-C ) :   0.9152
B( 16-C , 20-O ) :   0.8387 B( 16-C , 21-H ) :   0.9279 B( 17-C , 18-C ) :   0.9137
B( 17-C , 22-O ) :   0.8879 B( 17-C , 23-H ) :   0.9213 B( 18-C , 19-C ) :   0.9413
B( 18-C , 24-H ) :   0.9373 B( 18-C , 25-H ) :   0.9340 B( 19-C , 20-O ) :   0.8445
B( 19-C , 26-H ) :   0.9363 B( 19-C , 27-H ) :   0.9375 B( 22-O , 28-H ) :   0.7972

FINAL SINGLE POINT ENERGY      -652.855603207234

DIPOLE MOMENT
-------------
                                X             Y             Z
Electronic contribution:     -1.91247      -4.45683      -2.39883
Nuclear contribution   :      2.48286       5.92241       2.58502
                        -----------------------------------------
Total Dipole Moment    :      0.57039       1.46558       0.18619
                        -----------------------------------------
Magnitude (a.u.)       :      1.58365
Magnitude (Debye)      :      4.02532

Rotational constants in cm-1:     0.059401     0.012073     0.011425
Rotational constants in MHz :  1780.799727   361.939565   342.513318

                             ****ORCA TERMINATED NORMALLY****
TOTAL RUN TIME: 0 days 0 hours 23 minutes 27 seconds 495 msec
