                         Program Version 4.2.0 -  RELEASE  -
|  1> # Test redundant internal optimization
|  2> #
|  3> ! RKS B3LYP  Opt TightSCF SmallPrint
|  4>
|  5> %basis
|  6>         Basis "6-31G"
|  7> end
|  8>
|  9> %geom
| 10> Constraints
| 11> { D 4  0  15  12  150.0   C } # D for Dihedral angle
| 12> { D 0  15  12  16  75.0   C } # D for Dihedral angle
| 13> { D 0  4  3  2   C } # D for Dihedral angle
| 14> { D 4  3  2  1   C } # D for Dihedral angle
| 15> { D 3  2  1  0   C } # D for Dihedral angle
| 16> { D 2  1  0  4   C } # D for Dihedral angle
| 17> { D 1  0  4  3   C } # D for Dihedral angle
| 18> { D 16  20  19  18   C } # D for Dihedral angle
| 19> { D 20  19  18  17   C } # D for Dihedral angle
| 20> { D 19  18  17  16   C } # D for Dihedral angle
| 21> { D 18  17  16  20   C } # D for Dihedral angle
| 22> { D 17  16  20  19   C } # D for Dihedral angle
| 23> { D 15  12  16  20   C } # D for Dihedral angle
| 24> end
| 25> end
| 26>
| 27>
| 28> #%pal
| 29> #nprocs 8
| 30> #end
| 31>
| 32> * xyz 0 1
| 33> C  -21.048   26.222   46.251
| 34> C  -20.361   27.558   45.944
| 35> C  -20.329   28.222   47.341
| 36> C  -20.110   27.022   48.296
| 37> O  -20.473   25.807   47.535
| 38> H  -20.833   25.428   45.533
| 39> H  -19.344   27.382   45.576
| 40> H  -20.898   28.157   45.201
| 41> H  -19.543   28.978   47.434
| 42> H  -21.289   28.710   47.548
| 43> H  -20.733   27.082   49.195
| 44> H  -19.064   26.913   48.597
| 45> C  -23.210   27.459   45.431
| 46> H  -24.222   27.701   45.779
| 47> H  -22.613   28.380   45.444
| 48> O  -22.586   26.394   46.375
| 49> C  -23.301   26.975   43.958
| 50> C  -23.812   28.089   43.037
| 51> C  -22.537   28.942   42.840
| 52> C  -21.405   27.885   42.827
| 53> O  -21.967   26.661   43.437
| 54> H  -23.885   26.053   43.919
| 55> O  -24.285   27.488   41.685
| 56> H  -24.642   28.659   43.471
| 57> H  -22.562   29.537   41.921
| 58> H  -22.411   29.632   43.682
| 59> H  -20.528   28.202   43.403
| 60> H  -21.088   27.624   41.813
| 61> H  -23.470   26.913   41.232
| 62> *
| 63>
| 64>                          ****END OF INPUT****
 Total Charge           Charge          ....    0
 Multiplicity           Mult            ....    1
 Number of Electrons    NEL             ....  102
FINAL SINGLE POINT ENERGY      -652.823031213019
FINAL SINGLE POINT ENERGY      -652.847514904172
FINAL SINGLE POINT ENERGY      -652.853521285613
FINAL SINGLE POINT ENERGY      -652.855969503222
FINAL SINGLE POINT ENERGY      -652.856305373518
FINAL SINGLE POINT ENERGY      -652.856357353251
FINAL SINGLE POINT ENERGY      -652.856363268249
                    ***********************HURRAY********************

CARTESIAN COORDINATES (ANGSTROEM)
---------------------------------
  C    -21.001270   26.255370   46.237800
  C    -20.154765   27.515211   46.052230
  C    -20.251123   28.181561   47.450954
  C    -20.284067   26.961677   48.397833
  O    -20.656574   25.803696   47.555680
  H    -20.789036   25.444934   45.542047
  H    -19.124428   27.205087   45.843592
  H    -20.475893   28.163668   45.238207
  H    -19.407932   28.847759   47.657253
  H    -21.175196   28.763991   47.533922
  H    -21.016761   27.062371   49.203050
  H    -19.303665   26.736062   48.828447
  C    -23.088158   27.489334   45.425968
  H    -24.099408   27.580673   45.835507
  H    -22.595414   28.467935   45.519088
  O    -22.449793   26.491219   46.255606
  C    -23.182485   27.054373   43.959792
  C    -23.849379   28.061249   43.008789
  C    -22.659884   28.988711   42.649334
  C    -21.453135   28.018070   42.613415
  O    -21.870188   26.798837   43.351492
  H    -23.708291   26.094634   43.934270
  O    -24.388005   27.394985   41.835407
  H    -24.692690   28.594335   43.450418
  H    -22.833829   29.488795   41.693487
  H    -22.531082   29.756593   43.420960
  H    -20.557798   28.436437   43.082397
  H    -21.196564   27.704103   41.597413
  H    -23.752186   26.713329   41.530644

 Multiplicity           Mult            ....    1
 Number of Electrons    NEL             ....  102
 Basis Dimension        Dim             ....  149

ORBITAL ENERGIES
----------------

  NO   OCC          E(Eh)            E(eV)
   0   2.0000     -19.154153      -521.2110
   1   2.0000     -19.144361      -520.9446
   2   2.0000     -19.133967      -520.6617
   3   2.0000     -19.133410      -520.6466
   4   2.0000     -10.272145      -279.5193
   5   2.0000     -10.249704      -278.9086
   6   2.0000     -10.240126      -278.6480
   7   2.0000     -10.237894      -278.5872
   8   2.0000     -10.236319      -278.5444
   9   2.0000     -10.222128      -278.1583
  10   2.0000     -10.197756      -277.4950
  11   2.0000     -10.188341      -277.2389
  12   2.0000     -10.186320      -277.1839
  13   2.0000      -1.049582       -28.5606
  14   2.0000      -1.041559       -28.3423
  15   2.0000      -1.013634       -27.5824
  16   2.0000      -0.987069       -26.8595
  17   2.0000      -0.791023       -21.5248
  18   2.0000      -0.784632       -21.3509
  19   2.0000      -0.772859       -21.0306
  20   2.0000      -0.732101       -19.9215
  21   2.0000      -0.681898       -18.5554
  22   2.0000      -0.611693       -16.6450
  23   2.0000      -0.605579       -16.4787
  24   2.0000      -0.597390       -16.2558
  25   2.0000      -0.571184       -15.5427
  26   2.0000      -0.531703       -14.4684
  27   2.0000      -0.513905       -13.9841
  28   2.0000      -0.502533       -13.6746
  29   2.0000      -0.488330       -13.2881
  30   2.0000      -0.478369       -13.0171
  31   2.0000      -0.461581       -12.5602
  32   2.0000      -0.453950       -12.3526
  33   2.0000      -0.442283       -12.0351
  34   2.0000      -0.431621       -11.7450
  35   2.0000      -0.408845       -11.1252
  36   2.0000      -0.405755       -11.0411
  37   2.0000      -0.399829       -10.8799
  38   2.0000      -0.380633       -10.3576
  39   2.0000      -0.375961       -10.2304
  40   2.0000      -0.364805        -9.9268
  41   2.0000      -0.356201        -9.6927
  42   2.0000      -0.352730        -9.5983
  43   2.0000      -0.339302        -9.2329
  44   2.0000      -0.317341        -8.6353
  45   2.0000      -0.308157        -8.3854
  46   2.0000      -0.290641        -7.9087
  47   2.0000      -0.279835        -7.6147
  48   2.0000      -0.270618        -7.3639
  49   2.0000      -0.252288        -6.8651
  50   2.0000      -0.239193        -6.5088
  51   0.0000       0.052291         1.4229
  52   0.0000       0.075029         2.0417
  53   0.0000       0.087164         2.3719
  54   0.0000       0.093106         2.5336
  55   0.0000       0.100579         2.7369

MULLIKEN ATOMIC CHARGES
-----------------------
   0 C :    0.324483
   1 C :   -0.294156
   2 C :   -0.305599
   3 C :    0.002909
   4 O :   -0.498412
   5 H :    0.166240
   6 H :    0.151549
   7 H :    0.142740
   8 H :    0.141514
   9 H :    0.148900
  10 H :    0.150741
  11 H :    0.141033
  12 C :   -0.014915
  13 H :    0.157971
  14 H :    0.114828
  15 O :   -0.518338
  16 C :    0.062955
  17 C :    0.078781
  18 C :   -0.291838
  19 C :   -0.031230
  20 O :   -0.524985
  21 H :    0.172151
  22 O :   -0.600260
  23 H :    0.154151
  24 H :    0.165889
  25 H :    0.143154
  26 H :    0.141995
  27 H :    0.151306
  28 H :    0.366443
Sum of atomic charges:   -0.0000000

LOEWDIN ATOMIC CHARGES
----------------------
   0 C :    0.188607
   1 C :   -0.230436
   2 C :   -0.220498
   3 C :   -0.026491
   4 O :   -0.305088
   5 H :    0.111074
   6 H :    0.120295
   7 H :    0.111690
   8 H :    0.113737
   9 H :    0.109817
  10 H :    0.107160
  11 H :    0.101983
  12 C :   -0.042283
  13 H :    0.119308
  14 H :    0.086033
  15 O :   -0.330554
  16 C :    0.003570
  17 C :    0.036185
  18 C :   -0.240068
  19 C :   -0.039667
  20 O :   -0.330174
  21 H :    0.120966
  22 O :   -0.412372
  23 H :    0.116770
  24 H :    0.128712
  25 H :    0.112257
  26 H :    0.099872
  27 H :    0.105320
  28 H :    0.284275

  Mayer bond orders larger than 0.100000
B(  0-C ,  1-C ) :   0.9350 B(  0-C ,  4-O ) :   0.9215 B(  0-C ,  5-H ) :   0.9226
B(  0-C , 15-O ) :   0.8238 B(  1-C ,  2-C ) :   0.9458 B(  1-C ,  6-H ) :   0.9360
B(  1-C ,  7-H ) :   0.9211 B(  2-C ,  3-C ) :   0.9530 B(  2-C ,  8-H ) :   0.9454
B(  2-C ,  9-H ) :   0.9449 B(  3-C ,  4-O ) :   0.8417 B(  3-C , 10-H ) :   0.9347
B(  3-C , 11-H ) :   0.9399 B( 12-C , 13-H ) :   0.9275 B( 12-C , 14-H ) :   0.9120
B( 12-C , 15-O ) :   0.8778 B( 12-C , 16-C ) :   0.8831 B( 16-C , 17-C ) :   0.8943
B( 16-C , 20-O ) :   0.8506 B( 16-C , 21-H ) :   0.9228 B( 17-C , 18-C ) :   0.9111
B( 17-C , 22-O ) :   0.8928 B( 17-C , 23-H ) :   0.9341 B( 18-C , 19-C ) :   0.9407
B( 18-C , 24-H ) :   0.9367 B( 18-C , 25-H ) :   0.9340 B( 19-C , 20-O ) :   0.8440
B( 19-C , 26-H ) :   0.9260 B( 19-C , 27-H ) :   0.9380 B( 22-O , 28-H ) :   0.7939

FINAL SINGLE POINT ENERGY      -652.856362805362

DIPOLE MOMENT
-------------
                                X             Y             Z
Electronic contribution:     -3.09583      -6.17249      -0.80078
Nuclear contribution   :      3.79588       7.79901       0.42630
                        -----------------------------------------
Total Dipole Moment    :      0.70005       1.62652      -0.37448
                        -----------------------------------------
Magnitude (a.u.)       :      1.80994
Magnitude (Debye)      :      4.60049

Rotational constants in cm-1:     0.064035     0.013729     0.012979
Rotational constants in MHz :  1919.710154   411.570137   389.113958

                             ****ORCA TERMINATED NORMALLY****
TOTAL RUN TIME: 0 days 0 hours 44 minutes 28 seconds 855 msec
