                         Program Version 4.2.0 -  RELEASE  -
|  1> # Test redundant internal optimization
|  2> #
|  3> ! RKS B3LYP  Opt TightSCF SmallPrint
|  4>
|  5> %basis
|  6>         Basis "6-31G"
|  7> end
|  8>
|  9> %geom
| 10> Constraints
| 11> { D 4  0  15  12  150.0   C } # D for Dihedral angle
| 12> { D 0  15  12  16  165.0   C } # D for Dihedral angle
| 13> { D 0  4  3  2   C } # D for Dihedral angle
| 14> { D 4  3  2  1   C } # D for Dihedral angle
| 15> { D 3  2  1  0   C } # D for Dihedral angle
| 16> { D 2  1  0  4   C } # D for Dihedral angle
| 17> { D 1  0  4  3   C } # D for Dihedral angle
| 18> { D 16  20  19  18   C } # D for Dihedral angle
| 19> { D 20  19  18  17   C } # D for Dihedral angle
| 20> { D 19  18  17  16   C } # D for Dihedral angle
| 21> { D 18  17  16  20   C } # D for Dihedral angle
| 22> { D 17  16  20  19   C } # D for Dihedral angle
| 23> { D 15  12  16  20   C } # D for Dihedral angle
| 24> end
| 25> end
| 26>
| 27>
| 28> #%pal
| 29> #nprocs 8
| 30> #end
| 31>
| 32> * xyz 0 1
| 33> C  -21.048   26.222   46.251
| 34> C  -20.361   27.558   45.944
| 35> C  -20.329   28.222   47.341
| 36> C  -20.110   27.022   48.296
| 37> O  -20.473   25.807   47.535
| 38> H  -20.833   25.428   45.533
| 39> H  -19.344   27.382   45.576
| 40> H  -20.898   28.157   45.201
| 41> H  -19.543   28.978   47.434
| 42> H  -21.289   28.710   47.548
| 43> H  -20.733   27.082   49.195
| 44> H  -19.064   26.913   48.597
| 45> C  -23.210   27.459   45.431
| 46> H  -22.970   28.461   45.808
| 47> H  -22.796   27.364   44.419
| 48> O  -22.586   26.394   46.375
| 49> C  -24.755   27.334   45.324
| 50> C  -25.171   25.925   44.888
| 51> C  -25.046   25.137   46.214
| 52> C  -25.478   26.173   47.281
| 53> O  -25.376   27.503   46.641
| 54> H  -25.134   28.135   44.686
| 55> O  -26.643   25.933   44.393
| 56> H  -24.540   25.516   44.090
| 57> H  -25.666   24.235   46.232
| 58> H  -24.005   24.830   46.373
| 59> H  -24.839   26.152   48.170
| 60> H  -26.520   26.044   47.590
| 61> H  -27.293   26.338   45.176
| 62> *
| 63>
| 64>                          ****END OF INPUT****
 Total Charge           Charge          ....    0
 Multiplicity           Mult            ....    1
 Number of Electrons    NEL             ....  102
FINAL SINGLE POINT ENERGY      -652.830644227877
FINAL SINGLE POINT ENERGY      -652.853031526605
FINAL SINGLE POINT ENERGY      -652.857366966159
FINAL SINGLE POINT ENERGY      -652.858457643459
FINAL SINGLE POINT ENERGY      -652.858580798102
FINAL SINGLE POINT ENERGY      -652.858598915495
                    ***********************HURRAY********************

CARTESIAN COORDINATES (ANGSTROEM)
---------------------------------
  C    -21.102688   26.291267   46.211503
  C    -20.294905   27.556354   45.921978
  C    -20.303690   28.268300   47.299718
  C    -20.246750   27.086870   48.290896
  O    -20.658796   25.889387   47.514867
  H    -20.913692   25.453114   45.535215
  H    -19.276434   27.259282   45.647529
  H    -20.692546   28.173763   45.113221
  H    -19.459707   28.954218   47.419047
  H    -21.229105   28.839594   47.427190
  H    -20.925085   27.203507   49.139394
  H    -19.235692   26.887978   48.657383
  C    -23.177774   27.485721   45.425137
  H    -22.972783   28.500610   45.789283
  H    -22.806122   27.404184   44.391389
  O    -22.547617   26.504899   46.291894
  C    -24.690846   27.274928   45.415243
  C    -25.199531   25.911070   44.926224
  C    -25.090153   25.051310   46.214433
  C    -25.436506   26.060567   47.336792
  O    -25.269790   27.413996   46.750606
  H    -25.123717   28.073968   44.800971
  O    -26.569063   26.022526   44.443904
  H    -24.634233   25.506006   44.085991
  H    -25.781191   24.204394   46.173262
  H    -24.067844   24.691236   46.329076
  H    -24.766835   25.968980   48.195162
  H    -26.474761   25.985248   47.676484
  H    -27.105144   26.490721   45.118206

 Multiplicity           Mult            ....    1
 Number of Electrons    NEL             ....  102
 Basis Dimension        Dim             ....  149

ORBITAL ENERGIES
----------------

  NO   OCC          E(Eh)            E(eV)
   0   2.0000     -19.144996      -520.9618
   1   2.0000     -19.144216      -520.9406
   2   2.0000     -19.134760      -520.6833
   3   2.0000     -19.132078      -520.6103
   4   2.0000     -10.285830      -279.8917
   5   2.0000     -10.236866      -278.5593
   6   2.0000     -10.233950      -278.4799
   7   2.0000     -10.232740      -278.4470
   8   2.0000     -10.229408      -278.3563
   9   2.0000     -10.217446      -278.0309
  10   2.0000     -10.195985      -277.4469
  11   2.0000     -10.194127      -277.3963
  12   2.0000     -10.170624      -276.7567
  13   2.0000      -1.057372       -28.7726
  14   2.0000      -1.029654       -28.0183
  15   2.0000      -1.002287       -27.2736
  16   2.0000      -0.993408       -27.0320
  17   2.0000      -0.793187       -21.5837
  18   2.0000      -0.777169       -21.1478
  19   2.0000      -0.760976       -20.7072
  20   2.0000      -0.735485       -20.0136
  21   2.0000      -0.676966       -18.4212
  22   2.0000      -0.608072       -16.5465
  23   2.0000      -0.599126       -16.3031
  24   2.0000      -0.592875       -16.1330
  25   2.0000      -0.569519       -15.4974
  26   2.0000      -0.527543       -14.3552
  27   2.0000      -0.506901       -13.7935
  28   2.0000      -0.504744       -13.7348
  29   2.0000      -0.484469       -13.1831
  30   2.0000      -0.475471       -12.9382
  31   2.0000      -0.457873       -12.4593
  32   2.0000      -0.449050       -12.2193
  33   2.0000      -0.435782       -11.8582
  34   2.0000      -0.425603       -11.5812
  35   2.0000      -0.411080       -11.1861
  36   2.0000      -0.405161       -11.0250
  37   2.0000      -0.385383       -10.4868
  38   2.0000      -0.382868       -10.4184
  39   2.0000      -0.364264        -9.9121
  40   2.0000      -0.362378        -9.8608
  41   2.0000      -0.357603        -9.7309
  42   2.0000      -0.353686        -9.6243
  43   2.0000      -0.326960        -8.8970
  44   2.0000      -0.315808        -8.5936
  45   2.0000      -0.303100        -8.2478
  46   2.0000      -0.298535        -8.1235
  47   2.0000      -0.269313        -7.3284
  48   2.0000      -0.261886        -7.1263
  49   2.0000      -0.256771        -6.9871
  50   2.0000      -0.238529        -6.4907
  51   0.0000       0.069412         1.8888
  52   0.0000       0.077158         2.0996
  53   0.0000       0.094956         2.5839
  54   0.0000       0.101585         2.7643
  55   0.0000       0.108550         2.9538

MULLIKEN ATOMIC CHARGES
-----------------------
   0 C :    0.316924
   1 C :   -0.296012
   2 C :   -0.303243
   3 C :   -0.001045
   4 O :   -0.498682
   5 H :    0.148581
   6 H :    0.153985
   7 H :    0.146297
   8 H :    0.146643
   9 H :    0.162007
  10 H :    0.156387
  11 H :    0.144408
  12 C :    0.003682
  13 H :    0.140600
  14 H :    0.122892
  15 O :   -0.527407
  16 C :    0.067469
  17 C :    0.071764
  18 C :   -0.285679
  19 C :   -0.017753
  20 O :   -0.529567
  21 H :    0.154398
  22 O :   -0.601760
  23 H :    0.146717
  24 H :    0.146228
  25 H :    0.180089
  26 H :    0.158410
  27 H :    0.131764
  28 H :    0.361902
Sum of atomic charges:   -0.0000000

LOEWDIN ATOMIC CHARGES
----------------------
   0 C :    0.183525
   1 C :   -0.233545
   2 C :   -0.217154
   3 C :   -0.025779
   4 O :   -0.305569
   5 H :    0.100950
   6 H :    0.120460
   7 H :    0.115533
   8 H :    0.116654
   9 H :    0.116489
  10 H :    0.110551
  11 H :    0.104033
  12 C :   -0.039333
  13 H :    0.099907
  14 H :    0.091478
  15 O :   -0.336604
  16 C :    0.015500
  17 C :    0.038645
  18 C :   -0.241581
  19 C :   -0.032270
  20 O :   -0.331837
  21 H :    0.114803
  22 O :   -0.417037
  23 H :    0.113366
  24 H :    0.117243
  25 H :    0.133361
  26 H :    0.112116
  27 H :    0.094612
  28 H :    0.281482

  Mayer bond orders larger than 0.100000
B(  0-C ,  1-C ) :   0.9333 B(  0-C ,  4-O ) :   0.9387 B(  0-C ,  5-H ) :   0.9245
B(  0-C , 15-O ) :   0.8302 B(  1-C ,  2-C ) :   0.9497 B(  1-C ,  6-H ) :   0.9338
B(  1-C ,  7-H ) :   0.9277 B(  2-C ,  3-C ) :   0.9542 B(  2-C ,  8-H ) :   0.9450
B(  2-C ,  9-H ) :   0.9417 B(  3-C ,  4-O ) :   0.8342 B(  3-C , 10-H ) :   0.9341
B(  3-C , 11-H ) :   0.9397 B( 12-C , 13-H ) :   0.9098 B( 12-C , 14-H ) :   0.9080
B( 12-C , 15-O ) :   0.8452 B( 12-C , 16-C ) :   0.9011 B( 16-C , 17-C ) :   0.9077
B( 16-C , 20-O ) :   0.8775 B( 16-C , 21-H ) :   0.9225 B( 17-C , 18-C ) :   0.9249
B( 17-C , 22-O ) :   0.8921 B( 17-C , 23-H ) :   0.9365 B( 18-C , 19-C ) :   0.9477
B( 18-C , 24-H ) :   0.9369 B( 18-C , 25-H ) :   0.9173 B( 19-C , 20-O ) :   0.8349
B( 19-C , 26-H ) :   0.9333 B( 19-C , 27-H ) :   0.9380 B( 22-O , 28-H ) :   0.7963

FINAL SINGLE POINT ENERGY      -652.858599284016

DIPOLE MOMENT
-------------
                                X             Y             Z
Electronic contribution:     -3.56697      -1.91006      -0.64154
Nuclear contribution   :      4.62830       2.62228       0.52201
                        -----------------------------------------
Total Dipole Moment    :      1.06133       0.71222      -0.11953
                        -----------------------------------------
Magnitude (a.u.)       :      1.28373
Magnitude (Debye)      :      3.26299

Rotational constants in cm-1:     0.059567     0.013662     0.013184
Rotational constants in MHz :  1785.776429   409.571168   395.247787

                             ****ORCA TERMINATED NORMALLY****
TOTAL RUN TIME: 0 days 0 hours 26 minutes 29 seconds 593 msec
