                         Program Version 4.2.0 -  RELEASE  -
|  1> # Test redundant internal optimization
|  2> #
|  3> ! RKS B3LYP  Opt TightSCF SmallPrint
|  4>
|  5> %basis
|  6>         Basis "6-31G"
|  7> end
|  8>
|  9> %geom
| 10> Constraints
| 11> { D 4  0  15  12  195.0   C } # D for Dihedral angle
| 12> { D 0  15  12  16  240.0   C } # D for Dihedral angle
| 13> { D 0  4  3  2   C } # D for Dihedral angle
| 14> { D 4  3  2  1   C } # D for Dihedral angle
| 15> { D 3  2  1  0   C } # D for Dihedral angle
| 16> { D 2  1  0  4   C } # D for Dihedral angle
| 17> { D 1  0  4  3   C } # D for Dihedral angle
| 18> { D 16  20  19  18   C } # D for Dihedral angle
| 19> { D 20  19  18  17   C } # D for Dihedral angle
| 20> { D 19  18  17  16   C } # D for Dihedral angle
| 21> { D 18  17  16  20   C } # D for Dihedral angle
| 22> { D 17  16  20  19   C } # D for Dihedral angle
| 23> { D 15  12  16  20   C } # D for Dihedral angle
| 24> end
| 25> end
| 26>
| 27>
| 28> #%pal
| 29> #nprocs 8
| 30> #end
| 31>
| 32> * xyz 0 1
| 33> C  -21.048   26.222   46.251
| 34> C  -20.361   27.558   45.944
| 35> C  -20.329   28.222   47.341
| 36> C  -20.110   27.022   48.296
| 37> O  -20.473   25.807   47.535
| 38> H  -20.833   25.428   45.533
| 39> H  -19.344   27.382   45.576
| 40> H  -20.898   28.157   45.201
| 41> H  -19.543   28.978   47.434
| 42> H  -21.289   28.710   47.548
| 43> H  -20.733   27.082   49.195
| 44> H  -19.064   26.913   48.597
| 45> C  -23.353   26.472   45.026
| 46> H  -22.639   26.379   44.198
| 47> H  -24.077   25.651   44.948
| 48> O  -22.586   26.394   46.375
| 49> C  -24.130   27.807   44.854
| 50> C  -25.087   28.050   46.027
| 51> C  -24.120   28.575   47.116
| 52> C  -23.084   29.391   46.302
| 53> O  -23.208   28.946   44.897
| 54> H  -24.607   27.818   43.872
| 55> H  -25.821   28.817   45.760
| 56> O  -25.851   26.771   46.467
| 57> H  -24.625   29.180   47.875
| 58> H  -23.635   27.734   47.626
| 59> H  -22.057   29.224   46.643
| 60> H  -23.292   30.465   46.320
| 61> H  -25.134   25.989   46.739
| 62> *
| 63>
| 64>                          ****END OF INPUT****
 Total Charge           Charge          ....    0
 Multiplicity           Mult            ....    1
 Number of Electrons    NEL             ....  102
FINAL SINGLE POINT ENERGY      -652.813184641341
FINAL SINGLE POINT ENERGY      -652.838854332603
FINAL SINGLE POINT ENERGY      -652.854356232593
FINAL SINGLE POINT ENERGY      -652.858087640839
FINAL SINGLE POINT ENERGY      -652.858533726589
FINAL SINGLE POINT ENERGY      -652.858577973451
FINAL SINGLE POINT ENERGY      -652.858584466189
                    ***********************HURRAY********************

CARTESIAN COORDINATES (ANGSTROEM)
---------------------------------
  C    -21.001367   26.175031   46.200123
  C    -20.271154   27.489734   45.935062
  C    -20.169993   28.096992   47.357163
  C    -19.975185   26.848766   48.244445
  O    -20.420431   25.698289   47.416704
  H    -20.836430   25.402398   45.441241
  H    -19.274315   27.268764   45.536366
  H    -20.800580   28.139298   45.232822
  H    -19.346755   28.811324   47.451255
  H    -21.098089   28.604219   47.621879
  H    -20.569909   26.869758   49.160864
  H    -18.927314   26.662350   48.496879
  C    -23.198957   26.481746   45.132253
  H    -22.512160   26.382547   44.280998
  H    -23.914845   25.651495   45.078444
  O    -22.448188   26.335484   46.380564
  C    -23.999340   27.770375   44.944372
  C    -25.128519   27.985748   45.968032
  C    -24.389476   28.763235   47.101233
  C    -23.385502   29.631964   46.316299
  O    -23.264570   29.026915   44.961648
  H    -24.419441   27.691348   43.933161
  H    -25.921417   28.593377   45.526821
  O    -25.785012   26.774601   46.404895
  H    -25.073378   29.353235   47.716978
  H    -23.866458   28.038836   47.735154
  H    -22.398607   29.683166   46.774753
  H    -23.753808   30.651793   46.164451
  H    -25.179799   26.261210   46.981140

 Multiplicity           Mult            ....    1
 Number of Electrons    NEL             ....  102
 Basis Dimension        Dim             ....  149

ORBITAL ENERGIES
----------------

  NO   OCC          E(Eh)            E(eV)
   0   2.0000     -19.146915      -521.0140
   1   2.0000     -19.146087      -520.9915
   2   2.0000     -19.145003      -520.9620
   3   2.0000     -19.142296      -520.8884
   4   2.0000     -10.282309      -279.7959
   5   2.0000     -10.240503      -278.6583
   6   2.0000     -10.235402      -278.5194
   7   2.0000     -10.233859      -278.4775
   8   2.0000     -10.230234      -278.3788
   9   2.0000     -10.228349      -278.3275
  10   2.0000     -10.189228      -277.2630
  11   2.0000     -10.187113      -277.2054
  12   2.0000     -10.184456      -277.1331
  13   2.0000      -1.055403       -28.7190
  14   2.0000      -1.033193       -28.1146
  15   2.0000      -1.015022       -27.6201
  16   2.0000      -0.997590       -27.1458
  17   2.0000      -0.788096       -21.4452
  18   2.0000      -0.778035       -21.1714
  19   2.0000      -0.770918       -20.9778
  20   2.0000      -0.735435       -20.0122
  21   2.0000      -0.682945       -18.5839
  22   2.0000      -0.609423       -16.5832
  23   2.0000      -0.604219       -16.4416
  24   2.0000      -0.595672       -16.2091
  25   2.0000      -0.573974       -15.6186
  26   2.0000      -0.528438       -14.3795
  27   2.0000      -0.509656       -13.8685
  28   2.0000      -0.497910       -13.5488
  29   2.0000      -0.492492       -13.4014
  30   2.0000      -0.474315       -12.9068
  31   2.0000      -0.463701       -12.6179
  32   2.0000      -0.444175       -12.0866
  33   2.0000      -0.438715       -11.9380
  34   2.0000      -0.428406       -11.6575
  35   2.0000      -0.416236       -11.3264
  36   2.0000      -0.406667       -11.0660
  37   2.0000      -0.397739       -10.8230
  38   2.0000      -0.379086       -10.3155
  39   2.0000      -0.376568       -10.2469
  40   2.0000      -0.357662        -9.7325
  41   2.0000      -0.356600        -9.7036
  42   2.0000      -0.353750        -9.6260
  43   2.0000      -0.331900        -9.0314
  44   2.0000      -0.318586        -8.6692
  45   2.0000      -0.314120        -8.5476
  46   2.0000      -0.306910        -8.3514
  47   2.0000      -0.272149        -7.4056
  48   2.0000      -0.264585        -7.1997
  49   2.0000      -0.262139        -7.1332
  50   2.0000      -0.240243        -6.5374
  51   0.0000       0.064772         1.7625
  52   0.0000       0.073231         1.9927
  53   0.0000       0.088108         2.3975
  54   0.0000       0.094058         2.5595
  55   0.0000       0.100760         2.7418

MULLIKEN ATOMIC CHARGES
-----------------------
   0 C :    0.301571
   1 C :   -0.286909
   2 C :   -0.310143
   3 C :   -0.004331
   4 O :   -0.506304
   5 H :    0.143770
   6 H :    0.144233
   7 H :    0.177857
   8 H :    0.144847
   9 H :    0.159872
  10 H :    0.150253
  11 H :    0.144865
  12 C :   -0.052876
  13 H :    0.140385
  14 H :    0.157851
  15 O :   -0.524400
  16 C :    0.109876
  17 C :    0.085929
  18 C :   -0.315152
  19 C :   -0.018750
  20 O :   -0.524172
  21 H :    0.148578
  22 H :    0.162674
  23 O :   -0.606035
  24 H :    0.149957
  25 H :    0.163561
  26 H :    0.144729
  27 H :    0.147064
  28 H :    0.371202
Sum of atomic charges:    0.0000000

LOEWDIN ATOMIC CHARGES
----------------------
   0 C :    0.181977
   1 C :   -0.235495
   2 C :   -0.218181
   3 C :   -0.025811
   4 O :   -0.302089
   5 H :    0.096654
   6 H :    0.115135
   7 H :    0.130196
   8 H :    0.116420
   9 H :    0.112057
  10 H :    0.106786
  11 H :    0.103666
  12 C :   -0.055331
  13 H :    0.104056
  14 H :    0.114328
  15 O :   -0.352131
  16 C :    0.012503
  17 C :    0.036298
  18 C :   -0.241247
  19 C :   -0.029356
  20 O :   -0.323502
  21 H :    0.115314
  22 H :    0.116106
  23 O :   -0.408541
  24 H :    0.119031
  25 H :    0.120005
  26 H :    0.100571
  27 H :    0.103419
  28 H :    0.287163

  Mayer bond orders larger than 0.100000
B(  0-C ,  1-C ) :   0.9268 B(  0-C ,  4-O ) :   0.9411 B(  0-C ,  5-H ) :   0.9203
B(  0-C , 15-O ) :   0.8213 B(  1-C ,  2-C ) :   0.9552 B(  1-C ,  6-H ) :   0.9317
B(  1-C ,  7-H ) :   0.9164 B(  2-C ,  3-C ) :   0.9500 B(  2-C ,  8-H ) :   0.9457
B(  2-C ,  9-H ) :   0.9260 B(  3-C ,  4-O ) :   0.8338 B(  3-C , 10-H ) :   0.9353
B(  3-C , 11-H ) :   0.9394 B( 12-C , 13-H ) :   0.9222 B( 12-C , 14-H ) :   0.9106
B( 12-C , 15-O ) :   0.8502 B( 12-C , 16-C ) :   0.8982 B( 16-C , 17-C ) :   0.8857
B( 16-C , 20-O ) :   0.8725 B( 16-C , 21-H ) :   0.9221 B( 17-C , 18-C ) :   0.9316
B( 17-C , 22-H ) :   0.9361 B( 17-C , 23-O ) :   0.9063 B( 18-C , 19-C ) :   0.9464
B( 18-C , 24-H ) :   0.9407 B( 18-C , 25-H ) :   0.9281 B( 19-C , 20-O ) :   0.8366
B( 19-C , 26-H ) :   0.9129 B( 19-C , 27-H ) :   0.9372 B( 23-O , 28-H ) :   0.7889

FINAL SINGLE POINT ENERGY      -652.858583612826

DIPOLE MOMENT
-------------
                                X             Y             Z
Electronic contribution:     -2.67410      -3.77279      -1.45312
Nuclear contribution   :      3.29227       4.54987       1.56663
                        -----------------------------------------
Total Dipole Moment    :      0.61818       0.77708       0.11351
                        -----------------------------------------
Magnitude (a.u.)       :      0.99944
Magnitude (Debye)      :      2.54037

Rotational constants in cm-1:     0.044670     0.017584     0.016077
Rotational constants in MHz :  1339.167298   527.153263   481.986205

                             ****ORCA TERMINATED NORMALLY****
TOTAL RUN TIME: 0 days 0 hours 58 minutes 59 seconds 63 msec
