                         Program Version 4.2.0 -  RELEASE  -
|  1> # Test redundant internal optimization
|  2> #
|  3> ! RKS B3LYP  Opt TightSCF SmallPrint
|  4>
|  5> %basis
|  6>         Basis "6-31G"
|  7> end
|  8>
|  9> %geom
| 10> Constraints
| 11> { D 4  0  15  12  270.0   C } # D for Dihedral angle
| 12> { D 0  15  12  16  120.0   C } # D for Dihedral angle
| 13> { D 0  4  3  2   C } # D for Dihedral angle
| 14> { D 4  3  2  1   C } # D for Dihedral angle
| 15> { D 3  2  1  0   C } # D for Dihedral angle
| 16> { D 2  1  0  4   C } # D for Dihedral angle
| 17> { D 1  0  4  3   C } # D for Dihedral angle
| 18> { D 16  20  19  18   C } # D for Dihedral angle
| 19> { D 20  19  18  17   C } # D for Dihedral angle
| 20> { D 19  18  17  16   C } # D for Dihedral angle
| 21> { D 18  17  16  20   C } # D for Dihedral angle
| 22> { D 17  16  20  19   C } # D for Dihedral angle
| 23> { D 15  12  16  20   C } # D for Dihedral angle
| 24> end
| 25> end
| 26>
| 27>
| 28> #%pal
| 29> #nprocs 8
| 30> #end
| 31>
| 32> * xyz 0 1
| 33> C  -21.048   26.222   46.251
| 34> C  -20.361   27.558   45.944
| 35> C  -20.329   28.222   47.341
| 36> C  -20.110   27.022   48.296
| 37> O  -20.473   25.807   47.535
| 38> H  -20.833   25.428   45.533
| 39> H  -19.344   27.382   45.576
| 40> H  -20.898   28.157   45.201
| 41> H  -19.543   28.978   47.434
| 42> H  -21.289   28.710   47.548
| 43> H  -20.733   27.082   49.195
| 44> H  -19.064   26.913   48.597
| 45> C  -23.420   25.119   46.072
| 46> H  -24.087   25.316   45.224
| 47> H  -22.760   24.284   45.803
| 48> O  -22.586   26.394   46.375
| 49> C  -24.285   24.666   47.281
| 50> C  -25.356   25.710   47.620
| 51> C  -26.429   25.418   46.544
| 52> C  -26.351   23.880   46.377
| 53> O  -25.050   23.462   46.941
| 54> H  -23.629   24.405   48.113
| 55> H  -25.755   25.526   48.624
| 56> O  -24.826   27.169   47.564
| 57> H  -27.428   25.756   46.840
| 58> H  -26.169   25.924   45.607
| 59> H  -26.404   23.569   45.328
| 60> H  -27.129   23.359   46.940
| 61> H  -24.422   27.375   46.566
| 62> *
| 63>
| 64>                          ****END OF INPUT****
 Total Charge           Charge          ....    0
 Multiplicity           Mult            ....    1
 Number of Electrons    NEL             ....  102
FINAL SINGLE POINT ENERGY      -652.834566570656
FINAL SINGLE POINT ENERGY      -652.859218508510
FINAL SINGLE POINT ENERGY      -652.865484478746
FINAL SINGLE POINT ENERGY      -652.867665728210
FINAL SINGLE POINT ENERGY      -652.868876104006
FINAL SINGLE POINT ENERGY      -652.869563124240
FINAL SINGLE POINT ENERGY      -652.869806885335
FINAL SINGLE POINT ENERGY      -652.869862147864
FINAL SINGLE POINT ENERGY      -652.869867303257
                    ***********************HURRAY********************

CARTESIAN COORDINATES (ANGSTROEM)
---------------------------------
  C    -21.071472   26.128661   46.220141
  C    -20.497087   27.517966   45.944045
  C    -20.584132   28.181355   47.339028
  C    -20.299848   27.007315   48.301434
  O    -20.526582   25.770399   47.505681
  H    -20.785393   25.338712   45.520941
  H    -19.454271   27.416505   45.623161
  H    -21.055973   28.052058   45.173145
  H    -19.867989   28.999573   47.459104
  H    -21.589371   28.582028   47.502186
  H    -20.963483   26.991730   49.169162
  H    -19.260068   26.973154   48.638389
  C    -23.319180   25.044077   45.977717
  H    -23.930362   25.258621   45.094624
  H    -22.670177   24.188924   45.761601
  O    -22.515535   26.240662   46.261489
  C    -24.184343   24.729705   47.203678
  C    -25.214125   25.815127   47.562501
  C    -26.351317   25.518604   46.542644
  C    -26.321330   23.981735   46.419267
  O    -24.991677   23.541218   46.938511
  H    -23.525385   24.489652   48.042441
  H    -25.579172   25.628833   48.578758
  O    -24.740464   27.176309   47.519881
  H    -27.315828   25.898540   46.889375
  H    -26.117488   26.015363   45.594793
  H    -26.430853   23.626733   45.389927
  H    -27.075478   23.492734   47.042376
  H    -23.872616   27.206704   47.054000

 Multiplicity           Mult            ....    1
 Number of Electrons    NEL             ....  102
 Basis Dimension        Dim             ....  149

ORBITAL ENERGIES
----------------

  NO   OCC          E(Eh)            E(eV)
   0   2.0000     -19.164448      -521.4911
   1   2.0000     -19.148051      -521.0450
   2   2.0000     -19.138387      -520.7820
   3   2.0000     -19.113397      -520.1020
   4   2.0000     -10.292472      -280.0724
   5   2.0000     -10.238758      -278.6108
   6   2.0000     -10.231020      -278.4002
   7   2.0000     -10.230446      -278.3846
   8   2.0000     -10.228979      -278.3447
   9   2.0000     -10.224930      -278.2345
  10   2.0000     -10.193829      -277.3882
  11   2.0000     -10.192175      -277.3432
  12   2.0000     -10.177709      -276.9496
  13   2.0000      -1.065688       -28.9988
  14   2.0000      -1.023613       -27.8539
  15   2.0000      -1.006746       -27.3949
  16   2.0000      -0.991922       -26.9916
  17   2.0000      -0.796255       -21.6672
  18   2.0000      -0.771805       -21.0019
  19   2.0000      -0.766491       -20.8573
  20   2.0000      -0.734999       -20.0003
  21   2.0000      -0.678791       -18.4708
  22   2.0000      -0.605930       -16.4882
  23   2.0000      -0.600810       -16.3489
  24   2.0000      -0.593907       -16.1610
  25   2.0000      -0.582651       -15.8547
  26   2.0000      -0.527258       -14.3474
  27   2.0000      -0.522387       -14.2149
  28   2.0000      -0.497931       -13.5494
  29   2.0000      -0.486619       -13.2416
  30   2.0000      -0.472463       -12.8564
  31   2.0000      -0.458107       -12.4657
  32   2.0000      -0.440933       -11.9984
  33   2.0000      -0.439404       -11.9568
  34   2.0000      -0.424654       -11.5554
  35   2.0000      -0.416070       -11.3219
  36   2.0000      -0.406928       -11.0731
  37   2.0000      -0.387462       -10.5434
  38   2.0000      -0.381364       -10.3774
  39   2.0000      -0.365953        -9.9581
  40   2.0000      -0.363199        -9.8831
  41   2.0000      -0.356383        -9.6977
  42   2.0000      -0.347057        -9.4439
  43   2.0000      -0.344702        -9.3798
  44   2.0000      -0.328536        -8.9399
  45   2.0000      -0.315292        -8.5795
  46   2.0000      -0.289824        -7.8865
  47   2.0000      -0.282685        -7.6922
  48   2.0000      -0.261392        -7.1128
  49   2.0000      -0.247606        -6.7377
  50   2.0000      -0.239900        -6.5280
  51   0.0000       0.055153         1.5008
  52   0.0000       0.083963         2.2848
  53   0.0000       0.093233         2.5370
  54   0.0000       0.097347         2.6490
  55   0.0000       0.103540         2.8175

MULLIKEN ATOMIC CHARGES
-----------------------
   0 C :    0.293613
   1 C :   -0.260757
   2 C :   -0.305452
   3 C :   -0.008042
   4 O :   -0.504369
   5 H :    0.150352
   6 H :    0.151004
   7 H :    0.156079
   8 H :    0.147220
   9 H :    0.165952
  10 H :    0.157877
  11 H :    0.147034
  12 C :   -0.024064
  13 H :    0.149951
  14 H :    0.161026
  15 O :   -0.560295
  16 C :    0.055804
  17 C :    0.121738
  18 C :   -0.301391
  19 C :   -0.017427
  20 O :   -0.521849
  21 H :    0.169161
  22 H :    0.145277
  23 O :   -0.648649
  24 H :    0.148697
  25 H :    0.145826
  26 H :    0.138744
  27 H :    0.148993
  28 H :    0.397946
Sum of atomic charges:   -0.0000000

LOEWDIN ATOMIC CHARGES
----------------------
   0 C :    0.176984
   1 C :   -0.216678
   2 C :   -0.216499
   3 C :   -0.027955
   4 O :   -0.323070
   5 H :    0.103311
   6 H :    0.117317
   7 H :    0.123405
   8 H :    0.117016
   9 H :    0.119418
  10 H :    0.110700
  11 H :    0.105426
  12 C :   -0.041817
  13 H :    0.105947
  14 H :    0.115624
  15 O :   -0.339704
  16 C :    0.012313
  17 C :    0.042447
  18 C :   -0.236491
  19 C :   -0.031995
  20 O :   -0.325153
  21 H :    0.119880
  22 H :    0.104738
  23 O :   -0.437900
  24 H :    0.120438
  25 H :    0.110921
  26 H :    0.100606
  27 H :    0.105963
  28 H :    0.284807

  Mayer bond orders larger than 0.100000
B(  0-C ,  1-C ) :   0.9494 B(  0-C ,  4-O ) :   0.9329 B(  0-C ,  5-H ) :   0.9203
B(  0-C , 15-O ) :   0.8171 B(  1-C ,  2-C ) :   0.9556 B(  1-C ,  6-H ) :   0.9381
B(  1-C ,  7-H ) :   0.9362 B(  2-C ,  3-C ) :   0.9528 B(  2-C ,  8-H ) :   0.9447
B(  2-C ,  9-H ) :   0.9424 B(  3-C ,  4-O ) :   0.8306 B(  3-C , 10-H ) :   0.9341
B(  3-C , 11-H ) :   0.9399 B( 12-C , 13-H ) :   0.9321 B( 12-C , 14-H ) :   0.9248
B( 12-C , 15-O ) :   0.7845 B( 12-C , 16-C ) :   0.8983 B( 16-C , 17-C ) :   0.9144
B( 16-C , 20-O ) :   0.8515 B( 16-C , 21-H ) :   0.9263 B( 17-C , 18-C ) :   0.9008
B( 17-C , 22-H ) :   0.9316 B( 17-C , 23-O ) :   0.9311 B( 18-C , 19-C ) :   0.9385
B( 18-C , 24-H ) :   0.9456 B( 18-C , 25-H ) :   0.9436 B( 19-C , 20-O ) :   0.8344
B( 19-C , 26-H ) :   0.9351 B( 19-C , 27-H ) :   0.9384 B( 23-O , 28-H ) :   0.7185

FINAL SINGLE POINT ENERGY      -652.869869062793

DIPOLE MOMENT
-------------
                                X             Y             Z
Electronic contribution:      0.06754      -3.09280       1.05498
Nuclear contribution   :      0.50987       3.53440      -1.82518
                        -----------------------------------------
Total Dipole Moment    :      0.57741       0.44160      -0.77020
                        -----------------------------------------
Magnitude (a.u.)       :      1.05907
Magnitude (Debye)      :      2.69194

Rotational constants in cm-1:     0.058517     0.013859     0.012956
Rotational constants in MHz :  1754.298144   415.497161   388.421688

                             ****ORCA TERMINATED NORMALLY****
TOTAL RUN TIME: 0 days 0 hours 28 minutes 57 seconds 61 msec
