                         Program Version 4.2.0 -  RELEASE  -
|  1> # Test redundant internal optimization
|  2> #
|  3> ! RKS B3LYP  Opt TightSCF SmallPrint
|  4>
|  5> %basis
|  6>         Basis "6-31G"
|  7> end
|  8>
|  9> %geom
| 10> Constraints
| 11> { D 4  0  15  12  240.0   C } # D for Dihedral angle
| 12> { D 0  15  12  16  270.0   C } # D for Dihedral angle
| 13> { D 0  4  3  2   C } # D for Dihedral angle
| 14> { D 4  3  2  1   C } # D for Dihedral angle
| 15> { D 3  2  1  0   C } # D for Dihedral angle
| 16> { D 2  1  0  4   C } # D for Dihedral angle
| 17> { D 1  0  4  3   C } # D for Dihedral angle
| 18> { D 16  20  19  18   C } # D for Dihedral angle
| 19> { D 20  19  18  17   C } # D for Dihedral angle
| 20> { D 19  18  17  16   C } # D for Dihedral angle
| 21> { D 18  17  16  20   C } # D for Dihedral angle
| 22> { D 17  16  20  19   C } # D for Dihedral angle
| 23> { D 15  12  16  20   C } # D for Dihedral angle
| 24> end
| 25> end
| 26>
| 27>
| 28> #%pal
| 29> #nprocs 8
| 30> #end
| 31>
| 32> * xyz 0 1
| 33> C  -21.048   26.222   46.251
| 34> C  -20.361   27.558   45.944
| 35> C  -20.329   28.222   47.341
| 36> C  -20.110   27.022   48.296
| 37> O  -20.473   25.807   47.535
| 38> H  -20.833   25.428   45.533
| 39> H  -19.344   27.382   45.576
| 40> H  -20.898   28.157   45.201
| 41> H  -19.543   28.978   47.434
| 42> H  -21.289   28.710   47.548
| 43> H  -20.733   27.082   49.195
| 44> H  -19.064   26.913   48.597
| 45> C  -23.430   25.483   45.442
| 46> H  -22.889   24.544   45.267
| 47> H  -24.393   25.241   45.910
| 48> O  -22.586   26.394   46.375
| 49> C  -23.725   26.141   44.066
| 50> C  -22.436   26.360   43.266
| 51> C  -22.171   24.942   42.704
| 52> C  -23.597   24.397   42.440
| 53> O  -24.522   25.240   43.227
| 54> H  -24.319   27.043   44.221
| 55> O  -22.690   27.368   42.112
| 56> H  -21.608   26.737   43.876
| 57> H  -21.554   24.952   41.801
| 58> H  -21.656   24.331   43.455
| 59> H  -23.711   23.353   42.750
| 60> H  -23.891   24.488   41.391
| 61> H  -23.516   27.011   41.485
| 62> *
| 63>
| 64>                          ****END OF INPUT****
 Total Charge           Charge          ....    0
 Multiplicity           Mult            ....    1
 Number of Electrons    NEL             ....  102
FINAL SINGLE POINT ENERGY      -652.832382708075
FINAL SINGLE POINT ENERGY      -652.855214709828
FINAL SINGLE POINT ENERGY      -652.859581792091
FINAL SINGLE POINT ENERGY      -652.860302644133
FINAL SINGLE POINT ENERGY      -652.860394295910
FINAL SINGLE POINT ENERGY      -652.860403386292
                    ***********************HURRAY********************

CARTESIAN COORDINATES (ANGSTROEM)
---------------------------------
  C    -21.006714   26.187216   46.239723
  C    -20.336557   27.535617   45.972811
  C    -20.405236   28.210265   47.366285
  C    -20.216589   27.018923   48.331291
  O    -20.509149   25.801611   47.535028
  H    -20.750854   25.377919   45.547981
  H    -19.294675   27.372815   45.671386
  H    -20.843130   28.115374   45.199615
  H    -19.641187   28.981822   47.498520
  H    -21.390152   28.666155   47.503221
  H    -20.895410   27.047814   49.187207
  H    -19.186958   26.920100   48.688178
  C    -23.303895   25.556186   45.452879
  H    -22.875720   24.548798   45.339107
  H    -24.247869   25.455445   45.992836
  O    -22.444254   26.369691   46.297307
  C    -23.600517   26.160551   44.070969
  C    -22.407899   26.364526   43.123350
  C    -22.185656   24.925336   42.579348
  C    -23.627012   24.361838   42.494918
  O    -24.471228   25.223567   43.353138
  H    -24.155924   27.095657   44.190173
  O    -22.753951   27.294855   42.060481
  H    -21.525161   26.787923   43.595359
  H    -21.680331   24.951893   41.611095
  H    -21.569625   24.343276   43.273824
  H    -23.700349   23.328157   42.846624
  H    -24.037586   24.414237   41.481659
  H    -23.655413   27.088433   41.734688

 Multiplicity           Mult            ....    1
 Number of Electrons    NEL             ....  102
 Basis Dimension        Dim             ....  149

ORBITAL ENERGIES
----------------

  NO   OCC          E(Eh)            E(eV)
   0   2.0000     -19.150063      -521.0997
   1   2.0000     -19.143761      -520.9282
   2   2.0000     -19.142651      -520.8980
   3   2.0000     -19.139098      -520.8013
   4   2.0000     -10.283366      -279.8246
   5   2.0000     -10.245661      -278.7986
   6   2.0000     -10.237026      -278.5636
   7   2.0000     -10.236925      -278.5609
   8   2.0000     -10.233832      -278.4767
   9   2.0000     -10.224087      -278.2116
  10   2.0000     -10.194972      -277.4193
  11   2.0000     -10.186606      -277.1916
  12   2.0000     -10.185357      -277.1577
  13   2.0000      -1.053783       -28.6749
  14   2.0000      -1.042654       -28.3721
  15   2.0000      -1.011461       -27.5233
  16   2.0000      -0.995845       -27.0983
  17   2.0000      -0.787779       -21.4366
  18   2.0000      -0.783955       -21.3325
  19   2.0000      -0.770057       -20.9543
  20   2.0000      -0.735443       -20.0124
  21   2.0000      -0.677814       -18.4443
  22   2.0000      -0.610003       -16.5990
  23   2.0000      -0.600046       -16.3281
  24   2.0000      -0.598195       -16.2777
  25   2.0000      -0.586329       -15.9548
  26   2.0000      -0.526756       -14.3338
  27   2.0000      -0.520670       -14.1681
  28   2.0000      -0.501778       -13.6541
  29   2.0000      -0.487968       -13.2783
  30   2.0000      -0.475672       -12.9437
  31   2.0000      -0.460220       -12.5232
  32   2.0000      -0.448110       -12.1937
  33   2.0000      -0.441935       -12.0257
  34   2.0000      -0.426630       -11.6092
  35   2.0000      -0.422511       -11.4971
  36   2.0000      -0.404095       -10.9960
  37   2.0000      -0.397930       -10.8282
  38   2.0000      -0.378328       -10.2948
  39   2.0000      -0.375127       -10.2077
  40   2.0000      -0.359205        -9.7745
  41   2.0000      -0.355923        -9.6852
  42   2.0000      -0.352057        -9.5799
  43   2.0000      -0.337028        -9.1710
  44   2.0000      -0.317051        -8.6274
  45   2.0000      -0.312515        -8.5040
  46   2.0000      -0.305957        -8.3255
  47   2.0000      -0.277723        -7.5572
  48   2.0000      -0.272194        -7.4068
  49   2.0000      -0.257524        -7.0076
  50   2.0000      -0.240422        -6.5422
  51   0.0000       0.060931         1.6580
  52   0.0000       0.063019         1.7148
  53   0.0000       0.090747         2.4694
  54   0.0000       0.092267         2.5107
  55   0.0000       0.099587         2.7099

MULLIKEN ATOMIC CHARGES
-----------------------
   0 C :    0.284793
   1 C :   -0.262221
   2 C :   -0.303007
   3 C :   -0.000857
   4 O :   -0.504645
   5 H :    0.136675
   6 H :    0.143289
   7 H :    0.160167
   8 H :    0.142519
   9 H :    0.165847
  10 H :    0.153203
  11 H :    0.140503
  12 C :   -0.020012
  13 H :    0.129261
  14 H :    0.172922
  15 O :   -0.515242
  16 C :    0.055372
  17 C :    0.080721
  18 C :   -0.305022
  19 C :   -0.026934
  20 O :   -0.523988
  21 H :    0.165564
  22 O :   -0.603278
  23 H :    0.158578
  24 H :    0.165359
  25 H :    0.146074
  26 H :    0.150261
  27 H :    0.148241
  28 H :    0.365855
Sum of atomic charges:   -0.0000000

LOEWDIN ATOMIC CHARGES
----------------------
   0 C :    0.172466
   1 C :   -0.225052
   2 C :   -0.215802
   3 C :   -0.025869
   4 O :   -0.314786
   5 H :    0.094368
   6 H :    0.113104
   7 H :    0.120695
   8 H :    0.114590
   9 H :    0.120877
  10 H :    0.108592
  11 H :    0.101757
  12 C :   -0.037635
  13 H :    0.095587
  14 H :    0.124344
  15 O :   -0.331121
  16 C :    0.005743
  17 C :    0.032703
  18 C :   -0.243133
  19 C :   -0.037493
  20 O :   -0.328027
  21 H :    0.117561
  22 O :   -0.413719
  23 H :    0.117402
  24 H :    0.128197
  25 H :    0.111751
  26 H :    0.105766
  27 H :    0.103514
  28 H :    0.283619

  Mayer bond orders larger than 0.100000
B(  0-C ,  1-C ) :   0.9373 B(  0-C ,  4-O ) :   0.9296 B(  0-C ,  5-H ) :   0.9163
B(  0-C , 15-O ) :   0.8369 B(  1-C ,  2-C ) :   0.9525 B(  1-C ,  6-H ) :   0.9364
B(  1-C ,  7-H ) :   0.9294 B(  2-C ,  3-C ) :   0.9541 B(  2-C ,  8-H ) :   0.9449
B(  2-C ,  9-H ) :   0.9432 B(  3-C ,  4-O ) :   0.8358 B(  3-C , 10-H ) :   0.9347
B(  3-C , 11-H ) :   0.9398 B( 12-C , 13-H ) :   0.9236 B( 12-C , 14-H ) :   0.9325
B( 12-C , 15-O ) :   0.8518 B( 12-C , 16-C ) :   0.8785 B( 16-C , 17-C ) :   0.9112
B( 16-C , 20-O ) :   0.8335 B( 16-C , 21-H ) :   0.9251 B( 17-C , 18-C ) :   0.9126
B( 17-C , 22-O ) :   0.8924 B( 17-C , 23-H ) :   0.9194 B( 18-C , 19-C ) :   0.9397
B( 18-C , 24-H ) :   0.9371 B( 18-C , 25-H ) :   0.9311 B( 19-C , 20-O ) :   0.8396
B( 19-C , 26-H ) :   0.9349 B( 19-C , 27-H ) :   0.9379 B( 22-O , 28-H ) :   0.7939

FINAL SINGLE POINT ENERGY      -652.860404917443

DIPOLE MOMENT
-------------
                                X             Y             Z
Electronic contribution:     -3.57940      -0.84692      -0.17506
Nuclear contribution   :      4.06966       0.75025      -0.20013
                        -----------------------------------------
Total Dipole Moment    :      0.49026      -0.09667      -0.37519
                        -----------------------------------------
Magnitude (a.u.)       :      0.62487
Magnitude (Debye)      :      1.58830

Rotational constants in cm-1:     0.056688     0.013502     0.012529
Rotational constants in MHz :  1699.458292   404.764793   375.599792

                             ****ORCA TERMINATED NORMALLY****
TOTAL RUN TIME: 0 days 0 hours 21 minutes 26 seconds 793 msec
