                         Program Version 4.2.0 -  RELEASE  -
|  1> # Test redundant internal optimization
|  2> #
|  3> ! RKS B3LYP  Opt TightSCF SmallPrint
|  4>
|  5> %basis
|  6>         Basis "6-31G"
|  7> end
|  8>
|  9> %geom
| 10> Constraints
| 11> { D 4  0  15  12  150.0   C } # D for Dihedral angle
| 12> { D 0  15  12  16  240.0   C } # D for Dihedral angle
| 13> { D 0  4  3  2   C } # D for Dihedral angle
| 14> { D 4  3  2  1   C } # D for Dihedral angle
| 15> { D 3  2  1  0   C } # D for Dihedral angle
| 16> { D 2  1  0  4   C } # D for Dihedral angle
| 17> { D 1  0  4  3   C } # D for Dihedral angle
| 18> { D 16  20  19  18   C } # D for Dihedral angle
| 19> { D 20  19  18  17   C } # D for Dihedral angle
| 20> { D 19  18  17  16   C } # D for Dihedral angle
| 21> { D 18  17  16  20   C } # D for Dihedral angle
| 22> { D 17  16  20  19   C } # D for Dihedral angle
| 23> { D 15  12  16  20   C } # D for Dihedral angle
| 24> end
| 25> end
| 26>
| 27>
| 28> #%pal
| 29> #nprocs 8
| 30> #end
| 31>
| 32> * xyz 0 1
| 33> C  -21.048   26.222   46.251
| 34> C  -20.361   27.558   45.944
| 35> C  -20.329   28.222   47.341
| 36> C  -20.110   27.022   48.296
| 37> O  -20.473   25.807   47.535
| 38> H  -20.833   25.428   45.533
| 39> H  -19.344   27.382   45.576
| 40> H  -20.898   28.157   45.201
| 41> H  -19.543   28.978   47.434
| 42> H  -21.289   28.710   47.548
| 43> H  -20.733   27.082   49.195
| 44> H  -19.064   26.913   48.597
| 45> C  -23.210   27.459   45.431
| 46> H  -22.418   27.907   44.818
| 47> H  -23.942   26.994   44.759
| 48> O  -22.586   26.394   46.375
| 49> C  -23.933   28.596   46.204
| 50> C  -22.945   29.413   47.045
| 51> C  -22.309   30.333   45.977
| 52> C  -23.487   30.615   45.010
| 53> O  -24.501   29.571   45.268
| 54> H  -24.765   28.172   46.769
| 55> O  -23.712   30.250   48.104
| 56> H  -22.207   28.793   47.566
| 57> H  -21.889   31.250   46.402
| 58> H  -21.501   29.804   45.458
| 59> H  -23.185   30.571   43.958
| 60> H  -23.961   31.581   45.202
| 61> H  -24.458   30.881   47.606
| 62> *
| 63>
| 64>                          ****END OF INPUT****
 Total Charge           Charge          ....    0
 Multiplicity           Mult            ....    1
 Number of Electrons    NEL             ....  102
FINAL SINGLE POINT ENERGY      -652.758142183522
FINAL SINGLE POINT ENERGY      -652.819243623831
FINAL SINGLE POINT ENERGY      -652.839866041067
FINAL SINGLE POINT ENERGY      -652.844454249449
FINAL SINGLE POINT ENERGY      -652.845291781294
FINAL SINGLE POINT ENERGY      -652.845473841872
FINAL SINGLE POINT ENERGY      -652.845496235637
FINAL SINGLE POINT ENERGY      -652.845503526705
FINAL SINGLE POINT ENERGY      -652.845496017650
FINAL SINGLE POINT ENERGY      -652.845494228205
                    ***********************HURRAY********************

CARTESIAN COORDINATES (ANGSTROEM)
---------------------------------
  C    -21.109676   26.251854   46.291437
  C    -20.080803   27.323686   45.919514
  C    -19.903737   28.088730   47.263093
  C    -20.044127   26.957629   48.308225
  O    -20.705602   25.832952   47.601176
  H    -21.003953   25.359146   45.665470
  H    -19.155068   26.809956   45.642431
  H    -20.369712   27.971051   45.086442
  H    -18.928206   28.581785   47.325576
  H    -20.665224   28.855098   47.386950
  H    -20.652459   27.239973   49.171961
  H    -19.077109   26.583720   48.655077
  C    -23.194506   27.523305   45.436203
  H    -22.481723   27.971017   44.728088
  H    -23.945365   26.990502   44.844342
  O    -22.540326   26.545394   46.289691
  C    -23.926402   28.647777   46.191422
  C    -23.144389   29.605460   47.102125
  C    -22.522044   30.582006   46.072353
  C    -23.619356   30.686550   44.982847
  O    -24.513732   29.522775   45.170255
  H    -24.755815   28.211098   46.756071
  O    -24.058220   30.300161   47.997684
  H    -22.438203   29.103585   47.754935
  H    -22.293470   31.543476   46.538269
  H    -21.594072   30.171320   45.659774
  H    -23.213044   30.665431   43.967058
  H    -24.232463   31.586248   45.093521
  H    -24.865191   30.553313   47.501009

 Multiplicity           Mult            ....    1
 Number of Electrons    NEL             ....  102
 Basis Dimension        Dim             ....  149

ORBITAL ENERGIES
----------------

  NO   OCC          E(Eh)            E(eV)
   0   2.0000     -19.150754      -521.1185
   1   2.0000     -19.143560      -520.9227
   2   2.0000     -19.141119      -520.8563
   3   2.0000     -19.140594      -520.8420
   4   2.0000     -10.284056      -279.8434
   5   2.0000     -10.244457      -278.7658
   6   2.0000     -10.238153      -278.5943
   7   2.0000     -10.236862      -278.5592
   8   2.0000     -10.236712      -278.5551
   9   2.0000     -10.230288      -278.3803
  10   2.0000     -10.200086      -277.5584
  11   2.0000     -10.196551      -277.4623
  12   2.0000     -10.195717      -277.4396
  13   2.0000      -1.052050       -28.6277
  14   2.0000      -1.043306       -28.3898
  15   2.0000      -1.010353       -27.4931
  16   2.0000      -0.995319       -27.0840
  17   2.0000      -0.795155       -21.6373
  18   2.0000      -0.785077       -21.3630
  19   2.0000      -0.773937       -21.0599
  20   2.0000      -0.738385       -20.0925
  21   2.0000      -0.684986       -18.6394
  22   2.0000      -0.610394       -16.6097
  23   2.0000      -0.609851       -16.5949
  24   2.0000      -0.601302       -16.3623
  25   2.0000      -0.579356       -15.7651
  26   2.0000      -0.528415       -14.3789
  27   2.0000      -0.519056       -14.1242
  28   2.0000      -0.506258       -13.7760
  29   2.0000      -0.495214       -13.4755
  30   2.0000      -0.482404       -13.1269
  31   2.0000      -0.459147       -12.4940
  32   2.0000      -0.455643       -12.3987
  33   2.0000      -0.439453       -11.9581
  34   2.0000      -0.430566       -11.7163
  35   2.0000      -0.423514       -11.5244
  36   2.0000      -0.413783       -11.2596
  37   2.0000      -0.400009       -10.8848
  38   2.0000      -0.381984       -10.3943
  39   2.0000      -0.376093       -10.2340
  40   2.0000      -0.367494       -10.0000
  41   2.0000      -0.361155        -9.8275
  42   2.0000      -0.358752        -9.7621
  43   2.0000      -0.336750        -9.1634
  44   2.0000      -0.315451        -8.5839
  45   2.0000      -0.311470        -8.4755
  46   2.0000      -0.295596        -8.0436
  47   2.0000      -0.278861        -7.5882
  48   2.0000      -0.269007        -7.3200
  49   2.0000      -0.259698        -7.0667
  50   2.0000      -0.242002        -6.5852
  51   0.0000       0.054071         1.4713
  52   0.0000       0.063658         1.7322
  53   0.0000       0.086516         2.3542
  54   0.0000       0.087174         2.3721
  55   0.0000       0.097728         2.6593

MULLIKEN ATOMIC CHARGES
-----------------------
   0 C :    0.330546
   1 C :   -0.306029
   2 C :   -0.313837
   3 C :   -0.006601
   4 O :   -0.494263
   5 H :    0.151381
   6 H :    0.161651
   7 H :    0.143593
   8 H :    0.145587
   9 H :    0.151692
  10 H :    0.154849
  11 H :    0.147722
  12 C :   -0.000256
  13 H :    0.114343
  14 H :    0.165679
  15 O :   -0.534785
  16 C :    0.056527
  17 C :    0.080987
  18 C :   -0.299806
  19 C :   -0.027189
  20 O :   -0.526002
  21 H :    0.170068
  22 O :   -0.606681
  23 H :    0.173851
  24 H :    0.164596
  25 H :    0.140909
  26 H :    0.145572
  27 H :    0.149388
  28 H :    0.366506
Sum of atomic charges:   -0.0000000

LOEWDIN ATOMIC CHARGES
----------------------
   0 C :    0.186983
   1 C :   -0.233169
   2 C :   -0.224436
   3 C :   -0.028818
   4 O :   -0.302475
   5 H :    0.097926
   6 H :    0.125565
   7 H :    0.111666
   8 H :    0.116686
   9 H :    0.111723
  10 H :    0.108738
  11 H :    0.105710
  12 C :   -0.034531
  13 H :    0.089057
  14 H :    0.117444
  15 O :   -0.341423
  16 C :    0.011275
  17 C :    0.035275
  18 C :   -0.242299
  19 C :   -0.036991
  20 O :   -0.328682
  21 H :    0.119125
  22 O :   -0.414199
  23 H :    0.121147
  24 H :    0.127901
  25 H :    0.109757
  26 H :    0.103550
  27 H :    0.104074
  28 H :    0.283421

  Mayer bond orders larger than 0.100000
B(  0-C ,  1-C ) :   0.9220 B(  0-C ,  4-O ) :   0.9304 B(  0-C ,  5-H ) :   0.9294
B(  0-C , 15-O ) :   0.8541 B(  1-C ,  2-C ) :   0.9537 B(  1-C ,  6-H ) :   0.9317
B(  1-C ,  7-H ) :   0.9258 B(  2-C ,  3-C ) :   0.9515 B(  2-C ,  8-H ) :   0.9457
B(  2-C ,  9-H ) :   0.9220 B(  3-C ,  4-O ) :   0.8404 B(  3-C , 10-H ) :   0.9324
B(  3-C , 11-H ) :   0.9383 B( 12-C , 13-H ) :   0.9205 B( 12-C , 14-H ) :   0.9247
B( 12-C , 15-O ) :   0.8403 B( 12-C , 16-C ) :   0.8878 B( 16-C , 17-C ) :   0.9125
B( 16-C , 20-O ) :   0.8298 B( 16-C , 21-H ) :   0.9243 B( 17-C , 18-C ) :   0.9105
B( 17-C , 22-O ) :   0.8783 B( 17-C , 23-H ) :   0.9079 B( 18-C , 19-C ) :   0.9369
B( 18-C , 24-H ) :   0.9378 B( 18-C , 25-H ) :   0.9286 B( 19-C , 20-O ) :   0.8432
B( 19-C , 26-H ) :   0.9356 B( 19-C , 27-H ) :   0.9376 B( 22-O , 28-H ) :   0.7920

FINAL SINGLE POINT ENERGY      -652.845495439968

DIPOLE MOMENT
-------------
                                X             Y             Z
Electronic contribution:     -5.24881      -3.85556       1.42846
Nuclear contribution   :      6.39353       4.96215      -2.34979
                        -----------------------------------------
Total Dipole Moment    :      1.14472       1.10660      -0.92133
                        -----------------------------------------
Magnitude (a.u.)       :      1.83951
Magnitude (Debye)      :      4.67565

Rotational constants in cm-1:     0.045450     0.016292     0.015085
Rotational constants in MHz :  1362.542449   488.411039   452.234803

                             ****ORCA TERMINATED NORMALLY****
TOTAL RUN TIME: 0 days 1 hours 9 minutes 52 seconds 957 msec
