                         Program Version 4.2.0 -  RELEASE  -
|  1> # Test redundant internal optimization
|  2> #
|  3> ! RKS B3LYP  Opt TightSCF SmallPrint
|  4>
|  5> %basis
|  6>         Basis "6-31G"
|  7> end
|  8>
|  9> %geom
| 10> Constraints
| 11> { D 4  0  15  12  225.0   C } # D for Dihedral angle
| 12> { D 0  15  12  16  225.0   C } # D for Dihedral angle
| 13> { D 0  4  3  2   C } # D for Dihedral angle
| 14> { D 4  3  2  1   C } # D for Dihedral angle
| 15> { D 3  2  1  0   C } # D for Dihedral angle
| 16> { D 2  1  0  4   C } # D for Dihedral angle
| 17> { D 1  0  4  3   C } # D for Dihedral angle
| 18> { D 16  20  19  18   C } # D for Dihedral angle
| 19> { D 20  19  18  17   C } # D for Dihedral angle
| 20> { D 19  18  17  16   C } # D for Dihedral angle
| 21> { D 18  17  16  20   C } # D for Dihedral angle
| 22> { D 17  16  20  19   C } # D for Dihedral angle
| 23> { D 15  12  16  20   C } # D for Dihedral angle
| 24> end
| 25> end
| 26>
| 27>
| 28> #%pal
| 29> #nprocs 8
| 30> #end
| 31>
| 32> * xyz 0 1
| 33> C  -21.048   26.222   46.251
| 34> C  -20.361   27.558   45.944
| 35> C  -20.329   28.222   47.341
| 36> C  -20.110   27.022   48.296
| 37> O  -20.473   25.807   47.535
| 38> H  -20.833   25.428   45.533
| 39> H  -19.344   27.382   45.576
| 40> H  -20.898   28.157   45.201
| 41> H  -19.543   28.978   47.434
| 42> H  -21.289   28.710   47.548
| 43> H  -20.733   27.082   49.195
| 44> H  -19.064   26.913   48.597
| 45> C  -23.415   25.773   45.218
| 46> H  -22.748   25.541   44.378
| 47> H  -23.892   24.840   45.545
| 48> O  -22.586   26.394   46.375
| 49> C  -24.534   26.721   44.705
| 50> C  -25.457   27.162   45.847
| 51> C  -24.614   28.271   46.521
| 52> C  -23.884   28.933   45.325
| 53> O  -23.956   27.972   44.203
| 54> H  -25.048   26.247   43.866
| 55> O  -26.774   27.750   45.270
| 56> H  -25.714   26.348   46.533
| 57> H  -25.223   28.985   47.085
| 58> H  -23.892   27.825   47.215
| 59> H  -22.833   29.152   45.544
| 60> H  -24.375   29.853   44.993
| 61> H  -26.542   28.568   44.580
| 62> *
| 63>
| 64>                          ****END OF INPUT****
 Total Charge           Charge          ....    0
 Multiplicity           Mult            ....    1
 Number of Electrons    NEL             ....  102
FINAL SINGLE POINT ENERGY      -652.835445010526
FINAL SINGLE POINT ENERGY      -652.857452815509
FINAL SINGLE POINT ENERGY      -652.861231538667
FINAL SINGLE POINT ENERGY      -652.862634988609
FINAL SINGLE POINT ENERGY      -652.862747869789
FINAL SINGLE POINT ENERGY      -652.862762761165
                    ***********************HURRAY********************

CARTESIAN COORDINATES (ANGSTROEM)
---------------------------------
  C    -21.061315   26.185404   46.199729
  C    -20.380163   27.521276   45.909842
  C    -20.356269   28.178757   47.309894
  C    -20.138528   26.975279   48.252829
  O    -20.502156   25.772958   47.457984
  H    -20.852691   25.390247   45.477988
  H    -19.360561   27.337847   45.550430
  H    -20.919332   28.102745   45.158242
  H    -19.569107   28.932504   47.407660
  H    -21.318030   28.659212   47.514099
  H    -20.767008   27.006224   49.146075
  H    -19.092808   26.850302   48.548555
  C    -23.326030   25.797045   45.269870
  H    -22.702513   25.560038   44.398311
  H    -23.790044   24.866464   45.625861
  O    -22.501891   26.359053   46.329924
  C    -24.414558   26.766134   44.815481
  C    -25.439470   27.213874   45.867562
  C    -24.698508   28.394387   46.546546
  C    -23.913969   29.036467   45.376419
  O    -23.859587   28.018644   44.296576
  H    -24.938805   26.287447   43.978585
  O    -26.680805   27.628967   45.230044
  H    -25.724835   26.425944   46.564582
  H    -25.407767   29.082541   47.014865
  H    -24.011832   28.002639   47.299783
  H    -22.894646   29.311137   45.656941
  H    -24.416232   29.915860   44.960155
  H    -26.472539   28.236608   44.489170

 Multiplicity           Mult            ....    1
 Number of Electrons    NEL             ....  102
 Basis Dimension        Dim             ....  149

ORBITAL ENERGIES
----------------

  NO   OCC          E(Eh)            E(eV)
   0   2.0000     -19.145384      -520.9724
   1   2.0000     -19.143324      -520.9163
   2   2.0000     -19.141973      -520.8796
   3   2.0000     -19.135595      -520.7060
   4   2.0000     -10.282596      -279.8037
   5   2.0000     -10.237636      -278.5802
   6   2.0000     -10.236292      -278.5437
   7   2.0000     -10.235747      -278.5288
   8   2.0000     -10.227365      -278.3008
   9   2.0000     -10.227165      -278.2953
  10   2.0000     -10.189105      -277.2597
  11   2.0000     -10.185929      -277.1732
  12   2.0000     -10.178931      -276.9828
  13   2.0000      -1.055110       -28.7110
  14   2.0000      -1.034550       -28.1515
  15   2.0000      -1.005260       -27.3545
  16   2.0000      -0.995649       -27.0930
  17   2.0000      -0.789766       -21.4906
  18   2.0000      -0.778345       -21.1798
  19   2.0000      -0.767007       -20.8713
  20   2.0000      -0.733271       -19.9533
  21   2.0000      -0.676899       -18.4194
  22   2.0000      -0.601819       -16.3763
  23   2.0000      -0.599409       -16.3107
  24   2.0000      -0.597506       -16.2590
  25   2.0000      -0.582433       -15.8488
  26   2.0000      -0.526768       -14.3341
  27   2.0000      -0.506322       -13.7777
  28   2.0000      -0.494464       -13.4550
  29   2.0000      -0.490632       -13.3508
  30   2.0000      -0.477697       -12.9988
  31   2.0000      -0.461856       -12.5677
  32   2.0000      -0.449033       -12.2188
  33   2.0000      -0.441573       -12.0158
  34   2.0000      -0.423822       -11.5328
  35   2.0000      -0.409943       -11.1551
  36   2.0000      -0.401868       -10.9354
  37   2.0000      -0.389792       -10.6068
  38   2.0000      -0.377947       -10.2845
  39   2.0000      -0.370483       -10.0813
  40   2.0000      -0.359411        -9.7801
  41   2.0000      -0.357835        -9.7372
  42   2.0000      -0.353044        -9.6068
  43   2.0000      -0.329157        -8.9568
  44   2.0000      -0.316299        -8.6069
  45   2.0000      -0.314180        -8.5493
  46   2.0000      -0.302780        -8.2391
  47   2.0000      -0.271954        -7.4003
  48   2.0000      -0.265570        -7.2265
  49   2.0000      -0.255938        -6.9644
  50   2.0000      -0.241843        -6.5809
  51   0.0000       0.061918         1.6849
  52   0.0000       0.080052         2.1783
  53   0.0000       0.087689         2.3861
  54   0.0000       0.099535         2.7085
  55   0.0000       0.101296         2.7564

MULLIKEN ATOMIC CHARGES
-----------------------
   0 C :    0.292461
   1 C :   -0.263263
   2 C :   -0.309740
   3 C :   -0.001639
   4 O :   -0.501961
   5 H :    0.141695
   6 H :    0.143913
   7 H :    0.162922
   8 H :    0.144138
   9 H :    0.158949
  10 H :    0.151418
  11 H :    0.143231
  12 C :   -0.001409
  13 H :    0.141573
  14 H :    0.140172
  15 O :   -0.523184
  16 C :    0.069310
  17 C :    0.079973
  18 C :   -0.292992
  19 C :   -0.026882
  20 O :   -0.529947
  21 H :    0.154511
  22 O :   -0.602649
  23 H :    0.156393
  24 H :    0.150247
  25 H :    0.178188
  26 H :    0.144574
  27 H :    0.138189
  28 H :    0.361810
Sum of atomic charges:   -0.0000000

LOEWDIN ATOMIC CHARGES
----------------------
   0 C :    0.180677
   1 C :   -0.225573
   2 C :   -0.218149
   3 C :   -0.025909
   4 O :   -0.310319
   5 H :    0.098993
   6 H :    0.113975
   7 H :    0.123838
   8 H :    0.115264
   9 H :    0.113979
  10 H :    0.107770
  11 H :    0.103113
  12 C :   -0.033808
  13 H :    0.103914
  14 H :    0.103448
  15 O :   -0.338677
  16 C :    0.010486
  17 C :    0.039799
  18 C :   -0.242024
  19 C :   -0.034539
  20 O :   -0.333627
  21 H :    0.115450
  22 O :   -0.416781
  23 H :    0.118595
  24 H :    0.119626
  25 H :    0.130422
  26 H :    0.101691
  27 H :    0.097119
  28 H :    0.281247

  Mayer bond orders larger than 0.100000
B(  0-C ,  1-C ) :   0.9366 B(  0-C ,  4-O ) :   0.9376 B(  0-C ,  5-H ) :   0.9194
B(  0-C , 15-O ) :   0.8292 B(  1-C ,  2-C ) :   0.9555 B(  1-C ,  6-H ) :   0.9344
B(  1-C ,  7-H ) :   0.9285 B(  2-C ,  3-C ) :   0.9527 B(  2-C ,  8-H ) :   0.9449
B(  2-C ,  9-H ) :   0.9399 B(  3-C ,  4-O ) :   0.8377 B(  3-C , 10-H ) :   0.9348
B(  3-C , 11-H ) :   0.9395 B( 12-C , 13-H ) :   0.9177 B( 12-C , 14-H ) :   0.9158
B( 12-C , 15-O ) :   0.8547 B( 12-C , 16-C ) :   0.9002 B( 16-C , 17-C ) :   0.9120
B( 16-C , 20-O ) :   0.8653 B( 16-C , 21-H ) :   0.9197 B( 17-C , 18-C ) :   0.9233
B( 17-C , 22-O ) :   0.8898 B( 17-C , 23-H ) :   0.9345 B( 18-C , 19-C ) :   0.9484
B( 18-C , 24-H ) :   0.9369 B( 18-C , 25-H ) :   0.9169 B( 19-C , 20-O ) :   0.8418
B( 19-C , 26-H ) :   0.9266 B( 19-C , 27-H ) :   0.9371 B( 22-O , 28-H ) :   0.7968

FINAL SINGLE POINT ENERGY      -652.862763332180

DIPOLE MOMENT
-------------
                                X             Y             Z
Electronic contribution:     -2.99958      -3.53879      -1.85532
Nuclear contribution   :      3.74986       4.16020       1.77257
                        -----------------------------------------
Total Dipole Moment    :      0.75028       0.62141      -0.08275
                        -----------------------------------------
Magnitude (a.u.)       :      0.97771
Magnitude (Debye)      :      2.48515

Rotational constants in cm-1:     0.055379     0.014884     0.014117
Rotational constants in MHz :  1660.224423   446.221908   423.218908

                             ****ORCA TERMINATED NORMALLY****
TOTAL RUN TIME: 0 days 0 hours 14 minutes 28 seconds 832 msec
