                         Program Version 4.2.0 -  RELEASE  -
|  1> # Test redundant internal optimization
|  2> #
|  3> ! RKS B3LYP  Opt TightSCF SmallPrint
|  4>
|  5> %basis
|  6>         Basis "6-31G"
|  7> end
|  8>
|  9> %geom
| 10> Constraints
| 11> { D 4  0  15  12  225.0   C } # D for Dihedral angle
| 12> { D 0  15  12  16  195.0   C } # D for Dihedral angle
| 13> { D 0  4  3  2   C } # D for Dihedral angle
| 14> { D 4  3  2  1   C } # D for Dihedral angle
| 15> { D 3  2  1  0   C } # D for Dihedral angle
| 16> { D 2  1  0  4   C } # D for Dihedral angle
| 17> { D 1  0  4  3   C } # D for Dihedral angle
| 18> { D 16  20  19  18   C } # D for Dihedral angle
| 19> { D 20  19  18  17   C } # D for Dihedral angle
| 20> { D 19  18  17  16   C } # D for Dihedral angle
| 21> { D 18  17  16  20   C } # D for Dihedral angle
| 22> { D 17  16  20  19   C } # D for Dihedral angle
| 23> { D 15  12  16  20   C } # D for Dihedral angle
| 24> end
| 25> end
| 26>
| 27>
| 28> #%pal
| 29> #nprocs 8
| 30> #end
| 31>
| 32> * xyz 0 1
| 33> C  -21.048   26.222   46.251
| 34> C  -20.361   27.558   45.944
| 35> C  -20.329   28.222   47.341
| 36> C  -20.110   27.022   48.296
| 37> O  -20.473   25.807   47.535
| 38> H  -20.833   25.428   45.533
| 39> H  -19.344   27.382   45.576
| 40> H  -20.898   28.157   45.201
| 41> H  -19.543   28.978   47.434
| 42> H  -21.289   28.710   47.548
| 43> H  -20.733   27.082   49.195
| 44> H  -19.064   26.913   48.597
| 45> C  -23.415   25.773   45.218
| 46> H  -22.945   26.025   44.259
| 47> H  -23.443   24.679   45.309
| 48> O  -22.586   26.394   46.375
| 49> C  -24.883   26.282   45.190
| 50> C  -25.580   26.044   46.535
| 51> C  -25.028   27.213   47.385
| 52> C  -24.899   28.365   46.358
| 53> O  -24.918   27.738   45.018
| 54> H  -25.397   25.846   44.332
| 55> O  -27.119   26.168   46.366
| 56> H  -25.358   25.063   46.968
| 57> H  -25.682   27.474   48.224
| 58> H  -24.046   26.950   47.796
| 59> H  -23.969   28.931   46.476
| 60> H  -25.743   29.059   46.400
| 61> H  -27.365   27.145   45.935
| 62> *
| 63>
| 64>                          ****END OF INPUT****
 Total Charge           Charge          ....    0
 Multiplicity           Mult            ....    1
 Number of Electrons    NEL             ....  102
FINAL SINGLE POINT ENERGY      -652.836273999982
FINAL SINGLE POINT ENERGY      -652.858778496108
FINAL SINGLE POINT ENERGY      -652.862492685630
FINAL SINGLE POINT ENERGY      -652.863410464868
FINAL SINGLE POINT ENERGY      -652.863520042714
FINAL SINGLE POINT ENERGY      -652.863531411237
                    ***********************HURRAY********************

CARTESIAN COORDINATES (ANGSTROEM)
---------------------------------
  C    -21.088082   26.192197   46.196418
  C    -20.417141   27.530648   45.894659
  C    -20.407666   28.203840   47.286886
  C    -20.184930   27.014537   48.245953
  O    -20.532882   25.798338   47.463549
  H    -20.873552   25.387129   45.487460
  H    -19.395046   27.354657   45.538781
  H    -20.959558   28.107169   45.141137
  H    -19.628953   28.966756   47.380124
  H    -21.376559   28.676537   47.474884
  H    -20.819126   27.051132   49.135009
  H    -19.140206   26.901896   48.549886
  C    -23.324943   25.780203   45.255411
  H    -22.887915   26.036203   44.279907
  H    -23.344733   24.684154   45.353151
  O    -22.527704   26.367556   46.321421
  C    -24.747439   26.328850   45.284728
  C    -25.557287   26.091271   46.568119
  C    -25.082015   27.265110   47.463942
  C    -24.869247   28.414669   46.448687
  O    -24.772121   27.782207   45.110896
  H    -25.279286   25.899810   44.426998
  O    -26.984946   26.146568   46.287129
  H    -25.391870   25.111645   47.017420
  H    -25.831237   27.500373   48.224883
  H    -24.139397   26.993207   47.941449
  H    -23.949325   28.974415   46.638489
  H    -25.711616   29.114343   46.411914
  H    -27.176216   26.954580   45.765710

 Multiplicity           Mult            ....    1
 Number of Electrons    NEL             ....  102
 Basis Dimension        Dim             ....  149

ORBITAL ENERGIES
----------------

  NO   OCC          E(Eh)            E(eV)
   0   2.0000     -19.146513      -521.0031
   1   2.0000     -19.143031      -520.9083
   2   2.0000     -19.138708      -520.7907
   3   2.0000     -19.133686      -520.6541
   4   2.0000     -10.283250      -279.8215
   5   2.0000     -10.236535      -278.5503
   6   2.0000     -10.235405      -278.5195
   7   2.0000     -10.234982      -278.5080
   8   2.0000     -10.227945      -278.3165
   9   2.0000     -10.223682      -278.2005
  10   2.0000     -10.189128      -277.2603
  11   2.0000     -10.187582      -277.2182
  12   2.0000     -10.174827      -276.8711
  13   2.0000      -1.056631       -28.7524
  14   2.0000      -1.032190       -28.0873
  15   2.0000      -1.003935       -27.3185
  16   2.0000      -0.995653       -27.0931
  17   2.0000      -0.790314       -21.5055
  18   2.0000      -0.776834       -21.1387
  19   2.0000      -0.764061       -20.7912
  20   2.0000      -0.733126       -19.9494
  21   2.0000      -0.674878       -18.3644
  22   2.0000      -0.602230       -16.3875
  23   2.0000      -0.597325       -16.2540
  24   2.0000      -0.595437       -16.2027
  25   2.0000      -0.581229       -15.8160
  26   2.0000      -0.527324       -14.3492
  27   2.0000      -0.504312       -13.7230
  28   2.0000      -0.497826       -13.5465
  29   2.0000      -0.485430       -13.2092
  30   2.0000      -0.478101       -13.0098
  31   2.0000      -0.459142       -12.4939
  32   2.0000      -0.447236       -12.1699
  33   2.0000      -0.442043       -12.0286
  34   2.0000      -0.420909       -11.4535
  35   2.0000      -0.409967       -11.1558
  36   2.0000      -0.404536       -11.0080
  37   2.0000      -0.387244       -10.5374
  38   2.0000      -0.375530       -10.2187
  39   2.0000      -0.369952       -10.0669
  40   2.0000      -0.359250        -9.7757
  41   2.0000      -0.357154        -9.7187
  42   2.0000      -0.352696        -9.5974
  43   2.0000      -0.327387        -8.9086
  44   2.0000      -0.317672        -8.6443
  45   2.0000      -0.312527        -8.5043
  46   2.0000      -0.300793        -8.1850
  47   2.0000      -0.268901        -7.3172
  48   2.0000      -0.265791        -7.2325
  49   2.0000      -0.251981        -6.8568
  50   2.0000      -0.243050        -6.6137
  51   0.0000       0.061767         1.6808
  52   0.0000       0.082927         2.2566
  53   0.0000       0.087892         2.3917
  54   0.0000       0.098926         2.6919
  55   0.0000       0.105219         2.8632

MULLIKEN ATOMIC CHARGES
-----------------------
   0 C :    0.291469
   1 C :   -0.255701
   2 C :   -0.307069
   3 C :   -0.002673
   4 O :   -0.502857
   5 H :    0.142188
   6 H :    0.143780
   7 H :    0.155958
   8 H :    0.144350
   9 H :    0.161370
  10 H :    0.150605
  11 H :    0.143642
  12 C :    0.000199
  13 H :    0.139338
  14 H :    0.137426
  15 O :   -0.522890
  16 C :    0.062085
  17 C :    0.079320
  18 C :   -0.289964
  19 C :   -0.024989
  20 O :   -0.527683
  21 H :    0.156844
  22 O :   -0.603469
  23 H :    0.154363
  24 H :    0.147729
  25 H :    0.181415
  26 H :    0.147797
  27 H :    0.135713
  28 H :    0.361703
Sum of atomic charges:   -0.0000000

LOEWDIN ATOMIC CHARGES
----------------------
   0 C :    0.178753
   1 C :   -0.223208
   2 C :   -0.217106
   3 C :   -0.026472
   4 O :   -0.311406
   5 H :    0.099929
   6 H :    0.113339
   7 H :    0.122467
   8 H :    0.115532
   9 H :    0.116104
  10 H :    0.107180
  11 H :    0.103412
  12 C :   -0.037129
  13 H :    0.100179
  14 H :    0.099314
  15 O :   -0.337243
  16 C :    0.014956
  17 C :    0.040551
  18 C :   -0.242528
  19 C :   -0.034400
  20 O :   -0.331564
  21 H :    0.116527
  22 O :   -0.417350
  23 H :    0.117572
  24 H :    0.118209
  25 H :    0.133379
  26 H :    0.103849
  27 H :    0.095865
  28 H :    0.281290

  Mayer bond orders larger than 0.100000
B(  0-C ,  1-C ) :   0.9373 B(  0-C ,  4-O ) :   0.9352 B(  0-C ,  5-H ) :   0.9199
B(  0-C , 15-O ) :   0.8276 B(  1-C ,  2-C ) :   0.9551 B(  1-C ,  6-H ) :   0.9350
B(  1-C ,  7-H ) :   0.9357 B(  2-C ,  3-C ) :   0.9541 B(  2-C ,  8-H ) :   0.9447
B(  2-C ,  9-H ) :   0.9412 B(  3-C ,  4-O ) :   0.8371 B(  3-C , 10-H ) :   0.9347
B(  3-C , 11-H ) :   0.9395 B( 12-C , 13-H ) :   0.9165 B( 12-C , 14-H ) :   0.9089
B( 12-C , 15-O ) :   0.8444 B( 12-C , 16-C ) :   0.9079 B( 16-C , 17-C ) :   0.9090
B( 16-C , 20-O ) :   0.8729 B( 16-C , 21-H ) :   0.9219 B( 17-C , 18-C ) :   0.9240
B( 17-C , 22-O ) :   0.8903 B( 17-C , 23-H ) :   0.9358 B( 18-C , 19-C ) :   0.9469
B( 18-C , 24-H ) :   0.9374 B( 18-C , 25-H ) :   0.9164 B( 19-C , 20-O ) :   0.8388
B( 19-C , 26-H ) :   0.9315 B( 19-C , 27-H ) :   0.9367 B( 22-O , 28-H ) :   0.7965

FINAL SINGLE POINT ENERGY      -652.863531310308

DIPOLE MOMENT
-------------
                                X             Y             Z
Electronic contribution:     -3.24356      -3.37579      -1.69705
Nuclear contribution   :      4.09377       4.05399       1.55307
                        -----------------------------------------
Total Dipole Moment    :      0.85020       0.67820      -0.14399
                        -----------------------------------------
Magnitude (a.u.)       :      1.09706
Magnitude (Debye)      :      2.78850

Rotational constants in cm-1:     0.054569     0.014223     0.013887
Rotational constants in MHz :  1635.928203   426.392400   416.318482

                             ****ORCA TERMINATED NORMALLY****
TOTAL RUN TIME: 0 days 1 hours 36 minutes 57 seconds 861 msec
