                         Program Version 4.2.0 -  RELEASE  -
|  1> # Test redundant internal optimization
|  2> #
|  3> ! RKS B3LYP  Opt TightSCF SmallPrint
|  4>
|  5> %basis
|  6>         Basis "6-31G"
|  7> end
|  8>
|  9> %geom
| 10> Constraints
| 11> { D 4  0  15  12  150.0   C } # D for Dihedral angle
| 12> { D 0  15  12  16  300.0   C } # D for Dihedral angle
| 13> { D 0  4  3  2   C } # D for Dihedral angle
| 14> { D 4  3  2  1   C } # D for Dihedral angle
| 15> { D 3  2  1  0   C } # D for Dihedral angle
| 16> { D 2  1  0  4   C } # D for Dihedral angle
| 17> { D 1  0  4  3   C } # D for Dihedral angle
| 18> { D 16  20  19  18   C } # D for Dihedral angle
| 19> { D 20  19  18  17   C } # D for Dihedral angle
| 20> { D 19  18  17  16   C } # D for Dihedral angle
| 21> { D 18  17  16  20   C } # D for Dihedral angle
| 22> { D 17  16  20  19   C } # D for Dihedral angle
| 23> { D 15  12  16  20   C } # D for Dihedral angle
| 24> end
| 25> end
| 26>
| 27>
| 28> #%pal
| 29> #nprocs 8
| 30> #end
| 31>
| 32> * xyz 0 1
| 33> C  -21.048   26.222   46.251
| 34> C  -20.361   27.558   45.944
| 35> C  -20.329   28.222   47.341
| 36> C  -20.110   27.022   48.296
| 37> O  -20.473   25.807   47.535
| 38> H  -20.833   25.428   45.533
| 39> H  -19.344   27.382   45.576
| 40> H  -20.898   28.157   45.201
| 41> H  -19.543   28.978   47.434
| 42> H  -21.289   28.710   47.548
| 43> H  -20.733   27.082   49.195
| 44> H  -19.064   26.913   48.597
| 45> C  -23.210   27.459   45.431
| 46> H  -23.014   27.177   44.389
| 47> H  -24.297   27.510   45.575
| 48> O  -22.586   26.394   46.375
| 49> C  -22.634   28.882   45.669
| 50> C  -23.353   29.924   44.804
| 51> C  -24.657   30.150   45.605
| 52> C  -24.194   30.017   47.077
| 53> O  -22.893   29.316   47.046
| 54> H  -21.550   28.857   45.539
| 55> H  -22.763   30.847   44.758
| 56> O  -23.614   29.437   43.353
| 57> H  -25.119   31.122   45.399
| 58> H  -25.390   29.373   45.358
| 59> H  -24.898   29.439   47.687
| 60> H  -24.027   30.988   47.552
| 61> H  -24.204   28.515   43.373
| 62> *
| 63>
| 64>                          ****END OF INPUT****
 Total Charge           Charge          ....    0
 Multiplicity           Mult            ....    1
 Number of Electrons    NEL             ....  102
FINAL SINGLE POINT ENERGY      -652.753087738653
FINAL SINGLE POINT ENERGY      -652.815432419564
FINAL SINGLE POINT ENERGY      -652.837288760263
FINAL SINGLE POINT ENERGY      -652.841952233227
FINAL SINGLE POINT ENERGY      -652.842748944622
FINAL SINGLE POINT ENERGY      -652.842942469486
FINAL SINGLE POINT ENERGY      -652.842962345458
FINAL SINGLE POINT ENERGY      -652.842968382964
                    ***********************HURRAY********************

CARTESIAN COORDINATES (ANGSTROEM)
---------------------------------
  C    -20.980210   26.261767   46.236826
  C    -19.981614   27.401337   46.023117
  C    -19.982042   28.100427   47.411181
  C    -20.161987   26.912718   48.380507
  O    -20.685991   25.794277   47.559342
  H    -20.828191   25.411900   45.564403
  H    -19.003803   26.943141   45.830967
  H    -20.204089   28.057857   45.181259
  H    -19.052509   28.648603   47.594605
  H    -20.821180   28.796317   47.497902
  H    -20.875669   27.122248   49.181144
  H    -19.218692   26.566267   48.813329
  C    -23.103920   27.563854   45.424710
  H    -23.016240   27.313487   44.353493
  H    -24.146282   27.412652   45.723198
  O    -22.410401   26.567262   46.217725
  C    -22.739738   29.047708   45.568339
  C    -23.641395   29.953051   44.705559
  C    -24.911788   30.094454   45.605050
  C    -24.313874   30.107586   47.030384
  O    -22.943386   29.544908   46.925828
  H    -21.691658   29.223286   45.336710
  H    -23.157070   30.924822   44.585960
  O    -23.885002   29.502755   43.353350
  H    -25.480313   30.999199   45.374596
  H    -25.571420   29.230791   45.451199
  H    -24.888401   29.506111   47.740762
  H    -24.212271   31.122286   47.425946
  H    -24.518866   28.756929   43.343609

 Multiplicity           Mult            ....    1
 Number of Electrons    NEL             ....  102
 Basis Dimension        Dim             ....  149

ORBITAL ENERGIES
----------------

  NO   OCC          E(Eh)            E(eV)
   0   2.0000     -19.156493      -521.2747
   1   2.0000     -19.146880      -521.0131
   2   2.0000     -19.130430      -520.5655
   3   2.0000     -19.129676      -520.5449
   4   2.0000     -10.274465      -279.5824
   5   2.0000     -10.252601      -278.9875
   6   2.0000     -10.237311      -278.5714
   7   2.0000     -10.237011      -278.5632
   8   2.0000     -10.234771      -278.5023
   9   2.0000     -10.215290      -277.9722
  10   2.0000     -10.201796      -277.6050
  11   2.0000     -10.184861      -277.1441
  12   2.0000     -10.175350      -276.8853
  13   2.0000      -1.044190       -28.4139
  14   2.0000      -1.038840       -28.2683
  15   2.0000      -1.023473       -27.8501
  16   2.0000      -0.982171       -26.7262
  17   2.0000      -0.789286       -21.4776
  18   2.0000      -0.778709       -21.1898
  19   2.0000      -0.772040       -21.0083
  20   2.0000      -0.732068       -19.9206
  21   2.0000      -0.684315       -18.6212
  22   2.0000      -0.618734       -16.8366
  23   2.0000      -0.602627       -16.3983
  24   2.0000      -0.591073       -16.0839
  25   2.0000      -0.571417       -15.5490
  26   2.0000      -0.529400       -14.4057
  27   2.0000      -0.510803       -13.8996
  28   2.0000      -0.494668       -13.4606
  29   2.0000      -0.493896       -13.4396
  30   2.0000      -0.464895       -12.6504
  31   2.0000      -0.454698       -12.3730
  32   2.0000      -0.440532       -11.9875
  33   2.0000      -0.439994       -11.9729
  34   2.0000      -0.433286       -11.7903
  35   2.0000      -0.424155       -11.5418
  36   2.0000      -0.409359       -11.1392
  37   2.0000      -0.403759       -10.9868
  38   2.0000      -0.381214       -10.3734
  39   2.0000      -0.375235       -10.2107
  40   2.0000      -0.357304        -9.7227
  41   2.0000      -0.353487        -9.6189
  42   2.0000      -0.348142        -9.4734
  43   2.0000      -0.333009        -9.0616
  44   2.0000      -0.320233        -8.7140
  45   2.0000      -0.302001        -8.2179
  46   2.0000      -0.283281        -7.7085
  47   2.0000      -0.278544        -7.5796
  48   2.0000      -0.263507        -7.1704
  49   2.0000      -0.250231        -6.8091
  50   2.0000      -0.234948        -6.3933
  51   0.0000       0.047045         1.2802
  52   0.0000       0.073247         1.9932
  53   0.0000       0.078989         2.1494
  54   0.0000       0.093856         2.5539
  55   0.0000       0.098116         2.6699

MULLIKEN ATOMIC CHARGES
-----------------------
   0 C :    0.319530
   1 C :   -0.295006
   2 C :   -0.332266
   3 C :    0.000549
   4 O :   -0.496290
   5 H :    0.144804
   6 H :    0.147312
   7 H :    0.138974
   8 H :    0.133990
   9 H :    0.207829
  10 H :    0.153942
  11 H :    0.137840
  12 C :    0.001387
  13 H :    0.119879
  14 H :    0.146901
  15 O :   -0.526276
  16 C :    0.070169
  17 C :    0.083849
  18 C :   -0.324307
  19 C :   -0.009203
  20 O :   -0.517945
  21 H :    0.159104
  22 H :    0.167319
  23 O :   -0.596651
  24 H :    0.160242
  25 H :    0.138633
  26 H :    0.155086
  27 H :    0.151626
  28 H :    0.358981
Sum of atomic charges:   -0.0000000

LOEWDIN ATOMIC CHARGES
----------------------
   0 C :    0.188855
   1 C :   -0.232419
   2 C :   -0.230257
   3 C :   -0.024938
   4 O :   -0.305052
   5 H :    0.098204
   6 H :    0.117642
   7 H :    0.109635
   8 H :    0.111113
   9 H :    0.135218
  10 H :    0.109070
  11 H :    0.099723
  12 C :   -0.043811
  13 H :    0.090529
  14 H :    0.111343
  15 O :   -0.334863
  16 C :    0.001194
  17 C :    0.037128
  18 C :   -0.240847
  19 C :   -0.028805
  20 O :   -0.321570
  21 H :    0.113384
  22 H :    0.118913
  23 O :   -0.404930
  24 H :    0.123984
  25 H :    0.106366
  26 H :    0.108277
  27 H :    0.107333
  28 H :    0.279579

  Mayer bond orders larger than 0.100000
B(  0-C ,  1-C ) :   0.9273 B(  0-C ,  4-O ) :   0.9376 B(  0-C ,  5-H ) :   0.9269
B(  0-C , 15-O ) :   0.8442 B(  1-C ,  2-C ) :   0.9505 B(  1-C ,  6-H ) :   0.9321
B(  1-C ,  7-H ) :   0.9241 B(  2-C ,  3-C ) :   0.9524 B(  2-C ,  8-H ) :   0.9461
B(  2-C ,  9-H ) :   0.9104 B(  3-C ,  4-O ) :   0.8344 B(  3-C , 10-H ) :   0.9348
B(  3-C , 11-H ) :   0.9405 B( 12-C , 13-H ) :   0.9022 B( 12-C , 14-H ) :   0.9365
B( 12-C , 15-O ) :   0.8773 B( 12-C , 16-C ) :   0.8787 B( 16-C , 17-C ) :   0.8657
B( 16-C , 20-O ) :   0.8447 B( 16-C , 21-H ) :   0.9183 B( 17-C , 18-C ) :   0.9216
B( 17-C , 22-H ) :   0.9332 B( 17-C , 23-O ) :   0.9051 B( 18-C , 19-C ) :   0.9385
B( 18-C , 24-H ) :   0.9416 B( 18-C , 25-H ) :   0.9397 B( 19-C , 20-O ) :   0.8368
B( 19-C , 26-H ) :   0.9305 B( 19-C , 27-H ) :   0.9376 B( 23-O , 28-H ) :   0.7957

FINAL SINGLE POINT ENERGY      -652.842969262618

DIPOLE MOMENT
-------------
                                X             Y             Z
Electronic contribution:     -0.62416      -3.27317      -0.61036
Nuclear contribution   :      0.16532       4.32772       0.20622
                        -----------------------------------------
Total Dipole Moment    :     -0.45884       1.05454      -0.40414
                        -----------------------------------------
Magnitude (a.u.)       :      1.21898
Magnitude (Debye)      :      3.09841

Rotational constants in cm-1:     0.050548     0.015315     0.013988
Rotational constants in MHz :  1515.383430   459.139610   419.340677

                             ****ORCA TERMINATED NORMALLY****
TOTAL RUN TIME: 0 days 0 hours 29 minutes 43 seconds 115 msec
