                         Program Version 4.2.0 -  RELEASE  -
|  1> # Test redundant internal optimization
|  2> #
|  3> ! RKS B3LYP  Opt TightSCF SmallPrint
|  4>
|  5> %basis
|  6>         Basis "6-31G"
|  7> end
|  8>
|  9> %geom
| 10> Constraints
| 11> { D 4  0  15  12  150.0   C } # D for Dihedral angle
| 12> { D 0  15  12  16  120.0   C } # D for Dihedral angle
| 13> { D 0  4  3  2   C } # D for Dihedral angle
| 14> { D 4  3  2  1   C } # D for Dihedral angle
| 15> { D 3  2  1  0   C } # D for Dihedral angle
| 16> { D 2  1  0  4   C } # D for Dihedral angle
| 17> { D 1  0  4  3   C } # D for Dihedral angle
| 18> { D 16  20  19  18   C } # D for Dihedral angle
| 19> { D 20  19  18  17   C } # D for Dihedral angle
| 20> { D 19  18  17  16   C } # D for Dihedral angle
| 21> { D 18  17  16  20   C } # D for Dihedral angle
| 22> { D 17  16  20  19   C } # D for Dihedral angle
| 23> { D 15  12  16  20   C } # D for Dihedral angle
| 24> end
| 25> end
| 26>
| 27>
| 28> #%pal
| 29> #nprocs 8
| 30> #end
| 31>
| 32> * xyz 0 1
| 33> C  -21.048   26.222   46.251
| 34> C  -20.361   27.558   45.944
| 35> C  -20.329   28.222   47.341
| 36> C  -20.110   27.022   48.296
| 37> O  -20.473   25.807   47.535
| 38> H  -20.833   25.428   45.533
| 39> H  -19.344   27.382   45.576
| 40> H  -20.898   28.157   45.201
| 41> H  -19.543   28.978   47.434
| 42> H  -21.289   28.710   47.548
| 43> H  -20.733   27.082   49.195
| 44> H  -19.064   26.913   48.597
| 45> C  -23.210   27.459   45.431
| 46> H  -23.696   28.236   46.034
| 47> H  -22.431   27.934   44.821
| 48> O  -22.586   26.394   46.375
| 49> C  -24.267   26.858   44.464
| 50> C  -23.682   25.699   43.649
| 51> C  -23.734   24.539   44.672
| 52> C  -25.029   24.831   45.469
| 53> O  -25.366   26.249   45.220
| 54> H  -24.699   27.661   43.863
| 55> H  -24.324   25.484   42.788
| 56> O  -22.245   25.981   43.131
| 57> H  -23.749   23.553   44.196
| 58> H  -22.858   24.579   45.331
| 59> H  -24.904   24.675   46.546
| 60> H  -25.877   24.233   45.121
| 61> H  -21.585   26.200   43.978
| 62> *
| 63>
| 64>                          ****END OF INPUT****
 Total Charge           Charge          ....    0
 Multiplicity           Mult            ....    1
 Number of Electrons    NEL             ....  102
FINAL SINGLE POINT ENERGY      -652.814960625660
FINAL SINGLE POINT ENERGY      -652.840782028256
FINAL SINGLE POINT ENERGY      -652.848064244985
FINAL SINGLE POINT ENERGY      -652.850223995208
FINAL SINGLE POINT ENERGY      -652.850735029621
FINAL SINGLE POINT ENERGY      -652.850897085203
FINAL SINGLE POINT ENERGY      -652.850934116168
FINAL SINGLE POINT ENERGY      -652.850951586379
FINAL SINGLE POINT ENERGY      -652.850951596997
FINAL SINGLE POINT ENERGY      -652.850941938960
FINAL SINGLE POINT ENERGY      -652.850936716887
FINAL SINGLE POINT ENERGY      -652.850935481348
                    ***********************HURRAY********************

CARTESIAN COORDINATES (ANGSTROEM)
---------------------------------
  C    -21.050181   26.313999   46.300063
  C    -20.214162   27.555783   45.989380
  C    -20.230162   28.305123   47.347557
  C    -20.210607   27.149343   48.370062
  O    -20.633225   25.939648   47.620915
  H    -20.844474   25.450368   45.657666
  H    -19.197241   27.226277   45.746220
  H    -20.571269   28.162544   45.155181
  H    -19.374830   28.977820   47.460163
  H    -21.146139   28.896977   47.443403
  H    -20.899602   27.300481   49.204478
  H    -19.209127   26.942207   48.757898
  C    -23.185392   27.481559   45.493630
  H    -23.683636   28.201712   46.151658
  H    -22.491594   28.019553   44.839452
  O    -22.493421   26.530104   46.360334
  C    -24.246626   26.828249   44.610285
  C    -23.753913   25.749086   43.632858
  C    -23.761205   24.474382   44.530184
  C    -24.985347   24.712500   45.442170
  O    -25.294774   26.160607   45.368134
  H    -24.738961   27.647708   44.070275
  H    -24.469020   25.649358   42.812603
  O    -22.483734   26.056551   42.999892
  H    -23.846850   23.555995   43.941803
  H    -22.845324   24.433923   45.124836
  H    -24.785724   24.449119   46.483746
  H    -25.874839   24.177981   45.094251
  H    -21.745619   25.697044   43.530903

 Multiplicity           Mult            ....    1
 Number of Electrons    NEL             ....  102
 Basis Dimension        Dim             ....  149

ORBITAL ENERGIES
----------------

  NO   OCC          E(Eh)            E(eV)
   0   2.0000     -19.146895      -521.0135
   1   2.0000     -19.145016      -520.9624
   2   2.0000     -19.143717      -520.9270
   3   2.0000     -19.131158      -520.5853
   4   2.0000     -10.290495      -280.0186
   5   2.0000     -10.239721      -278.6370
   6   2.0000     -10.230312      -278.3809
   7   2.0000     -10.229970      -278.3716
   8   2.0000     -10.228044      -278.3192
   9   2.0000     -10.220312      -278.1088
  10   2.0000     -10.198074      -277.5037
  11   2.0000     -10.195531      -277.4345
  12   2.0000     -10.185050      -277.1493
  13   2.0000      -1.056998       -28.7624
  14   2.0000      -1.029710       -28.0198
  15   2.0000      -1.011707       -27.5300
  16   2.0000      -0.993525       -27.0352
  17   2.0000      -0.794640       -21.6232
  18   2.0000      -0.775054       -21.0903
  19   2.0000      -0.768490       -20.9117
  20   2.0000      -0.737588       -20.0708
  21   2.0000      -0.681927       -18.5562
  22   2.0000      -0.610112       -16.6020
  23   2.0000      -0.606702       -16.5092
  24   2.0000      -0.600975       -16.3534
  25   2.0000      -0.560556       -15.2535
  26   2.0000      -0.527493       -14.3538
  27   2.0000      -0.512308       -13.9406
  28   2.0000      -0.507602       -13.8125
  29   2.0000      -0.496904       -13.5215
  30   2.0000      -0.471491       -12.8299
  31   2.0000      -0.459266       -12.4972
  32   2.0000      -0.441222       -12.0062
  33   2.0000      -0.433285       -11.7903
  34   2.0000      -0.427873       -11.6430
  35   2.0000      -0.415351       -11.3023
  36   2.0000      -0.411612       -11.2005
  37   2.0000      -0.400165       -10.8890
  38   2.0000      -0.387106       -10.5337
  39   2.0000      -0.367689       -10.0053
  40   2.0000      -0.364236        -9.9114
  41   2.0000      -0.361461        -9.8358
  42   2.0000      -0.350482        -9.5371
  43   2.0000      -0.321979        -8.7615
  44   2.0000      -0.316105        -8.6016
  45   2.0000      -0.315186        -8.5766
  46   2.0000      -0.299159        -8.1405
  47   2.0000      -0.270185        -7.3521
  48   2.0000      -0.265488        -7.2243
  49   2.0000      -0.260906        -7.0996
  50   2.0000      -0.232898        -6.3375
  51   0.0000       0.044638         1.2147
  52   0.0000       0.074720         2.0332
  53   0.0000       0.089310         2.4303
  54   0.0000       0.095475         2.5980
  55   0.0000       0.105047         2.8585

MULLIKEN ATOMIC CHARGES
-----------------------
   0 C :    0.314036
   1 C :   -0.302349
   2 C :   -0.298907
   3 C :   -0.000899
   4 O :   -0.498074
   5 H :    0.123976
   6 H :    0.154669
   7 H :    0.155086
   8 H :    0.147176
   9 H :    0.158544
  10 H :    0.156949
  11 H :    0.144729
  12 C :   -0.021669
  13 H :    0.157482
  14 H :    0.136098
  15 O :   -0.527538
  16 C :    0.102245
  17 C :    0.083826
  18 C :   -0.324514
  19 C :    0.001048
  20 O :   -0.520155
  21 H :    0.143895
  22 H :    0.163624
  23 O :   -0.616141
  24 H :    0.144478
  25 H :    0.163057
  26 H :    0.159546
  27 H :    0.139713
  28 H :    0.360069
Sum of atomic charges:   -0.0000000

LOEWDIN ATOMIC CHARGES
----------------------
   0 C :    0.177613
   1 C :   -0.235267
   2 C :   -0.215787
   3 C :   -0.025491
   4 O :   -0.304586
   5 H :    0.083618
   6 H :    0.120619
   7 H :    0.118133
   8 H :    0.116995
   9 H :    0.115615
  10 H :    0.110948
  11 H :    0.104182
  12 C :   -0.045807
  13 H :    0.113378
  14 H :    0.102459
  15 O :   -0.338367
  16 C :    0.015584
  17 C :    0.035644
  18 C :   -0.240228
  19 C :   -0.022206
  20 O :   -0.321366
  21 H :    0.111852
  22 H :    0.115880
  23 O :   -0.415320
  24 H :    0.114635
  25 H :    0.118952
  26 H :    0.112029
  27 H :    0.100115
  28 H :    0.276173

  Mayer bond orders larger than 0.100000
B(  0-C ,  1-C ) :   0.9320 B(  0-C ,  4-O ) :   0.9336 B(  0-C ,  5-H ) :   0.9134
B(  0-C , 15-O ) :   0.8483 B(  1-C ,  2-C ) :   0.9493 B(  1-C ,  6-H ) :   0.9326
B(  1-C ,  7-H ) :   0.9236 B(  2-C ,  3-C ) :   0.9540 B(  2-C ,  8-H ) :   0.9449
B(  2-C ,  9-H ) :   0.9452 B(  3-C ,  4-O ) :   0.8341 B(  3-C , 10-H ) :   0.9340
B(  3-C , 11-H ) :   0.9395 B( 12-C , 13-H ) :   0.9303 B( 12-C , 14-H ) :   0.8966
B( 12-C , 15-O ) :   0.8480 B( 12-C , 16-C ) :   0.8989 B( 16-C , 17-C ) :   0.8869
B( 16-C , 20-O ) :   0.8800 B( 16-C , 21-H ) :   0.9247 B( 17-C , 18-C ) :   0.9409
B( 17-C , 22-H ) :   0.9333 B( 17-C , 23-O ) :   0.8865 B( 18-C , 19-C ) :   0.9454
B( 18-C , 24-H ) :   0.9410 B( 18-C , 25-H ) :   0.9264 B( 19-C , 20-O ) :   0.8399
B( 19-C , 26-H ) :   0.9300 B( 19-C , 27-H ) :   0.9375 B( 23-O , 28-H ) :   0.7921

FINAL SINGLE POINT ENERGY      -652.850936024862

DIPOLE MOMENT
-------------
                                X             Y             Z
Electronic contribution:     -2.98873      -1.83629      -0.53101
Nuclear contribution   :      3.98307       2.27185       0.40587
                        -----------------------------------------
Total Dipole Moment    :      0.99433       0.43556      -0.12514
                        -----------------------------------------
Magnitude (a.u.)       :      1.09274
Magnitude (Debye)      :      2.77751

Rotational constants in cm-1:     0.049882     0.015606     0.014701
Rotational constants in MHz :  1495.415843   467.866229   440.714724

                             ****ORCA TERMINATED NORMALLY****
TOTAL RUN TIME: 0 days 1 hours 45 minutes 29 seconds 697 msec
