                         Program Version 4.2.0 -  RELEASE  -
|  1> # Test redundant internal optimization
|  2> #
|  3> ! RKS B3LYP  Opt TightSCF SmallPrint
|  4>
|  5> %basis
|  6>         Basis "6-31G"
|  7> end
|  8>
|  9> %geom
| 10> Constraints
| 11> { D 4  0  15  12  210.0   C } # D for Dihedral angle
| 12> { D 0  15  12  16  315.0   C } # D for Dihedral angle
| 13> { D 0  4  3  2   C } # D for Dihedral angle
| 14> { D 4  3  2  1   C } # D for Dihedral angle
| 15> { D 3  2  1  0   C } # D for Dihedral angle
| 16> { D 2  1  0  4   C } # D for Dihedral angle
| 17> { D 1  0  4  3   C } # D for Dihedral angle
| 18> { D 16  20  19  18   C } # D for Dihedral angle
| 19> { D 20  19  18  17   C } # D for Dihedral angle
| 20> { D 19  18  17  16   C } # D for Dihedral angle
| 21> { D 18  17  16  20   C } # D for Dihedral angle
| 22> { D 17  16  20  19   C } # D for Dihedral angle
| 23> { D 15  12  16  20   C } # D for Dihedral angle
| 24> end
| 25> end
| 26>
| 27>
| 28> #%pal
| 29> #nprocs 8
| 30> #end
| 31>
| 32> * xyz 0 1
| 33> C  -21.048   26.222   46.251
| 34> C  -20.361   27.558   45.944
| 35> C  -20.329   28.222   47.341
| 36> C  -20.110   27.022   48.296
| 37> O  -20.473   25.807   47.535
| 38> H  -20.833   25.428   45.533
| 39> H  -19.344   27.382   45.576
| 40> H  -20.898   28.157   45.201
| 41> H  -19.543   28.978   47.434
| 42> H  -21.289   28.710   47.548
| 43> H  -20.733   27.082   49.195
| 44> H  -19.064   26.913   48.597
| 45> C  -23.389   26.110   45.076
| 46> H  -23.442   25.027   44.912
| 47> H  -24.414   26.494   45.167
| 48> O  -22.586   26.394   46.375
| 49> C  -22.749   26.763   43.820
| 50> C  -23.627   26.562   42.580
| 51> C  -24.711   27.647   42.782
| 52> C  -23.926   28.807   43.445
| 53> O  -22.679   28.220   43.979
| 54> H  -21.724   26.403   43.712
| 55> H  -23.047   26.759   41.671
| 56> O  -24.221   25.130   42.479
| 57> H  -25.189   27.949   41.845
| 58> H  -25.494   27.277   43.454
| 59> H  -24.483   29.274   44.266
| 60> H  -23.638   29.580   42.727
| 61> H  -24.807   24.909   43.377
| 62> *
| 63>
| 64>                          ****END OF INPUT****
 Total Charge           Charge          ....    0
 Multiplicity           Mult            ....    1
 Number of Electrons    NEL             ....  102
FINAL SINGLE POINT ENERGY      -652.825254812697
FINAL SINGLE POINT ENERGY      -652.848698763935
FINAL SINGLE POINT ENERGY      -652.853555329733
FINAL SINGLE POINT ENERGY      -652.854366222414
FINAL SINGLE POINT ENERGY      -652.854537402725
FINAL SINGLE POINT ENERGY      -652.854564813366
FINAL SINGLE POINT ENERGY      -652.854569088984
                    ***********************HURRAY********************

CARTESIAN COORDINATES (ANGSTROEM)
---------------------------------
  C    -20.983894   26.228291   46.200014
  C    -20.297824   27.572832   45.966930
  C    -20.368273   28.215438   47.372381
  C    -20.199732   27.004913   48.314362
  O    -20.501273   25.807007   47.487484
  H    -20.732996   25.434082   45.488391
  H    -19.255042   27.395344   45.674226
  H    -20.790994   28.174870   45.202743
  H    -19.597407   28.976552   47.526025
  H    -21.349352   28.679372   47.511212
  H    -20.883887   27.019824   49.166564
  H    -19.173290   26.884995   48.674504
  C    -23.241409   26.145611   45.119381
  H    -23.332814   25.059564   44.954771
  H    -24.224354   26.541045   45.392946
  O    -22.431122   26.379547   46.301964
  C    -22.752774   26.765974   43.804976
  C    -23.711448   26.514108   42.626427
  C    -24.775225   27.637795   42.830109
  C    -23.928311   28.808684   43.378030
  O    -22.655016   28.221924   43.872586
  H    -21.746201   26.406577   43.574256
  H    -23.172731   26.671550   41.689234
  O    -24.240046   25.173579   42.516270
  H    -25.293431   27.885621   41.900387
  H    -25.524814   27.308067   43.560598
  H    -24.415168   29.339722   44.201362
  H    -23.663946   29.529718   42.598887
  H    -24.908226   25.003394   43.210980

 Multiplicity           Mult            ....    1
 Number of Electrons    NEL             ....  102
 Basis Dimension        Dim             ....  149

ORBITAL ENERGIES
----------------

  NO   OCC          E(Eh)            E(eV)
   0   2.0000     -19.156570      -521.2768
   1   2.0000     -19.149442      -521.0828
   2   2.0000     -19.133738      -520.6555
   3   2.0000     -19.130111      -520.5568
   4   2.0000     -10.270700      -279.4800
   5   2.0000     -10.253905      -279.0229
   6   2.0000     -10.240457      -278.6570
   7   2.0000     -10.239759      -278.6380
   8   2.0000     -10.233202      -278.4596
   9   2.0000     -10.214900      -277.9615
  10   2.0000     -10.202984      -277.6373
  11   2.0000     -10.173947      -276.8472
  12   2.0000     -10.167987      -276.6850
  13   2.0000      -1.046507       -28.4769
  14   2.0000      -1.039454       -28.2850
  15   2.0000      -1.024833       -27.8871
  16   2.0000      -0.985331       -26.8122
  17   2.0000      -0.790986       -21.5238
  18   2.0000      -0.774298       -21.0697
  19   2.0000      -0.769708       -20.9448
  20   2.0000      -0.729191       -19.8423
  21   2.0000      -0.681807       -18.5529
  22   2.0000      -0.619982       -16.8706
  23   2.0000      -0.603866       -16.4320
  24   2.0000      -0.587577       -15.9888
  25   2.0000      -0.564605       -15.3637
  26   2.0000      -0.534935       -14.5563
  27   2.0000      -0.516506       -14.0549
  28   2.0000      -0.492778       -13.4092
  29   2.0000      -0.484631       -13.1875
  30   2.0000      -0.466179       -12.6854
  31   2.0000      -0.451835       -12.2950
  32   2.0000      -0.448193       -12.1960
  33   2.0000      -0.437391       -11.9020
  34   2.0000      -0.434671       -11.8280
  35   2.0000      -0.418681       -11.3929
  36   2.0000      -0.412193       -11.2163
  37   2.0000      -0.393665       -10.7122
  38   2.0000      -0.386393       -10.5143
  39   2.0000      -0.365976        -9.9587
  40   2.0000      -0.359239        -9.7754
  41   2.0000      -0.350718        -9.5435
  42   2.0000      -0.341945        -9.3048
  43   2.0000      -0.333744        -9.0816
  44   2.0000      -0.322939        -8.7876
  45   2.0000      -0.305084        -8.3017
  46   2.0000      -0.298115        -8.1121
  47   2.0000      -0.280328        -7.6281
  48   2.0000      -0.261851        -7.1253
  49   2.0000      -0.248047        -6.7497
  50   2.0000      -0.236236        -6.4283
  51   0.0000       0.047080         1.2811
  52   0.0000       0.071560         1.9472
  53   0.0000       0.081798         2.2259
  54   0.0000       0.095007         2.5853
  55   0.0000       0.098052         2.6681

MULLIKEN ATOMIC CHARGES
-----------------------
   0 C :    0.282654
   1 C :   -0.280390
   2 C :   -0.299578
   3 C :   -0.000602
   4 O :   -0.507514
   5 H :    0.136396
   6 H :    0.131606
   7 H :    0.196070
   8 H :    0.136575
   9 H :    0.160113
  10 H :    0.149182
  11 H :    0.136807
  12 C :   -0.004894
  13 H :    0.131739
  14 H :    0.139852
  15 O :   -0.507665
  16 C :    0.065612
  17 C :    0.088738
  18 C :   -0.322703
  19 C :   -0.011580
  20 O :   -0.516832
  21 H :    0.158818
  22 H :    0.168259
  23 O :   -0.596245
  24 H :    0.160614
  25 H :    0.139162
  26 H :    0.151720
  27 H :    0.154960
  28 H :    0.359127
Sum of atomic charges:   -0.0000000

LOEWDIN ATOMIC CHARGES
----------------------
   0 C :    0.177423
   1 C :   -0.235867
   2 C :   -0.215875
   3 C :   -0.026251
   4 O :   -0.309115
   5 H :    0.093802
   6 H :    0.107677
   7 H :    0.137480
   8 H :    0.111896
   9 H :    0.118197
  10 H :    0.106464
  11 H :    0.099793
  12 C :   -0.049104
  13 H :    0.096680
  14 H :    0.108006
  15 O :   -0.326792
  16 C :    0.001862
  17 C :    0.038467
  18 C :   -0.240257
  19 C :   -0.029000
  20 O :   -0.321575
  21 H :    0.113253
  22 H :    0.119688
  23 O :   -0.403506
  24 H :    0.124568
  25 H :    0.106778
  26 H :    0.106839
  27 H :    0.108452
  28 H :    0.280018

  Mayer bond orders larger than 0.100000
B(  0-C ,  1-C ) :   0.9323 B(  0-C ,  4-O ) :   0.9311 B(  0-C ,  5-H ) :   0.9190
B(  0-C , 15-O ) :   0.8268 B(  1-C ,  2-C ) :   0.9542 B(  1-C ,  6-H ) :   0.9345
B(  1-C ,  7-H ) :   0.9058 B(  2-C ,  3-C ) :   0.9557 B(  2-C ,  8-H ) :   0.9457
B(  2-C ,  9-H ) :   0.9439 B(  3-C ,  4-O ) :   0.8371 B(  3-C , 10-H ) :   0.9355
B(  3-C , 11-H ) :   0.9401 B( 12-C , 13-H ) :   0.8997 B( 12-C , 14-H ) :   0.9374
B( 12-C , 15-O ) :   0.8775 B( 12-C , 16-C ) :   0.8886 B( 16-C , 17-C ) :   0.8695
B( 16-C , 20-O ) :   0.8444 B( 16-C , 21-H ) :   0.9265 B( 17-C , 18-C ) :   0.9222
B( 17-C , 22-H ) :   0.9333 B( 17-C , 23-O ) :   0.9060 B( 18-C , 19-C ) :   0.9389
B( 18-C , 24-H ) :   0.9412 B( 18-C , 25-H ) :   0.9405 B( 19-C , 20-O ) :   0.8351
B( 19-C , 26-H ) :   0.9319 B( 19-C , 27-H ) :   0.9373 B( 23-O , 28-H ) :   0.7957

FINAL SINGLE POINT ENERGY      -652.854570286612

DIPOLE MOMENT
-------------
                                X             Y             Z
Electronic contribution:     -0.04440      -4.00622      -0.12000
Nuclear contribution   :     -0.71414       4.93643      -0.53441
                        -----------------------------------------
Total Dipole Moment    :     -0.75854       0.93022      -0.65441
                        -----------------------------------------
Magnitude (a.u.)       :      1.36709
Magnitude (Debye)      :      3.47488

Rotational constants in cm-1:     0.057915     0.013827     0.012231
Rotational constants in MHz :  1736.251434   414.536630   366.680855

                             ****ORCA TERMINATED NORMALLY****
TOTAL RUN TIME: 0 days 0 hours 21 minutes 1 seconds 820 msec
