                         Program Version 4.2.0 -  RELEASE  -
|  1> # Test redundant internal optimization
|  2> #
|  3> ! RKS B3LYP  Opt TightSCF SmallPrint
|  4>
|  5> %basis
|  6>         Basis "6-31G"
|  7> end
|  8>
|  9> %geom
| 10> Constraints
| 11> { D 4  0  15  12  150.0   C } # D for Dihedral angle
| 12> { D 0  15  12  16  165.0   C } # D for Dihedral angle
| 13> { D 0  4  3  2   C } # D for Dihedral angle
| 14> { D 4  3  2  1   C } # D for Dihedral angle
| 15> { D 3  2  1  0   C } # D for Dihedral angle
| 16> { D 2  1  0  4   C } # D for Dihedral angle
| 17> { D 1  0  4  3   C } # D for Dihedral angle
| 18> { D 16  20  19  18   C } # D for Dihedral angle
| 19> { D 20  19  18  17   C } # D for Dihedral angle
| 20> { D 19  18  17  16   C } # D for Dihedral angle
| 21> { D 18  17  16  20   C } # D for Dihedral angle
| 22> { D 17  16  20  19   C } # D for Dihedral angle
| 23> { D 15  12  16  20   C } # D for Dihedral angle
| 24> end
| 25> end
| 26>
| 27>
| 28> #%pal
| 29> #nprocs 8
| 30> #end
| 31>
| 32> * xyz 0 1
| 33> C  -21.048   26.222   46.251
| 34> C  -20.361   27.558   45.944
| 35> C  -20.329   28.222   47.341
| 36> C  -20.110   27.022   48.296
| 37> O  -20.473   25.807   47.535
| 38> H  -20.833   25.428   45.533
| 39> H  -19.344   27.382   45.576
| 40> H  -20.898   28.157   45.201
| 41> H  -19.543   28.978   47.434
| 42> H  -21.289   28.710   47.548
| 43> H  -20.733   27.082   49.195
| 44> H  -19.064   26.913   48.597
| 45> C  -23.210   27.459   45.431
| 46> H  -22.970   28.461   45.808
| 47> H  -22.796   27.364   44.419
| 48> O  -22.586   26.394   46.375
| 49> C  -24.755   27.334   45.324
| 50> C  -25.323   28.322   44.299
| 51> C  -25.017   27.600   42.965
| 52> C  -25.198   26.105   43.325
| 53> O  -25.128   26.016   44.799
| 54> H  -25.191   27.417   46.321
| 55> O  -26.855   28.477   44.500
| 56> H  -24.864   29.315   44.359
| 57> H  -25.677   27.916   42.150
| 58> H  -23.984   27.801   42.656
| 59> H  -24.416   25.471   42.891
| 60> H  -26.175   25.718   43.025
| 61> H  -27.335   27.494   44.443
| 62> *
| 63>
| 64>                          ****END OF INPUT****
 Total Charge           Charge          ....    0
 Multiplicity           Mult            ....    1
 Number of Electrons    NEL             ....  102
FINAL SINGLE POINT ENERGY      -652.824669073261
FINAL SINGLE POINT ENERGY      -652.847935344658
FINAL SINGLE POINT ENERGY      -652.852258660392
FINAL SINGLE POINT ENERGY      -652.853003367249
FINAL SINGLE POINT ENERGY      -652.853101461979
FINAL SINGLE POINT ENERGY      -652.853113029796
                    ***********************HURRAY********************

CARTESIAN COORDINATES (ANGSTROEM)
---------------------------------
  C    -21.100294   26.289678   46.195535
  C    -20.246914   27.537808   45.967502
  C    -20.310337   28.231885   47.353739
  C    -20.335068   27.034372   48.327758
  O    -20.734832   25.859820   47.515052
  H    -20.894615   25.455394   45.519654
  H    -19.222369   27.219689   45.743387
  H    -20.584678   28.176667   45.147809
  H    -19.457728   28.895057   47.527793
  H    -21.227239   28.824600   47.441735
  H    -21.052367   27.157408   49.143112
  H    -19.349131   26.806736   48.743500
  C    -23.094235   27.535635   45.314576
  H    -22.897385   28.551523   45.690020
  H    -22.659834   27.453255   44.306631
  O    -22.540858   26.532779   46.198350
  C    -24.603260   27.306775   45.257557
  C    -25.349743   28.270245   44.324015
  C    -25.152909   27.588795   42.943870
  C    -25.193828   26.080239   43.291048
  O    -24.947697   25.977800   44.749417
  H    -24.997180   27.353432   46.277532
  O    -26.755350   28.353936   44.685376
  H    -24.982259   29.297107   44.354301
  H    -25.940498   27.890706   42.249066
  H    -24.186295   27.875295   42.513510
  H    -24.433312   25.501232   42.758532
  H    -26.172802   25.631436   43.095874
  H    -27.081982   27.455698   44.904750

 Multiplicity           Mult            ....    1
 Number of Electrons    NEL             ....  102
 Basis Dimension        Dim             ....  149

ORBITAL ENERGIES
----------------

  NO   OCC          E(Eh)            E(eV)
   0   2.0000     -19.140525      -520.8402
   1   2.0000     -19.139933      -520.8241
   2   2.0000     -19.138907      -520.7961
   3   2.0000     -19.136899      -520.7415
   4   2.0000     -10.279265      -279.7130
   5   2.0000     -10.244918      -278.7784
   6   2.0000     -10.236670      -278.5539
   7   2.0000     -10.235053      -278.5100
   8   2.0000     -10.230516      -278.3865
   9   2.0000     -10.226175      -278.2684
  10   2.0000     -10.193122      -277.3689
  11   2.0000     -10.192714      -277.3578
  12   2.0000     -10.191660      -277.3292
  13   2.0000      -1.052282       -28.6340
  14   2.0000      -1.036942       -28.2166
  15   2.0000      -1.007226       -27.4080
  16   2.0000      -0.991781       -26.9877
  17   2.0000      -0.790448       -21.5092
  18   2.0000      -0.786226       -21.3943
  19   2.0000      -0.770263       -20.9599
  20   2.0000      -0.733254       -19.9529
  21   2.0000      -0.679218       -18.4825
  22   2.0000      -0.606514       -16.5041
  23   2.0000      -0.604883       -16.4597
  24   2.0000      -0.594269       -16.1709
  25   2.0000      -0.579503       -15.7691
  26   2.0000      -0.527331       -14.3494
  27   2.0000      -0.511212       -13.9108
  28   2.0000      -0.497790       -13.5456
  29   2.0000      -0.494815       -13.4646
  30   2.0000      -0.478673       -13.0253
  31   2.0000      -0.462575       -12.5873
  32   2.0000      -0.450037       -12.2461
  33   2.0000      -0.448149       -12.1947
  34   2.0000      -0.423489       -11.5237
  35   2.0000      -0.415318       -11.3014
  36   2.0000      -0.401601       -10.9281
  37   2.0000      -0.394868       -10.7449
  38   2.0000      -0.380476       -10.3533
  39   2.0000      -0.373887       -10.1740
  40   2.0000      -0.367629       -10.0037
  41   2.0000      -0.359475        -9.7818
  42   2.0000      -0.353570        -9.6211
  43   2.0000      -0.333429        -9.0731
  44   2.0000      -0.313375        -8.5274
  45   2.0000      -0.306904        -8.3513
  46   2.0000      -0.296223        -8.0606
  47   2.0000      -0.272621        -7.4184
  48   2.0000      -0.261837        -7.1250
  49   2.0000      -0.250701        -6.8219
  50   2.0000      -0.243582        -6.6282
  51   0.0000       0.062155         1.6913
  52   0.0000       0.077280         2.1029
  53   0.0000       0.083682         2.2771
  54   0.0000       0.098114         2.6698
  55   0.0000       0.104570         2.8455

MULLIKEN ATOMIC CHARGES
-----------------------
   0 C :    0.316369
   1 C :   -0.294921
   2 C :   -0.302318
   3 C :    0.000101
   4 O :   -0.495227
   5 H :    0.151341
   6 H :    0.152561
   7 H :    0.141369
   8 H :    0.145315
   9 H :    0.153024
  10 H :    0.154537
  11 H :    0.143344
  12 C :   -0.000316
  13 H :    0.122092
  14 H :    0.124254
  15 O :   -0.508982
  16 C :    0.065387
  17 C :    0.076423
  18 C :   -0.295523
  19 C :   -0.027943
  20 O :   -0.505202
  21 H :    0.173716
  22 O :   -0.602048
  23 H :    0.148299
  24 H :    0.165385
  25 H :    0.137019
  26 H :    0.148470
  27 H :    0.145990
  28 H :    0.367481
Sum of atomic charges:    0.0000000

LOEWDIN ATOMIC CHARGES
----------------------
   0 C :    0.184994
   1 C :   -0.234925
   2 C :   -0.217518
   3 C :   -0.026575
   4 O :   -0.302689
   5 H :    0.102879
   6 H :    0.119793
   7 H :    0.112958
   8 H :    0.115790
   9 H :    0.111897
  10 H :    0.109417
  11 H :    0.103369
  12 C :   -0.043117
  13 H :    0.090405
  14 H :    0.088960
  15 O :   -0.325381
  16 C :    0.018771
  17 C :    0.035336
  18 C :   -0.241574
  19 C :   -0.038261
  20 O :   -0.316348
  21 H :    0.123181
  22 O :   -0.414305
  23 H :    0.113534
  24 H :    0.127451
  25 H :    0.109305
  26 H :    0.105032
  27 H :    0.102741
  28 H :    0.284879

  Mayer bond orders larger than 0.100000
B(  0-C ,  1-C ) :   0.9295 B(  0-C ,  4-O ) :   0.9345 B(  0-C ,  5-H ) :   0.9238
B(  0-C , 15-O ) :   0.8421 B(  1-C ,  2-C ) :   0.9498 B(  1-C ,  6-H ) :   0.9340
B(  1-C ,  7-H ) :   0.9284 B(  2-C ,  3-C ) :   0.9534 B(  2-C ,  8-H ) :   0.9452
B(  2-C ,  9-H ) :   0.9439 B(  3-C ,  4-O ) :   0.8392 B(  3-C , 10-H ) :   0.9340
B(  3-C , 11-H ) :   0.9395 B( 12-C , 13-H ) :   0.9023 B( 12-C , 14-H ) :   0.9133
B( 12-C , 15-O ) :   0.8525 B( 12-C , 16-C ) :   0.8933 B( 16-C , 17-C ) :   0.9004
B( 16-C , 20-O ) :   0.8698 B( 16-C , 21-H ) :   0.9221 B( 17-C , 18-C ) :   0.9101
B( 17-C , 22-O ) :   0.8950 B( 17-C , 23-H ) :   0.9332 B( 18-C , 19-C ) :   0.9392
B( 18-C , 24-H ) :   0.9372 B( 18-C , 25-H ) :   0.9349 B( 19-C , 20-O ) :   0.8528
B( 19-C , 26-H ) :   0.9339 B( 19-C , 27-H ) :   0.9377 B( 22-O , 28-H ) :   0.7925

FINAL SINGLE POINT ENERGY      -652.853114825646

DIPOLE MOMENT
-------------
                                X             Y             Z
Electronic contribution:     -3.74637      -4.24079       2.20871
Nuclear contribution   :      4.67267       5.31985      -3.16418
                        -----------------------------------------
Total Dipole Moment    :      0.92630       1.07907      -0.95548
                        -----------------------------------------
Magnitude (a.u.)       :      1.71329
Magnitude (Debye)      :      4.35483

Rotational constants in cm-1:     0.063391     0.011603     0.011215
Rotational constants in MHz :  1900.403927   347.853839   336.214686

                             ****ORCA TERMINATED NORMALLY****
TOTAL RUN TIME: 0 days 0 hours 46 minutes 46 seconds 930 msec
