                         Program Version 4.2.0 -  RELEASE  -
|  1> # Test redundant internal optimization
|  2> #
|  3> ! RKS B3LYP  Opt TightSCF SmallPrint
|  4>
|  5> %basis
|  6>         Basis "6-31G"
|  7> end
|  8>
|  9> %geom
| 10> Constraints
| 11> { D 4  0  15  12  240.0   C } # D for Dihedral angle
| 12> { D 0  15  12  16  300.0   C } # D for Dihedral angle
| 13> { D 0  4  3  2   C } # D for Dihedral angle
| 14> { D 4  3  2  1   C } # D for Dihedral angle
| 15> { D 3  2  1  0   C } # D for Dihedral angle
| 16> { D 2  1  0  4   C } # D for Dihedral angle
| 17> { D 1  0  4  3   C } # D for Dihedral angle
| 18> { D 16  20  19  18   C } # D for Dihedral angle
| 19> { D 20  19  18  17   C } # D for Dihedral angle
| 20> { D 19  18  17  16   C } # D for Dihedral angle
| 21> { D 18  17  16  20   C } # D for Dihedral angle
| 22> { D 17  16  20  19   C } # D for Dihedral angle
| 23> { D 15  12  16  20   C } # D for Dihedral angle
| 24> end
| 25> end
| 26>
| 27>
| 28> #%pal
| 29> #nprocs 8
| 30> #end
| 31>
| 32> * xyz 0 1
| 33> C  -21.048   26.222   46.251
| 34> C  -20.361   27.558   45.944
| 35> C  -20.329   28.222   47.341
| 36> C  -20.110   27.022   48.296
| 37> O  -20.473   25.807   47.535
| 38> H  -20.833   25.428   45.533
| 39> H  -19.344   27.382   45.576
| 40> H  -20.898   28.157   45.201
| 41> H  -19.543   28.978   47.434
| 42> H  -21.289   28.710   47.548
| 43> H  -20.733   27.082   49.195
| 44> H  -19.064   26.913   48.597
| 45> C  -23.430   25.483   45.442
| 46> H  -23.218   24.432   45.675
| 47> H  -24.502   25.659   45.600
| 48> O  -22.586   26.394   46.375
| 49> C  -23.128   25.720   43.937
| 50> C  -21.686   25.333   43.591
| 51> C  -21.792   23.793   43.485
| 52> C  -23.204   23.578   42.885
| 53> O  -23.949   24.836   43.103
| 54> H  -23.395   26.746   43.676
| 55> O  -21.282   25.950   42.224
| 56> H  -20.959   25.658   44.343
| 57> H  -21.004   23.355   42.864
| 58> H  -21.722   23.342   44.482
| 59> H  -23.743   22.754   43.364
| 60> H  -23.177   23.402   41.806
| 61> H  -21.996   25.637   41.452
| 62> *
| 63>
| 64>                          ****END OF INPUT****
 Total Charge           Charge          ....    0
 Multiplicity           Mult            ....    1
 Number of Electrons    NEL             ....  102
FINAL SINGLE POINT ENERGY      -652.804730362951
FINAL SINGLE POINT ENERGY      -652.836397643180
FINAL SINGLE POINT ENERGY      -652.852507444821
FINAL SINGLE POINT ENERGY      -652.854766698571
FINAL SINGLE POINT ENERGY      -652.855202984115
FINAL SINGLE POINT ENERGY      -652.855266537058
FINAL SINGLE POINT ENERGY      -652.855273575763
                    ***********************HURRAY********************

CARTESIAN COORDINATES (ANGSTROEM)
---------------------------------
  C    -20.909179   26.242385   46.310771
  C    -20.255243   27.607341   46.096615
  C    -20.425769   28.263256   47.486922
  C    -20.270383   27.069743   48.455564
  O    -20.484192   25.850930   47.634762
  H    -20.577789   25.438821   45.652129
  H    -19.193552   27.470657   45.858201
  H    -20.729119   28.173961   45.292245
  H    -19.690314   29.051382   47.673038
  H    -21.427665   28.695047   47.566901
  H    -21.002218   27.078976   49.267592
  H    -19.263132   26.992070   48.876402
  C    -23.191823   25.600924   45.405682
  H    -23.129600   24.541401   45.698738
  H    -24.205072   25.943925   45.618838
  O    -22.347072   26.392418   46.285151
  C    -22.982453   25.694294   43.876757
  C    -21.654584   25.244019   43.244950
  C    -21.805231   23.695786   43.259257
  C    -23.319587   23.494993   42.997713
  O    -23.978908   24.786255   43.296668
  H    -23.226929   26.703983   43.532220
  O    -21.560733   25.756548   41.885129
  H    -20.755554   25.603993   43.735170
  H    -21.174573   23.239222   42.493065
  H    -21.513552   23.293395   44.235308
  H    -23.760299   22.716937   43.627640
  H    -23.534670   23.258965   41.950919
  H    -22.428803   25.651372   41.440654

 Multiplicity           Mult            ....    1
 Number of Electrons    NEL             ....  102
 Basis Dimension        Dim             ....  149

ORBITAL ENERGIES
----------------

  NO   OCC          E(Eh)            E(eV)
   0   2.0000     -19.152230      -521.1587
   1   2.0000     -19.143749      -520.9279
   2   2.0000     -19.141352      -520.8627
   3   2.0000     -19.136794      -520.7386
   4   2.0000     -10.280985      -279.7598
   5   2.0000     -10.248746      -278.8826
   6   2.0000     -10.240666      -278.6627
   7   2.0000     -10.237503      -278.5766
   8   2.0000     -10.233982      -278.4808
   9   2.0000     -10.222659      -278.1727
  10   2.0000     -10.195073      -277.4220
  11   2.0000     -10.185261      -277.1550
  12   2.0000     -10.184130      -277.1243
  13   2.0000      -1.051564       -28.6145
  14   2.0000      -1.044398       -28.4195
  15   2.0000      -1.012500       -27.5515
  16   2.0000      -0.992784       -27.0150
  17   2.0000      -0.786846       -21.4112
  18   2.0000      -0.784102       -21.3365
  19   2.0000      -0.769917       -20.9505
  20   2.0000      -0.736459       -20.0401
  21   2.0000      -0.678562       -18.4646
  22   2.0000      -0.610765       -16.6198
  23   2.0000      -0.603386       -16.4190
  24   2.0000      -0.596897       -16.2424
  25   2.0000      -0.583984       -15.8910
  26   2.0000      -0.528008       -14.3678
  27   2.0000      -0.520190       -14.1551
  28   2.0000      -0.502041       -13.6612
  29   2.0000      -0.484368       -13.1803
  30   2.0000      -0.476435       -12.9645
  31   2.0000      -0.460896       -12.5416
  32   2.0000      -0.445668       -12.1272
  33   2.0000      -0.438351       -11.9281
  34   2.0000      -0.427588       -11.6353
  35   2.0000      -0.424217       -11.5435
  36   2.0000      -0.400330       -10.8935
  37   2.0000      -0.399440       -10.8693
  38   2.0000      -0.378440       -10.2979
  39   2.0000      -0.375344       -10.2136
  40   2.0000      -0.358746        -9.7620
  41   2.0000      -0.356662        -9.7053
  42   2.0000      -0.351349        -9.5607
  43   2.0000      -0.337868        -9.1939
  44   2.0000      -0.315405        -8.5826
  45   2.0000      -0.314635        -8.5617
  46   2.0000      -0.305245        -8.3061
  47   2.0000      -0.277583        -7.5534
  48   2.0000      -0.270535        -7.3616
  49   2.0000      -0.254118        -6.9149
  50   2.0000      -0.241285        -6.5657
  51   0.0000       0.060841         1.6556
  52   0.0000       0.067961         1.8493
  53   0.0000       0.088272         2.4020
  54   0.0000       0.095740         2.6052
  55   0.0000       0.099666         2.7120

MULLIKEN ATOMIC CHARGES
-----------------------
   0 C :    0.281991
   1 C :   -0.253391
   2 C :   -0.300301
   3 C :   -0.002566
   4 O :   -0.507919
   5 H :    0.138321
   6 H :    0.143460
   7 H :    0.150662
   8 H :    0.141424
   9 H :    0.165297
  10 H :    0.152372
  11 H :    0.139814
  12 C :    0.000913
  13 H :    0.131522
  14 H :    0.171834
  15 O :   -0.521690
  16 C :    0.042415
  17 C :    0.078850
  18 C :   -0.294476
  19 C :   -0.030021
  20 O :   -0.524703
  21 H :    0.161687
  22 O :   -0.606647
  23 H :    0.157474
  24 H :    0.166835
  25 H :    0.150505
  26 H :    0.152801
  27 H :    0.147038
  28 H :    0.366498
Sum of atomic charges:    0.0000000

LOEWDIN ATOMIC CHARGES
----------------------
   0 C :    0.172174
   1 C :   -0.221310
   2 C :   -0.215674
   3 C :   -0.026814
   4 O :   -0.318014
   5 H :    0.095006
   6 H :    0.113101
   7 H :    0.119640
   8 H :    0.113957
   9 H :    0.120603
  10 H :    0.107957
  11 H :    0.101252
  12 C :   -0.036346
  13 H :    0.094610
  14 H :    0.127378
  15 O :   -0.332371
  16 C :    0.003692
  17 C :    0.031087
  18 C :   -0.239898
  19 C :   -0.038327
  20 O :   -0.326670
  21 H :    0.114622
  22 O :   -0.415137
  23 H :    0.116987
  24 H :    0.128738
  25 H :    0.115442
  26 H :    0.107168
  27 H :    0.103332
  28 H :    0.283812

  Mayer bond orders larger than 0.100000
B(  0-C ,  1-C ) :   0.9394 B(  0-C ,  4-O ) :   0.9184 B(  0-C ,  5-H ) :   0.9095
B(  0-C , 15-O ) :   0.8420 B(  1-C ,  2-C ) :   0.9562 B(  1-C ,  6-H ) :   0.9363
B(  1-C ,  7-H ) :   0.9372 B(  2-C ,  3-C ) :   0.9538 B(  2-C ,  8-H ) :   0.9450
B(  2-C ,  9-H ) :   0.9430 B(  3-C ,  4-O ) :   0.8388 B(  3-C , 10-H ) :   0.9348
B(  3-C , 11-H ) :   0.9399 B( 12-C , 13-H ) :   0.9237 B( 12-C , 14-H ) :   0.9336
B( 12-C , 15-O ) :   0.8510 B( 12-C , 16-C ) :   0.8753 B( 16-C , 17-C ) :   0.9110
B( 16-C , 20-O ) :   0.8253 B( 16-C , 21-H ) :   0.9245 B( 17-C , 18-C ) :   0.9121
B( 17-C , 22-O ) :   0.8804 B( 17-C , 23-H ) :   0.9193 B( 18-C , 19-C ) :   0.9399
B( 18-C , 24-H ) :   0.9368 B( 18-C , 25-H ) :   0.9316 B( 19-C , 20-O ) :   0.8385
B( 19-C , 26-H ) :   0.9345 B( 19-C , 27-H ) :   0.9382 B( 22-O , 28-H ) :   0.7923

FINAL SINGLE POINT ENERGY      -652.855275557210

DIPOLE MOMENT
-------------
                                X             Y             Z
Electronic contribution:     -2.62349      -0.82188      -1.40592
Nuclear contribution   :      2.88284       0.74246       1.24501
                        -----------------------------------------
Total Dipole Moment    :      0.25935      -0.07943      -0.16091
                        -----------------------------------------
Magnitude (a.u.)       :      0.31538
Magnitude (Debye)      :      0.80163

Rotational constants in cm-1:     0.056907     0.013202     0.012524
Rotational constants in MHz :  1706.029432   395.788694   375.451283

                             ****ORCA TERMINATED NORMALLY****
TOTAL RUN TIME: 0 days 0 hours 33 minutes 53 seconds 121 msec
