                         Program Version 4.2.0 -  RELEASE  -
|  1> # Test redundant internal optimization
|  2> #
|  3> ! RKS B3LYP  Opt TightSCF SmallPrint
|  4>
|  5> %basis
|  6>         Basis "6-31G"
|  7> end
|  8>
|  9> %geom
| 10> Constraints
| 11> { D 4  0  15  12  15.0   C } # D for Dihedral angle
| 12> { D 0  15  12  16  135.0   C } # D for Dihedral angle
| 13> { D 0  4  3  2   C } # D for Dihedral angle
| 14> { D 4  3  2  1   C } # D for Dihedral angle
| 15> { D 3  2  1  0   C } # D for Dihedral angle
| 16> { D 2  1  0  4   C } # D for Dihedral angle
| 17> { D 1  0  4  3   C } # D for Dihedral angle
| 18> { D 16  20  19  18   C } # D for Dihedral angle
| 19> { D 20  19  18  17   C } # D for Dihedral angle
| 20> { D 19  18  17  16   C } # D for Dihedral angle
| 21> { D 18  17  16  20   C } # D for Dihedral angle
| 22> { D 17  16  20  19   C } # D for Dihedral angle
| 23> { D 15  12  16  20   C } # D for Dihedral angle
| 24> end
| 25> end
| 26>
| 27>
| 28> #%pal
| 29> #nprocs 8
| 30> #end
| 31>
| 32> * xyz 0 1
| 33> C  -21.048   26.222   46.251
| 34> C  -20.361   27.558   45.944
| 35> C  -20.329   28.222   47.341
| 36> C  -20.110   27.022   48.296
| 37> O  -20.473   25.807   47.535
| 38> H  -20.833   25.428   45.533
| 39> H  -19.344   27.382   45.576
| 40> H  -20.898   28.157   45.201
| 41> H  -19.543   28.978   47.434
| 42> H  -21.289   28.710   47.548
| 43> H  -20.733   27.082   49.195
| 44> H  -19.064   26.913   48.597
| 45> C  -23.128   26.462   47.829
| 46> H  -23.606   25.508   48.082
| 47> H  -22.307   26.632   48.537
| 48> O  -22.586   26.394   46.375
| 49> C  -24.168   27.599   48.030
| 50> C  -25.432   27.349   47.199
| 51> C  -26.176   26.305   48.065
| 52> C  -25.831   26.740   49.512
| 53> O  -24.646   27.618   49.417
| 54> H  -23.687   28.561   47.844
| 55> O  -26.260   28.658   47.084
| 56> H  -25.218   26.988   46.187
| 57> H  -27.254   26.291   47.880
| 58> H  -25.787   25.301   47.860
| 59> H  -25.597   25.889   50.161
| 60> H  -26.631   27.326   49.973
| 61> H  -26.488   29.040   48.087
| 62> *
| 63>
| 64>                          ****END OF INPUT****
 Total Charge           Charge          ....    0
 Multiplicity           Mult            ....    1
 Number of Electrons    NEL             ....  102
FINAL SINGLE POINT ENERGY      -652.830483184147
FINAL SINGLE POINT ENERGY      -652.854092245050
FINAL SINGLE POINT ENERGY      -652.857735442815
FINAL SINGLE POINT ENERGY      -652.860473775632
FINAL SINGLE POINT ENERGY      -652.860653451032
FINAL SINGLE POINT ENERGY      -652.860690642032
                    ***********************HURRAY********************

CARTESIAN COORDINATES (ANGSTROEM)
---------------------------------
  C    -21.166477   26.278951   46.386782
  C    -20.549980   27.618337   45.975926
  C    -20.249205   28.266512   47.351084
  C    -19.853820   27.055907   48.227211
  O    -20.370251   25.854500   47.511956
  H    -21.075461   25.496608   45.630421
  H    -19.624133   27.431747   45.419521
  H    -21.226865   28.209658   45.355560
  H    -19.453313   29.015544   47.298960
  H    -21.146084   28.758281   47.742982
  H    -20.283242   27.084458   49.232551
  H    -18.770333   26.926110   48.305466
  C    -23.127905   26.395448   47.998525
  H    -23.575258   25.416289   48.212983
  H    -22.351511   26.569518   48.745025
  O    -22.596833   26.383671   46.643642
  C    -24.174322   27.505541   48.083705
  C    -25.395146   27.319069   47.172134
  C    -26.243928   26.313510   47.987966
  C    -25.972698   26.728075   49.456353
  O    -24.735498   27.549640   49.439507
  H    -23.699270   28.474408   47.899943
  O    -26.092969   28.582129   46.978318
  H    -25.131613   26.969391   46.175540
  H    -27.299184   26.382758   47.713217
  H    -25.905318   25.289396   47.795517
  H    -25.820211   25.870884   50.119178
  H    -26.769179   27.353406   49.872207
  H    -26.166996   29.042257   47.840822

 Multiplicity           Mult            ....    1
 Number of Electrons    NEL             ....  102
 Basis Dimension        Dim             ....  149

ORBITAL ENERGIES
----------------

  NO   OCC          E(Eh)            E(eV)
   0   2.0000     -19.152734      -521.1724
   1   2.0000     -19.144289      -520.9426
   2   2.0000     -19.140589      -520.8419
   3   2.0000     -19.133544      -520.6502
   4   2.0000     -10.281765      -279.7810
   5   2.0000     -10.235083      -278.5108
   6   2.0000     -10.233385      -278.4646
   7   2.0000     -10.231336      -278.4088
   8   2.0000     -10.231081      -278.4019
   9   2.0000     -10.228730      -278.3379
  10   2.0000     -10.194371      -277.4029
  11   2.0000     -10.187825      -277.2248
  12   2.0000     -10.185829      -277.1705
  13   2.0000      -1.056375       -28.7454
  14   2.0000      -1.034739       -28.1567
  15   2.0000      -1.002765       -27.2866
  16   2.0000      -0.995365       -27.0852
  17   2.0000      -0.792630       -21.5686
  18   2.0000      -0.779742       -21.2179
  19   2.0000      -0.769205       -20.9311
  20   2.0000      -0.734049       -19.9745
  21   2.0000      -0.674090       -18.3429
  22   2.0000      -0.606389       -16.5007
  23   2.0000      -0.602824       -16.4037
  24   2.0000      -0.595547       -16.2057
  25   2.0000      -0.575998       -15.6737
  26   2.0000      -0.526645       -14.3307
  27   2.0000      -0.510658       -13.8957
  28   2.0000      -0.501893       -13.6572
  29   2.0000      -0.493067       -13.4170
  30   2.0000      -0.473953       -12.8969
  31   2.0000      -0.457445       -12.4477
  32   2.0000      -0.448082       -12.1929
  33   2.0000      -0.437512       -11.9053
  34   2.0000      -0.423150       -11.5145
  35   2.0000      -0.418426       -11.3860
  36   2.0000      -0.402191       -10.9442
  37   2.0000      -0.390774       -10.6335
  38   2.0000      -0.378431       -10.2976
  39   2.0000      -0.365825        -9.9546
  40   2.0000      -0.362982        -9.8772
  41   2.0000      -0.355027        -9.6608
  42   2.0000      -0.352245        -9.5851
  43   2.0000      -0.340654        -9.2697
  44   2.0000      -0.323989        -8.8162
  45   2.0000      -0.313383        -8.5276
  46   2.0000      -0.301819        -8.2129
  47   2.0000      -0.271861        -7.3977
  48   2.0000      -0.266990        -7.2652
  49   2.0000      -0.255639        -6.9563
  50   2.0000      -0.239930        -6.5288
  51   0.0000       0.065453         1.7811
  52   0.0000       0.066666         1.8141
  53   0.0000       0.090645         2.4666
  54   0.0000       0.097078         2.6416
  55   0.0000       0.100717         2.7406

MULLIKEN ATOMIC CHARGES
-----------------------
   0 C :    0.304246
   1 C :   -0.259952
   2 C :   -0.313844
   3 C :   -0.027548
   4 O :   -0.508683
   5 H :    0.160986
   6 H :    0.147500
   7 H :    0.160886
   8 H :    0.151301
   9 H :    0.155877
  10 H :    0.151730
  11 H :    0.154251
  12 C :   -0.002565
  13 H :    0.135561
  14 H :    0.158167
  15 O :   -0.547151
  16 C :    0.057434
  17 C :    0.092649
  18 C :   -0.296791
  19 C :   -0.036294
  20 O :   -0.529382
  21 H :    0.155534
  22 O :   -0.605939
  23 H :    0.176227
  24 H :    0.161716
  25 H :    0.146773
  26 H :    0.149735
  27 H :    0.146602
  28 H :    0.360972
Sum of atomic charges:    0.0000000

LOEWDIN ATOMIC CHARGES
----------------------
   0 C :    0.184421
   1 C :   -0.223979
   2 C :   -0.221473
   3 C :   -0.035703
   4 O :   -0.316827
   5 H :    0.108175
   6 H :    0.115594
   7 H :    0.125478
   8 H :    0.119531
   9 H :    0.112988
  10 H :    0.103838
  11 H :    0.108183
  12 C :   -0.034351
  13 H :    0.098201
  14 H :    0.112187
  15 O :   -0.344309
  16 C :    0.012496
  17 C :    0.038274
  18 C :   -0.240398
  19 C :   -0.039595
  20 O :   -0.333840
  21 H :    0.110349
  22 O :   -0.416789
  23 H :    0.128357
  24 H :    0.126519
  25 H :    0.115008
  26 H :    0.105101
  27 H :    0.102244
  28 H :    0.280318

  Mayer bond orders larger than 0.100000
B(  0-C ,  1-C ) :   0.9238 B(  0-C ,  4-O ) :   0.9182 B(  0-C ,  5-H ) :   0.9326
B(  0-C , 15-O ) :   0.8451 B(  1-C ,  2-C ) :   0.9534 B(  1-C ,  6-H ) :   0.9343
B(  1-C ,  7-H ) :   0.9359 B(  2-C ,  3-C ) :   0.9509 B(  2-C ,  8-H ) :   0.9442
B(  2-C ,  9-H ) :   0.9412 B(  3-C ,  4-O ) :   0.8295 B(  3-C , 10-H ) :   0.9281
B(  3-C , 11-H ) :   0.9394 B( 12-C , 13-H ) :   0.9305 B( 12-C , 14-H ) :   0.9101
B( 12-C , 15-O ) :   0.8172 B( 12-C , 16-C ) :   0.8924 B( 16-C , 17-C ) :   0.9129
B( 16-C , 20-O ) :   0.8421 B( 16-C , 21-H ) :   0.9238 B( 17-C , 18-C ) :   0.9139
B( 17-C , 22-O ) :   0.8862 B( 17-C , 23-H ) :   0.9242 B( 18-C , 19-C ) :   0.9421
B( 18-C , 24-H ) :   0.9380 B( 18-C , 25-H ) :   0.9339 B( 19-C , 20-O ) :   0.8431
B( 19-C , 26-H ) :   0.9348 B( 19-C , 27-H ) :   0.9376 B( 22-O , 28-H ) :   0.7972

FINAL SINGLE POINT ENERGY      -652.860695239620

DIPOLE MOMENT
-------------
                                X             Y             Z
Electronic contribution:     -1.35258      -0.91619      -0.71236
Nuclear contribution   :      1.76166       1.03292       1.05898
                        -----------------------------------------
Total Dipole Moment    :      0.40908       0.11674       0.34662
                        -----------------------------------------
Magnitude (a.u.)       :      0.54875
Magnitude (Debye)      :      1.39480

Rotational constants in cm-1:     0.054198     0.013517     0.012940
Rotational constants in MHz :  1624.802898   405.219991   387.937979

                             ****ORCA TERMINATED NORMALLY****
TOTAL RUN TIME: 0 days 0 hours 29 minutes 13 seconds 745 msec
