                         Program Version 4.2.0 -  RELEASE  -
|  1> # Test redundant internal optimization
|  2> #
|  3> ! RKS B3LYP  Opt TightSCF SmallPrint
|  4>
|  5> %basis
|  6>         Basis "6-31G"
|  7> end
|  8>
|  9> %geom
| 10> Constraints
| 11> { D 4  0  15  12  210.0   C } # D for Dihedral angle
| 12> { D 0  15  12  16  75.0   C } # D for Dihedral angle
| 13> { D 0  4  3  2   C } # D for Dihedral angle
| 14> { D 4  3  2  1   C } # D for Dihedral angle
| 15> { D 3  2  1  0   C } # D for Dihedral angle
| 16> { D 2  1  0  4   C } # D for Dihedral angle
| 17> { D 1  0  4  3   C } # D for Dihedral angle
| 18> { D 16  20  19  18   C } # D for Dihedral angle
| 19> { D 20  19  18  17   C } # D for Dihedral angle
| 20> { D 19  18  17  16   C } # D for Dihedral angle
| 21> { D 18  17  16  20   C } # D for Dihedral angle
| 22> { D 17  16  20  19   C } # D for Dihedral angle
| 23> { D 15  12  16  20   C } # D for Dihedral angle
| 24> end
| 25> end
| 26>
| 27>
| 28> #%pal
| 29> #nprocs 8
| 30> #end
| 31>
| 32> * xyz 0 1
| 33> C  -21.048   26.222   46.251
| 34> C  -20.361   27.558   45.944
| 35> C  -20.329   28.222   47.341
| 36> C  -20.110   27.022   48.296
| 37> O  -20.473   25.807   47.535
| 38> H  -20.833   25.428   45.533
| 39> H  -19.344   27.382   45.576
| 40> H  -20.898   28.157   45.201
| 41> H  -19.543   28.978   47.434
| 42> H  -21.289   28.710   47.548
| 43> H  -20.733   27.082   49.195
| 44> H  -19.064   26.913   48.597
| 45> C  -23.389   26.110   45.076
| 46> H  -24.402   26.518   45.181
| 47> H  -22.911   26.596   44.215
| 48> O  -22.586   26.394   46.375
| 49> C  -23.503   24.593   44.760
| 50> C  -24.199   24.356   43.415
| 51> C  -23.053   24.636   42.414
| 52> C  -21.801   24.106   43.157
| 53> O  -22.171   24.005   44.585
| 54> H  -23.970   24.085   45.606
| 55> H  -24.531   23.314   43.341
| 56> O  -25.430   25.278   43.194
| 57> H  -23.204   24.144   41.448
| 58> H  -22.967   25.714   42.233
| 59> H  -20.939   24.775   43.057
| 60> H  -21.512   23.104   42.827
| 61> H  -25.122   26.327   43.262
| 62> *
| 63>
| 64>                          ****END OF INPUT****
 Total Charge           Charge          ....    0
 Multiplicity           Mult            ....    1
 Number of Electrons    NEL             ....  102
FINAL SINGLE POINT ENERGY      -652.827491350507
FINAL SINGLE POINT ENERGY      -652.850530052136
FINAL SINGLE POINT ENERGY      -652.855328521324
FINAL SINGLE POINT ENERGY      -652.856064667213
FINAL SINGLE POINT ENERGY      -652.856186643396
FINAL SINGLE POINT ENERGY      -652.856211882198
FINAL SINGLE POINT ENERGY      -652.856214956530
                    ***********************HURRAY********************

CARTESIAN COORDINATES (ANGSTROEM)
---------------------------------
  C    -20.969439   26.240930   46.206016
  C    -20.315802   27.603627   45.986130
  C    -20.409937   28.235812   47.395612
  C    -20.216458   27.022530   48.329580
  O    -20.483959   25.824738   47.491665
  H    -20.728802   25.452570   45.495522
  H    -19.269438   27.462892   45.688448
  H    -20.818207   28.197886   45.216834
  H    -19.659952   29.015366   47.560000
  H    -21.403348   28.672311   47.534611
  H    -20.905696   27.017525   49.177682
  H    -19.189583   26.926111   48.695364
  C    -23.220668   26.159076   45.115425
  H    -24.207119   26.569094   45.351849
  H    -22.808869   26.726710   44.262286
  O    -22.424094   26.397788   46.302433
  C    -23.382659   24.678891   44.755829
  C    -24.210060   24.425347   43.482052
  C    -23.134700   24.588120   42.365353
  C    -21.862755   24.014166   43.027918
  O    -22.111925   24.000504   44.495002
  H    -23.805439   24.170070   45.626880
  H    -24.593758   23.403221   43.497104
  O    -25.386045   25.254379   43.327094
  H    -23.409361   24.063504   41.446890
  H    -23.016004   25.652435   42.124044
  H    -20.968384   24.611593   42.824128
  H    -21.669308   22.980129   42.730422
  H    -25.133233   26.168677   43.084826

 Multiplicity           Mult            ....    1
 Number of Electrons    NEL             ....  102
 Basis Dimension        Dim             ....  149

ORBITAL ENERGIES
----------------

  NO   OCC          E(Eh)            E(eV)
   0   2.0000     -19.154012      -521.2072
   1   2.0000     -19.147322      -521.0251
   2   2.0000     -19.132960      -520.6343
   3   2.0000     -19.129810      -520.5486
   4   2.0000     -10.264085      -279.3000
   5   2.0000     -10.249908      -278.9142
   6   2.0000     -10.237810      -278.5850
   7   2.0000     -10.233303      -278.4623
   8   2.0000     -10.232804      -278.4488
   9   2.0000     -10.216339      -278.0007
  10   2.0000     -10.201119      -277.5866
  11   2.0000     -10.179579      -277.0004
  12   2.0000     -10.179102      -276.9875
  13   2.0000      -1.044781       -28.4299
  14   2.0000      -1.036844       -28.2140
  15   2.0000      -1.021774       -27.8039
  16   2.0000      -0.985021       -26.8038
  17   2.0000      -0.788596       -21.4588
  18   2.0000      -0.779580       -21.2134
  19   2.0000      -0.767295       -20.8792
  20   2.0000      -0.726920       -19.7805
  21   2.0000      -0.681404       -18.5419
  22   2.0000      -0.617689       -16.8082
  23   2.0000      -0.596627       -16.2351
  24   2.0000      -0.589326       -16.0364
  25   2.0000      -0.569885       -15.5074
  26   2.0000      -0.533154       -14.5079
  27   2.0000      -0.508925       -13.8486
  28   2.0000      -0.499229       -13.5847
  29   2.0000      -0.483530       -13.1575
  30   2.0000      -0.468890       -12.7591
  31   2.0000      -0.455652       -12.3989
  32   2.0000      -0.443439       -12.0666
  33   2.0000      -0.438112       -11.9216
  34   2.0000      -0.430278       -11.7085
  35   2.0000      -0.420689       -11.4475
  36   2.0000      -0.405964       -11.0468
  37   2.0000      -0.392546       -10.6817
  38   2.0000      -0.385641       -10.4938
  39   2.0000      -0.367889       -10.0108
  40   2.0000      -0.359883        -9.7929
  41   2.0000      -0.349539        -9.5114
  42   2.0000      -0.346073        -9.4171
  43   2.0000      -0.333754        -9.0819
  44   2.0000      -0.321300        -8.7430
  45   2.0000      -0.302835        -8.2406
  46   2.0000      -0.300932        -8.1888
  47   2.0000      -0.276244        -7.5170
  48   2.0000      -0.267079        -7.2676
  49   2.0000      -0.250812        -6.8249
  50   2.0000      -0.229341        -6.2407
  51   0.0000       0.046008         1.2519
  52   0.0000       0.067723         1.8428
  53   0.0000       0.086825         2.3626
  54   0.0000       0.098531         2.6812
  55   0.0000       0.101303         2.7566

MULLIKEN ATOMIC CHARGES
-----------------------
   0 C :    0.274250
   1 C :   -0.262069
   2 C :   -0.297793
   3 C :   -0.000200
   4 O :   -0.500250
   5 H :    0.182789
   6 H :    0.140349
   7 H :    0.134347
   8 H :    0.137087
   9 H :    0.159365
  10 H :    0.151217
  11 H :    0.137591
  12 C :   -0.034333
  13 H :    0.159507
  14 H :    0.104215
  15 O :   -0.512826
  16 C :    0.096601
  17 C :    0.085278
  18 C :   -0.319890
  19 C :   -0.013381
  20 O :   -0.511602
  21 H :    0.171117
  22 H :    0.171215
  23 O :   -0.598065
  24 H :    0.159756
  25 H :    0.133291
  26 H :    0.140086
  27 H :    0.155883
  28 H :    0.356464
Sum of atomic charges:    0.0000000

LOEWDIN ATOMIC CHARGES
----------------------
   0 C :    0.171918
   1 C :   -0.228420
   2 C :   -0.217364
   3 C :   -0.026716
   4 O :   -0.303163
   5 H :    0.117736
   6 H :    0.110891
   7 H :    0.110357
   8 H :    0.111665
   9 H :    0.117874
  10 H :    0.107702
  11 H :    0.100180
  12 C :   -0.051779
  13 H :    0.120068
  14 H :    0.077904
  15 O :   -0.331010
  16 C :    0.009600
  17 C :    0.036210
  18 C :   -0.240681
  19 C :   -0.031519
  20 O :   -0.317303
  21 H :    0.123098
  22 H :    0.121184
  23 O :   -0.404874
  24 H :    0.124071
  25 H :    0.104107
  26 H :    0.100491
  27 H :    0.109532
  28 H :    0.278240

  Mayer bond orders larger than 0.100000
B(  0-C ,  1-C ) :   0.9316 B(  0-C ,  4-O ) :   0.9314 B(  0-C ,  5-H ) :   0.8976
B(  0-C , 15-O ) :   0.8108 B(  1-C ,  2-C ) :   0.9530 B(  1-C ,  6-H ) :   0.9360
B(  1-C ,  7-H ) :   0.9387 B(  2-C ,  3-C ) :   0.9562 B(  2-C ,  8-H ) :   0.9456
B(  2-C ,  9-H ) :   0.9439 B(  3-C ,  4-O ) :   0.8415 B(  3-C , 10-H ) :   0.9346
B(  3-C , 11-H ) :   0.9400 B( 12-C , 13-H ) :   0.9224 B( 12-C , 14-H ) :   0.9191
B( 12-C , 15-O ) :   0.8825 B( 12-C , 16-C ) :   0.8903 B( 16-C , 17-C ) :   0.8678
B( 16-C , 20-O ) :   0.8503 B( 16-C , 21-H ) :   0.9275 B( 17-C , 18-C ) :   0.9223
B( 17-C , 22-H ) :   0.9320 B( 17-C , 23-O ) :   0.8996 B( 18-C , 19-C ) :   0.9405
B( 18-C , 24-H ) :   0.9418 B( 18-C , 25-H ) :   0.9405 B( 19-C , 20-O ) :   0.8415
B( 19-C , 26-H ) :   0.9320 B( 19-C , 27-H ) :   0.9378 B( 23-O , 28-H ) :   0.7980

FINAL SINGLE POINT ENERGY      -652.856205714981

DIPOLE MOMENT
-------------
                                X             Y             Z
Electronic contribution:     -2.75254      -4.12500       1.96225
Nuclear contribution   :      3.13410       5.12068      -3.37475
                        -----------------------------------------
Total Dipole Moment    :      0.38156       0.99568      -1.41251
                        -----------------------------------------
Magnitude (a.u.)       :      1.76979
Magnitude (Debye)      :      4.49844

Rotational constants in cm-1:     0.058968     0.013031     0.012213
Rotational constants in MHz :  1767.829171   390.648266   366.130424

                             ****ORCA TERMINATED NORMALLY****
TOTAL RUN TIME: 0 days 2 hours 8 minutes 45 seconds 139 msec
