                         Program Version 4.2.0 -  RELEASE  -
|  1> # Test redundant internal optimization
|  2> #
|  3> ! RKS B3LYP  Opt TightSCF SmallPrint
|  4>
|  5> %basis
|  6>         Basis "6-31G"
|  7> end
|  8>
|  9> %geom
| 10> Constraints
| 11> { D 4  0  15  12  225.0   C } # D for Dihedral angle
| 12> { D 0  15  12  16  165.0   C } # D for Dihedral angle
| 13> { D 0  4  3  2   C } # D for Dihedral angle
| 14> { D 4  3  2  1   C } # D for Dihedral angle
| 15> { D 3  2  1  0   C } # D for Dihedral angle
| 16> { D 2  1  0  4   C } # D for Dihedral angle
| 17> { D 1  0  4  3   C } # D for Dihedral angle
| 18> { D 16  20  19  18   C } # D for Dihedral angle
| 19> { D 20  19  18  17   C } # D for Dihedral angle
| 20> { D 19  18  17  16   C } # D for Dihedral angle
| 21> { D 18  17  16  20   C } # D for Dihedral angle
| 22> { D 17  16  20  19   C } # D for Dihedral angle
| 23> { D 15  12  16  20   C } # D for Dihedral angle
| 24> end
| 25> end
| 26>
| 27>
| 28> #%pal
| 29> #nprocs 8
| 30> #end
| 31>
| 32> * xyz 0 1
| 33> C  -21.048   26.222   46.251
| 34> C  -20.361   27.558   45.944
| 35> C  -20.329   28.222   47.341
| 36> C  -20.110   27.022   48.296
| 37> O  -20.473   25.807   47.535
| 38> H  -20.833   25.428   45.533
| 39> H  -19.344   27.382   45.576
| 40> H  -20.898   28.157   45.201
| 41> H  -19.543   28.978   47.434
| 42> H  -21.289   28.710   47.548
| 43> H  -20.733   27.082   49.195
| 44> H  -19.064   26.913   48.597
| 45> C  -23.415   25.773   45.218
| 46> H  -23.319   26.403   44.325
| 47> H  -23.041   24.771   44.972
| 48> O  -22.586   26.394   46.375
| 49> C  -24.925   25.642   45.564
| 50> C  -25.133   24.846   46.857
| 51> C  -24.820   25.912   47.935
| 52> C  -25.359   27.220   47.303
| 53> O  -25.500   26.960   45.853
| 54> H  -25.457   25.244   44.698
| 55> O  -26.609   24.378   46.962
| 56> H  -24.485   23.966   46.931
| 57> H  -25.288   25.691   48.899
| 58> H  -23.738   25.979   48.096
| 59> H  -24.683   28.068   47.452
| 60> H  -26.351   27.488   47.679
| 61> H  -27.277   25.243   46.892
| 62> *
| 63>
| 64>                          ****END OF INPUT****
 Total Charge           Charge          ....    0
 Multiplicity           Mult            ....    1
 Number of Electrons    NEL             ....  102
FINAL SINGLE POINT ENERGY      -652.836447759261
FINAL SINGLE POINT ENERGY      -652.858842623799
FINAL SINGLE POINT ENERGY      -652.862668180792
FINAL SINGLE POINT ENERGY      -652.863676455943
FINAL SINGLE POINT ENERGY      -652.863794253973
FINAL SINGLE POINT ENERGY      -652.863809545587
                    ***********************HURRAY********************

CARTESIAN COORDINATES (ANGSTROEM)
---------------------------------
  C    -21.086677   26.195141   46.193710
  C    -20.405599   27.530188   45.897778
  C    -20.424364   28.212015   47.285852
  C    -20.225584   27.028640   48.257367
  O    -20.559742   25.807326   47.475910
  H    -20.859229   25.384727   45.493640
  H    -19.377126   27.349216   45.563579
  H    -20.929578   28.104906   45.129826
  H    -19.646411   28.973946   47.391807
  H    -21.397102   28.686198   47.447817
  H    -20.878551   27.073214   49.132349
  H    -19.187998   26.915373   48.584619
  C    -23.326227   25.781555   45.232391
  H    -23.251405   26.399116   44.327061
  H    -22.964111   24.768664   44.995866
  O    -22.525115   26.366183   46.296395
  C    -24.793334   25.710099   45.646818
  C    -25.119617   24.881839   46.897365
  C    -24.848305   25.903820   48.033598
  C    -25.297711   27.247334   47.407862
  O    -25.342759   27.034470   45.940450
  H    -25.353788   25.322186   44.787505
  O    -26.506271   24.438023   46.865131
  H    -24.529017   23.969954   46.987204
  H    -25.413818   25.641858   48.932081
  H    -23.781103   25.918343   48.257621
  H    -24.596800   28.059005   47.619924
  H    -26.303001   27.549466   47.719173
  H    -27.080655   25.206196   46.661302

 Multiplicity           Mult            ....    1
 Number of Electrons    NEL             ....  102
 Basis Dimension        Dim             ....  149

ORBITAL ENERGIES
----------------

  NO   OCC          E(Eh)            E(eV)
   0   2.0000     -19.147755      -521.0369
   1   2.0000     -19.144389      -520.9453
   2   2.0000     -19.136120      -520.7203
   3   2.0000     -19.131665      -520.5991
   4   2.0000     -10.284725      -279.8616
   5   2.0000     -10.236758      -278.5564
   6   2.0000     -10.233290      -278.4620
   7   2.0000     -10.233147      -278.4581
   8   2.0000     -10.228699      -278.3370
   9   2.0000     -10.220418      -278.1117
  10   2.0000     -10.189174      -277.2615
  11   2.0000     -10.188984      -277.2564
  12   2.0000     -10.171675      -276.7853
  13   2.0000      -1.058057       -28.7912
  14   2.0000      -1.030206       -28.0333
  15   2.0000      -1.003099       -27.2957
  16   2.0000      -0.995168       -27.0799
  17   2.0000      -0.790979       -21.5236
  18   2.0000      -0.775690       -21.1076
  19   2.0000      -0.761790       -20.7294
  20   2.0000      -0.733395       -19.9567
  21   2.0000      -0.674206       -18.3461
  22   2.0000      -0.602771       -16.4022
  23   2.0000      -0.598077       -16.2745
  24   2.0000      -0.593102       -16.1391
  25   2.0000      -0.579451       -15.7677
  26   2.0000      -0.527574       -14.3560
  27   2.0000      -0.502388       -13.6707
  28   2.0000      -0.499776       -13.5996
  29   2.0000      -0.486503       -13.2384
  30   2.0000      -0.475391       -12.9361
  31   2.0000      -0.454985       -12.3808
  32   2.0000      -0.447214       -12.1693
  33   2.0000      -0.441599       -12.0165
  34   2.0000      -0.422559       -11.4984
  35   2.0000      -0.411491       -11.1972
  36   2.0000      -0.403765       -10.9870
  37   2.0000      -0.384500       -10.4628
  38   2.0000      -0.372600       -10.1390
  39   2.0000      -0.367342        -9.9959
  40   2.0000      -0.359921        -9.7939
  41   2.0000      -0.356425        -9.6988
  42   2.0000      -0.352338        -9.5876
  43   2.0000      -0.326094        -8.8735
  44   2.0000      -0.318623        -8.6702
  45   2.0000      -0.312065        -8.4917
  46   2.0000      -0.300040        -8.1645
  47   2.0000      -0.269783        -7.3412
  48   2.0000      -0.263846        -7.1796
  49   2.0000      -0.253160        -6.8888
  50   2.0000      -0.240361        -6.5405
  51   0.0000       0.065478         1.7817
  52   0.0000       0.082746         2.2516
  53   0.0000       0.089228         2.4280
  54   0.0000       0.102336         2.7847
  55   0.0000       0.108027         2.9396

MULLIKEN ATOMIC CHARGES
-----------------------
   0 C :    0.290865
   1 C :   -0.254914
   2 C :   -0.303227
   3 C :   -0.003544
   4 O :   -0.504494
   5 H :    0.142030
   6 H :    0.144255
   7 H :    0.151021
   8 H :    0.144081
   9 H :    0.163274
  10 H :    0.150075
  11 H :    0.143812
  12 C :    0.007656
  13 H :    0.143320
  14 H :    0.126125
  15 O :   -0.521923
  16 C :    0.063887
  17 C :    0.076826
  18 C :   -0.286822
  19 C :   -0.018404
  20 O :   -0.528032
  21 H :    0.154547
  22 O :   -0.603327
  23 H :    0.153169
  24 H :    0.144258
  25 H :    0.182680
  26 H :    0.147913
  27 H :    0.133542
  28 H :    0.361351
Sum of atomic charges:   -0.0000000

LOEWDIN ATOMIC CHARGES
----------------------
   0 C :    0.177528
   1 C :   -0.222959
   2 C :   -0.216953
   3 C :   -0.026899
   4 O :   -0.313134
   5 H :    0.098854
   6 H :    0.113553
   7 H :    0.120151
   8 H :    0.115456
   9 H :    0.118949
  10 H :    0.106687
  11 H :    0.103444
  12 C :   -0.035647
  13 H :    0.100981
  14 H :    0.095617
  15 O :   -0.333007
  16 C :    0.014651
  17 C :    0.040178
  18 C :   -0.241963
  19 C :   -0.032529
  20 O :   -0.331358
  21 H :    0.115623
  22 O :   -0.417369
  23 H :    0.117134
  24 H :    0.116781
  25 H :    0.134218
  26 H :    0.105697
  27 H :    0.095352
  28 H :    0.280963

  Mayer bond orders larger than 0.100000
B(  0-C ,  1-C ) :   0.9382 B(  0-C ,  4-O ) :   0.9305 B(  0-C ,  5-H ) :   0.9186
B(  0-C , 15-O ) :   0.8314 B(  1-C ,  2-C ) :   0.9552 B(  1-C ,  6-H ) :   0.9351
B(  1-C ,  7-H ) :   0.9373 B(  2-C ,  3-C ) :   0.9547 B(  2-C ,  8-H ) :   0.9448
B(  2-C ,  9-H ) :   0.9430 B(  3-C ,  4-O ) :   0.8364 B(  3-C , 10-H ) :   0.9346
B(  3-C , 11-H ) :   0.9396 B( 12-C , 13-H ) :   0.9168 B( 12-C , 14-H ) :   0.9070
B( 12-C , 15-O ) :   0.8423 B( 12-C , 16-C ) :   0.9126 B( 16-C , 17-C ) :   0.9087
B( 16-C , 20-O ) :   0.8742 B( 16-C , 21-H ) :   0.9218 B( 17-C , 18-C ) :   0.9251
B( 17-C , 22-O ) :   0.8889 B( 17-C , 23-H ) :   0.9352 B( 18-C , 19-C ) :   0.9464
B( 18-C , 24-H ) :   0.9378 B( 18-C , 25-H ) :   0.9150 B( 19-C , 20-O ) :   0.8376
B( 19-C , 26-H ) :   0.9343 B( 19-C , 27-H ) :   0.9379 B( 22-O , 28-H ) :   0.7966

FINAL SINGLE POINT ENERGY      -652.863809762244

DIPOLE MOMENT
-------------
                                X             Y             Z
Electronic contribution:     -3.49766      -3.32751      -1.52196
Nuclear contribution   :      4.39973       4.12344       1.32004
                        -----------------------------------------
Total Dipole Moment    :      0.90207       0.79594      -0.20192
                        -----------------------------------------
Magnitude (a.u.)       :      1.21984
Magnitude (Debye)      :      3.10059

Rotational constants in cm-1:     0.053833     0.014124     0.013877
Rotational constants in MHz :  1613.863061   423.414097   416.027023

                             ****ORCA TERMINATED NORMALLY****
TOTAL RUN TIME: 0 days 0 hours 36 minutes 45 seconds 610 msec
