                         Program Version 4.2.1 -  RELEASE  -
|  1> # Test redundant internal optimization
|  2> #
|  3> ! RKS B3LYP  Opt TightSCF SmallPrint
|  4>
|  5> %basis
|  6>         Basis "6-31G"
|  7> end
|  8>
|  9> %geom
| 10> Constraints
| 11> { D 4  0  19  14  225.0   C } # D for Dihedral angle
| 12> { D 0  19  14  12  0.0   C } # D for Dihedral angle
| 13> { D 0  4  3  2   C } # D for Dihedral angle
| 14> { D 4  3  2  1   C } # D for Dihedral angle
| 15> { D 3  2  1  0   C } # D for Dihedral angle
| 16> { D 2  1  0  4   C } # D for Dihedral angle
| 17> { D 1  0  4  3   C } # D for Dihedral angle
| 18> { D 14  15  16  17   C } # D for Dihedral angle
| 19> { D 15  16  17  12   C } # D for Dihedral angle
| 20> { D 16  17  12  14   C } # D for Dihedral angle
| 21> { D 17  12  14  15   C } # D for Dihedral angle
| 22> { D 12  14  15  16   C } # D for Dihedral angle
| 23> end
| 24> end
| 25>
| 26>
| 27> #%pal
| 28> #nprocs 8
| 29> #end
| 30>
| 31> * xyz 0 1
| 32> C  -21.048   26.222   46.251
| 33> C  -20.361   27.558   45.944
| 34> C  -20.329   28.222   47.341
| 35> C  -20.110   27.022   48.296
| 36> O  -20.473   25.807   47.535
| 37> H  -20.833   25.428   45.533
| 38> H  -19.344   27.382   45.576
| 39> H  -20.898   28.157   45.201
| 40> H  -19.543   28.978   47.434
| 41> H  -21.289   28.710   47.548
| 42> H  -20.733   27.082   49.195
| 43> H  -19.064   26.913   48.597
| 44> C  -22.270   25.149   44.276
| 45> H  -22.775   24.958   43.316
| 46> C  -23.222   25.800   45.287
| 47> C  -24.036   24.582   45.781
| 48> C  -22.995   23.435   45.774
| 49> O  -21.880   23.885   44.910
| 50> H  -21.353   25.710   44.092
| 51> O  -22.472   26.381   46.366
| 52> H  -23.851   26.580   44.844
| 53> H  -24.478   24.739   46.770
| 54> H  -24.853   24.365   45.081
| 55> H  -23.402   22.500   45.376
| 56> H  -22.576   23.245   46.767
| 57> *
| 58>
| 59>                          ****END OF INPUT****
 Total Charge           Charge          ....    0
 Multiplicity           Mult            ....    1
 Number of Electrons    NEL             ....   86
FINAL SINGLE POINT ENERGY      -538.408800618614
FINAL SINGLE POINT ENERGY      -538.427273463014
FINAL SINGLE POINT ENERGY      -538.428865270309
FINAL SINGLE POINT ENERGY      -538.429176355775
FINAL SINGLE POINT ENERGY      -538.429235738909
FINAL SINGLE POINT ENERGY      -538.429247619660
FINAL SINGLE POINT ENERGY      -538.429249418951
                    ***********************HURRAY********************

CARTESIAN COORDINATES (ANGSTROEM)
---------------------------------
  C    -20.848333   26.221634   46.242647
  C    -20.223417   27.596791   46.008118
  C    -20.388405   28.263604   47.395000
  C    -20.197546   27.081039   48.370382
  O    -20.398942   25.852763   47.562606
  H    -20.531138   25.419282   45.577337
  H    -19.162604   27.477946   45.755963
  H    -20.716903   28.149640   45.204627
  H    -19.666852   29.068007   47.565934
  H    -21.397855   28.675663   47.484600
  H    -20.917742   27.083803   49.193113
  H    -19.183261   27.026867   48.778038
  C    -22.441567   25.034613   44.090102
  H    -23.137298   24.889073   43.250702
  C    -23.159613   25.764162   45.227353
  C    -23.965132   24.618992   45.870167
  C    -23.036020   23.392947   45.719764
  O    -22.045627   23.751229   44.670766
  H    -21.541950   25.525458   43.714921
  O    -22.298899   26.333239   46.269920
  H    -23.791982   26.581176   44.865632
  H    -24.193417   24.856804   46.910279
  H    -24.906719   24.469806   45.327859
  H    -23.568924   22.489935   45.405725
  H    -22.467854   23.185527   46.629445

 Multiplicity           Mult            ....    1
 Number of Electrons    NEL             ....   86
 Basis Dimension        Dim             ....  127

ORBITAL ENERGIES
----------------

  NO   OCC          E(Eh)            E(eV)
   0   2.0000     -19.136515      -520.7311
   1   2.0000     -19.132743      -520.6284
   2   2.0000     -19.131366      -520.5909
   3   2.0000     -10.270264      -279.4681
   4   2.0000     -10.242702      -278.7181
   5   2.0000     -10.231217      -278.4056
   6   2.0000     -10.220957      -278.1264
   7   2.0000     -10.218275      -278.0534
   8   2.0000     -10.181855      -277.0624
   9   2.0000     -10.180313      -277.0204
  10   2.0000     -10.180076      -277.0140
  11   2.0000      -1.044824       -28.4311
  12   2.0000      -1.017679       -27.6924
  13   2.0000      -0.982163       -26.7260
  14   2.0000      -0.787432       -21.4271
  15   2.0000      -0.774291       -21.0695
  16   2.0000      -0.739773       -20.1302
  17   2.0000      -0.721170       -19.6240
  18   2.0000      -0.617827       -16.8119
  19   2.0000      -0.598058       -16.2740
  20   2.0000      -0.591065       -16.0837
  21   2.0000      -0.562206       -15.2984
  22   2.0000      -0.524711       -14.2781
  23   2.0000      -0.500765       -13.6265
  24   2.0000      -0.480867       -13.0850
  25   2.0000      -0.477306       -12.9882
  26   2.0000      -0.450545       -12.2600
  27   2.0000      -0.447578       -12.1792
  28   2.0000      -0.422050       -11.4846
  29   2.0000      -0.414613       -11.2822
  30   2.0000      -0.396841       -10.7986
  31   2.0000      -0.383750       -10.4424
  32   2.0000      -0.371038       -10.0965
  33   2.0000      -0.366786        -9.9807
  34   2.0000      -0.358065        -9.7434
  35   2.0000      -0.351226        -9.5574
  36   2.0000      -0.344186        -9.3658
  37   2.0000      -0.316256        -8.6058
  38   2.0000      -0.306409        -8.3378
  39   2.0000      -0.294078        -8.0023
  40   2.0000      -0.257537        -7.0080
  41   2.0000      -0.241540        -6.5726
  42   2.0000      -0.239318        -6.5122
  43   0.0000       0.079561         2.1650
  44   0.0000       0.097864         2.6630
  45   0.0000       0.103439         2.8147
  46   0.0000       0.108684         2.9574
  47   0.0000       0.117502         3.1974

MULLIKEN ATOMIC CHARGES
-----------------------
   0 C :    0.273106
   1 C :   -0.253127
   2 C :   -0.298864
   3 C :   -0.000928
   4 O :   -0.506202
   5 H :    0.179260
   6 H :    0.141863
   7 H :    0.137615
   8 H :    0.138165
   9 H :    0.159941
  10 H :    0.148184
  11 H :    0.138619
  12 C :   -0.046947
  13 H :    0.138061
  14 C :    0.094712
  15 C :   -0.280863
  16 C :   -0.009480
  17 O :   -0.522319
  18 H :    0.154983
  19 O :   -0.534727
  20 H :    0.138519
  21 H :    0.169694
  22 H :    0.134638
  23 H :    0.137622
  24 H :    0.168476
Sum of atomic charges:   -0.0000000

LOEWDIN ATOMIC CHARGES
----------------------
   0 C :    0.171569
   1 C :   -0.225263
   2 C :   -0.216770
   3 C :   -0.027511
   4 O :   -0.312158
   5 H :    0.115520
   6 H :    0.111871
   7 H :    0.113101
   8 H :    0.112256
   9 H :    0.118065
  10 H :    0.105799
  11 H :    0.100442
  12 C :   -0.055475
  13 H :    0.100880
  14 C :    0.045939
  15 C :   -0.228348
  16 C :   -0.029905
  17 O :   -0.334723
  18 H :    0.111565
  19 O :   -0.338055
  20 H :    0.105254
  21 H :    0.131478
  22 H :    0.108217
  23 H :    0.100755
  24 H :    0.115496

  Mayer bond orders larger than 0.100000
B(  0-C ,  1-C ) :   0.9343 B(  0-C ,  4-O ) :   0.9163 B(  0-C ,  5-H ) :   0.8992
B(  0-C , 19-O ) :   0.8259 B(  1-C ,  2-C ) :   0.9551 B(  1-C ,  6-H ) :   0.9359
B(  1-C ,  7-H ) :   0.9402 B(  2-C ,  3-C ) :   0.9548 B(  2-C ,  8-H ) :   0.9456
B(  2-C ,  9-H ) :   0.9440 B(  3-C ,  4-O ) :   0.8425 B(  3-C , 10-H ) :   0.9350
B(  3-C , 11-H ) :   0.9399 B( 12-C , 13-H ) :   0.9144 B( 12-C , 14-C ) :   0.9254
B( 12-C , 17-O ) :   0.8574 B( 12-C , 18-H ) :   0.9276 B( 14-C , 15-C ) :   0.9350
B( 14-C , 19-O ) :   0.8533 B( 14-C , 20-H ) :   0.9290 B( 15-C , 16-C ) :   0.9485
B( 15-C , 21-H ) :   0.9360 B( 15-C , 22-H ) :   0.9373 B( 16-C , 17-O ) :   0.8363
B( 16-C , 23-H ) :   0.9355 B( 16-C , 24-H ) :   0.9336

FINAL SINGLE POINT ENERGY      -538.429249987196

DIPOLE MOMENT
-------------
                                X             Y             Z
Electronic contribution:      0.48413      -2.65707      -0.21000
Nuclear contribution   :     -0.99214       3.51295      -0.16589
                        -----------------------------------------
Total Dipole Moment    :     -0.50801       0.85587      -0.37589
                        -----------------------------------------
Magnitude (a.u.)       :      1.06390
Magnitude (Debye)      :      2.70423

Rotational constants in cm-1:     0.079003     0.022191     0.021373
Rotational constants in MHz :  2368.463204   665.256964   640.749191

                             ****ORCA TERMINATED NORMALLY****
TOTAL RUN TIME: 0 days 0 hours 9 minutes 36 seconds 687 msec
