                         Program Version 4.2.0 -  RELEASE  -
|  1> # Test redundant internal optimization
|  2> #
|  3> ! RKS B3LYP  Opt TightSCF SmallPrint
|  4>
|  5> %basis
|  6>         Basis "6-31G"
|  7> end
|  8>
|  9> %geom
| 10> Constraints
| 11> { D 4  0  15  12  135.0   C } # D for Dihedral angle
| 12> { D 0  15  12  16  240.0   C } # D for Dihedral angle
| 13> { D 0  4  3  2   C } # D for Dihedral angle
| 14> { D 4  3  2  1   C } # D for Dihedral angle
| 15> { D 3  2  1  0   C } # D for Dihedral angle
| 16> { D 2  1  0  4   C } # D for Dihedral angle
| 17> { D 1  0  4  3   C } # D for Dihedral angle
| 18> { D 16  20  19  18   C } # D for Dihedral angle
| 19> { D 20  19  18  17   C } # D for Dihedral angle
| 20> { D 19  18  17  16   C } # D for Dihedral angle
| 21> { D 18  17  16  20   C } # D for Dihedral angle
| 22> { D 17  16  20  19   C } # D for Dihedral angle
| 23> { D 15  12  16  20   C } # D for Dihedral angle
| 24> end
| 25> end
| 26>
| 27>
| 28> #%pal
| 29> #nprocs 8
| 30> #end
| 31>
| 32> * xyz 0 1
| 33> C  -21.048   26.222   46.251
| 34> C  -20.361   27.558   45.944
| 35> C  -20.329   28.222   47.341
| 36> C  -20.110   27.022   48.296
| 37> O  -20.473   25.807   47.535
| 38> H  -20.833   25.428   45.533
| 39> H  -19.344   27.382   45.576
| 40> H  -20.898   28.157   45.201
| 41> H  -19.543   28.978   47.434
| 42> H  -21.289   28.710   47.548
| 43> H  -20.733   27.082   49.195
| 44> H  -19.064   26.913   48.597
| 45> C  -23.162   27.680   45.721
| 46> H  -22.344   28.251   45.264
| 47> H  -23.881   27.421   44.933
| 48> O  -22.586   26.394   46.375
| 49> C  -23.889   28.599   46.741
| 50> C  -22.914   29.148   47.788
| 51> C  -22.230   30.296   47.008
| 52> C  -23.372   30.845   46.117
| 53> O  -24.411   29.795   46.071
| 54> H  -24.746   28.065   47.156
| 55> O  -23.701   29.705   49.006
| 56> H  -22.204   28.398   48.151
| 57> H  -21.808   31.063   47.666
| 58> H  -21.415   29.898   46.392
| 59> H  -23.038   31.064   45.097
| 60> H  -23.836   31.741   46.537
| 61> H  -24.419   30.461   48.667
| 62> *
| 63>
| 64>                          ****END OF INPUT****
 Total Charge           Charge          ....    0
 Multiplicity           Mult            ....    1
 Number of Electrons    NEL             ....  102
FINAL SINGLE POINT ENERGY      -652.751589647410
FINAL SINGLE POINT ENERGY      -652.819019799195
FINAL SINGLE POINT ENERGY      -652.839592862535
FINAL SINGLE POINT ENERGY      -652.844196782484
FINAL SINGLE POINT ENERGY      -652.845139986969
FINAL SINGLE POINT ENERGY      -652.845404707517
FINAL SINGLE POINT ENERGY      -652.845445691375
FINAL SINGLE POINT ENERGY      -652.845457184939
FINAL SINGLE POINT ENERGY      -652.845457452776
                    ***********************HURRAY********************

CARTESIAN COORDINATES (ANGSTROEM)
---------------------------------
  C    -21.121577   26.267112   46.309956
  C    -20.047629   27.278373   45.895840
  C    -19.793028   28.047662   47.223689
  C    -19.964119   26.937028   48.288213
  O    -20.703048   25.841151   47.616532
  H    -21.081449   25.358781   45.701855
  H    -19.157529   26.714824   45.599658
  H    -20.329712   27.928764   45.062756
  H    -18.793744   28.493413   47.255263
  H    -20.515223   28.848534   47.363066
  H    -20.528658   27.263550   49.166353
  H    -19.008476   26.517514   48.614361
  C    -23.171927   27.786442   45.702922
  H    -22.451092   28.402955   45.146786
  H    -23.908417   27.415675   44.983246
  O    -22.529430   26.628917   46.301593
  C    -23.912896   28.663385   46.726652
  C    -23.105746   29.326445   47.853369
  C    -22.499273   30.559846   47.127366
  C    -23.623312   30.962452   46.138734
  O    -24.515240   29.791003   46.010171
  H    -24.732921   28.082157   47.159414
  O    -23.987006   29.735998   48.935035
  H    -22.376606   28.662992   48.312220
  H    -22.258631   31.348234   47.844430
  H    -21.586844   30.294617   46.585502
  H    -23.241557   31.232008   45.149258
  H    -24.232229   31.792188   46.511969
  H    -24.803684   30.122978   48.554792

 Multiplicity           Mult            ....    1
 Number of Electrons    NEL             ....  102
 Basis Dimension        Dim             ....  149

ORBITAL ENERGIES
----------------

  NO   OCC          E(Eh)            E(eV)
   0   2.0000     -19.150221      -521.1040
   1   2.0000     -19.142781      -520.9015
   2   2.0000     -19.140451      -520.8382
   3   2.0000     -19.139540      -520.8134
   4   2.0000     -10.284405      -279.8529
   5   2.0000     -10.243904      -278.7508
   6   2.0000     -10.238372      -278.6003
   7   2.0000     -10.237571      -278.5785
   8   2.0000     -10.236215      -278.5416
   9   2.0000     -10.230350      -278.3820
  10   2.0000     -10.199573      -277.5445
  11   2.0000     -10.196862      -277.4707
  12   2.0000     -10.195141      -277.4239
  13   2.0000      -1.051131       -28.6027
  14   2.0000      -1.042898       -28.3787
  15   2.0000      -1.010193       -27.4888
  16   2.0000      -0.995404       -27.0863
  17   2.0000      -0.794966       -21.6321
  18   2.0000      -0.784846       -21.3567
  19   2.0000      -0.774650       -21.0793
  20   2.0000      -0.737708       -20.0741
  21   2.0000      -0.685643       -18.6573
  22   2.0000      -0.612037       -16.6544
  23   2.0000      -0.607811       -16.5394
  24   2.0000      -0.601334       -16.3631
  25   2.0000      -0.578197       -15.7335
  26   2.0000      -0.528461       -14.3802
  27   2.0000      -0.517966       -14.0946
  28   2.0000      -0.506615       -13.7857
  29   2.0000      -0.496192       -13.5021
  30   2.0000      -0.481471       -13.1015
  31   2.0000      -0.460442       -12.5293
  32   2.0000      -0.453917       -12.3517
  33   2.0000      -0.440864       -11.9965
  34   2.0000      -0.428839       -11.6693
  35   2.0000      -0.424401       -11.5485
  36   2.0000      -0.412638       -11.2285
  37   2.0000      -0.398842       -10.8530
  38   2.0000      -0.383418       -10.4333
  39   2.0000      -0.377750       -10.2791
  40   2.0000      -0.367802       -10.0084
  41   2.0000      -0.359488        -9.7822
  42   2.0000      -0.357250        -9.7213
  43   2.0000      -0.336754        -9.1635
  44   2.0000      -0.316039        -8.5999
  45   2.0000      -0.310223        -8.4416
  46   2.0000      -0.290473        -7.9042
  47   2.0000      -0.279933        -7.6174
  48   2.0000      -0.269048        -7.3212
  49   2.0000      -0.258776        -7.0416
  50   2.0000      -0.242107        -6.5881
  51   0.0000       0.057078         1.5532
  52   0.0000       0.063157         1.7186
  53   0.0000       0.085170         2.3176
  54   0.0000       0.088386         2.4051
  55   0.0000       0.097931         2.6648

MULLIKEN ATOMIC CHARGES
-----------------------
   0 C :    0.330357
   1 C :   -0.304764
   2 C :   -0.320088
   3 C :   -0.009066
   4 O :   -0.493738
   5 H :    0.156752
   6 H :    0.162239
   7 H :    0.144260
   8 H :    0.145899
   9 H :    0.153389
  10 H :    0.154132
  11 H :    0.147965
  12 C :    0.001153
  13 H :    0.116131
  14 H :    0.165792
  15 O :   -0.542482
  16 C :    0.060162
  17 C :    0.076483
  18 C :   -0.301669
  19 C :   -0.031852
  20 O :   -0.526161
  21 H :    0.172320
  22 O :   -0.604058
  23 H :    0.173237
  24 H :    0.166032
  25 H :    0.145425
  26 H :    0.146556
  27 H :    0.149597
  28 H :    0.365999
Sum of atomic charges:   -0.0000000

LOEWDIN ATOMIC CHARGES
----------------------
   0 C :    0.187451
   1 C :   -0.232002
   2 C :   -0.226532
   3 C :   -0.031603
   4 O :   -0.306240
   5 H :    0.102155
   6 H :    0.125825
   7 H :    0.113654
   8 H :    0.117003
   9 H :    0.111602
  10 H :    0.106074
  11 H :    0.105786
  12 C :   -0.030974
  13 H :    0.089424
  14 H :    0.116667
  15 O :   -0.342471
  16 C :    0.011583
  17 C :    0.035209
  18 C :   -0.245640
  19 C :   -0.037972
  20 O :   -0.328447
  21 H :    0.120250
  22 O :   -0.412092
  23 H :    0.122281
  24 H :    0.128583
  25 H :    0.109755
  26 H :    0.103574
  27 H :    0.103750
  28 H :    0.283346

  Mayer bond orders larger than 0.100000
B(  0-C ,  1-C ) :   0.9245 B(  0-C ,  4-O ) :   0.9229 B(  0-C ,  5-H ) :   0.9319
B(  0-C , 15-O ) :   0.8627 B(  1-C ,  2-C ) :   0.9543 B(  1-C ,  6-H ) :   0.9325
B(  1-C ,  7-H ) :   0.9295 B(  2-C ,  3-C ) :   0.9495 B(  2-C ,  8-H ) :   0.9465
B(  2-C ,  9-H ) :   0.9205 B(  3-C ,  4-O ) :   0.8430 B(  3-C , 10-H ) :   0.9289
B(  3-C , 11-H ) :   0.9376 B( 12-C , 13-H ) :   0.9194 B( 12-C , 14-H ) :   0.9251
B( 12-C , 15-O ) :   0.8352 B( 12-C , 16-C ) :   0.8888 B( 16-C , 17-C ) :   0.9124
B( 16-C , 20-O ) :   0.8320 B( 16-C , 21-H ) :   0.9241 B( 17-C , 18-C ) :   0.9097
B( 17-C , 22-O ) :   0.8816 B( 17-C , 23-H ) :   0.9140 B( 18-C , 19-C ) :   0.9331
B( 18-C , 24-H ) :   0.9374 B( 18-C , 25-H ) :   0.9205 B( 19-C , 20-O ) :   0.8429
B( 19-C , 26-H ) :   0.9356 B( 19-C , 27-H ) :   0.9372 B( 22-O , 28-H ) :   0.7930

FINAL SINGLE POINT ENERGY      -652.845446540933

DIPOLE MOMENT
-------------
                                X             Y             Z
Electronic contribution:     -5.41083      -4.06814       1.14519
Nuclear contribution   :      6.56404       5.30738      -1.98936
                        -----------------------------------------
Total Dipole Moment    :      1.15321       1.23924      -0.84418
                        -----------------------------------------
Magnitude (a.u.)       :      1.89162
Magnitude (Debye)      :      4.80812

Rotational constants in cm-1:     0.044335     0.016758     0.015621
Rotational constants in MHz :  1329.115530   502.390771   468.312070

                             ****ORCA TERMINATED NORMALLY****
TOTAL RUN TIME: 0 days 0 hours 35 minutes 16 seconds 157 msec
