                         Program Version 4.2.0 -  RELEASE  -
|  1> # Test redundant internal optimization
|  2> #
|  3> ! RKS B3LYP  Opt TightSCF SmallPrint
|  4>
|  5> %basis
|  6>         Basis "6-31G"
|  7> end
|  8>
|  9> %geom
| 10> Constraints
| 11> { D 4  0  15  12  150.0   C } # D for Dihedral angle
| 12> { D 0  15  12  16  120.0   C } # D for Dihedral angle
| 13> { D 0  4  3  2   C } # D for Dihedral angle
| 14> { D 4  3  2  1   C } # D for Dihedral angle
| 15> { D 3  2  1  0   C } # D for Dihedral angle
| 16> { D 2  1  0  4   C } # D for Dihedral angle
| 17> { D 1  0  4  3   C } # D for Dihedral angle
| 18> { D 16  20  19  18   C } # D for Dihedral angle
| 19> { D 20  19  18  17   C } # D for Dihedral angle
| 20> { D 19  18  17  16   C } # D for Dihedral angle
| 21> { D 18  17  16  20   C } # D for Dihedral angle
| 22> { D 17  16  20  19   C } # D for Dihedral angle
| 23> { D 15  12  16  20   C } # D for Dihedral angle
| 24> end
| 25> end
| 26>
| 27>
| 28> #%pal
| 29> #nprocs 8
| 30> #end
| 31>
| 32> * xyz 0 1
| 33> C  -21.048   26.222   46.251
| 34> C  -20.361   27.558   45.944
| 35> C  -20.329   28.222   47.341
| 36> C  -20.110   27.022   48.296
| 37> O  -20.473   25.807   47.535
| 38> H  -20.833   25.428   45.533
| 39> H  -19.344   27.382   45.576
| 40> H  -20.898   28.157   45.201
| 41> H  -19.543   28.978   47.434
| 42> H  -21.289   28.710   47.548
| 43> H  -20.733   27.082   49.195
| 44> H  -19.064   26.913   48.597
| 45> C  -23.210   27.459   45.431
| 46> H  -23.696   28.236   46.034
| 47> H  -22.431   27.934   44.821
| 48> O  -22.586   26.394   46.375
| 49> C  -24.267   26.858   44.464
| 50> C  -25.480   26.320   45.231
| 51> C  -26.265   27.619   45.529
| 52> C  -26.006   28.483   44.270
| 53> O  -24.822   27.904   43.599
| 54> H  -23.783   26.128   43.813
| 55> O  -26.310   25.375   44.319
| 56> H  -25.207   25.770   46.138
| 57> H  -27.331   27.441   45.701
| 58> H  -25.859   28.107   46.423
| 59> H  -25.803   29.531   44.514
| 60> H  -26.834   28.441   43.557
| 61> H  -26.596   25.904   43.403
| 62> *
| 63>
| 64>                          ****END OF INPUT****
 Total Charge           Charge          ....    0
 Multiplicity           Mult            ....    1
 Number of Electrons    NEL             ....  102
FINAL SINGLE POINT ENERGY      -652.826544018980
FINAL SINGLE POINT ENERGY      -652.850042106412
FINAL SINGLE POINT ENERGY      -652.854168349111
FINAL SINGLE POINT ENERGY      -652.856249406055
FINAL SINGLE POINT ENERGY      -652.856449870153
FINAL SINGLE POINT ENERGY      -652.856491403372
FINAL SINGLE POINT ENERGY      -652.856495460734
                    ***********************HURRAY********************

CARTESIAN COORDINATES (ANGSTROEM)
---------------------------------
  C    -21.141800   26.296723   46.168969
  C    -20.228892   27.497945   45.922752
  C    -20.234790   28.198433   47.306645
  C    -20.306189   27.007750   48.286006
  O    -20.778921   25.852536   47.484001
  H    -20.987994   25.449421   45.496693
  H    -19.227641   27.119403   45.687279
  H    -20.533014   28.154604   45.105091
  H    -19.346104   28.816900   47.463467
  H    -21.117718   28.838994   47.404016
  H    -21.003918   27.169912   49.111384
  H    -19.327532   26.730003   48.687869
  C    -23.187886   27.621166   45.371235
  H    -23.634864   28.379314   46.026633
  H    -22.471889   28.124479   44.714140
  O    -22.572246   26.605278   46.209581
  C    -24.251850   26.957594   44.494891
  C    -25.419210   26.319873   45.260887
  C    -26.299379   27.554686   45.574217
  C    -26.113809   28.451414   44.325421
  O    -24.885975   27.969368   43.640111
  H    -23.775662   26.227861   43.832737
  O    -26.121678   25.356937   44.425282
  H    -25.095676   25.770242   46.143038
  H    -27.338237   27.257458   45.735483
  H    -25.941453   28.054521   46.480821
  H    -25.988117   29.509860   44.574057
  H    -26.938365   28.356310   43.611645
  H    -26.240191   25.736016   43.528649

 Multiplicity           Mult            ....    1
 Number of Electrons    NEL             ....  102
 Basis Dimension        Dim             ....  149

ORBITAL ENERGIES
----------------

  NO   OCC          E(Eh)            E(eV)
   0   2.0000     -19.145310      -520.9704
   1   2.0000     -19.141618      -520.8699
   2   2.0000     -19.141599      -520.8694
   3   2.0000     -19.132970      -520.6346
   4   2.0000     -10.284124      -279.8452
   5   2.0000     -10.234110      -278.4843
   6   2.0000     -10.232965      -278.4531
   7   2.0000     -10.231886      -278.4238
   8   2.0000     -10.231674      -278.4180
   9   2.0000     -10.228155      -278.3223
  10   2.0000     -10.194891      -277.4171
  11   2.0000     -10.193883      -277.3897
  12   2.0000     -10.185947      -277.1737
  13   2.0000      -1.053689       -28.6723
  14   2.0000      -1.034789       -28.1580
  15   2.0000      -1.002353       -27.2754
  16   2.0000      -0.994009       -27.0484
  17   2.0000      -0.792246       -21.5581
  18   2.0000      -0.779535       -21.2122
  19   2.0000      -0.768639       -20.9157
  20   2.0000      -0.734429       -19.9848
  21   2.0000      -0.679373       -18.4867
  22   2.0000      -0.606258       -16.4971
  23   2.0000      -0.602149       -16.3853
  24   2.0000      -0.598693       -16.2913
  25   2.0000      -0.573510       -15.6060
  26   2.0000      -0.523377       -14.2418
  27   2.0000      -0.516835       -14.0638
  28   2.0000      -0.501805       -13.6548
  29   2.0000      -0.492810       -13.4100
  30   2.0000      -0.473180       -12.8759
  31   2.0000      -0.459160       -12.4944
  32   2.0000      -0.453401       -12.3377
  33   2.0000      -0.438713       -11.9380
  34   2.0000      -0.428263       -11.6536
  35   2.0000      -0.410304       -11.1650
  36   2.0000      -0.408173       -11.1069
  37   2.0000      -0.391097       -10.6423
  38   2.0000      -0.382605       -10.4112
  39   2.0000      -0.367657       -10.0044
  40   2.0000      -0.362837        -9.8733
  41   2.0000      -0.359498        -9.7824
  42   2.0000      -0.355108        -9.6630
  43   2.0000      -0.330587        -8.9957
  44   2.0000      -0.316213        -8.6046
  45   2.0000      -0.306511        -8.3406
  46   2.0000      -0.295598        -8.0436
  47   2.0000      -0.274957        -7.4820
  48   2.0000      -0.264506        -7.1976
  49   2.0000      -0.258237        -7.0270
  50   2.0000      -0.239776        -6.5246
  51   0.0000       0.064966         1.7678
  52   0.0000       0.070153         1.9090
  53   0.0000       0.095145         2.5890
  54   0.0000       0.097909         2.6642
  55   0.0000       0.104166         2.8345

MULLIKEN ATOMIC CHARGES
-----------------------
   0 C :    0.316123
   1 C :   -0.296687
   2 C :   -0.301460
   3 C :    0.000096
   4 O :   -0.494572
   5 H :    0.153107
   6 H :    0.154795
   7 H :    0.148810
   8 H :    0.145718
   9 H :    0.153643
  10 H :    0.152755
  11 H :    0.144512
  12 C :   -0.018104
  13 H :    0.137137
  14 H :    0.142478
  15 O :   -0.529961
  16 C :    0.064397
  17 C :    0.088704
  18 C :   -0.293979
  19 C :   -0.037449
  20 O :   -0.529626
  21 H :    0.157385
  22 O :   -0.603579
  23 H :    0.183576
  24 H :    0.162046
  25 H :    0.143661
  26 H :    0.146980
  27 H :    0.148108
  28 H :    0.361385
Sum of atomic charges:   -0.0000000

LOEWDIN ATOMIC CHARGES
----------------------
   0 C :    0.186421
   1 C :   -0.233503
   2 C :   -0.217184
   3 C :   -0.026548
   4 O :   -0.303592
   5 H :    0.103193
   6 H :    0.121015
   7 H :    0.115505
   8 H :    0.116238
   9 H :    0.112917
  10 H :    0.108629
  11 H :    0.104038
  12 C :   -0.041559
  13 H :    0.098809
  14 H :    0.103771
  15 O :   -0.341238
  16 C :    0.011849
  17 C :    0.038267
  18 C :   -0.239908
  19 C :   -0.040202
  20 O :   -0.334863
  21 H :    0.114184
  22 O :   -0.415322
  23 H :    0.131474
  24 H :    0.126921
  25 H :    0.113449
  26 H :    0.103621
  27 H :    0.103026
  28 H :    0.280590

  Mayer bond orders larger than 0.100000
B(  0-C ,  1-C ) :   0.9333 B(  0-C ,  4-O ) :   0.9361 B(  0-C ,  5-H ) :   0.9256
B(  0-C , 15-O ) :   0.8354 B(  1-C ,  2-C ) :   0.9480 B(  1-C ,  6-H ) :   0.9332
B(  1-C ,  7-H ) :   0.9252 B(  2-C ,  3-C ) :   0.9541 B(  2-C ,  8-H ) :   0.9452
B(  2-C ,  9-H ) :   0.9461 B(  3-C ,  4-O ) :   0.8378 B(  3-C , 10-H ) :   0.9345
B(  3-C , 11-H ) :   0.9395 B( 12-C , 13-H ) :   0.9313 B( 12-C , 14-H ) :   0.9098
B( 12-C , 15-O ) :   0.8372 B( 12-C , 16-C ) :   0.8822 B( 16-C , 17-C ) :   0.9160
B( 16-C , 20-O ) :   0.8401 B( 16-C , 21-H ) :   0.9284 B( 17-C , 18-C ) :   0.9125
B( 17-C , 22-O ) :   0.8893 B( 17-C , 23-H ) :   0.9220 B( 18-C , 19-C ) :   0.9399
B( 18-C , 24-H ) :   0.9379 B( 18-C , 25-H ) :   0.9353 B( 19-C , 20-O ) :   0.8445
B( 19-C , 26-H ) :   0.9353 B( 19-C , 27-H ) :   0.9379 B( 22-O , 28-H ) :   0.7964

FINAL SINGLE POINT ENERGY      -652.856496326351

DIPOLE MOMENT
-------------
                                X             Y             Z
Electronic contribution:     -1.78829      -5.05642      -2.00858
Nuclear contribution   :      2.33305       6.61000       2.02169
                        -----------------------------------------
Total Dipole Moment    :      0.54476       1.55358       0.01311
                        -----------------------------------------
Magnitude (a.u.)       :      1.64637
Magnitude (Debye)      :      4.18474

Rotational constants in cm-1:     0.059352     0.012007     0.011339
Rotational constants in MHz :  1779.337231   359.950641   339.949301

                             ****ORCA TERMINATED NORMALLY****
TOTAL RUN TIME: 0 days 0 hours 24 minutes 21 seconds 775 msec
