                         Program Version 4.2.0 -  RELEASE  -
|  1> # Test redundant internal optimization
|  2> #
|  3> ! RKS B3LYP  Opt TightSCF SmallPrint
|  4>
|  5> %basis
|  6>         Basis "6-31G"
|  7> end
|  8>
|  9> %geom
| 10> Constraints
| 11> { D 4  0  15  12  105.0   C } # D for Dihedral angle
| 12> { D 0  15  12  16  105.0   C } # D for Dihedral angle
| 13> { D 0  4  3  2   C } # D for Dihedral angle
| 14> { D 4  3  2  1   C } # D for Dihedral angle
| 15> { D 3  2  1  0   C } # D for Dihedral angle
| 16> { D 2  1  0  4   C } # D for Dihedral angle
| 17> { D 1  0  4  3   C } # D for Dihedral angle
| 18> { D 16  20  19  18   C } # D for Dihedral angle
| 19> { D 20  19  18  17   C } # D for Dihedral angle
| 20> { D 19  18  17  16   C } # D for Dihedral angle
| 21> { D 18  17  16  20   C } # D for Dihedral angle
| 22> { D 17  16  20  19   C } # D for Dihedral angle
| 23> { D 15  12  16  20   C } # D for Dihedral angle
| 24> end
| 25> end
| 26>
| 27>
| 28> #%pal
| 29> #nprocs 8
| 30> #end
| 31>
| 32> * xyz 0 1
| 33> C  -21.048   26.222   46.251
| 34> C  -20.361   27.558   45.944
| 35> C  -20.329   28.222   47.341
| 36> C  -20.110   27.022   48.296
| 37> O  -20.473   25.807   47.535
| 38> H  -20.833   25.428   45.533
| 39> H  -19.344   27.382   45.576
| 40> H  -20.898   28.157   45.201
| 41> H  -19.543   28.978   47.434
| 42> H  -21.289   28.710   47.548
| 43> H  -20.733   27.082   49.195
| 44> H  -19.064   26.913   48.597
| 45> C  -23.085   27.864   46.420
| 46> H  -23.827   27.970   47.221
| 47> H  -22.251   28.546   46.633
| 48> O  -22.586   26.394   46.375
| 49> C  -23.738   28.318   45.086
| 50> C  -24.112   29.804   45.126
| 51> C  -22.745   30.479   44.865
| 52> C  -22.055   29.506   43.877
| 53> O  -22.775   28.219   43.984
| 54> H  -24.568   27.649   44.848
| 55> O  -25.113   30.133   43.985
| 56> H  -24.562   30.108   46.078
| 57> H  -22.842   31.490   44.456
| 58> H  -22.175   30.549   45.799
| 59> H  -20.998   29.346   44.116
| 60> H  -22.138   29.837   42.838
| 61> H  -24.684   29.837   43.022
| 62> *
| 63>
| 64>                          ****END OF INPUT****
 Total Charge           Charge          ....    0
 Multiplicity           Mult            ....    1
 Number of Electrons    NEL             ....  102
FINAL SINGLE POINT ENERGY      -652.799772822260
FINAL SINGLE POINT ENERGY      -652.832187300997
FINAL SINGLE POINT ENERGY      -652.848743056111
FINAL SINGLE POINT ENERGY      -652.851779799095
FINAL SINGLE POINT ENERGY      -652.852285863841
FINAL SINGLE POINT ENERGY      -652.852360949850
FINAL SINGLE POINT ENERGY      -652.852369686122
                    ***********************HURRAY********************

CARTESIAN COORDINATES (ANGSTROEM)
---------------------------------
  C    -21.158946   26.309079   46.352181
  C    -20.127912   27.400020   46.034027
  C    -19.908335   28.058664   47.426781
  C    -20.032525   26.848702   48.388042
  O    -20.719896   25.784967   47.625621
  H    -21.121120   25.462187   45.666467
  H    -19.207843   26.910721   45.698448
  H    -20.463059   28.081214   45.252328
  H    -18.929499   28.542647   47.506016
  H    -20.667177   28.816601   47.642027
  H    -20.609763   27.074840   49.289783
  H    -19.056560   26.450936   48.681386
  C    -23.124813   27.987122   46.413722
  H    -23.958608   27.940642   47.123896
  H    -22.406069   28.727460   46.781013
  O    -22.562731   26.653047   46.357719
  C    -23.662570   28.392151   45.039781
  C    -24.286728   29.794018   44.962352
  C    -23.037412   30.681114   44.727837
  C    -22.130951   29.790915   43.843311
  O    -22.628246   28.398815   43.996541
  H    -24.383637   27.629147   44.729409
  O    -25.228814   29.887763   43.860309
  H    -24.853852   30.076014   45.851081
  H    -23.315648   31.621065   44.245430
  H    -22.554777   30.916046   45.683649
  H    -21.077898   29.833804   44.139937
  H    -22.201705   30.040329   42.780332
  H    -24.861909   29.419972   43.080572

 Multiplicity           Mult            ....    1
 Number of Electrons    NEL             ....  102
 Basis Dimension        Dim             ....  149

ORBITAL ENERGIES
----------------

  NO   OCC          E(Eh)            E(eV)
   0   2.0000     -19.152232      -521.1587
   1   2.0000     -19.143995      -520.9346
   2   2.0000     -19.137234      -520.7506
   3   2.0000     -19.134448      -520.6748
   4   2.0000     -10.275225      -279.6031
   5   2.0000     -10.249134      -278.8931
   6   2.0000     -10.239514      -278.6313
   7   2.0000     -10.237697      -278.5819
   8   2.0000     -10.236976      -278.5623
   9   2.0000     -10.225703      -278.2555
  10   2.0000     -10.196969      -277.4736
  11   2.0000     -10.193583      -277.3815
  12   2.0000     -10.187967      -277.2287
  13   2.0000      -1.048537       -28.5321
  14   2.0000      -1.040438       -28.3118
  15   2.0000      -1.012513       -27.5519
  16   2.0000      -0.991282       -26.9741
  17   2.0000      -0.791494       -21.5376
  18   2.0000      -0.786687       -21.4068
  19   2.0000      -0.775503       -21.1025
  20   2.0000      -0.733611       -19.9626
  21   2.0000      -0.683903       -18.6099
  22   2.0000      -0.611184       -16.6312
  23   2.0000      -0.604772       -16.4567
  24   2.0000      -0.602631       -16.3984
  25   2.0000      -0.574751       -15.6398
  26   2.0000      -0.529745       -14.4151
  27   2.0000      -0.513437       -13.9713
  28   2.0000      -0.505648       -13.7594
  29   2.0000      -0.488186       -13.2842
  30   2.0000      -0.479535       -13.0488
  31   2.0000      -0.462566       -12.5871
  32   2.0000      -0.455777       -12.4023
  33   2.0000      -0.438017       -11.9191
  34   2.0000      -0.434018       -11.8102
  35   2.0000      -0.415212       -11.2985
  36   2.0000      -0.407816       -11.0972
  37   2.0000      -0.399067       -10.8592
  38   2.0000      -0.381002       -10.3676
  39   2.0000      -0.379146       -10.3171
  40   2.0000      -0.365049        -9.9335
  41   2.0000      -0.358438        -9.7536
  42   2.0000      -0.352215        -9.5843
  43   2.0000      -0.338191        -9.2026
  44   2.0000      -0.314830        -8.5670
  45   2.0000      -0.310864        -8.4590
  46   2.0000      -0.287741        -7.8298
  47   2.0000      -0.277620        -7.5544
  48   2.0000      -0.271910        -7.3991
  49   2.0000      -0.256616        -6.9829
  50   2.0000      -0.241015        -6.5583
  51   0.0000       0.051655         1.4056
  52   0.0000       0.073753         2.0069
  53   0.0000       0.081878         2.2280
  54   0.0000       0.094315         2.5664
  55   0.0000       0.098439         2.6787

MULLIKEN ATOMIC CHARGES
-----------------------
   0 C :    0.320590
   1 C :   -0.308696
   2 C :   -0.315635
   3 C :   -0.003188
   4 O :   -0.497450
   5 H :    0.167150
   6 H :    0.155322
   7 H :    0.171654
   8 H :    0.143083
   9 H :    0.143138
  10 H :    0.143890
  11 H :    0.144930
  12 C :   -0.013584
  13 H :    0.155765
  14 H :    0.120114
  15 O :   -0.522852
  16 C :    0.070964
  17 C :    0.078988
  18 C :   -0.292747
  19 C :   -0.034678
  20 O :   -0.516936
  21 H :    0.172803
  22 O :   -0.601825
  23 H :    0.153107
  24 H :    0.166006
  25 H :    0.140649
  26 H :    0.138994
  27 H :    0.152659
  28 H :    0.367783
Sum of atomic charges:   -0.0000000

LOEWDIN ATOMIC CHARGES
----------------------
   0 C :    0.184778
   1 C :   -0.233551
   2 C :   -0.224301
   3 C :   -0.031781
   4 O :   -0.317862
   5 H :    0.113107
   6 H :    0.123527
   7 H :    0.125779
   8 H :    0.114444
   9 H :    0.103456
  10 H :    0.102613
  11 H :    0.103484
  12 C :   -0.039463
  13 H :    0.115462
  14 H :    0.091659
  15 O :   -0.319584
  16 C :    0.008321
  17 C :    0.035683
  18 C :   -0.240283
  19 C :   -0.041155
  20 O :   -0.327797
  21 H :    0.121474
  22 O :   -0.413058
  23 H :    0.116273
  24 H :    0.128816
  25 H :    0.111261
  26 H :    0.098216
  27 H :    0.105429
  28 H :    0.285052

  Mayer bond orders larger than 0.100000
B(  0-C ,  1-C ) :   0.9284 B(  0-C ,  4-O ) :   0.9060 B(  0-C ,  5-H ) :   0.9337
B(  0-C , 15-O ) :   0.8785 B(  1-C ,  2-C ) :   0.9514 B(  1-C ,  6-H ) :   0.9353
B(  1-C ,  7-H ) :   0.9119 B(  2-C ,  3-C ) :   0.9464 B(  2-C ,  8-H ) :   0.9456
B(  2-C ,  9-H ) :   0.9377 B(  3-C ,  4-O ) :   0.8524 B(  3-C , 10-H ) :   0.9346
B(  3-C , 11-H ) :   0.9390 B( 12-C , 13-H ) :   0.9250 B( 12-C , 14-H ) :   0.9073
B( 12-C , 15-O ) :   0.8583 B( 12-C , 16-C ) :   0.8868 B( 16-C , 17-C ) :   0.8928
B( 16-C , 20-O ) :   0.8589 B( 16-C , 21-H ) :   0.9233 B( 17-C , 18-C ) :   0.9100
B( 17-C , 22-O ) :   0.8950 B( 17-C , 23-H ) :   0.9338 B( 18-C , 19-C ) :   0.9407
B( 18-C , 24-H ) :   0.9369 B( 18-C , 25-H ) :   0.9344 B( 19-C , 20-O ) :   0.8480
B( 19-C , 26-H ) :   0.9267 B( 19-C , 27-H ) :   0.9383 B( 22-O , 28-H ) :   0.7929

FINAL SINGLE POINT ENERGY      -652.852369970454

DIPOLE MOMENT
-------------
                                X             Y             Z
Electronic contribution:     -4.48190      -5.14049      -1.85760
Nuclear contribution   :      5.46452       6.66155       1.93070
                        -----------------------------------------
Total Dipole Moment    :      0.98263       1.52106       0.07310
                        -----------------------------------------
Magnitude (a.u.)       :      1.81232
Magnitude (Debye)      :      4.60656

Rotational constants in cm-1:     0.059369     0.014035     0.013181
Rotational constants in MHz :  1779.831521   420.747676   395.147783

                             ****ORCA TERMINATED NORMALLY****
TOTAL RUN TIME: 0 days 2 hours 36 minutes 49 seconds 49 msec
