                         Program Version 4.2.0 -  RELEASE  -
|  1> # Test redundant internal optimization
|  2> #
|  3> ! RKS B3LYP  Opt TightSCF SmallPrint
|  4>
|  5> %basis
|  6>         Basis "6-31G"
|  7> end
|  8>
|  9> %geom
| 10> Constraints
| 11> { D 4  0  15  12  285.0   C } # D for Dihedral angle
| 12> { D 0  15  12  16  285.0   C } # D for Dihedral angle
| 13> { D 0  4  3  2   C } # D for Dihedral angle
| 14> { D 4  3  2  1   C } # D for Dihedral angle
| 15> { D 3  2  1  0   C } # D for Dihedral angle
| 16> { D 2  1  0  4   C } # D for Dihedral angle
| 17> { D 1  0  4  3   C } # D for Dihedral angle
| 18> { D 16  20  19  18   C } # D for Dihedral angle
| 19> { D 20  19  18  17   C } # D for Dihedral angle
| 20> { D 19  18  17  16   C } # D for Dihedral angle
| 21> { D 18  17  16  20   C } # D for Dihedral angle
| 22> { D 17  16  20  19   C } # D for Dihedral angle
| 23> { D 15  12  16  20   C } # D for Dihedral angle
| 24> end
| 25> end
| 26>
| 27>
| 28> #%pal
| 29> #nprocs 8
| 30> #end
| 31>
| 32> * xyz 0 1
| 33> C  -21.048   26.222   46.251
| 34> C  -20.361   27.558   45.944
| 35> C  -20.329   28.222   47.341
| 36> C  -20.110   27.022   48.296
| 37> O  -20.473   25.807   47.535
| 38> H  -20.833   25.428   45.533
| 39> H  -19.344   27.382   45.576
| 40> H  -20.898   28.157   45.201
| 41> H  -19.543   28.978   47.434
| 42> H  -21.289   28.710   47.548
| 43> H  -20.733   27.082   49.195
| 44> H  -19.064   26.913   48.597
| 45> C  -23.396   25.070   46.435
| 46> H  -22.909   24.379   47.135
| 47> H  -24.416   25.259   46.795
| 48> O  -22.586   26.394   46.375
| 49> C  -23.505   24.369   45.053
| 50> C  -24.405   23.131   45.126
| 51> C  -25.815   23.765   45.088
| 52> C  -25.628   24.982   44.148
| 53> O  -24.174   25.245   44.085
| 54> H  -22.501   24.176   44.669
| 55> O  -24.175   22.230   43.882
| 56> H  -24.235   22.528   46.025
| 57> H  -26.583   23.073   44.726
| 58> H  -26.107   24.095   46.092
| 59> H  -26.138   25.879   44.516
| 60> H  -25.963   24.777   43.127
| 61> H  -24.340   22.814   42.969
| 62> *
| 63>
| 64>                          ****END OF INPUT****
 Total Charge           Charge          ....    0
 Multiplicity           Mult            ....    1
 Number of Electrons    NEL             ....  102
FINAL SINGLE POINT ENERGY      -652.835878601908
FINAL SINGLE POINT ENERGY      -652.859879601602
FINAL SINGLE POINT ENERGY      -652.864252450352
FINAL SINGLE POINT ENERGY      -652.865064554641
FINAL SINGLE POINT ENERGY      -652.865187339605
FINAL SINGLE POINT ENERGY      -652.865197698396
                    ***********************HURRAY********************

CARTESIAN COORDINATES (ANGSTROEM)
---------------------------------
  C    -21.082452   26.151804   46.201651
  C    -20.470301   27.525067   45.923781
  C    -20.439056   28.148131   47.337549
  C    -20.141165   26.936879   48.249459
  O    -20.467091   25.731212   47.445327
  H    -20.855350   25.373165   45.469755
  H    -19.457117   27.395701   45.526521
  H    -21.064713   28.098618   45.210072
  H    -19.684815   28.935239   47.434653
  H    -21.418742   28.574688   47.570891
  H    -20.744552   26.927917   49.160731
  H    -19.083179   26.855985   48.516707
  C    -23.310685   25.135453   46.427531
  H    -22.864513   24.443009   47.155661
  H    -24.274403   25.476853   46.813850
  O    -22.504402   26.346311   46.347605
  C    -23.485670   24.429899   45.081243
  C    -24.385940   23.188125   45.158555
  C    -25.801822   23.818829   45.090108
  C    -25.601023   25.022609   44.134884
  O    -24.143411   25.288523   44.090826
  H    -22.511272   24.165879   44.658516
  O    -24.139133   22.298111   44.035104
  H    -24.225811   22.577972   46.048265
  H    -26.529495   23.093122   44.718330
  H    -26.120562   24.146662   46.085613
  H    -26.117419   25.924880   44.476118
  H    -25.920902   24.804327   43.111027
  H    -24.056005   22.832033   43.216664

 Multiplicity           Mult            ....    1
 Number of Electrons    NEL             ....  102
 Basis Dimension        Dim             ....  149

ORBITAL ENERGIES
----------------

  NO   OCC          E(Eh)            E(eV)
   0   2.0000     -19.142204      -520.8859
   1   2.0000     -19.141953      -520.8790
   2   2.0000     -19.140836      -520.8486
   3   2.0000     -19.136552      -520.7320
   4   2.0000     -10.274581      -279.5856
   5   2.0000     -10.244929      -278.7787
   6   2.0000     -10.235856      -278.5318
   7   2.0000     -10.231772      -278.4207
   8   2.0000     -10.229631      -278.3624
   9   2.0000     -10.222076      -278.1568
  10   2.0000     -10.191636      -277.3285
  11   2.0000     -10.181245      -277.0458
  12   2.0000     -10.180639      -277.0293
  13   2.0000      -1.051971       -28.6256
  14   2.0000      -1.037204       -28.2238
  15   2.0000      -1.007511       -27.4158
  16   2.0000      -0.990253       -26.9461
  17   2.0000      -0.789178       -21.4746
  18   2.0000      -0.781052       -21.2535
  19   2.0000      -0.765530       -20.8311
  20   2.0000      -0.730975       -19.8908
  21   2.0000      -0.672900       -18.3105
  22   2.0000      -0.606730       -16.5100
  23   2.0000      -0.604191       -16.4409
  24   2.0000      -0.594021       -16.1641
  25   2.0000      -0.570912       -15.5353
  26   2.0000      -0.528882       -14.3916
  27   2.0000      -0.510686       -13.8965
  28   2.0000      -0.491955       -13.3868
  29   2.0000      -0.489700       -13.3254
  30   2.0000      -0.473301       -12.8792
  31   2.0000      -0.455523       -12.3954
  32   2.0000      -0.452828       -12.3221
  33   2.0000      -0.435969       -11.8633
  34   2.0000      -0.429527       -11.6880
  35   2.0000      -0.406733       -11.0678
  36   2.0000      -0.398994       -10.8572
  37   2.0000      -0.394766       -10.7421
  38   2.0000      -0.374826       -10.1995
  39   2.0000      -0.368914       -10.0387
  40   2.0000      -0.359008        -9.7691
  41   2.0000      -0.352621        -9.5953
  42   2.0000      -0.344567        -9.3762
  43   2.0000      -0.334460        -9.1011
  44   2.0000      -0.325888        -8.8679
  45   2.0000      -0.309102        -8.4111
  46   2.0000      -0.296247        -8.0613
  47   2.0000      -0.275632        -7.5003
  48   2.0000      -0.270742        -7.3673
  49   2.0000      -0.250403        -6.8138
  50   2.0000      -0.239841        -6.5264
  51   0.0000       0.064969         1.7679
  52   0.0000       0.088566         2.4100
  53   0.0000       0.089620         2.4387
  54   0.0000       0.093798         2.5524
  55   0.0000       0.103419         2.8142

MULLIKEN ATOMIC CHARGES
-----------------------
   0 C :    0.279336
   1 C :   -0.259153
   2 C :   -0.299317
   3 C :   -0.002034
   4 O :   -0.515701
   5 H :    0.144548
   6 H :    0.143260
   7 H :    0.163450
   8 H :    0.139686
   9 H :    0.163492
  10 H :    0.145208
  11 H :    0.141300
  12 C :   -0.015612
  13 H :    0.150362
  14 H :    0.148643
  15 O :   -0.503427
  16 C :    0.047586
  17 C :    0.081277
  18 C :   -0.298547
  19 C :   -0.027419
  20 O :   -0.512451
  21 H :    0.162224
  22 O :   -0.601564
  23 H :    0.154135
  24 H :    0.165132
  25 H :    0.144151
  26 H :    0.150526
  27 H :    0.145666
  28 H :    0.365246
Sum of atomic charges:   -0.0000000

LOEWDIN ATOMIC CHARGES
----------------------
   0 C :    0.170144
   1 C :   -0.213631
   2 C :   -0.216271
   3 C :   -0.027537
   4 O :   -0.332866
   5 H :    0.096112
   6 H :    0.113101
   7 H :    0.127439
   8 H :    0.112678
   9 H :    0.119704
  10 H :    0.104453
  11 H :    0.101957
  12 C :   -0.046251
  13 H :    0.107627
  14 H :    0.112689
  15 O :   -0.313419
  16 C :    0.003668
  17 C :    0.036451
  18 C :   -0.241009
  19 C :   -0.037616
  20 O :   -0.325493
  21 H :    0.112763
  22 O :   -0.414228
  23 H :    0.116668
  24 H :    0.127625
  25 H :    0.113016
  26 H :    0.106380
  27 H :    0.102333
  28 H :    0.283515

  Mayer bond orders larger than 0.100000
B(  0-C ,  1-C ) :   0.9505 B(  0-C ,  4-O ) :   0.8985 B(  0-C ,  5-H ) :   0.9137
B(  0-C , 15-O ) :   0.8662 B(  1-C ,  2-C ) :   0.9564 B(  1-C ,  6-H ) :   0.9410
B(  1-C ,  7-H ) :   0.9348 B(  2-C ,  3-C ) :   0.9554 B(  2-C ,  8-H ) :   0.9454
B(  2-C ,  9-H ) :   0.9441 B(  3-C ,  4-O ) :   0.8379 B(  3-C , 10-H ) :   0.9361
B(  3-C , 11-H ) :   0.9405 B( 12-C , 13-H ) :   0.9089 B( 12-C , 14-H ) :   0.9407
B( 12-C , 15-O ) :   0.8595 B( 12-C , 16-C ) :   0.8785 B( 16-C , 17-C ) :   0.8994
B( 16-C , 20-O ) :   0.8636 B( 16-C , 21-H ) :   0.9202 B( 17-C , 18-C ) :   0.9118
B( 17-C , 22-O ) :   0.8928 B( 17-C , 23-H ) :   0.9321 B( 18-C , 19-C ) :   0.9400
B( 18-C , 24-H ) :   0.9371 B( 18-C , 25-H ) :   0.9341 B( 19-C , 20-O ) :   0.8482
B( 19-C , 26-H ) :   0.9341 B( 19-C , 27-H ) :   0.9375 B( 22-O , 28-H ) :   0.7939

FINAL SINGLE POINT ENERGY      -652.865200033260

DIPOLE MOMENT
-------------
                                X             Y             Z
Electronic contribution:      0.14823      -2.99649      -2.08816
Nuclear contribution   :     -0.50547       3.52791       2.30633
                        -----------------------------------------
Total Dipole Moment    :     -0.35724       0.53141       0.21817
                        -----------------------------------------
Magnitude (a.u.)       :      0.67648
Magnitude (Debye)      :      1.71947

Rotational constants in cm-1:     0.066262     0.011686     0.011143
Rotational constants in MHz :  1986.485813   350.341556   334.059706

                             ****ORCA TERMINATED NORMALLY****
TOTAL RUN TIME: 0 days 0 hours 45 minutes 43 seconds 472 msec
