                         Program Version 4.2.0 -  RELEASE  -
|  1> # Test redundant internal optimization
|  2> #
|  3> ! RKS B3LYP  Opt TightSCF SmallPrint
|  4>
|  5> %basis
|  6>         Basis "6-31G"
|  7> end
|  8>
|  9> %geom
| 10> Constraints
| 11> { D 4  0  15  12  0.0   C } # D for Dihedral angle
| 12> { D 0  15  12  16  150.0   C } # D for Dihedral angle
| 13> { D 0  4  3  2   C } # D for Dihedral angle
| 14> { D 4  3  2  1   C } # D for Dihedral angle
| 15> { D 3  2  1  0   C } # D for Dihedral angle
| 16> { D 2  1  0  4   C } # D for Dihedral angle
| 17> { D 1  0  4  3   C } # D for Dihedral angle
| 18> { D 16  20  19  18   C } # D for Dihedral angle
| 19> { D 20  19  18  17   C } # D for Dihedral angle
| 20> { D 19  18  17  16   C } # D for Dihedral angle
| 21> { D 18  17  16  20   C } # D for Dihedral angle
| 22> { D 17  16  20  19   C } # D for Dihedral angle
| 23> { D 15  12  16  20   C } # D for Dihedral angle
| 24> end
| 25> end
| 26>
| 27>
| 28> #%pal
| 29> #nprocs 8
| 30> #end
| 31>
| 32> * xyz 0 1
| 33> C  -21.048   26.222   46.251
| 34> C  -20.361   27.558   45.944
| 35> C  -20.329   28.222   47.341
| 36> C  -20.110   27.022   48.296
| 37> O  -20.473   25.807   47.535
| 38> H  -20.833   25.428   45.533
| 39> H  -19.344   27.382   45.576
| 40> H  -20.898   28.157   45.201
| 41> H  -19.543   28.978   47.434
| 42> H  -21.289   28.710   47.548
| 43> H  -20.733   27.082   49.195
| 44> H  -19.064   26.913   48.597
| 45> C  -23.172   26.101   47.783
| 46> H  -23.432   25.037   47.853
| 47> H  -22.431   26.324   48.562
| 48> O  -22.586   26.394   46.375
| 49> C  -24.445   26.937   48.090
| 50> C  -25.596   26.562   47.149
| 51> C  -26.114   25.253   47.792
| 52> C  -25.918   25.505   49.308
| 53> O  -24.956   26.621   49.428
| 54> H  -24.186   27.997   48.088
| 55> H  -26.371   27.338   47.176
| 56> O  -25.144   26.373   45.676
| 57> H  -27.156   25.038   47.536
| 58> H  -25.504   24.405   47.459
| 59> H  -25.518   24.629   49.830
| 60> H  -26.841   25.819   49.802
| 61> H  -24.368   25.600   45.626
| 62> *
| 63>
| 64>                          ****END OF INPUT****
 Total Charge           Charge          ....    0
 Multiplicity           Mult            ....    1
 Number of Electrons    NEL             ....  102
FINAL SINGLE POINT ENERGY      -652.829351939367
FINAL SINGLE POINT ENERGY      -652.853427886727
FINAL SINGLE POINT ENERGY      -652.860168765499
FINAL SINGLE POINT ENERGY      -652.862585605888
FINAL SINGLE POINT ENERGY      -652.863897192254
FINAL SINGLE POINT ENERGY      -652.864629720116
FINAL SINGLE POINT ENERGY      -652.864857999986
FINAL SINGLE POINT ENERGY      -652.864905980055
FINAL SINGLE POINT ENERGY      -652.864910960164
                    ***********************HURRAY********************

CARTESIAN COORDINATES (ANGSTROEM)
---------------------------------
  C    -21.110708   26.184941   46.376821
  C    -20.555199   27.546597   45.961300
  C    -20.354322   28.238181   47.330179
  C    -19.930084   27.077105   48.253997
  O    -20.346653   25.829767   47.541818
  H    -20.961958   25.384108   45.649639
  H    -19.598567   27.400151   45.446892
  H    -21.235634   28.088024   45.300352
  H    -19.601947   29.031693   47.292635
  H    -21.296211   28.683433   47.666555
  H    -20.409903   27.098355   49.235779
  H    -18.846770   27.006278   48.383595
  C    -23.124006   25.996478   47.935213
  H    -23.342731   24.925716   48.027196
  H    -22.424760   26.263659   48.728193
  O    -22.556417   26.265064   46.608992
  C    -24.395363   26.841577   48.063448
  C    -25.516427   26.495954   47.068080
  C    -26.143272   25.231567   47.725067
  C    -26.016972   25.521556   49.234181
  O    -24.992010   26.599586   49.375384
  H    -24.127691   27.901790   48.025224
  H    -26.251420   27.309394   47.076486
  O    -25.111290   26.299716   45.700919
  H    -27.178161   25.080746   47.407014
  H    -25.567853   24.350856   47.420562
  H    -25.694041   24.654283   49.818403
  H    -26.941406   25.914439   49.667155
  H    -24.131225   26.192988   45.662920

 Multiplicity           Mult            ....    1
 Number of Electrons    NEL             ....  102
 Basis Dimension        Dim             ....  149

ORBITAL ENERGIES
----------------

  NO   OCC          E(Eh)            E(eV)
   0   2.0000     -19.162376      -521.4348
   1   2.0000     -19.159099      -521.3456
   2   2.0000     -19.138842      -520.7944
   3   2.0000     -19.110277      -520.0171
   4   2.0000     -10.293227      -280.0929
   5   2.0000     -10.241505      -278.6855
   6   2.0000     -10.234910      -278.5061
   7   2.0000     -10.232171      -278.4315
   8   2.0000     -10.227903      -278.3154
   9   2.0000     -10.224597      -278.2254
  10   2.0000     -10.199544      -277.5437
  11   2.0000     -10.195967      -277.4464
  12   2.0000     -10.176509      -276.9169
  13   2.0000      -1.067549       -29.0495
  14   2.0000      -1.024313       -27.8730
  15   2.0000      -1.006285       -27.3824
  16   2.0000      -0.989512       -26.9260
  17   2.0000      -0.800584       -21.7850
  18   2.0000      -0.775606       -21.1053
  19   2.0000      -0.766480       -20.8570
  20   2.0000      -0.737813       -20.0769
  21   2.0000      -0.677543       -18.4369
  22   2.0000      -0.613332       -16.6896
  23   2.0000      -0.599453       -16.3119
  24   2.0000      -0.593319       -16.1450
  25   2.0000      -0.576442       -15.6858
  26   2.0000      -0.535824       -14.5805
  27   2.0000      -0.511950       -13.9309
  28   2.0000      -0.509213       -13.8564
  29   2.0000      -0.487342       -13.2613
  30   2.0000      -0.477343       -12.9892
  31   2.0000      -0.458017       -12.4633
  32   2.0000      -0.442714       -12.0469
  33   2.0000      -0.427849       -11.6424
  34   2.0000      -0.424952       -11.5635
  35   2.0000      -0.423904       -11.5350
  36   2.0000      -0.408742       -11.1224
  37   2.0000      -0.386086       -10.5059
  38   2.0000      -0.383837       -10.4447
  39   2.0000      -0.370722       -10.0879
  40   2.0000      -0.364446        -9.9171
  41   2.0000      -0.362273        -9.8579
  42   2.0000      -0.357253        -9.7213
  43   2.0000      -0.341638        -9.2964
  44   2.0000      -0.330069        -8.9816
  45   2.0000      -0.318326        -8.6621
  46   2.0000      -0.286993        -7.8095
  47   2.0000      -0.275398        -7.4940
  48   2.0000      -0.267347        -7.2749
  49   2.0000      -0.247907        -6.7459
  50   2.0000      -0.239049        -6.5048
  51   0.0000       0.058542         1.5930
  52   0.0000       0.070676         1.9232
  53   0.0000       0.090637         2.4664
  54   0.0000       0.095848         2.6081
  55   0.0000       0.100305         2.7294

MULLIKEN ATOMIC CHARGES
-----------------------
   0 C :    0.315162
   1 C :   -0.260637
   2 C :   -0.309264
   3 C :   -0.028409
   4 O :   -0.507312
   5 H :    0.163635
   6 H :    0.151325
   7 H :    0.164028
   8 H :    0.153309
   9 H :    0.159490
  10 H :    0.155559
  11 H :    0.157977
  12 C :   -0.011530
  13 H :    0.147601
  14 H :    0.166523
  15 O :   -0.583866
  16 C :    0.057265
  17 C :    0.114909
  18 C :   -0.297149
  19 C :   -0.022644
  20 O :   -0.523806
  21 H :    0.150642
  22 H :    0.147628
  23 O :   -0.640320
  24 H :    0.149554
  25 H :    0.144819
  26 H :    0.143991
  27 H :    0.148486
  28 H :    0.393034
Sum of atomic charges:    0.0000000

LOEWDIN ATOMIC CHARGES
----------------------
   0 C :    0.187057
   1 C :   -0.219979
   2 C :   -0.219321
   3 C :   -0.033567
   4 O :   -0.312481
   5 H :    0.108811
   6 H :    0.117501
   7 H :    0.127107
   8 H :    0.120738
   9 H :    0.116092
  10 H :    0.106710
  11 H :    0.110657
  12 C :   -0.039529
  13 H :    0.102433
  14 H :    0.115734
  15 O :   -0.355405
  16 C :    0.016021
  17 C :    0.040606
  18 C :   -0.236443
  19 C :   -0.032435
  20 O :   -0.326493
  21 H :    0.110008
  22 H :    0.104801
  23 O :   -0.435305
  24 H :    0.120696
  25 H :    0.111387
  26 H :    0.102496
  27 H :    0.105416
  28 H :    0.286687

  Mayer bond orders larger than 0.100000
B(  0-C ,  1-C ) :   0.9347 B(  0-C ,  4-O ) :   0.9317 B(  0-C ,  5-H ) :   0.9297
B(  0-C , 15-O ) :   0.7912 B(  1-C ,  2-C ) :   0.9517 B(  1-C ,  6-H ) :   0.9342
B(  1-C ,  7-H ) :   0.9352 B(  2-C ,  3-C ) :   0.9523 B(  2-C ,  8-H ) :   0.9437
B(  2-C ,  9-H ) :   0.9435 B(  3-C ,  4-O ) :   0.8225 B(  3-C , 10-H ) :   0.9288
B(  3-C , 11-H ) :   0.9393 B( 12-C , 13-H ) :   0.9275 B( 12-C , 14-H ) :   0.9163
B( 12-C , 15-O ) :   0.7745 B( 12-C , 16-C ) :   0.8974 B( 16-C , 17-C ) :   0.9133
B( 16-C , 20-O ) :   0.8557 B( 16-C , 21-H ) :   0.9291 B( 17-C , 18-C ) :   0.9021
B( 17-C , 22-H ) :   0.9300 B( 17-C , 23-O ) :   0.9359 B( 18-C , 19-C ) :   0.9378
B( 18-C , 24-H ) :   0.9449 B( 18-C , 25-H ) :   0.9437 B( 19-C , 20-O ) :   0.8312
B( 19-C , 26-H ) :   0.9341 B( 19-C , 27-H ) :   0.9385 B( 23-O , 28-H ) :   0.7234

FINAL SINGLE POINT ENERGY      -652.864912418492

DIPOLE MOMENT
-------------
                                X             Y             Z
Electronic contribution:     -0.77270      -1.41295      -0.96580
Nuclear contribution   :      1.74914       1.76658       1.24086
                        -----------------------------------------
Total Dipole Moment    :      0.97644       0.35363       0.27505
                        -----------------------------------------
Magnitude (a.u.)       :      1.07431
Magnitude (Debye)      :      2.73067

Rotational constants in cm-1:     0.053230     0.014502     0.013027
Rotational constants in MHz :  1595.787996   434.766568   390.536342

                             ****ORCA TERMINATED NORMALLY****
TOTAL RUN TIME: 0 days 0 hours 45 minutes 25 seconds 174 msec
