                         Program Version 4.2.1 -  RELEASE  -
|  1> # Test redundant internal optimization
|  2> #
|  3> ! RKS B3LYP  Opt TightSCF SmallPrint
|  4>
|  5> %basis
|  6>         Basis "6-31G"
|  7> end
|  8>
|  9> %geom
| 10> Constraints
| 11> { D 4  0  19  14  120.0   C } # D for Dihedral angle
| 12> { D 0  19  14  12  150.0   C } # D for Dihedral angle
| 13> { D 0  4  3  2   C } # D for Dihedral angle
| 14> { D 4  3  2  1   C } # D for Dihedral angle
| 15> { D 3  2  1  0   C } # D for Dihedral angle
| 16> { D 2  1  0  4   C } # D for Dihedral angle
| 17> { D 1  0  4  3   C } # D for Dihedral angle
| 18> { D 14  15  16  17   C } # D for Dihedral angle
| 19> { D 15  16  17  12   C } # D for Dihedral angle
| 20> { D 16  17  12  14   C } # D for Dihedral angle
| 21> { D 17  12  14  15   C } # D for Dihedral angle
| 22> { D 12  14  15  16   C } # D for Dihedral angle
| 23> end
| 24> end
| 25>
| 26>
| 27> #%pal
| 28> #nprocs 8
| 29> #end
| 30>
| 31> * xyz 0 1
| 32> C  -21.048   26.222   46.251
| 33> C  -20.361   27.558   45.944
| 34> C  -20.329   28.222   47.341
| 35> C  -20.110   27.022   48.296
| 36> O  -20.473   25.807   47.535
| 37> H  -20.833   25.428   45.533
| 38> H  -19.344   27.382   45.576
| 39> H  -20.898   28.157   45.201
| 40> H  -19.543   28.978   47.434
| 41> H  -21.289   28.710   47.548
| 42> H  -20.733   27.082   49.195
| 43> H  -19.064   26.913   48.597
| 44> C  -24.366   27.637   45.494
| 45> H  -24.641   28.579   44.995
| 46> C  -22.946   27.704   46.069
| 47> C  -23.172   28.509   47.370
| 48> C  -24.569   28.033   47.841
| 49> O  -25.219   27.412   46.666
| 50> H  -24.538   26.806   44.809
| 51> O  -22.472   26.381   46.366
| 52> H  -22.231   28.184   45.392
| 53> H  -22.395   28.330   48.121
| 54> H  -23.184   29.584   47.152
| 55> H  -25.194   28.856   48.203
| 56> H  -24.508   27.265   48.619
| 57> *
| 58>
| 59>                          ****END OF INPUT****
 Total Charge           Charge          ....    0
 Multiplicity           Mult            ....    1
 Number of Electrons    NEL             ....   86
FINAL SINGLE POINT ENERGY      -538.371833045689
FINAL SINGLE POINT ENERGY      -538.418869944319
FINAL SINGLE POINT ENERGY      -538.420952052565
FINAL SINGLE POINT ENERGY      -538.421304412122
FINAL SINGLE POINT ENERGY      -538.421338467691
FINAL SINGLE POINT ENERGY      -538.421351213411
FINAL SINGLE POINT ENERGY      -538.421345484549
FINAL SINGLE POINT ENERGY      -538.421343674962
                    ***********************HURRAY********************

CARTESIAN COORDINATES (ANGSTROEM)
---------------------------------
  C    -21.064259   26.345510   46.301119
  C    -20.105268   27.485982   45.942529
  C    -19.912298   28.191347   47.314338
  C    -19.953145   27.005933   48.309288
  O    -20.584543   25.880872   47.580085
  H    -20.971752   25.481633   45.639389
  H    -19.164786   27.037119   45.607191
  H    -20.459189   28.153589   45.152637
  H    -18.965616   28.738135   47.366619
  H    -20.717843   28.905710   47.502508
  H    -20.537706   27.220772   49.209130
  H    -18.954151   26.673013   48.604432
  C    -24.499397   27.604808   45.483056
  H    -24.906088   28.501527   44.990785
  C    -23.116943   27.891485   46.072669
  C    -23.481409   28.622613   47.380820
  C    -24.783404   27.919665   47.830882
  O    -25.313194   27.222641   46.637661
  H    -24.492490   26.764098   44.788345
  O    -22.492764   26.602970   46.338386
  H    -22.500258   28.501771   45.402884
  H    -22.693603   28.544043   48.132550
  H    -23.655875   29.685605   47.172299
  H    -25.536664   28.625086   48.199664
  H    -24.597357   27.155073   48.588732

 Multiplicity           Mult            ....    1
 Number of Electrons    NEL             ....   86
 Basis Dimension        Dim             ....  127

ORBITAL ENERGIES
----------------

  NO   OCC          E(Eh)            E(eV)
   0   2.0000     -19.139507      -520.8125
   1   2.0000     -19.138273      -520.7789
   2   2.0000     -19.125429      -520.4294
   3   2.0000     -10.280957      -279.7591
   4   2.0000     -10.244915      -278.7783
   5   2.0000     -10.229723      -278.3649
   6   2.0000     -10.221039      -278.1286
   7   2.0000     -10.218513      -278.0599
   8   2.0000     -10.198111      -277.5047
   9   2.0000     -10.196789      -277.4687
  10   2.0000     -10.187697      -277.2213
  11   2.0000      -1.050156       -28.5762
  12   2.0000      -1.013235       -27.5715
  13   2.0000      -0.988767       -26.9057
  14   2.0000      -0.793250       -21.5854
  15   2.0000      -0.786362       -21.3980
  16   2.0000      -0.742478       -20.2039
  17   2.0000      -0.724841       -19.7239
  18   2.0000      -0.623042       -16.9538
  19   2.0000      -0.605931       -16.4882
  20   2.0000      -0.598132       -16.2760
  21   2.0000      -0.564420       -15.3586
  22   2.0000      -0.525022       -14.2866
  23   2.0000      -0.507887       -13.8203
  24   2.0000      -0.490806       -13.3555
  25   2.0000      -0.482415       -13.1272
  26   2.0000      -0.452881       -12.3235
  27   2.0000      -0.445090       -12.1115
  28   2.0000      -0.428307       -11.6548
  29   2.0000      -0.424783       -11.5589
  30   2.0000      -0.408958       -11.1283
  31   2.0000      -0.386632       -10.5208
  32   2.0000      -0.379554       -10.3282
  33   2.0000      -0.368912       -10.0386
  34   2.0000      -0.365343        -9.9415
  35   2.0000      -0.357981        -9.7412
  36   2.0000      -0.354839        -9.6557
  37   2.0000      -0.316620        -8.6157
  38   2.0000      -0.301312        -8.1991
  39   2.0000      -0.288708        -7.8561
  40   2.0000      -0.266574        -7.2538
  41   2.0000      -0.253239        -6.8910
  42   2.0000      -0.229725        -6.2511
  43   0.0000       0.064356         1.7512
  44   0.0000       0.089764         2.4426
  45   0.0000       0.089844         2.4448
  46   0.0000       0.107857         2.9349
  47   0.0000       0.115268         3.1366

MULLIKEN ATOMIC CHARGES
-----------------------
   0 C :    0.318098
   1 C :   -0.303584
   2 C :   -0.309668
   3 C :   -0.006140
   4 O :   -0.493915
   5 H :    0.160446
   6 H :    0.159818
   7 H :    0.145834
   8 H :    0.146300
   9 H :    0.149386
  10 H :    0.145491
  11 H :    0.146499
  12 C :    0.016064
  13 H :    0.118969
  14 C :    0.059686
  15 C :   -0.295665
  16 C :    0.003747
  17 O :   -0.516833
  18 H :    0.166973
  19 O :   -0.520883
  20 H :    0.124567
  21 H :    0.153540
  22 H :    0.137934
  23 H :    0.132539
  24 H :    0.160795
Sum of atomic charges:   -0.0000000

LOEWDIN ATOMIC CHARGES
----------------------
   0 C :    0.181115
   1 C :   -0.231612
   2 C :   -0.222332
   3 C :   -0.031639
   4 O :   -0.312855
   5 H :    0.107295
   6 H :    0.124568
   7 H :    0.114220
   8 H :    0.116238
   9 H :    0.109502
  10 H :    0.103016
  11 H :    0.105144
  12 C :   -0.034111
  13 H :    0.088773
  14 C :    0.038570
  15 C :   -0.237904
  16 C :   -0.027097
  17 O :   -0.326397
  18 H :    0.122937
  19 O :   -0.321384
  20 H :    0.094758
  21 H :    0.119134
  22 H :    0.110797
  23 H :    0.097216
  24 H :    0.112045

  Mayer bond orders larger than 0.100000
B(  0-C ,  1-C ) :   0.9274 B(  0-C ,  4-O ) :   0.9127 B(  0-C ,  5-H ) :   0.9328
B(  0-C , 19-O ) :   0.8831 B(  1-C ,  2-C ) :   0.9524 B(  1-C ,  6-H ) :   0.9332
B(  1-C ,  7-H ) :   0.9281 B(  2-C ,  3-C ) :   0.9500 B(  2-C ,  8-H ) :   0.9455
B(  2-C ,  9-H ) :   0.9369 B(  3-C ,  4-O ) :   0.8491 B(  3-C , 10-H ) :   0.9321
B(  3-C , 11-H ) :   0.9384 B( 12-C , 13-H ) :   0.9139 B( 12-C , 14-C ) :   0.9320
B( 12-C , 17-O ) :   0.8750 B( 12-C , 18-H ) :   0.9305 B( 14-C , 15-C ) :   0.9356
B( 14-C , 19-O ) :   0.8354 B( 14-C , 20-H ) :   0.9120 B( 15-C , 16-C ) :   0.9430
B( 15-C , 21-H ) :   0.9324 B( 15-C , 22-H ) :   0.9360 B( 16-C , 17-O ) :   0.8582
B( 16-C , 23-H ) :   0.9326 B( 16-C , 24-H ) :   0.9348

FINAL SINGLE POINT ENERGY      -538.421344183094

DIPOLE MOMENT
-------------
                                X             Y             Z
Electronic contribution:     -2.71425      -5.20885      -0.84915
Nuclear contribution   :      3.93641       6.87403       0.54783
                        -----------------------------------------
Total Dipole Moment    :      1.22215       1.66517      -0.30132
                        -----------------------------------------
Magnitude (a.u.)       :      2.08740
Magnitude (Debye)      :      5.30576

Rotational constants in cm-1:     0.074885     0.022443     0.021535
Rotational constants in MHz :  2245.007142   672.825679   645.610500

                             ****ORCA TERMINATED NORMALLY****
TOTAL RUN TIME: 0 days 0 hours 9 minutes 8 seconds 912 msec
