                         Program Version 4.2.0 -  RELEASE  -
|  1> # Test redundant internal optimization
|  2> #
|  3> ! RKS B3LYP  Opt TightSCF SmallPrint
|  4>
|  5> %basis
|  6>         Basis "6-31G"
|  7> end
|  8>
|  9> %geom
| 10> Constraints
| 11> { D 4  0  15  12  60.0   C } # D for Dihedral angle
| 12> { D 0  15  12  16  120.0   C } # D for Dihedral angle
| 13> { D 0  4  3  2   C } # D for Dihedral angle
| 14> { D 4  3  2  1   C } # D for Dihedral angle
| 15> { D 3  2  1  0   C } # D for Dihedral angle
| 16> { D 2  1  0  4   C } # D for Dihedral angle
| 17> { D 1  0  4  3   C } # D for Dihedral angle
| 18> { D 16  20  19  18   C } # D for Dihedral angle
| 19> { D 20  19  18  17   C } # D for Dihedral angle
| 20> { D 19  18  17  16   C } # D for Dihedral angle
| 21> { D 18  17  16  20   C } # D for Dihedral angle
| 22> { D 17  16  20  19   C } # D for Dihedral angle
| 23> { D 15  12  16  20   C } # D for Dihedral angle
| 24> end
| 25> end
| 26>
| 27>
| 28> #%pal
| 29> #nprocs 8
| 30> #end
| 31>
| 32> * xyz 0 1
| 33> C  -21.048   26.222   46.251
| 34> C  -20.361   27.558   45.944
| 35> C  -20.329   28.222   47.341
| 36> C  -20.110   27.022   48.296
| 37> O  -20.473   25.807   47.535
| 38> H  -20.833   25.428   45.533
| 39> H  -19.344   27.382   45.576
| 40> H  -20.898   28.157   45.201
| 41> H  -19.543   28.978   47.434
| 42> H  -21.289   28.710   47.548
| 43> H  -20.733   27.082   49.195
| 44> H  -19.064   26.913   48.597
| 45> C  -23.051   27.452   47.413
| 46> H  -23.665   26.962   48.179
| 47> H  -22.185   27.909   47.909
| 48> O  -22.586   26.394   46.375
| 49> C  -23.887   28.594   46.774
| 50> C  -24.229   29.677   47.803
| 51> C  -22.905   30.475   47.871
| 52> C  -22.383   30.414   46.414
| 53> O  -23.099   29.299   45.757
| 54> H  -24.752   28.163   46.266
| 55> O  -25.382   30.572   47.272
| 56> H  -24.529   29.268   48.774
| 57> H  -23.047   31.503   48.221
| 58> H  -22.203   29.982   48.554
| 59> H  -21.304   30.228   46.362
| 60> H  -22.613   31.322   45.850
| 61> H  -25.104   30.993   46.300
| 62> *
| 63>
| 64>                          ****END OF INPUT****
 Total Charge           Charge          ....    0
 Multiplicity           Mult            ....    1
 Number of Electrons    NEL             ....  102
FINAL SINGLE POINT ENERGY      -652.791753015438
FINAL SINGLE POINT ENERGY      -652.830654286396
FINAL SINGLE POINT ENERGY      -652.850338479992
FINAL SINGLE POINT ENERGY      -652.854357730627
FINAL SINGLE POINT ENERGY      -652.855005030155
FINAL SINGLE POINT ENERGY      -652.855149379325
FINAL SINGLE POINT ENERGY      -652.855172295220
FINAL SINGLE POINT ENERGY      -652.855174715799
FINAL SINGLE POINT ENERGY      -652.855172777804
                    ***********************HURRAY********************

CARTESIAN COORDINATES (ANGSTROEM)
---------------------------------
  C    -21.191986   26.305925   46.363108
  C    -20.244304   27.432676   45.927133
  C    -19.814263   28.041591   47.292585
  C    -19.759437   26.795443   48.214217
  O    -20.544284   25.741103   47.529342
  H    -21.243179   25.497206   45.632336
  H    -19.384738   26.989658   45.413510
  H    -20.740527   28.148790   45.269555
  H    -18.843868   28.545882   47.238664
  H    -20.545333   28.773064   47.643148
  H    -20.185450   26.970041   49.207595
  H    -18.741734   26.410697   48.328904
  C    -23.110960   27.551317   47.506143
  H    -23.827195   27.000200   48.128360
  H    -22.328263   27.941813   48.163623
  O    -22.587046   26.617548   46.526136
  C    -23.850972   28.675514   46.779313
  C    -24.463569   29.751718   47.688244
  C    -23.256055   30.699483   47.911706
  C    -22.510272   30.646290   46.555270
  O    -22.994321   29.428299   45.855072
  H    -24.620083   28.211832   46.153257
  O    -25.564253   30.430664   47.025941
  H    -24.881845   29.361426   48.616983
  H    -23.596933   31.703557   48.173852
  H    -22.626948   30.325987   48.728397
  H    -21.423766   30.587695   46.667818
  H    -22.747496   31.499882   45.912854
  H    -25.319920   30.602700   46.091934

 Multiplicity           Mult            ....    1
 Number of Electrons    NEL             ....  102
 Basis Dimension        Dim             ....  149

ORBITAL ENERGIES
----------------

  NO   OCC          E(Eh)            E(eV)
   0   2.0000     -19.151586      -521.1411
   1   2.0000     -19.143278      -520.9151
   2   2.0000     -19.140137      -520.8296
   3   2.0000     -19.139412      -520.8099
   4   2.0000     -10.274946      -279.5955
   5   2.0000     -10.248509      -278.8761
   6   2.0000     -10.238651      -278.6079
   7   2.0000     -10.237425      -278.5745
   8   2.0000     -10.236125      -278.5391
   9   2.0000     -10.229572      -278.3608
  10   2.0000     -10.197059      -277.4761
  11   2.0000     -10.192682      -277.3570
  12   2.0000     -10.181900      -277.0636
  13   2.0000      -1.050582       -28.5878
  14   2.0000      -1.040946       -28.3256
  15   2.0000      -1.012022       -27.5385
  16   2.0000      -0.993555       -27.0360
  17   2.0000      -0.791590       -21.5403
  18   2.0000      -0.785441       -21.3729
  19   2.0000      -0.775659       -21.1068
  20   2.0000      -0.734166       -19.9777
  21   2.0000      -0.681572       -18.5465
  22   2.0000      -0.611262       -16.6333
  23   2.0000      -0.603761       -16.4292
  24   2.0000      -0.601405       -16.3651
  25   2.0000      -0.578064       -15.7299
  26   2.0000      -0.528150       -14.3717
  27   2.0000      -0.513692       -13.9783
  28   2.0000      -0.504625       -13.7315
  29   2.0000      -0.488225       -13.2853
  30   2.0000      -0.478081       -13.0092
  31   2.0000      -0.462974       -12.5982
  32   2.0000      -0.454295       -12.3620
  33   2.0000      -0.443801       -12.0764
  34   2.0000      -0.423740       -11.5305
  35   2.0000      -0.417867       -11.3707
  36   2.0000      -0.408272       -11.1097
  37   2.0000      -0.399736       -10.8774
  38   2.0000      -0.380025       -10.3410
  39   2.0000      -0.377271       -10.2661
  40   2.0000      -0.365864        -9.9557
  41   2.0000      -0.357011        -9.7148
  42   2.0000      -0.347065        -9.4441
  43   2.0000      -0.337224        -9.1763
  44   2.0000      -0.315243        -8.5782
  45   2.0000      -0.314340        -8.5536
  46   2.0000      -0.303755        -8.2656
  47   2.0000      -0.276766        -7.5312
  48   2.0000      -0.265600        -7.2273
  49   2.0000      -0.259496        -7.0612
  50   2.0000      -0.241364        -6.5678
  51   0.0000       0.050533         1.3751
  52   0.0000       0.074603         2.0301
  53   0.0000       0.084326         2.2946
  54   0.0000       0.094774         2.5789
  55   0.0000       0.099474         2.7068

MULLIKEN ATOMIC CHARGES
-----------------------
   0 C :    0.302557
   1 C :   -0.276732
   2 C :   -0.325794
   3 C :   -0.012701
   4 O :   -0.506884
   5 H :    0.166820
   6 H :    0.147494
   7 H :    0.180187
   8 H :    0.142656
   9 H :    0.145776
  10 H :    0.139888
  11 H :    0.148183
  12 C :   -0.007645
  13 H :    0.150874
  14 H :    0.126366
  15 O :   -0.518424
  16 C :    0.072745
  17 C :    0.076881
  18 C :   -0.294883
  19 C :   -0.039064
  20 O :   -0.517204
  21 H :    0.174158
  22 O :   -0.600006
  23 H :    0.153102
  24 H :    0.165527
  25 H :    0.139969
  26 H :    0.149044
  27 H :    0.150415
  28 H :    0.366695
Sum of atomic charges:   -0.0000000

LOEWDIN ATOMIC CHARGES
----------------------
   0 C :    0.179688
   1 C :   -0.230923
   2 C :   -0.225841
   3 C :   -0.036139
   4 O :   -0.323158
   5 H :    0.114148
   6 H :    0.117608
   7 H :    0.133519
   8 H :    0.114664
   9 H :    0.103996
  10 H :    0.098847
  11 H :    0.105135
  12 C :   -0.038305
  13 H :    0.111710
  14 H :    0.095507
  15 O :   -0.314991
  16 C :    0.011122
  17 C :    0.035617
  18 C :   -0.239926
  19 C :   -0.042924
  20 O :   -0.325666
  21 H :    0.122385
  22 O :   -0.412448
  23 H :    0.116664
  24 H :    0.128452
  25 H :    0.110141
  26 H :    0.102141
  27 H :    0.104614
  28 H :    0.284364

  Mayer bond orders larger than 0.100000
B(  0-C ,  1-C ) :   0.9180 B(  0-C ,  4-O ) :   0.8994 B(  0-C ,  5-H ) :   0.9363
B(  0-C , 15-O ) :   0.8957 B(  1-C ,  2-C ) :   0.9578 B(  1-C ,  6-H ) :   0.9337
B(  1-C ,  7-H ) :   0.9213 B(  2-C ,  3-C ) :   0.9442 B(  2-C ,  8-H ) :   0.9458
B(  2-C ,  9-H ) :   0.9339 B(  3-C ,  4-O ) :   0.8491 B(  3-C , 10-H ) :   0.9332
B(  3-C , 11-H ) :   0.9383 B( 12-C , 13-H ) :   0.9224 B( 12-C , 14-H ) :   0.9154
B( 12-C , 15-O ) :   0.8433 B( 12-C , 16-C ) :   0.8939 B( 16-C , 17-C ) :   0.8951
B( 16-C , 20-O ) :   0.8552 B( 16-C , 21-H ) :   0.9223 B( 17-C , 18-C ) :   0.9101
B( 17-C , 22-O ) :   0.8943 B( 17-C , 23-H ) :   0.9334 B( 18-C , 19-C ) :   0.9418
B( 18-C , 24-H ) :   0.9375 B( 18-C , 25-H ) :   0.9343 B( 19-C , 20-O ) :   0.8490
B( 19-C , 26-H ) :   0.9255 B( 19-C , 27-H ) :   0.9368 B( 22-O , 28-H ) :   0.7937

FINAL SINGLE POINT ENERGY      -652.855170877029

DIPOLE MOMENT
-------------
                                X             Y             Z
Electronic contribution:     -4.71126      -3.87109      -2.57205
Nuclear contribution   :      5.67445       5.03789       3.04667
                        -----------------------------------------
Total Dipole Moment    :      0.96320       1.16680       0.47462
                        -----------------------------------------
Magnitude (a.u.)       :      1.58570
Magnitude (Debye)      :      4.03053

Rotational constants in cm-1:     0.053875     0.015456     0.014362
Rotational constants in MHz :  1615.134104   463.356210   430.560230

                             ****ORCA TERMINATED NORMALLY****
TOTAL RUN TIME: 0 days 0 hours 31 minutes 27 seconds 285 msec
