                         Program Version 4.2.0 -  RELEASE  -
|  1> # Test redundant internal optimization
|  2> #
|  3> ! RKS B3LYP  Opt TightSCF SmallPrint
|  4>
|  5> %basis
|  6>         Basis "6-31G"
|  7> end
|  8>
|  9> %geom
| 10> Constraints
| 11> { D 4  0  15  12  120.0   C } # D for Dihedral angle
| 12> { D 0  15  12  16  180.0   C } # D for Dihedral angle
| 13> { D 0  4  3  2   C } # D for Dihedral angle
| 14> { D 4  3  2  1   C } # D for Dihedral angle
| 15> { D 3  2  1  0   C } # D for Dihedral angle
| 16> { D 2  1  0  4   C } # D for Dihedral angle
| 17> { D 1  0  4  3   C } # D for Dihedral angle
| 18> { D 16  20  19  18   C } # D for Dihedral angle
| 19> { D 20  19  18  17   C } # D for Dihedral angle
| 20> { D 19  18  17  16   C } # D for Dihedral angle
| 21> { D 18  17  16  20   C } # D for Dihedral angle
| 22> { D 17  16  20  19   C } # D for Dihedral angle
| 23> { D 15  12  16  20   C } # D for Dihedral angle
| 24> end
| 25> end
| 26>
| 27>
| 28> #%pal
| 29> #nprocs 8
| 30> #end
| 31>
| 32> * xyz 0 1
| 33> C  -21.048   26.222   46.251
| 34> C  -20.361   27.558   45.944
| 35> C  -20.329   28.222   47.341
| 36> C  -20.110   27.022   48.296
| 37> O  -20.473   25.807   47.535
| 38> H  -20.833   25.428   45.533
| 39> H  -19.344   27.382   45.576
| 40> H  -20.898   28.157   45.201
| 41> H  -19.543   28.978   47.434
| 42> H  -21.289   28.710   47.548
| 43> H  -20.733   27.082   49.195
| 44> H  -19.064   26.913   48.597
| 45> C  -23.119   27.818   46.058
| 46> H  -22.658   28.538   46.745
| 47> H  -22.856   28.107   45.032
| 48> O  -22.586   26.394   46.375
| 49> C  -24.663   27.927   46.199
| 50> C  -25.376   26.884   45.331
| 51> C  -25.233   25.607   46.194
| 52> C  -25.337   26.148   47.642
| 53> O  -25.076   27.602   47.568
| 54> H  -24.967   28.957   46.009
| 55> O  -26.872   27.265   45.162
| 56> H  -24.932   26.775   44.336
| 57> H  -25.998   24.857   45.973
| 58> H  -24.253   25.146   46.024
| 59> H  -24.608   25.686   48.316
| 60> H  -26.339   26.022   48.064
| 61> H  -27.337   27.379   46.147
| 62> *
| 63>
| 64>                          ****END OF INPUT****
 Total Charge           Charge          ....    0
 Multiplicity           Mult            ....    1
 Number of Electrons    NEL             ....  102
FINAL SINGLE POINT ENERGY      -652.822610258534
FINAL SINGLE POINT ENERGY      -652.846668342709
FINAL SINGLE POINT ENERGY      -652.854019941709
FINAL SINGLE POINT ENERGY      -652.856039404374
FINAL SINGLE POINT ENERGY      -652.856302729239
FINAL SINGLE POINT ENERGY      -652.856346086231
FINAL SINGLE POINT ENERGY      -652.856348675820
                    ***********************HURRAY********************

CARTESIAN COORDINATES (ANGSTROEM)
---------------------------------
  C    -21.172363   26.363748   46.319700
  C    -20.259176   27.537293   45.949446
  C    -20.098269   28.267487   47.312465
  C    -20.094065   27.094312   48.321512
  O    -20.678419   25.936226   47.602992
  H    -21.071253   25.495224   45.665957
  H    -19.298727   27.131164   45.616104
  H    -20.651029   28.178207   45.155308
  H    -19.175711   28.854116   47.359421
  H    -20.934904   28.946320   47.498092
  H    -20.690818   27.294542   49.215195
  H    -19.083682   26.801304   48.620246
  C    -23.184666   27.919610   46.077932
  H    -22.822031   28.684900   46.773955
  H    -22.946315   28.237581   45.052202
  O    -22.602032   26.623932   46.376138
  C    -24.703323   27.840487   46.233872
  C    -25.444709   26.835780   45.340234
  C    -25.294412   25.519364   46.149727
  C    -25.363261   26.005145   47.618321
  O    -25.089642   27.463694   47.591376
  H    -25.096935   28.849943   46.061012
  O    -26.836052   27.233276   45.176225
  H    -25.045798   26.769028   44.327477
  H    -26.092718   24.816374   45.894995
  H    -24.322778   25.070831   45.940955
  H    -24.611666   25.523852   48.248125
  H    -26.353490   25.874224   48.067845
  H    -27.216756   27.425036   46.059172

 Multiplicity           Mult            ....    1
 Number of Electrons    NEL             ....  102
 Basis Dimension        Dim             ....  149

ORBITAL ENERGIES
----------------

  NO   OCC          E(Eh)            E(eV)
   0   2.0000     -19.146177      -520.9940
   1   2.0000     -19.141973      -520.8796
   2   2.0000     -19.134130      -520.6661
   3   2.0000     -19.132095      -520.6108
   4   2.0000     -10.284761      -279.8626
   5   2.0000     -10.237356      -278.5726
   6   2.0000     -10.233604      -278.4705
   7   2.0000     -10.232881      -278.4508
   8   2.0000     -10.229348      -278.3547
   9   2.0000     -10.217024      -278.0194
  10   2.0000     -10.198668      -277.5199
  11   2.0000     -10.196531      -277.4617
  12   2.0000     -10.171033      -276.7679
  13   2.0000      -1.054681       -28.6993
  14   2.0000      -1.029444       -28.0126
  15   2.0000      -1.002508       -27.2796
  16   2.0000      -0.993756       -27.0415
  17   2.0000      -0.793773       -21.5997
  18   2.0000      -0.778787       -21.1919
  19   2.0000      -0.761381       -20.7182
  20   2.0000      -0.735065       -20.0021
  21   2.0000      -0.678049       -18.4507
  22   2.0000      -0.609494       -16.5852
  23   2.0000      -0.600853       -16.3500
  24   2.0000      -0.592828       -16.1317
  25   2.0000      -0.568146       -15.4600
  26   2.0000      -0.525946       -14.3117
  27   2.0000      -0.509514       -13.8646
  28   2.0000      -0.504164       -13.7190
  29   2.0000      -0.483199       -13.1485
  30   2.0000      -0.474782       -12.9195
  31   2.0000      -0.457784       -12.4569
  32   2.0000      -0.448512       -12.2046
  33   2.0000      -0.434344       -11.8191
  34   2.0000      -0.427902       -11.6438
  35   2.0000      -0.415163       -11.2972
  36   2.0000      -0.404340       -11.0026
  37   2.0000      -0.387962       -10.5570
  38   2.0000      -0.382611       -10.4114
  39   2.0000      -0.364711        -9.9243
  40   2.0000      -0.361935        -9.8488
  41   2.0000      -0.358521        -9.7559
  42   2.0000      -0.352295        -9.5864
  43   2.0000      -0.326333        -8.8800
  44   2.0000      -0.315590        -8.5876
  45   2.0000      -0.301988        -8.2175
  46   2.0000      -0.294291        -8.0081
  47   2.0000      -0.272646        -7.4191
  48   2.0000      -0.261639        -7.1196
  49   2.0000      -0.255636        -6.9562
  50   2.0000      -0.238811        -6.4984
  51   0.0000       0.067675         1.8415
  52   0.0000       0.077148         2.0993
  53   0.0000       0.089596         2.4380
  54   0.0000       0.103385         2.8132
  55   0.0000       0.108577         2.9545

MULLIKEN ATOMIC CHARGES
-----------------------
   0 C :    0.320617
   1 C :   -0.298443
   2 C :   -0.311029
   3 C :   -0.004496
   4 O :   -0.495769
   5 H :    0.157021
   6 H :    0.158037
   7 H :    0.146021
   8 H :    0.147365
   9 H :    0.156510
  10 H :    0.154969
  11 H :    0.145506
  12 C :    0.009845
  13 H :    0.143973
  14 H :    0.120546
  15 O :   -0.536458
  16 C :    0.068538
  17 C :    0.077176
  18 C :   -0.286336
  19 C :   -0.020681
  20 O :   -0.528190
  21 H :    0.152326
  22 O :   -0.604206
  23 H :    0.145924
  24 H :    0.146524
  25 H :    0.176655
  26 H :    0.164244
  27 H :    0.131609
  28 H :    0.362199
Sum of atomic charges:    0.0000000

LOEWDIN ATOMIC CHARGES
----------------------
   0 C :    0.181325
   1 C :   -0.230807
   2 C :   -0.220387
   3 C :   -0.029384
   4 O :   -0.312690
   5 H :    0.105857
   6 H :    0.123888
   7 H :    0.115487
   8 H :    0.117003
   9 H :    0.111734
  10 H :    0.109191
  11 H :    0.104355
  12 C :   -0.035620
  13 H :    0.100450
  14 H :    0.090795
  15 O :   -0.331117
  16 C :    0.016154
  17 C :    0.039513
  18 C :   -0.241298
  19 C :   -0.032645
  20 O :   -0.330506
  21 H :    0.114217
  22 O :   -0.418212
  23 H :    0.113494
  24 H :    0.116993
  25 H :    0.131732
  26 H :    0.114521
  27 H :    0.094381
  28 H :    0.281577

  Mayer bond orders larger than 0.100000
B(  0-C ,  1-C ) :   0.9334 B(  0-C ,  4-O ) :   0.9240 B(  0-C ,  5-H ) :   0.9320
B(  0-C , 15-O ) :   0.8582 B(  1-C ,  2-C ) :   0.9510 B(  1-C ,  6-H ) :   0.9341
B(  1-C ,  7-H ) :   0.9303 B(  2-C ,  3-C ) :   0.9500 B(  2-C ,  8-H ) :   0.9451
B(  2-C ,  9-H ) :   0.9377 B(  3-C ,  4-O ) :   0.8418 B(  3-C , 10-H ) :   0.9336
B(  3-C , 11-H ) :   0.9394 B( 12-C , 13-H ) :   0.9027 B( 12-C , 14-H ) :   0.9078
B( 12-C , 15-O ) :   0.8447 B( 12-C , 16-C ) :   0.9012 B( 16-C , 17-C ) :   0.9087
B( 16-C , 20-O ) :   0.8812 B( 16-C , 21-H ) :   0.9227 B( 17-C , 18-C ) :   0.9263
B( 17-C , 22-O ) :   0.8887 B( 17-C , 23-H ) :   0.9365 B( 18-C , 19-C ) :   0.9465
B( 18-C , 24-H ) :   0.9373 B( 18-C , 25-H ) :   0.9178 B( 19-C , 20-O ) :   0.8331
B( 19-C , 26-H ) :   0.9320 B( 19-C , 27-H ) :   0.9376 B( 22-O , 28-H ) :   0.7964

FINAL SINGLE POINT ENERGY      -652.856347179221

DIPOLE MOMENT
-------------
                                X             Y             Z
Electronic contribution:     -3.80353      -1.61068       0.16844
Nuclear contribution   :      4.94378       2.24640      -0.40285
                        -----------------------------------------
Total Dipole Moment    :      1.14025       0.63573      -0.23440
                        -----------------------------------------
Magnitude (a.u.)       :      1.32637
Magnitude (Debye)      :      3.37138

Rotational constants in cm-1:     0.060031     0.013698     0.013156
Rotational constants in MHz :  1799.670136   410.648663   394.397163

                             ****ORCA TERMINATED NORMALLY****
TOTAL RUN TIME: 0 days 0 hours 31 minutes 30 seconds 681 msec
