                         Program Version 4.2.1 -  RELEASE  -
|  1> # Test redundant internal optimization
|  2> #
|  3> ! RKS B3LYP  Opt TightSCF SmallPrint
|  4>
|  5> %basis
|  6>         Basis "6-31G"
|  7> end
|  8>
|  9> %geom
| 10> Constraints
| 11> { D 4  0  19  14  255.0   C } # D for Dihedral angle
| 12> { D 0  19  14  12  210.0   C } # D for Dihedral angle
| 13> { D 0  4  3  2   C } # D for Dihedral angle
| 14> { D 4  3  2  1   C } # D for Dihedral angle
| 15> { D 3  2  1  0   C } # D for Dihedral angle
| 16> { D 2  1  0  4   C } # D for Dihedral angle
| 17> { D 1  0  4  3   C } # D for Dihedral angle
| 18> { D 14  15  16  17   C } # D for Dihedral angle
| 19> { D 15  16  17  12   C } # D for Dihedral angle
| 20> { D 16  17  12  14   C } # D for Dihedral angle
| 21> { D 17  12  14  15   C } # D for Dihedral angle
| 22> { D 12  14  15  16   C } # D for Dihedral angle
| 23> end
| 24> end
| 25>
| 26>
| 27> #%pal
| 28> #nprocs 8
| 29> #end
| 30>
| 31> * xyz 0 1
| 32> C  -21.048   26.222   46.251
| 33> C  -20.361   27.558   45.944
| 34> C  -20.329   28.222   47.341
| 35> C  -20.110   27.022   48.296
| 36> O  -20.473   25.807   47.535
| 37> H  -20.833   25.428   45.533
| 38> H  -19.344   27.382   45.576
| 39> H  -20.898   28.157   45.201
| 40> H  -19.543   28.978   47.434
| 41> H  -21.289   28.710   47.548
| 42> H  -20.733   27.082   49.195
| 43> H  -19.064   26.913   48.597
| 44> C  -24.582   25.862   45.269
| 45> H  -25.295   25.046   45.076
| 46> C  -23.236   25.322   45.767
| 47> C  -22.579   24.852   44.449
| 48> C  -23.075   25.896   43.416
| 49> O  -24.252   26.559   44.021
| 50> H  -25.048   26.595   45.930
| 51> O  -22.472   26.381   46.366
| 52> H  -23.342   24.515   46.500
| 53> H  -21.487   24.811   44.509
| 54> H  -22.937   23.849   44.185
| 55> H  -23.370   25.439   42.465
| 56> H  -22.332   26.675   43.220
| 57> *
| 58>
| 59>                          ****END OF INPUT****
 Total Charge           Charge          ....    0
 Multiplicity           Mult            ....    1
 Number of Electrons    NEL             ....   86
FINAL SINGLE POINT ENERGY      -538.413656806788
FINAL SINGLE POINT ENERGY      -538.428334561638
FINAL SINGLE POINT ENERGY      -538.430035021848
FINAL SINGLE POINT ENERGY      -538.430383502765
FINAL SINGLE POINT ENERGY      -538.430412697971
FINAL SINGLE POINT ENERGY      -538.430419700444
                    ***********************HURRAY********************

CARTESIAN COORDINATES (ANGSTROEM)
---------------------------------
  C    -20.865850   26.224803   46.224242
  C    -20.345381   27.646527   46.004386
  C    -20.453603   28.248469   47.426342
  C    -20.121101   27.045032   48.337559
  O    -20.300449   25.835090   47.498990
  H    -20.524914   25.484995   45.500055
  H    -19.300014   27.606045   45.676028
  H    -20.936447   28.186185   45.261798
  H    -19.771708   29.089756   47.581096
  H    -21.477175   28.592681   47.599952
  H    -20.779902   26.972678   49.206931
  H    -19.079500   27.042708   48.673539
  C    -24.454440   26.009283   45.306882
  H    -25.295229   25.307938   45.205258
  C    -23.174899   25.273291   45.703202
  C    -22.718787   24.695900   44.352620
  C    -23.131355   25.788256   43.336252
  O    -24.133439   26.634155   44.019154
  H    -24.709267   26.804489   46.007492
  O    -22.303397   26.293819   46.291832
  H    -23.348933   24.487346   46.448090
  H    -21.658101   24.440940   44.303371
  H    -23.277599   23.769282   44.177212
  H    -23.573239   25.365369   42.427263
  H    -22.297270   26.437962   43.054455

 Multiplicity           Mult            ....    1
 Number of Electrons    NEL             ....   86
 Basis Dimension        Dim             ....  127

ORBITAL ENERGIES
----------------

  NO   OCC          E(Eh)            E(eV)
   0   2.0000     -19.139225      -520.8048
   1   2.0000     -19.133082      -520.6376
   2   2.0000     -19.131074      -520.5830
   3   2.0000     -10.276392      -279.6348
   4   2.0000     -10.242980      -278.7257
   5   2.0000     -10.226256      -278.2706
   6   2.0000     -10.221891      -278.1518
   7   2.0000     -10.219891      -278.0974
   8   2.0000     -10.194316      -277.4014
   9   2.0000     -10.180266      -277.0191
  10   2.0000     -10.180152      -277.0160
  11   2.0000      -1.048691       -28.5363
  12   2.0000      -1.015021       -27.6201
  13   2.0000      -0.986253       -26.8373
  14   2.0000      -0.791573       -21.5398
  15   2.0000      -0.775782       -21.1101
  16   2.0000      -0.746993       -20.3267
  17   2.0000      -0.717368       -19.5206
  18   2.0000      -0.615604       -16.7514
  19   2.0000      -0.601790       -16.3755
  20   2.0000      -0.593021       -16.1369
  21   2.0000      -0.566662       -15.4196
  22   2.0000      -0.527772       -14.3614
  23   2.0000      -0.501419       -13.6443
  24   2.0000      -0.484390       -13.1809
  25   2.0000      -0.478155       -13.0113
  26   2.0000      -0.456286       -12.4162
  27   2.0000      -0.436116       -11.8673
  28   2.0000      -0.428251       -11.6533
  29   2.0000      -0.419794       -11.4232
  30   2.0000      -0.398970       -10.8565
  31   2.0000      -0.385076       -10.4785
  32   2.0000      -0.376235       -10.2379
  33   2.0000      -0.368521       -10.0280
  34   2.0000      -0.361271        -9.8307
  35   2.0000      -0.351309        -9.5596
  36   2.0000      -0.342608        -9.3228
  37   2.0000      -0.316682        -8.6174
  38   2.0000      -0.304403        -8.2832
  39   2.0000      -0.297473        -8.0946
  40   2.0000      -0.264446        -7.1960
  41   2.0000      -0.243417        -6.6237
  42   2.0000      -0.237908        -6.4738
  43   0.0000       0.075717         2.0604
  44   0.0000       0.093772         2.5517
  45   0.0000       0.099303         2.7022
  46   0.0000       0.112426         3.0593
  47   0.0000       0.115125         3.1327

MULLIKEN ATOMIC CHARGES
-----------------------
   0 C :    0.284927
   1 C :   -0.253874
   2 C :   -0.297188
   3 C :   -0.000946
   4 O :   -0.509318
   5 H :    0.137449
   6 H :    0.138667
   7 H :    0.158640
   8 H :    0.138112
   9 H :    0.163791
  10 H :    0.147468
  11 H :    0.138568
  12 C :    0.000128
  13 H :    0.124417
  14 C :    0.094045
  15 C :   -0.327632
  16 C :    0.004915
  17 O :   -0.520157
  18 H :    0.171169
  19 O :   -0.525090
  20 H :    0.143714
  21 H :    0.153226
  22 H :    0.151809
  23 H :    0.138177
  24 H :    0.144983
Sum of atomic charges:   -0.0000000

LOEWDIN ATOMIC CHARGES
----------------------
   0 C :    0.173291
   1 C :   -0.218467
   2 C :   -0.215626
   3 C :   -0.027441
   4 O :   -0.326204
   5 H :    0.096098
   6 H :    0.110272
   7 H :    0.123903
   8 H :    0.112356
   9 H :    0.119967
  10 H :    0.105365
  11 H :    0.100471
  12 C :   -0.034537
  13 H :    0.090986
  14 C :    0.045978
  15 C :   -0.240614
  16 C :   -0.029762
  17 O :   -0.330013
  18 H :    0.124727
  19 O :   -0.325144
  20 H :    0.103438
  21 H :    0.118646
  22 H :    0.119960
  23 H :    0.099931
  24 H :    0.102419

  Mayer bond orders larger than 0.100000
B(  0-C ,  1-C ) :   0.9446 B(  0-C ,  4-O ) :   0.9168 B(  0-C ,  5-H ) :   0.9120
B(  0-C , 19-O ) :   0.8548 B(  1-C ,  2-C ) :   0.9583 B(  1-C ,  6-H ) :   0.9395
B(  1-C ,  7-H ) :   0.9350 B(  2-C ,  3-C ) :   0.9539 B(  2-C ,  8-H ) :   0.9456
B(  2-C ,  9-H ) :   0.9436 B(  3-C ,  4-O ) :   0.8406 B(  3-C , 10-H ) :   0.9354
B(  3-C , 11-H ) :   0.9402 B( 12-C , 13-H ) :   0.9153 B( 12-C , 14-C ) :   0.9280
B( 12-C , 17-O ) :   0.8667 B( 12-C , 18-H ) :   0.9296 B( 14-C , 15-C ) :   0.9390
B( 14-C , 19-O ) :   0.8371 B( 14-C , 20-H ) :   0.9226 B( 15-C , 16-C ) :   0.9404
B( 15-C , 21-H ) :   0.9284 B( 15-C , 22-H ) :   0.9348 B( 16-C , 17-O ) :   0.8640
B( 16-C , 23-H ) :   0.9328 B( 16-C , 24-H ) :   0.9358

FINAL SINGLE POINT ENERGY      -538.430420483920

DIPOLE MOMENT
-------------
                                X             Y             Z
Electronic contribution:     -1.54872      -1.14133       0.71183
Nuclear contribution   :      1.92013       0.83456      -0.89819
                        -----------------------------------------
Total Dipole Moment    :      0.37141      -0.30677      -0.18636
                        -----------------------------------------
Magnitude (a.u.)       :      0.51651
Magnitude (Debye)      :      1.31286

Rotational constants in cm-1:     0.080886     0.020734     0.020190
Rotational constants in MHz :  2424.914080   621.577339   605.294691

                             ****ORCA TERMINATED NORMALLY****
TOTAL RUN TIME: 0 days 0 hours 7 minutes 11 seconds 162 msec
