                         Program Version 4.2.0 -  RELEASE  -
|  1> # Test redundant internal optimization
|  2> #
|  3> ! RKS B3LYP  Opt TightSCF SmallPrint
|  4>
|  5> %basis
|  6>         Basis "6-31G"
|  7> end
|  8>
|  9> %geom
| 10> Constraints
| 11> { D 4  0  15  12  285.0   C } # D for Dihedral angle
| 12> { D 0  15  12  16  225.0   C } # D for Dihedral angle
| 13> { D 0  4  3  2   C } # D for Dihedral angle
| 14> { D 4  3  2  1   C } # D for Dihedral angle
| 15> { D 3  2  1  0   C } # D for Dihedral angle
| 16> { D 2  1  0  4   C } # D for Dihedral angle
| 17> { D 1  0  4  3   C } # D for Dihedral angle
| 18> { D 16  20  19  18   C } # D for Dihedral angle
| 19> { D 20  19  18  17   C } # D for Dihedral angle
| 20> { D 19  18  17  16   C } # D for Dihedral angle
| 21> { D 18  17  16  20   C } # D for Dihedral angle
| 22> { D 17  16  20  19   C } # D for Dihedral angle
| 23> { D 15  12  16  20   C } # D for Dihedral angle
| 24> end
| 25> end
| 26>
| 27>
| 28> #%pal
| 29> #nprocs 8
| 30> #end
| 31>
| 32> * xyz 0 1
| 33> C  -21.048   26.222   46.251
| 34> C  -20.361   27.558   45.944
| 35> C  -20.329   28.222   47.341
| 36> C  -20.110   27.022   48.296
| 37> O  -20.473   25.807   47.535
| 38> H  -20.833   25.428   45.533
| 39> H  -19.344   27.382   45.576
| 40> H  -20.898   28.157   45.201
| 41> H  -19.543   28.978   47.434
| 42> H  -21.289   28.710   47.548
| 43> H  -20.733   27.082   49.195
| 44> H  -19.064   26.913   48.597
| 45> C  -23.396   25.070   46.435
| 46> H  -22.753   24.238   46.121
| 47> H  -23.734   24.873   47.461
| 48> O  -22.586   26.394   46.375
| 49> C  -24.651   25.091   45.519
| 50> C  -25.556   26.286   45.843
| 51> C  -24.820   27.441   45.121
| 52> C  -24.246   26.756   43.856
| 53> O  -24.262   25.300   44.121
| 54> H  -25.148   24.121   45.571
| 55> O  -26.966   26.068   45.229
| 56> H  -25.670   26.462   46.918
| 57> H  -25.480   28.279   44.878
| 58> H  -24.010   27.824   45.753
| 59> H  -23.220   27.070   43.636
| 60> H  -24.866   26.928   42.970
| 61> H  -26.876   25.890   44.152
| 62> *
| 63>
| 64>                          ****END OF INPUT****
 Total Charge           Charge          ....    0
 Multiplicity           Mult            ....    1
 Number of Electrons    NEL             ....  102
FINAL SINGLE POINT ENERGY      -652.840147486649
FINAL SINGLE POINT ENERGY      -652.863552214206
FINAL SINGLE POINT ENERGY      -652.867873074769
FINAL SINGLE POINT ENERGY      -652.869007768559
FINAL SINGLE POINT ENERGY      -652.869113207622
FINAL SINGLE POINT ENERGY      -652.869127382992
                    ***********************HURRAY********************

CARTESIAN COORDINATES (ANGSTROEM)
---------------------------------
  C    -21.076099   26.146703   46.258325
  C    -20.439202   27.502316   45.951601
  C    -20.404830   28.160625   47.350590
  C    -20.132509   26.965248   48.291586
  O    -20.475570   25.748712   47.512327
  H    -20.866774   25.342941   45.546234
  H    -19.425629   27.342208   45.567172
  H    -21.010600   28.073328   45.216942
  H    -19.637286   28.936400   47.432634
  H    -21.377211   28.611381   47.570061
  H    -20.740574   26.986734   49.199478
  H    -19.077592   26.873017   48.566428
  C    -23.306969   25.133452   46.459745
  H    -22.702637   24.271879   46.149729
  H    -23.616035   24.976169   47.500829
  O    -22.500346   26.346133   46.373264
  C    -24.531426   25.212170   45.551756
  C    -25.527388   26.351577   45.814310
  C    -24.874487   27.526412   45.039382
  C    -24.241811   26.825962   43.811501
  O    -24.150368   25.384938   44.148154
  H    -25.049391   24.247598   45.621254
  O    -26.844759   26.010506   45.296049
  H    -25.682483   26.564164   46.872375
  H    -25.623750   28.274229   44.765849
  H    -24.102460   27.984480   45.659992
  H    -23.238975   27.199971   43.588622
  H    -24.859269   26.906761   42.910664
  H    -26.748571   25.665987   44.383145

 Multiplicity           Mult            ....    1
 Number of Electrons    NEL             ....  102
 Basis Dimension        Dim             ....  149

ORBITAL ENERGIES
----------------

  NO   OCC          E(Eh)            E(eV)
   0   2.0000     -19.149825      -521.0932
   1   2.0000     -19.141341      -520.8624
   2   2.0000     -19.139410      -520.8098
   3   2.0000     -19.134080      -520.6648
   4   2.0000     -10.281566      -279.7756
   5   2.0000     -10.236195      -278.5410
   6   2.0000     -10.233248      -278.4608
   7   2.0000     -10.231798      -278.4214
   8   2.0000     -10.227144      -278.2947
   9   2.0000     -10.224601      -278.2255
  10   2.0000     -10.188802      -277.2514
  11   2.0000     -10.188195      -277.2349
  12   2.0000     -10.176864      -276.9266
  13   2.0000      -1.057918       -28.7874
  14   2.0000      -1.032296       -28.0902
  15   2.0000      -1.003594       -27.3092
  16   2.0000      -0.994919       -27.0731
  17   2.0000      -0.792115       -21.5546
  18   2.0000      -0.775647       -21.1064
  19   2.0000      -0.764534       -20.8040
  20   2.0000      -0.732092       -19.9212
  21   2.0000      -0.673811       -18.3353
  22   2.0000      -0.602157       -16.3855
  23   2.0000      -0.597406       -16.2562
  24   2.0000      -0.596988       -16.2449
  25   2.0000      -0.577907       -15.7257
  26   2.0000      -0.526317       -14.3218
  27   2.0000      -0.507128       -13.7996
  28   2.0000      -0.495300       -13.4778
  29   2.0000      -0.489756       -13.3269
  30   2.0000      -0.469535       -12.7767
  31   2.0000      -0.463029       -12.5997
  32   2.0000      -0.448113       -12.1938
  33   2.0000      -0.433794       -11.8041
  34   2.0000      -0.426388       -11.6026
  35   2.0000      -0.409904       -11.1541
  36   2.0000      -0.400064       -10.8863
  37   2.0000      -0.388272       -10.5654
  38   2.0000      -0.379076       -10.3152
  39   2.0000      -0.363687        -9.8964
  40   2.0000      -0.360252        -9.8029
  41   2.0000      -0.356894        -9.7116
  42   2.0000      -0.348125        -9.4730
  43   2.0000      -0.335290        -9.1237
  44   2.0000      -0.321974        -8.7613
  45   2.0000      -0.306287        -8.3345
  46   2.0000      -0.299299        -8.1443
  47   2.0000      -0.277338        -7.5468
  48   2.0000      -0.264769        -7.2047
  49   2.0000      -0.256007        -6.9663
  50   2.0000      -0.241626        -6.5750
  51   0.0000       0.064884         1.7656
  52   0.0000       0.084424         2.2973
  53   0.0000       0.089366         2.4318
  54   0.0000       0.105841         2.8801
  55   0.0000       0.107613         2.9283

MULLIKEN ATOMIC CHARGES
-----------------------
   0 C :    0.287158
   1 C :   -0.265730
   2 C :   -0.300473
   3 C :   -0.002385
   4 O :   -0.511302
   5 H :    0.154580
   6 H :    0.148776
   7 H :    0.153263
   8 H :    0.142732
   9 H :    0.159846
  10 H :    0.147332
  11 H :    0.143788
  12 C :    0.007741
  13 H :    0.148897
  14 H :    0.141796
  15 O :   -0.528809
  16 C :    0.064324
  17 C :    0.077826
  18 C :   -0.289159
  19 C :   -0.019959
  20 O :   -0.529822
  21 H :    0.155530
  22 O :   -0.602834
  23 H :    0.153249
  24 H :    0.148854
  25 H :    0.172953
  26 H :    0.143107
  27 H :    0.136454
  28 H :    0.362266
Sum of atomic charges:    0.0000000

LOEWDIN ATOMIC CHARGES
----------------------
   0 C :    0.173100
   1 C :   -0.215361
   2 C :   -0.216509
   3 C :   -0.027487
   4 O :   -0.329265
   5 H :    0.102013
   6 H :    0.116178
   7 H :    0.120563
   8 H :    0.114050
   9 H :    0.117328
  10 H :    0.105593
  11 H :    0.103313
  12 C :   -0.033331
  13 H :    0.110198
  14 H :    0.105298
  15 O :   -0.329164
  16 C :    0.010364
  17 C :    0.038928
  18 C :   -0.242645
  19 C :   -0.033343
  20 O :   -0.333486
  21 H :    0.116023
  22 O :   -0.417283
  23 H :    0.116863
  24 H :    0.118653
  25 H :    0.128805
  26 H :    0.102571
  27 H :    0.096503
  28 H :    0.281531

  Mayer bond orders larger than 0.100000
B(  0-C ,  1-C ) :   0.9502 B(  0-C ,  4-O ) :   0.9066 B(  0-C ,  5-H ) :   0.9162
B(  0-C , 15-O ) :   0.8535 B(  1-C ,  2-C ) :   0.9558 B(  1-C ,  6-H ) :   0.9396
B(  1-C ,  7-H ) :   0.9360 B(  2-C ,  3-C ) :   0.9549 B(  2-C ,  8-H ) :   0.9451
B(  2-C ,  9-H ) :   0.9447 B(  3-C ,  4-O ) :   0.8382 B(  3-C , 10-H ) :   0.9357
B(  3-C , 11-H ) :   0.9403 B( 12-C , 13-H ) :   0.9176 B( 12-C , 14-H ) :   0.9191
B( 12-C , 15-O ) :   0.8368 B( 12-C , 16-C ) :   0.9014 B( 16-C , 17-C ) :   0.9106
B( 16-C , 20-O ) :   0.8677 B( 16-C , 21-H ) :   0.9203 B( 17-C , 18-C ) :   0.9253
B( 17-C , 22-O ) :   0.8914 B( 17-C , 23-H ) :   0.9349 B( 18-C , 19-C ) :   0.9460
B( 18-C , 24-H ) :   0.9370 B( 18-C , 25-H ) :   0.9187 B( 19-C , 20-O ) :   0.8408
B( 19-C , 26-H ) :   0.9340 B( 19-C , 27-H ) :   0.9373 B( 22-O , 28-H ) :   0.7959

FINAL SINGLE POINT ENERGY      -652.869127657162

DIPOLE MOMENT
-------------
                                X             Y             Z
Electronic contribution:     -3.01231      -4.77355      -0.83375
Nuclear contribution   :      3.76125       5.55449       0.81289
                        -----------------------------------------
Total Dipole Moment    :      0.74893       0.78094      -0.02087
                        -----------------------------------------
Magnitude (a.u.)       :      1.08223
Magnitude (Debye)      :      2.75080

Rotational constants in cm-1:     0.058670     0.013601     0.013126
Rotational constants in MHz :  1758.875341   407.759942   393.501943

                             ****ORCA TERMINATED NORMALLY****
TOTAL RUN TIME: 0 days 0 hours 23 minutes 42 seconds 975 msec
