                         Program Version 4.2.0 -  RELEASE  -
|  1> # Test redundant internal optimization
|  2> #
|  3> ! RKS B3LYP  Opt TightSCF SmallPrint
|  4>
|  5> %basis
|  6>         Basis "6-31G"
|  7> end
|  8>
|  9> %geom
| 10> Constraints
| 11> { D 4  0  15  12  210.0   C } # D for Dihedral angle
| 12> { D 0  15  12  16  135.0   C } # D for Dihedral angle
| 13> { D 0  4  3  2   C } # D for Dihedral angle
| 14> { D 4  3  2  1   C } # D for Dihedral angle
| 15> { D 3  2  1  0   C } # D for Dihedral angle
| 16> { D 2  1  0  4   C } # D for Dihedral angle
| 17> { D 1  0  4  3   C } # D for Dihedral angle
| 18> { D 16  20  19  18   C } # D for Dihedral angle
| 19> { D 20  19  18  17   C } # D for Dihedral angle
| 20> { D 19  18  17  16   C } # D for Dihedral angle
| 21> { D 18  17  16  20   C } # D for Dihedral angle
| 22> { D 17  16  20  19   C } # D for Dihedral angle
| 23> { D 15  12  16  20   C } # D for Dihedral angle
| 24> end
| 25> end
| 26>
| 27>
| 28> #%pal
| 29> #nprocs 8
| 30> #end
| 31>
| 32> * xyz 0 1
| 33> C  -21.048   26.222   46.251
| 34> C  -20.361   27.558   45.944
| 35> C  -20.329   28.222   47.341
| 36> C  -20.110   27.022   48.296
| 37> O  -20.473   25.807   47.535
| 38> H  -20.833   25.428   45.533
| 39> H  -19.344   27.382   45.576
| 40> H  -20.898   28.157   45.201
| 41> H  -19.543   28.978   47.434
| 42> H  -21.289   28.710   47.548
| 43> H  -20.733   27.082   49.195
| 44> H  -19.064   26.913   48.597
| 45> C  -23.389   26.110   45.076
| 46> H  -23.711   27.062   44.634
| 47> H  -22.762   25.587   44.343
| 48> O  -22.586   26.394   46.375
| 49> C  -24.650   25.238   45.328
| 50> C  -25.666   25.970   46.212
| 51> C  -26.338   26.922   45.195
| 52> C  -26.358   26.086   43.890
| 53> O  -25.369   25.002   44.072
| 54> H  -24.340   24.263   45.707
| 55> O  -26.698   24.961   46.785
| 56> H  -25.203   26.502   47.051
| 57> H  -27.340   27.235   45.505
| 58> H  -25.730   27.825   45.066
| 59> H  -26.085   26.676   43.010
| 60> H  -27.327   25.612   43.713
| 61> H  -27.176   24.416   45.962
| 62> *
| 63>
| 64>                          ****END OF INPUT****
 Total Charge           Charge          ....    0
 Multiplicity           Mult            ....    1
 Number of Electrons    NEL             ....  102
FINAL SINGLE POINT ENERGY      -652.836042310475
FINAL SINGLE POINT ENERGY      -652.858770787461
FINAL SINGLE POINT ENERGY      -652.862137658177
FINAL SINGLE POINT ENERGY      -652.862757077556
FINAL SINGLE POINT ENERGY      -652.862846969682
FINAL SINGLE POINT ENERGY      -652.862857605420
FINAL SINGLE POINT ENERGY      -652.862860674075
                    ***********************HURRAY********************

CARTESIAN COORDINATES (ANGSTROEM)
---------------------------------
  C    -21.124536   26.187440   46.167881
  C    -20.393070   27.505583   45.924774
  C    -20.477072   28.180381   47.314944
  C    -20.367451   26.985041   48.284682
  O    -20.686460   25.780825   47.471354
  H    -20.883667   25.379261   45.468800
  H    -19.351040   27.299123   45.652515
  H    -20.848318   28.102310   45.129385
  H    -19.686985   28.920499   47.472339
  H    -21.445542   28.677422   47.424740
  H    -21.072025   27.037303   49.118144
  H    -19.354626   26.840484   48.671820
  C    -23.297783   26.140840   44.969457
  H    -23.563375   27.095319   44.496413
  H    -22.689307   25.568470   44.255958
  O    -22.566048   26.386691   46.202457
  C    -24.542882   25.325339   45.315507
  C    -25.540616   26.030934   46.245170
  C    -26.293414   26.953617   45.253735
  C    -26.349265   26.109674   43.956152
  O    -25.312770   25.055097   44.095620
  H    -24.238419   24.360723   45.730073
  O    -26.437148   25.068400   46.867058
  H    -25.056606   26.560501   47.064014
  H    -27.283321   27.208055   45.638899
  H    -25.735116   27.883771   45.100982
  H    -26.140440   26.695767   43.055969
  H    -27.309286   25.600971   43.826315
  H    -26.706416   24.402158   46.199842

 Multiplicity           Mult            ....    1
 Number of Electrons    NEL             ....  102
 Basis Dimension        Dim             ....  149

ORBITAL ENERGIES
----------------

  NO   OCC          E(Eh)            E(eV)
   0   2.0000     -19.144761      -520.9554
   1   2.0000     -19.144450      -520.9470
   2   2.0000     -19.141837      -520.8759
   3   2.0000     -19.132550      -520.6232
   4   2.0000     -10.282814      -279.8096
   5   2.0000     -10.234507      -278.4951
   6   2.0000     -10.233592      -278.4702
   7   2.0000     -10.231364      -278.4096
   8   2.0000     -10.231178      -278.4045
   9   2.0000     -10.226024      -278.2643
  10   2.0000     -10.188182      -277.2345
  11   2.0000     -10.187822      -277.2247
  12   2.0000     -10.186098      -277.1778
  13   2.0000      -1.055508       -28.7218
  14   2.0000      -1.034802       -28.1584
  15   2.0000      -1.002522       -27.2800
  16   2.0000      -0.997512       -27.1437
  17   2.0000      -0.789340       -21.4790
  18   2.0000      -0.778416       -21.1818
  19   2.0000      -0.767509       -20.8850
  20   2.0000      -0.731231       -19.8978
  21   2.0000      -0.675746       -18.3880
  22   2.0000      -0.602895       -16.4056
  23   2.0000      -0.602055       -16.3828
  24   2.0000      -0.593424       -16.1479
  25   2.0000      -0.581081       -15.8120
  26   2.0000      -0.521974       -14.2036
  27   2.0000      -0.518604       -14.1119
  28   2.0000      -0.497982       -13.5508
  29   2.0000      -0.489635       -13.3236
  30   2.0000      -0.470140       -12.7932
  31   2.0000      -0.455701       -12.4003
  32   2.0000      -0.453437       -12.3387
  33   2.0000      -0.443296       -12.0627
  34   2.0000      -0.425701       -11.5839
  35   2.0000      -0.413856       -11.2616
  36   2.0000      -0.400075       -10.8866
  37   2.0000      -0.390806       -10.6344
  38   2.0000      -0.375404       -10.2153
  39   2.0000      -0.366287        -9.9672
  40   2.0000      -0.360611        -9.8127
  41   2.0000      -0.356230        -9.6935
  42   2.0000      -0.354370        -9.6429
  43   2.0000      -0.331712        -9.0263
  44   2.0000      -0.315086        -8.5739
  45   2.0000      -0.313426        -8.5288
  46   2.0000      -0.300998        -8.1906
  47   2.0000      -0.275187        -7.4882
  48   2.0000      -0.261874        -7.1260
  49   2.0000      -0.254823        -6.9341
  50   2.0000      -0.242932        -6.6105
  51   0.0000       0.066100         1.7987
  52   0.0000       0.072659         1.9772
  53   0.0000       0.095738         2.6052
  54   0.0000       0.097661         2.6575
  55   0.0000       0.105678         2.8756

MULLIKEN ATOMIC CHARGES
-----------------------
   0 C :    0.296102
   1 C :   -0.262373
   2 C :   -0.299482
   3 C :   -0.002949
   4 O :   -0.501017
   5 H :    0.141080
   6 H :    0.144906
   7 H :    0.142938
   8 H :    0.142826
   9 H :    0.160045
  10 H :    0.156306
  11 H :    0.142758
  12 C :   -0.019919
  13 H :    0.132473
  14 H :    0.144202
  15 O :   -0.518790
  16 C :    0.068324
  17 C :    0.095743
  18 C :   -0.302659
  19 C :   -0.023771
  20 O :   -0.531525
  21 H :    0.164902
  22 O :   -0.604182
  23 H :    0.176489
  24 H :    0.161055
  25 H :    0.145907
  26 H :    0.142748
  27 H :    0.145460
  28 H :    0.362405
Sum of atomic charges:   -0.0000000

LOEWDIN ATOMIC CHARGES
----------------------
   0 C :    0.180054
   1 C :   -0.227827
   2 C :   -0.216799
   3 C :   -0.025261
   4 O :   -0.305178
   5 H :    0.097505
   6 H :    0.113901
   7 H :    0.114928
   8 H :    0.114765
   9 H :    0.118102
  10 H :    0.110299
  11 H :    0.103013
  12 C :   -0.040618
  13 H :    0.094371
  14 H :    0.104650
  15 O :   -0.337599
  16 C :    0.015917
  17 C :    0.039474
  18 C :   -0.242242
  19 C :   -0.036677
  20 O :   -0.333718
  21 H :    0.119135
  22 O :   -0.414641
  23 H :    0.128361
  24 H :    0.126671
  25 H :    0.113370
  26 H :    0.102354
  27 H :    0.102406
  28 H :    0.281283

  Mayer bond orders larger than 0.100000
B(  0-C ,  1-C ) :   0.9320 B(  0-C ,  4-O ) :   0.9419 B(  0-C ,  5-H ) :   0.9178
B(  0-C , 15-O ) :   0.8274 B(  1-C ,  2-C ) :   0.9545 B(  1-C ,  6-H ) :   0.9342
B(  1-C ,  7-H ) :   0.9387 B(  2-C ,  3-C ) :   0.9550 B(  2-C ,  8-H ) :   0.9450
B(  2-C ,  9-H ) :   0.9443 B(  3-C ,  4-O ) :   0.8346 B(  3-C , 10-H ) :   0.9342
B(  3-C , 11-H ) :   0.9397 B( 12-C , 13-H ) :   0.9254 B( 12-C , 14-H ) :   0.9158
B( 12-C , 15-O ) :   0.8301 B( 12-C , 16-C ) :   0.8953 B( 16-C , 17-C ) :   0.9171
B( 16-C , 20-O ) :   0.8394 B( 16-C , 21-H ) :   0.9260 B( 17-C , 18-C ) :   0.9111
B( 17-C , 22-O ) :   0.8898 B( 17-C , 23-H ) :   0.9242 B( 18-C , 19-C ) :   0.9407
B( 18-C , 24-H ) :   0.9382 B( 18-C , 25-H ) :   0.9345 B( 19-C , 20-O ) :   0.8428
B( 19-C , 26-H ) :   0.9366 B( 19-C , 27-H ) :   0.9385 B( 22-O , 28-H ) :   0.7959

FINAL SINGLE POINT ENERGY      -652.862861087797

DIPOLE MOMENT
-------------
                                X             Y             Z
Electronic contribution:     -1.81267      -5.65400       0.87795
Nuclear contribution   :      2.24954       6.92702      -1.71235
                        -----------------------------------------
Total Dipole Moment    :      0.43688       1.27302      -0.83440
                        -----------------------------------------
Magnitude (a.u.)       :      1.58356
Magnitude (Debye)      :      4.02509

Rotational constants in cm-1:     0.057909     0.011880     0.011325
Rotational constants in MHz :  1736.080438   356.140555   339.500045

                             ****ORCA TERMINATED NORMALLY****
TOTAL RUN TIME: 0 days 0 hours 21 minutes 54 seconds 596 msec
