                         Program Version 4.2.0 -  RELEASE  -
|  1> # Test redundant internal optimization
|  2> #
|  3> ! RKS B3LYP  Opt TightSCF SmallPrint
|  4>
|  5> %basis
|  6>         Basis "6-31G"
|  7> end
|  8>
|  9> %geom
| 10> Constraints
| 11> { D 4  0  15  12  300.0   C } # D for Dihedral angle
| 12> { D 0  15  12  16  90.0   C } # D for Dihedral angle
| 13> { D 0  4  3  2   C } # D for Dihedral angle
| 14> { D 4  3  2  1   C } # D for Dihedral angle
| 15> { D 3  2  1  0   C } # D for Dihedral angle
| 16> { D 2  1  0  4   C } # D for Dihedral angle
| 17> { D 1  0  4  3   C } # D for Dihedral angle
| 18> { D 16  20  19  18   C } # D for Dihedral angle
| 19> { D 20  19  18  17   C } # D for Dihedral angle
| 20> { D 19  18  17  16   C } # D for Dihedral angle
| 21> { D 18  17  16  20   C } # D for Dihedral angle
| 22> { D 17  16  20  19   C } # D for Dihedral angle
| 23> { D 15  12  16  20   C } # D for Dihedral angle
| 24> end
| 25> end
| 26>
| 27>
| 28> #%pal
| 29> #nprocs 8
| 30> #end
| 31>
| 32> * xyz 0 1
| 33> C  -21.048   26.222   46.251
| 34> C  -20.361   27.558   45.944
| 35> C  -20.329   28.222   47.341
| 36> C  -20.110   27.022   48.296
| 37> O  -20.473   25.807   47.535
| 38> H  -20.833   25.428   45.533
| 39> H  -19.344   27.382   45.576
| 40> H  -20.898   28.157   45.201
| 41> H  -19.543   28.978   47.434
| 42> H  -21.289   28.710   47.548
| 43> H  -20.733   27.082   49.195
| 44> H  -19.064   26.913   48.597
| 45> C  -23.362   25.116   46.798
| 46> H  -24.365   25.139   46.356
| 47> H  -22.847   24.217   46.435
| 48> O  -22.586   26.394   46.375
| 49> C  -23.510   24.986   48.339
| 50> C  -24.367   26.119   48.913
| 51> C  -25.797   25.631   48.580
| 52> C  -25.688   24.093   48.736
| 53> O  -24.248   23.766   48.681
| 54> H  -22.518   24.897   48.787
| 55> H  -24.224   26.186   49.998
| 56> O  -24.043   27.505   48.292
| 57> H  -26.557   26.065   49.237
| 58> H  -26.054   25.898   47.548
| 59> H  -26.210   23.553   47.939
| 60> H  -26.062   23.745   49.703
| 61> H  -24.179   27.462   47.205
| 62> *
| 63>
| 64>                          ****END OF INPUT****
 Total Charge           Charge          ....    0
 Multiplicity           Mult            ....    1
 Number of Electrons    NEL             ....  102
FINAL SINGLE POINT ENERGY      -652.838863707228
FINAL SINGLE POINT ENERGY      -652.864528687798
FINAL SINGLE POINT ENERGY      -652.870630696409
FINAL SINGLE POINT ENERGY      -652.872588365740
FINAL SINGLE POINT ENERGY      -652.873469718108
FINAL SINGLE POINT ENERGY      -652.873803362234
FINAL SINGLE POINT ENERGY      -652.873874392685
FINAL SINGLE POINT ENERGY      -652.873886094871
                    ***********************HURRAY********************

CARTESIAN COORDINATES (ANGSTROEM)
---------------------------------
  C    -21.085070   26.142829   46.278129
  C    -20.510886   27.526496   45.971087
  C    -20.528775   28.191994   47.366837
  C    -20.212306   27.021789   48.322354
  O    -20.486069   25.778666   47.540939
  H    -20.830441   25.341721   45.577882
  H    -19.486858   27.412217   45.599332
  H    -21.102172   28.063212   45.226315
  H    -19.799571   29.003304   47.451408
  H    -21.520271   28.597930   47.584952
  H    -20.843133   27.020011   49.213789
  H    -19.160226   26.973615   48.614806
  C    -23.282988   25.070398   46.752419
  H    -24.240821   25.143269   46.230514
  H    -22.765530   24.164500   46.415708
  O    -22.527167   26.268087   46.348450
  C    -23.466448   25.017272   48.275477
  C    -24.296895   26.171566   48.860727
  C    -25.748255   25.707071   48.545672
  C    -25.668001   24.174044   48.702198
  O    -24.220096   23.814795   48.628231
  H    -22.485584   24.923816   48.743874
  H    -24.150234   26.206168   49.944909
  O    -23.968122   27.488015   48.360621
  H    -26.477716   26.165094   49.218648
  H    -26.005613   26.003296   47.523044
  H    -26.206727   23.629417   47.920389
  H    -26.024527   23.831980   49.678156
  H    -23.541497   27.400431   47.476133

 Multiplicity           Mult            ....    1
 Number of Electrons    NEL             ....  102
 Basis Dimension        Dim             ....  149

ORBITAL ENERGIES
----------------

  NO   OCC          E(Eh)            E(eV)
   0   2.0000     -19.164814      -521.5011
   1   2.0000     -19.151695      -521.1441
   2   2.0000     -19.137496      -520.7577
   3   2.0000     -19.121221      -520.3149
   4   2.0000     -10.290469      -280.0179
   5   2.0000     -10.235968      -278.5348
   6   2.0000     -10.231412      -278.4109
   7   2.0000     -10.230311      -278.3809
   8   2.0000     -10.226398      -278.2744
   9   2.0000     -10.225233      -278.2427
  10   2.0000     -10.193117      -277.3688
  11   2.0000     -10.189308      -277.2652
  12   2.0000     -10.179745      -277.0050
  13   2.0000      -1.066573       -29.0229
  14   2.0000      -1.022989       -27.8369
  15   2.0000      -1.006146       -27.3786
  16   2.0000      -0.996097       -27.1052
  17   2.0000      -0.796085       -21.6626
  18   2.0000      -0.771332       -20.9890
  19   2.0000      -0.765552       -20.8317
  20   2.0000      -0.734441       -19.9851
  21   2.0000      -0.678497       -18.4629
  22   2.0000      -0.604600       -16.4520
  23   2.0000      -0.598354       -16.2820
  24   2.0000      -0.595423       -16.2023
  25   2.0000      -0.582765       -15.8578
  26   2.0000      -0.525440       -14.2980
  27   2.0000      -0.520142       -14.1538
  28   2.0000      -0.496448       -13.5090
  29   2.0000      -0.486951       -13.2506
  30   2.0000      -0.472613       -12.8605
  31   2.0000      -0.458280       -12.4704
  32   2.0000      -0.441378       -12.0105
  33   2.0000      -0.434580       -11.8255
  34   2.0000      -0.422497       -11.4967
  35   2.0000      -0.412402       -11.2220
  36   2.0000      -0.407492       -11.0884
  37   2.0000      -0.391479       -10.6527
  38   2.0000      -0.380540       -10.3550
  39   2.0000      -0.365751        -9.9526
  40   2.0000      -0.363025        -9.8784
  41   2.0000      -0.355032        -9.6609
  42   2.0000      -0.352838        -9.6012
  43   2.0000      -0.341538        -9.2937
  44   2.0000      -0.331644        -9.0245
  45   2.0000      -0.312277        -8.4975
  46   2.0000      -0.297151        -8.0859
  47   2.0000      -0.281125        -7.6498
  48   2.0000      -0.266641        -7.2557
  49   2.0000      -0.251488        -6.8433
  50   2.0000      -0.238579        -6.4921
  51   0.0000       0.059026         1.6062
  52   0.0000       0.083657         2.2764
  53   0.0000       0.091811         2.4983
  54   0.0000       0.098374         2.6769
  55   0.0000       0.104757         2.8506

MULLIKEN ATOMIC CHARGES
-----------------------
   0 C :    0.293243
   1 C :   -0.266997
   2 C :   -0.309648
   3 C :   -0.015267
   4 O :   -0.509346
   5 H :    0.154577
   6 H :    0.151656
   7 H :    0.160700
   8 H :    0.146375
   9 H :    0.171623
  10 H :    0.160664
  11 H :    0.148634
  12 C :   -0.042917
  13 H :    0.156126
  14 H :    0.159860
  15 O :   -0.548756
  16 C :    0.057796
  17 C :    0.105034
  18 C :   -0.301645
  19 C :   -0.018203
  20 O :   -0.521570
  21 H :    0.182911
  22 H :    0.151455
  23 O :   -0.642919
  24 H :    0.151909
  25 H :    0.140992
  26 H :    0.142287
  27 H :    0.146498
  28 H :    0.394928
Sum of atomic charges:   -0.0000000

LOEWDIN ATOMIC CHARGES
----------------------
   0 C :    0.174439
   1 C :   -0.214909
   2 C :   -0.218598
   3 C :   -0.030359
   4 O :   -0.326353
   5 H :    0.102464
   6 H :    0.117992
   7 H :    0.125739
   8 H :    0.116981
   9 H :    0.122874
  10 H :    0.110990
  11 H :    0.106400
  12 C :   -0.047001
  13 H :    0.111511
  14 H :    0.115049
  15 O :   -0.334807
  16 C :    0.005536
  17 C :    0.038755
  18 C :   -0.237929
  19 C :   -0.032494
  20 O :   -0.324137
  21 H :    0.125528
  22 H :    0.107963
  23 O :   -0.435551
  24 H :    0.121256
  25 H :    0.109531
  26 H :    0.101701
  27 H :    0.104972
  28 H :    0.282456

  Mayer bond orders larger than 0.100000
B(  0-C ,  1-C ) :   0.9499 B(  0-C ,  4-O ) :   0.9149 B(  0-C ,  5-H ) :   0.9206
B(  0-C , 15-O ) :   0.8237 B(  1-C ,  2-C ) :   0.9538 B(  1-C ,  6-H ) :   0.9387
B(  1-C ,  7-H ) :   0.9353 B(  2-C ,  3-C ) :   0.9542 B(  2-C ,  8-H ) :   0.9442
B(  2-C ,  9-H ) :   0.9343 B(  3-C ,  4-O ) :   0.8237 B(  3-C , 10-H ) :   0.9305
B(  3-C , 11-H ) :   0.9405 B( 12-C , 13-H ) :   0.9382 B( 12-C , 14-H ) :   0.9270
B( 12-C , 15-O ) :   0.7954 B( 12-C , 16-C ) :   0.8879 B( 16-C , 17-C ) :   0.9110
B( 16-C , 20-O ) :   0.8451 B( 16-C , 21-H ) :   0.9150 B( 17-C , 18-C ) :   0.9025
B( 17-C , 22-H ) :   0.9339 B( 17-C , 23-O ) :   0.9253 B( 18-C , 19-C ) :   0.9391
B( 18-C , 24-H ) :   0.9441 B( 18-C , 25-H ) :   0.9444 B( 19-C , 20-O ) :   0.8354
B( 19-C , 26-H ) :   0.9340 B( 19-C , 27-H ) :   0.9392 B( 23-O , 28-H ) :   0.7160

FINAL SINGLE POINT ENERGY      -652.873886416404

DIPOLE MOMENT
-------------
                                X             Y             Z
Electronic contribution:      0.46397      -2.82858      -0.05162
Nuclear contribution   :     -0.24677       3.16631      -0.55155
                        -----------------------------------------
Total Dipole Moment    :      0.21720       0.33774      -0.60317
                        -----------------------------------------
Magnitude (a.u.)       :      0.72460
Magnitude (Debye)      :      1.84180

Rotational constants in cm-1:     0.054923     0.016071     0.015074
Rotational constants in MHz :  1646.563257   481.791180   451.917546

                             ****ORCA TERMINATED NORMALLY****
TOTAL RUN TIME: 0 days 0 hours 23 minutes 30 seconds 833 msec
