                         Program Version 4.2.0 -  RELEASE  -
|  1> # Test redundant internal optimization
|  2> #
|  3> ! RKS B3LYP  Opt TightSCF SmallPrint
|  4>
|  5> %basis
|  6>         Basis "6-31G"
|  7> end
|  8>
|  9> %geom
| 10> Constraints
| 11> { D 4  0  15  12  30.0   C } # D for Dihedral angle
| 12> { D 0  15  12  16  255.0   C } # D for Dihedral angle
| 13> { D 0  4  3  2   C } # D for Dihedral angle
| 14> { D 4  3  2  1   C } # D for Dihedral angle
| 15> { D 3  2  1  0   C } # D for Dihedral angle
| 16> { D 2  1  0  4   C } # D for Dihedral angle
| 17> { D 1  0  4  3   C } # D for Dihedral angle
| 18> { D 16  20  19  18   C } # D for Dihedral angle
| 19> { D 20  19  18  17   C } # D for Dihedral angle
| 20> { D 19  18  17  16   C } # D for Dihedral angle
| 21> { D 18  17  16  20   C } # D for Dihedral angle
| 22> { D 17  16  20  19   C } # D for Dihedral angle
| 23> { D 15  12  16  20   C } # D for Dihedral angle
| 24> end
| 25> end
| 26>
| 27>
| 28> #%pal
| 29> #nprocs 8
| 30> #end
| 31>
| 32> * xyz 0 1
| 33> C  -21.048   26.222   46.251
| 34> C  -20.361   27.558   45.944
| 35> C  -20.329   28.222   47.341
| 36> C  -20.110   27.022   48.296
| 37> O  -20.473   25.807   47.535
| 38> H  -20.833   25.428   45.533
| 39> H  -19.344   27.382   45.576
| 40> H  -20.898   28.157   45.201
| 41> H  -19.543   28.978   47.434
| 42> H  -21.289   28.710   47.548
| 43> H  -20.733   27.082   49.195
| 44> H  -19.064   26.913   48.597
| 45> C  -23.091   26.824   47.779
| 46> H  -22.245   27.198   48.370
| 47> H  -23.831   27.630   47.691
| 48> O  -22.586   26.394   46.375
| 49> C  -23.755   25.657   48.562
| 50> C  -24.344   26.143   49.891
| 51> C  -25.670   26.792   49.429
| 52> C  -26.112   25.888   48.251
| 53> O  -24.911   25.137   47.824
| 54> H  -23.041   24.837   48.657
| 55> O  -24.622   24.933   50.825
| 56> H  -23.690   26.844   50.421
| 57> H  -26.421   26.837   50.224
| 58> H  -25.487   27.816   49.082
| 59> H  -26.495   26.464   47.401
| 60> H  -26.864   25.151   48.548
| 61> H  -25.276   24.217   50.314
| 62> *
| 63>
| 64>                          ****END OF INPUT****
 Total Charge           Charge          ....    0
 Multiplicity           Mult            ....    1
 Number of Electrons    NEL             ....  102
FINAL SINGLE POINT ENERGY      -652.820587867495
FINAL SINGLE POINT ENERGY      -652.845121905821
FINAL SINGLE POINT ENERGY      -652.852356221300
FINAL SINGLE POINT ENERGY      -652.854861416631
FINAL SINGLE POINT ENERGY      -652.855216748941
FINAL SINGLE POINT ENERGY      -652.855275285955
FINAL SINGLE POINT ENERGY      -652.855268238056
                    ***********************HURRAY********************

CARTESIAN COORDINATES (ANGSTROEM)
---------------------------------
  C    -21.161874   26.282033   46.421958
  C    -20.395176   27.520853   45.943328
  C    -20.081853   28.242180   47.282925
  C    -19.846413   27.063834   48.259603
  O    -20.452644   25.869788   47.613743
  H    -21.104071   25.445444   45.723603
  H    -19.471976   27.198824   45.449004
  H    -20.981185   28.125794   45.248167
  H    -19.207550   28.896611   47.214475
  H    -20.933582   28.856651   47.593773
  H    -20.304836   27.210638   49.242609
  H    -18.784199   26.840601   48.396193
  C    -23.144200   26.909190   47.860861
  H    -22.383073   27.326571   48.527275
  H    -23.869910   27.694140   47.622557
  O    -22.586919   26.480191   46.588985
  C    -23.829075   25.735843   48.567397
  C    -24.492802   26.120031   49.897664
  C    -25.849907   26.701120   49.419292
  C    -26.188783   25.822906   48.188835
  O    -24.923174   25.175012   47.771104
  H    -23.095628   24.935708   48.700071
  O    -24.678804   24.952345   50.744208
  H    -23.911504   26.821138   50.499438
  H    -26.598501   26.634728   50.213437
  H    -25.735911   27.754994   49.139873
  H    -26.586261   26.403102   47.350124
  H    -26.897975   25.024042   48.426985
  H    -24.968215   24.198687   50.187513

 Multiplicity           Mult            ....    1
 Number of Electrons    NEL             ....  102
 Basis Dimension        Dim             ....  149

ORBITAL ENERGIES
----------------

  NO   OCC          E(Eh)            E(eV)
   0   2.0000     -19.150083      -521.1003
   1   2.0000     -19.137866      -520.7678
   2   2.0000     -19.136750      -520.7374
   3   2.0000     -19.136156      -520.7213
   4   2.0000     -10.278407      -279.6897
   5   2.0000     -10.240696      -278.6635
   6   2.0000     -10.235364      -278.5184
   7   2.0000     -10.232791      -278.4484
   8   2.0000     -10.227644      -278.3083
   9   2.0000     -10.227031      -278.2917
  10   2.0000     -10.195768      -277.4410
  11   2.0000     -10.188045      -277.2308
  12   2.0000     -10.187898      -277.2268
  13   2.0000      -1.054652       -28.6985
  14   2.0000      -1.032890       -28.1064
  15   2.0000      -1.003702       -27.3121
  16   2.0000      -0.992842       -27.0166
  17   2.0000      -0.791766       -21.5451
  18   2.0000      -0.782672       -21.2976
  19   2.0000      -0.767729       -20.8910
  20   2.0000      -0.734791       -19.9947
  21   2.0000      -0.675315       -18.3762
  22   2.0000      -0.606426       -16.5017
  23   2.0000      -0.603735       -16.4285
  24   2.0000      -0.598723       -16.2921
  25   2.0000      -0.573253       -15.5990
  26   2.0000      -0.521682       -14.1957
  27   2.0000      -0.515381       -14.0242
  28   2.0000      -0.501866       -13.6565
  29   2.0000      -0.489258       -13.3134
  30   2.0000      -0.473155       -12.8752
  31   2.0000      -0.462448       -12.5839
  32   2.0000      -0.448216       -12.1966
  33   2.0000      -0.439683       -11.9644
  34   2.0000      -0.422035       -11.4842
  35   2.0000      -0.417843       -11.3701
  36   2.0000      -0.399384       -10.8678
  37   2.0000      -0.390635       -10.6297
  38   2.0000      -0.378939       -10.3114
  39   2.0000      -0.370554       -10.0833
  40   2.0000      -0.363259        -9.8848
  41   2.0000      -0.358097        -9.7443
  42   2.0000      -0.351211        -9.5569
  43   2.0000      -0.331108        -9.0099
  44   2.0000      -0.325169        -8.8483
  45   2.0000      -0.313485        -8.5304
  46   2.0000      -0.299670        -8.1544
  47   2.0000      -0.268049        -7.2940
  48   2.0000      -0.265209        -7.2167
  49   2.0000      -0.258047        -7.0218
  50   2.0000      -0.232410        -6.3242
  51   0.0000       0.064343         1.7509
  52   0.0000       0.075558         2.0560
  53   0.0000       0.085915         2.3379
  54   0.0000       0.096014         2.6127
  55   0.0000       0.101946         2.7741

MULLIKEN ATOMIC CHARGES
-----------------------
   0 C :    0.292970
   1 C :   -0.258341
   2 C :   -0.312906
   3 C :   -0.021897
   4 O :   -0.509775
   5 H :    0.167667
   6 H :    0.148407
   7 H :    0.157128
   8 H :    0.148959
   9 H :    0.148820
  10 H :    0.144574
  11 H :    0.152968
  12 C :   -0.012591
  13 H :    0.129175
  14 H :    0.142520
  15 O :   -0.513694
  16 C :    0.069896
  17 C :    0.073616
  18 C :   -0.299594
  19 C :   -0.027348
  20 O :   -0.508666
  21 H :    0.179805
  22 O :   -0.602401
  23 H :    0.145671
  24 H :    0.163614
  25 H :    0.141310
  26 H :    0.147254
  27 H :    0.146033
  28 H :    0.366828
Sum of atomic charges:   -0.0000000

LOEWDIN ATOMIC CHARGES
----------------------
   0 C :    0.179137
   1 C :   -0.225133
   2 C :   -0.223370
   3 C :   -0.037035
   4 O :   -0.321403
   5 H :    0.112938
   6 H :    0.116758
   7 H :    0.123595
   8 H :    0.117958
   9 H :    0.109736
  10 H :    0.099661
  11 H :    0.107805
  12 C :   -0.042027
  13 H :    0.100349
  14 H :    0.105821
  15 O :   -0.317940
  16 C :    0.009682
  17 C :    0.033534
  18 C :   -0.243365
  19 C :   -0.038377
  20 O :   -0.320364
  21 H :    0.125540
  22 O :   -0.414824
  23 H :    0.111670
  24 H :    0.126774
  25 H :    0.111061
  26 H :    0.104824
  27 H :    0.102521
  28 H :    0.284474

  Mayer bond orders larger than 0.100000
B(  0-C ,  1-C ) :   0.9171 B(  0-C ,  4-O ) :   0.8988 B(  0-C ,  5-H ) :   0.9333
B(  0-C , 15-O ) :   0.8803 B(  1-C ,  2-C ) :   0.9536 B(  1-C ,  6-H ) :   0.9347
B(  1-C ,  7-H ) :   0.9372 B(  2-C ,  3-C ) :   0.9491 B(  2-C ,  8-H ) :   0.9447
B(  2-C ,  9-H ) :   0.9438 B(  3-C ,  4-O ) :   0.8377 B(  3-C , 10-H ) :   0.9285
B(  3-C , 11-H ) :   0.9384 B( 12-C , 13-H ) :   0.9045 B( 12-C , 14-H ) :   0.9353
B( 12-C , 15-O ) :   0.8477 B( 12-C , 16-C ) :   0.8834 B( 16-C , 17-C ) :   0.8971
B( 16-C , 20-O ) :   0.8637 B( 16-C , 21-H ) :   0.9207 B( 17-C , 18-C ) :   0.9104
B( 17-C , 22-O ) :   0.8950 B( 17-C , 23-H ) :   0.9336 B( 18-C , 19-C ) :   0.9397
B( 18-C , 24-H ) :   0.9371 B( 18-C , 25-H ) :   0.9342 B( 19-C , 20-O ) :   0.8534
B( 19-C , 26-H ) :   0.9343 B( 19-C , 27-H ) :   0.9375 B( 22-O , 28-H ) :   0.7928

FINAL SINGLE POINT ENERGY      -652.855266566692

DIPOLE MOMENT
-------------
                                X             Y             Z
Electronic contribution:     -1.30527      -5.79332      -0.56678
Nuclear contribution   :      1.59388       7.23768       0.55922
                        -----------------------------------------
Total Dipole Moment    :      0.28861       1.44436      -0.00757
                        -----------------------------------------
Magnitude (a.u.)       :      1.47294
Magnitude (Debye)      :      3.74391

Rotational constants in cm-1:     0.055866     0.013472     0.012491
Rotational constants in MHz :  1674.826886   403.872045   374.473899

                             ****ORCA TERMINATED NORMALLY****
TOTAL RUN TIME: 0 days 1 hours 53 minutes 50 seconds 177 msec
