                         Program Version 4.2.1 -  RELEASE  -
|  1> # Test redundant internal optimization
|  2> #
|  3> ! RKS B3LYP  Opt TightSCF SmallPrint
|  4>
|  5> %basis
|  6>         Basis "6-31G"
|  7> end
|  8>
|  9> %geom
| 10> Constraints
| 11> { D 4  0  19  14  195.0   C } # D for Dihedral angle
| 12> { D 0  19  14  12  90.0   C } # D for Dihedral angle
| 13> { D 0  4  3  2   C } # D for Dihedral angle
| 14> { D 4  3  2  1   C } # D for Dihedral angle
| 15> { D 3  2  1  0   C } # D for Dihedral angle
| 16> { D 2  1  0  4   C } # D for Dihedral angle
| 17> { D 1  0  4  3   C } # D for Dihedral angle
| 18> { D 14  15  16  17   C } # D for Dihedral angle
| 19> { D 15  16  17  12   C } # D for Dihedral angle
| 20> { D 16  17  12  14   C } # D for Dihedral angle
| 21> { D 17  12  14  15   C } # D for Dihedral angle
| 22> { D 12  14  15  16   C } # D for Dihedral angle
| 23> end
| 24> end
| 25>
| 26>
| 27> #%pal
| 28> #nprocs 8
| 29> #end
| 30>
| 31> * xyz 0 1
| 32> C  -21.048   26.222   46.251
| 33> C  -20.361   27.558   45.944
| 34> C  -20.329   28.222   47.341
| 35> C  -20.110   27.022   48.296
| 36> O  -20.473   25.807   47.535
| 37> H  -20.833   25.428   45.533
| 38> H  -19.344   27.382   45.576
| 39> H  -20.898   28.157   45.201
| 40> H  -19.543   28.978   47.434
| 41> H  -21.289   28.710   47.548
| 42> H  -20.733   27.082   49.195
| 43> H  -19.064   26.913   48.597
| 44> C  -23.576   25.046   44.656
| 45> H  -23.839   25.030   43.587
| 46> C  -23.163   26.451   45.109
| 47> C  -24.537   27.142   45.278
| 48> C  -25.444   25.999   45.799
| 49> O  -24.751   24.732   45.478
| 50> H  -22.833   24.271   44.853
| 51> O  -22.472   26.381   46.366
| 52> H  -22.517   26.962   44.387
| 53> H  -24.502   27.994   45.965
| 54> H  -24.897   27.509   44.309
| 55> H  -26.432   25.998   45.325
| 56> H  -25.572   26.030   46.885
| 57> *
| 58>
| 59>                          ****END OF INPUT****
 Total Charge           Charge          ....    0
 Multiplicity           Mult            ....    1
 Number of Electrons    NEL             ....   86
FINAL SINGLE POINT ENERGY      -538.427332501382
FINAL SINGLE POINT ENERGY      -538.429839541464
FINAL SINGLE POINT ENERGY      -538.430152433335
FINAL SINGLE POINT ENERGY      -538.430192033197
FINAL SINGLE POINT ENERGY      -538.430204500699
                    ***********************HURRAY********************

CARTESIAN COORDINATES (ANGSTROEM)
---------------------------------
  C    -21.004473   26.213265   46.231076
  C    -20.299083   27.537606   45.945847
  C    -20.353931   28.235387   47.327066
  C    -20.199907   27.057545   48.311756
  O    -20.523900   25.835912   47.528112
  H    -20.765624   25.396421   45.542447
  H    -19.262848   27.338536   45.647786
  H    -20.776597   28.122490   45.154431
  H    -19.569323   28.988210   47.448264
  H    -21.325371   28.721350   47.455977
  H    -20.880957   27.114340   49.164139
  H    -19.174389   26.934105   48.671889
  C    -23.613720   25.052197   44.597896
  H    -23.928064   25.073271   43.542785
  C    -23.165798   26.440853   45.051433
  C    -24.517380   27.132819   45.317092
  C    -25.400754   25.988518   45.869296
  O    -24.733560   24.726783   45.478577
  H    -22.857229   24.276080   44.735737
  O    -22.449578   26.390033   46.321015
  H    -22.571495   26.966074   44.291186
  H    -24.398006   27.958959   46.021963
  H    -24.919559   27.526602   44.376789
  H    -26.414527   26.002236   45.454516
  H    -25.453926   25.996411   46.960927

 Multiplicity           Mult            ....    1
 Number of Electrons    NEL             ....   86
 Basis Dimension        Dim             ....  127

ORBITAL ENERGIES
----------------

  NO   OCC          E(Eh)            E(eV)
   0   2.0000     -19.140140      -520.8297
   1   2.0000     -19.139765      -520.8195
   2   2.0000     -19.126191      -520.4501
   3   2.0000     -10.280180      -279.7379
   4   2.0000     -10.242446      -278.7111
   5   2.0000     -10.224890      -278.2334
   6   2.0000     -10.222387      -278.1653
   7   2.0000     -10.218356      -278.0556
   8   2.0000     -10.189015      -277.2572
   9   2.0000     -10.187697      -277.2213
  10   2.0000     -10.186646      -277.1927
  11   2.0000      -1.053964       -28.6798
  12   2.0000      -1.014075       -27.5944
  13   2.0000      -0.989641       -26.9295
  14   2.0000      -0.789622       -21.4867
  15   2.0000      -0.780456       -21.2373
  16   2.0000      -0.737596       -20.0710
  17   2.0000      -0.725075       -19.7303
  18   2.0000      -0.614160       -16.7121
  19   2.0000      -0.600926       -16.3520
  20   2.0000      -0.593624       -16.1533
  21   2.0000      -0.572061       -15.5666
  22   2.0000      -0.526436       -14.3250
  23   2.0000      -0.500655       -13.6235
  24   2.0000      -0.490218       -13.3395
  25   2.0000      -0.478719       -13.0266
  26   2.0000      -0.449747       -12.2382
  27   2.0000      -0.445435       -12.1209
  28   2.0000      -0.434298       -11.8179
  29   2.0000      -0.418536       -11.3889
  30   2.0000      -0.405434       -11.0324
  31   2.0000      -0.378861       -10.3093
  32   2.0000      -0.374056       -10.1786
  33   2.0000      -0.364363        -9.9148
  34   2.0000      -0.362523        -9.8648
  35   2.0000      -0.355911        -9.6848
  36   2.0000      -0.351493        -9.5646
  37   2.0000      -0.313947        -8.5429
  38   2.0000      -0.307146        -8.3579
  39   2.0000      -0.301112        -8.1937
  40   2.0000      -0.259813        -7.0699
  41   2.0000      -0.251416        -6.8414
  42   2.0000      -0.232238        -6.3195
  43   0.0000       0.074037         2.0146
  44   0.0000       0.097311         2.6480
  45   0.0000       0.099911         2.7187
  46   0.0000       0.106338         2.8936
  47   0.0000       0.116499         3.1701

MULLIKEN ATOMIC CHARGES
-----------------------
   0 C :    0.299952
   1 C :   -0.272350
   2 C :   -0.297576
   3 C :   -0.000853
   4 O :   -0.501032
   5 H :    0.137920
   6 H :    0.146068
   7 H :    0.141682
   8 H :    0.142121
   9 H :    0.158274
  10 H :    0.155347
  11 H :    0.141959
  12 C :    0.008573
  13 H :    0.120691
  14 C :    0.045873
  15 C :   -0.289816
  16 C :    0.003926
  17 O :   -0.515406
  18 H :    0.160064
  19 O :   -0.498753
  20 H :    0.121120
  21 H :    0.160304
  22 H :    0.139074
  23 H :    0.132992
  24 H :    0.159847
Sum of atomic charges:    0.0000000

LOEWDIN ATOMIC CHARGES
----------------------
   0 C :    0.179389
   1 C :   -0.230684
   2 C :   -0.216594
   3 C :   -0.024679
   4 O :   -0.301928
   5 H :    0.094989
   6 H :    0.114365
   7 H :    0.112504
   8 H :    0.114378
   9 H :    0.116964
  10 H :    0.110063
  11 H :    0.102592
  12 C :   -0.045161
  13 H :    0.089801
  14 C :    0.031715
  15 C :   -0.224044
  16 C :   -0.027155
  17 O :   -0.326197
  18 H :    0.116933
  19 O :   -0.325470
  20 H :    0.091982
  21 H :    0.126169
  22 H :    0.111328
  23 H :    0.097293
  24 H :    0.111447

  Mayer bond orders larger than 0.100000
B(  0-C ,  1-C ) :   0.9296 B(  0-C ,  4-O ) :   0.9386 B(  0-C ,  5-H ) :   0.9184
B(  0-C , 19-O ) :   0.8335 B(  1-C ,  2-C ) :   0.9524 B(  1-C ,  6-H ) :   0.9338
B(  1-C ,  7-H ) :   0.9339 B(  2-C ,  3-C ) :   0.9556 B(  2-C ,  8-H ) :   0.9449
B(  2-C ,  9-H ) :   0.9444 B(  3-C ,  4-O ) :   0.8362 B(  3-C , 10-H ) :   0.9342
B(  3-C , 11-H ) :   0.9396 B( 12-C , 13-H ) :   0.9094 B( 12-C , 14-C ) :   0.9123
B( 12-C , 17-O ) :   0.8767 B( 12-C , 18-H ) :   0.9312 B( 14-C , 15-C ) :   0.9570
B( 14-C , 19-O ) :   0.8414 B( 14-C , 20-H ) :   0.9138 B( 15-C , 16-C ) :   0.9487
B( 15-C , 21-H ) :   0.9371 B( 15-C , 22-H ) :   0.9421 B( 16-C , 17-O ) :   0.8560
B( 16-C , 23-H ) :   0.9330 B( 16-C , 24-H ) :   0.9350

FINAL SINGLE POINT ENERGY      -538.430205615529

DIPOLE MOMENT
-------------
                                X             Y             Z
Electronic contribution:     -0.62663      -4.76561       1.18743
Nuclear contribution   :      1.13520       6.32379      -2.00132
                        -----------------------------------------
Total Dipole Moment    :      0.50857       1.55818      -0.81389
                        -----------------------------------------
Magnitude (a.u.)       :      1.83003
Magnitude (Debye)      :      4.65156

Rotational constants in cm-1:     0.082728     0.019868     0.019309
Rotational constants in MHz :  2480.120933   595.637945   578.881188

                             ****ORCA TERMINATED NORMALLY****
TOTAL RUN TIME: 0 days 0 hours 5 minutes 48 seconds 453 msec
