                         Program Version 4.2.1 -  RELEASE  -
|  1> # Test redundant internal optimization
|  2> #
|  3> ! RKS B3LYP  Opt TightSCF SmallPrint
|  4>
|  5> %basis
|  6>         Basis "6-31G"
|  7> end
|  8>
|  9> %geom
| 10> Constraints
| 11> { D 4  0  19  14  180.0   C } # D for Dihedral angle
| 12> { D 0  19  14  12  45.0   C } # D for Dihedral angle
| 13> { D 0  4  3  2   C } # D for Dihedral angle
| 14> { D 4  3  2  1   C } # D for Dihedral angle
| 15> { D 3  2  1  0   C } # D for Dihedral angle
| 16> { D 2  1  0  4   C } # D for Dihedral angle
| 17> { D 1  0  4  3   C } # D for Dihedral angle
| 18> { D 14  15  16  17   C } # D for Dihedral angle
| 19> { D 15  16  17  12   C } # D for Dihedral angle
| 20> { D 16  17  12  14   C } # D for Dihedral angle
| 21> { D 17  12  14  15   C } # D for Dihedral angle
| 22> { D 12  14  15  16   C } # D for Dihedral angle
| 23> end
| 24> end
| 25>
| 26>
| 27> #%pal
| 28> #nprocs 8
| 29> #end
| 30>
| 31> * xyz 0 1
| 32> C  -21.048   26.222   46.251
| 33> C  -20.361   27.558   45.944
| 34> C  -20.329   28.222   47.341
| 35> C  -20.110   27.022   48.296
| 36> O  -20.473   25.807   47.535
| 37> H  -20.833   25.428   45.533
| 38> H  -19.344   27.382   45.576
| 39> H  -20.898   28.157   45.201
| 40> H  -19.543   28.978   47.434
| 41> H  -21.289   28.710   47.548
| 42> H  -20.733   27.082   49.195
| 43> H  -19.064   26.913   48.597
| 44> C  -22.592   25.967   43.971
| 45> H  -22.845   26.439   43.008
| 46> C  -23.122   26.788   45.152
| 47> C  -24.615   26.384   45.169
| 48> C  -24.582   24.895   44.742
| 49> O  -23.269   24.671   44.098
| 50> H  -21.519   25.770   44.002
| 51> O  -22.472   26.381   46.366
| 52> H  -22.976   27.866   45.025
| 53> H  -25.083   26.527   46.149
| 54> H  -25.177   26.982   44.441
| 55> H  -25.377   24.644   44.031
| 56> H  -24.643   24.214   45.596
| 57> *
| 58>
| 59>                          ****END OF INPUT****
 Total Charge           Charge          ....    0
 Multiplicity           Mult            ....    1
 Number of Electrons    NEL             ....   86
FINAL SINGLE POINT ENERGY      -538.419226245589
FINAL SINGLE POINT ENERGY      -538.427583600411
FINAL SINGLE POINT ENERGY      -538.428569192362
FINAL SINGLE POINT ENERGY      -538.428817924581
FINAL SINGLE POINT ENERGY      -538.428847220869
FINAL SINGLE POINT ENERGY      -538.428857111842
                    ***********************HURRAY********************

CARTESIAN COORDINATES (ANGSTROEM)
---------------------------------
  C    -20.974032   26.212352   46.238766
  C    -20.208428   27.508167   45.976170
  C    -20.313753   28.227009   47.344197
  C    -20.254200   27.058027   48.349420
  O    -20.577065   25.837183   47.566042
  H    -20.730855   25.372132   45.584617
  H    -19.165113   27.266652   45.741195
  H    -20.614501   28.100494   45.150967
  H    -19.509856   28.953022   47.498645
  H    -21.271756   28.750337   47.416980
  H    -20.977181   27.152110   49.163626
  H    -19.254326   26.905879   48.766596
  C    -22.714671   26.031982   43.801165
  H    -23.126804   26.533001   42.911799
  C    -23.117420   26.810964   45.052808
  C    -24.571465   26.342947   45.254303
  C    -24.539678   24.865288   44.800502
  O    -23.311091   24.709328   43.985720
  H    -21.642736   25.890822   43.655395
  O    -22.417107   26.416363   46.274324
  H    -23.033855   27.896503   44.909639
  H    -24.866696   26.462604   46.298791
  H    -25.244619   26.938345   44.626623
  H    -25.407517   24.592714   44.190414
  H    -24.452275   24.174777   45.642295

 Multiplicity           Mult            ....    1
 Number of Electrons    NEL             ....   86
 Basis Dimension        Dim             ....  127

ORBITAL ENERGIES
----------------

  NO   OCC          E(Eh)            E(eV)
   0   2.0000     -19.138095      -520.7740
   1   2.0000     -19.137626      -520.7613
   2   2.0000     -19.131580      -520.5968
   3   2.0000     -10.276563      -279.6395
   4   2.0000     -10.242527      -278.7133
   5   2.0000     -10.228532      -278.3325
   6   2.0000     -10.223884      -278.2060
   7   2.0000     -10.219785      -278.0945
   8   2.0000     -10.188629      -277.2467
   9   2.0000     -10.187666      -277.2205
  10   2.0000     -10.184891      -277.1450
  11   2.0000      -1.051648       -28.6168
  12   2.0000      -1.016520       -27.6609
  13   2.0000      -0.987055       -26.8591
  14   2.0000      -0.789048       -21.4711
  15   2.0000      -0.780932       -21.2503
  16   2.0000      -0.738276       -20.0895
  17   2.0000      -0.727133       -19.7863
  18   2.0000      -0.619749       -16.8642
  19   2.0000      -0.602770       -16.4022
  20   2.0000      -0.592395       -16.1199
  21   2.0000      -0.563869       -15.3437
  22   2.0000      -0.526044       -14.3144
  23   2.0000      -0.497408       -13.5352
  24   2.0000      -0.493166       -13.4197
  25   2.0000      -0.482685       -13.1345
  26   2.0000      -0.453095       -12.3293
  27   2.0000      -0.450040       -12.2462
  28   2.0000      -0.427336       -11.6284
  29   2.0000      -0.418588       -11.3904
  30   2.0000      -0.401774       -10.9328
  31   2.0000      -0.381599       -10.3838
  32   2.0000      -0.372451       -10.1349
  33   2.0000      -0.366040        -9.9604
  34   2.0000      -0.364986        -9.9318
  35   2.0000      -0.356437        -9.6991
  36   2.0000      -0.350903        -9.5486
  37   2.0000      -0.314757        -8.5650
  38   2.0000      -0.308718        -8.4007
  39   2.0000      -0.295330        -8.0363
  40   2.0000      -0.255386        -6.9494
  41   2.0000      -0.252397        -6.8681
  42   2.0000      -0.238496        -6.4898
  43   0.0000       0.072889         1.9834
  44   0.0000       0.094968         2.5842
  45   0.0000       0.104042         2.8311
  46   0.0000       0.104756         2.8506
  47   0.0000       0.111543         3.0352

MULLIKEN ATOMIC CHARGES
-----------------------
   0 C :    0.300205
   1 C :   -0.280520
   2 C :   -0.297124
   3 C :   -0.000808
   4 O :   -0.503801
   5 H :    0.159519
   6 H :    0.148456
   7 H :    0.138147
   8 H :    0.142150
   9 H :    0.156582
  10 H :    0.153101
  11 H :    0.141947
  12 C :   -0.016820
  13 H :    0.126671
  14 C :    0.069872
  15 C :   -0.287498
  16 C :   -0.000313
  17 O :   -0.520763
  18 H :    0.153021
  19 O :   -0.513548
  20 H :    0.127122
  21 H :    0.169014
  22 H :    0.137630
  23 H :    0.134074
  24 H :    0.163685
Sum of atomic charges:    0.0000000

LOEWDIN ATOMIC CHARGES
----------------------
   0 C :    0.179016
   1 C :   -0.233696
   2 C :   -0.216384
   3 C :   -0.025307
   4 O :   -0.301648
   5 H :    0.104835
   6 H :    0.116241
   7 H :    0.110803
   8 H :    0.114252
   9 H :    0.115857
  10 H :    0.108734
  11 H :    0.102495
  12 C :   -0.051237
  13 H :    0.094507
  14 C :    0.035198
  15 C :   -0.221368
  16 C :   -0.026964
  17 O :   -0.331501
  18 H :    0.111026
  19 O :   -0.330923
  20 H :    0.093598
  21 H :    0.131456
  22 H :    0.109500
  23 H :    0.098148
  24 H :    0.113362

  Mayer bond orders larger than 0.100000
B(  0-C ,  1-C ) :   0.9247 B(  0-C ,  4-O ) :   0.9289 B(  0-C ,  5-H ) :   0.9161
B(  0-C , 19-O ) :   0.8304 B(  1-C ,  2-C ) :   0.9504 B(  1-C ,  6-H ) :   0.9345
B(  1-C ,  7-H ) :   0.9339 B(  2-C ,  3-C ) :   0.9556 B(  2-C ,  8-H ) :   0.9451
B(  2-C ,  9-H ) :   0.9456 B(  3-C ,  4-O ) :   0.8380 B(  3-C , 10-H ) :   0.9346
B(  3-C , 11-H ) :   0.9397 B( 12-C , 13-H ) :   0.9110 B( 12-C , 14-C ) :   0.9113
B( 12-C , 17-O ) :   0.8731 B( 12-C , 18-H ) :   0.9277 B( 14-C , 15-C ) :   0.9517
B( 14-C , 19-O ) :   0.8444 B( 14-C , 20-H ) :   0.9165 B( 15-C , 16-C ) :   0.9470
B( 15-C , 21-H ) :   0.9351 B( 15-C , 22-H ) :   0.9410 B( 16-C , 17-O ) :   0.8496
B( 16-C , 23-H ) :   0.9339 B( 16-C , 24-H ) :   0.9350

FINAL SINGLE POINT ENERGY      -538.428857481094

DIPOLE MOMENT
-------------
                                X             Y             Z
Electronic contribution:      0.03449      -4.17158       0.37612
Nuclear contribution   :     -0.01243       5.69440      -0.67373
                        -----------------------------------------
Total Dipole Moment    :      0.02207       1.52282      -0.29761
                        -----------------------------------------
Magnitude (a.u.)       :      1.55179
Magnitude (Debye)      :      3.94433

Rotational constants in cm-1:     0.085190     0.020493     0.020151
Rotational constants in MHz :  2553.927905   614.352233   604.120684

                             ****ORCA TERMINATED NORMALLY****
TOTAL RUN TIME: 0 days 0 hours 14 minutes 41 seconds 532 msec
