                         Program Version 4.2.0 -  RELEASE  -
|  1> # Test redundant internal optimization
|  2> #
|  3> ! RKS B3LYP  Opt TightSCF SmallPrint
|  4>
|  5> %basis
|  6>         Basis "6-31G"
|  7> end
|  8>
|  9> %geom
| 10> Constraints
| 11> { D 4  0  15  12  300.0   C } # D for Dihedral angle
| 12> { D 0  15  12  16  210.0   C } # D for Dihedral angle
| 13> { D 0  4  3  2   C } # D for Dihedral angle
| 14> { D 4  3  2  1   C } # D for Dihedral angle
| 15> { D 3  2  1  0   C } # D for Dihedral angle
| 16> { D 2  1  0  4   C } # D for Dihedral angle
| 17> { D 1  0  4  3   C } # D for Dihedral angle
| 18> { D 16  20  19  18   C } # D for Dihedral angle
| 19> { D 20  19  18  17   C } # D for Dihedral angle
| 20> { D 19  18  17  16   C } # D for Dihedral angle
| 21> { D 18  17  16  20   C } # D for Dihedral angle
| 22> { D 17  16  20  19   C } # D for Dihedral angle
| 23> { D 15  12  16  20   C } # D for Dihedral angle
| 24> end
| 25> end
| 26>
| 27>
| 28> #%pal
| 29> #nprocs 8
| 30> #end
| 31>
| 32> * xyz 0 1
| 33> C  -21.048   26.222   46.251
| 34> C  -20.361   27.558   45.944
| 35> C  -20.329   28.222   47.341
| 36> C  -20.110   27.022   48.296
| 37> O  -20.473   25.807   47.535
| 38> H  -20.833   25.428   45.533
| 39> H  -19.344   27.382   45.576
| 40> H  -20.898   28.157   45.201
| 41> H  -19.543   28.978   47.434
| 42> H  -21.289   28.710   47.548
| 43> H  -20.733   27.082   49.195
| 44> H  -19.064   26.913   48.597
| 45> C  -23.362   25.116   46.798
| 46> H  -22.821   24.230   46.442
| 47> H  -23.436   25.056   47.891
| 48> O  -22.586   26.394   46.375
| 49> C  -24.805   25.072   46.223
| 50> C  -25.577   23.859   46.753
| 51> C  -25.989   24.341   48.164
| 52> C  -26.248   25.854   47.957
| 53> O  -25.579   26.226   46.692
| 54> H  -24.758   25.138   45.134
| 55> O  -26.832   23.601   45.874
| 56> H  -24.977   22.943   46.775
| 57> H  -26.868   23.817   48.553
| 58> H  -25.165   24.184   48.871
| 59> H  -25.841   26.465   48.771
| 60> H  -27.311   26.084   47.839
| 61> H  -27.448   24.506   45.838
| 62> *
| 63>
| 64>                          ****END OF INPUT****
 Total Charge           Charge          ....    0
 Multiplicity           Mult            ....    1
 Number of Electrons    NEL             ....  102
FINAL SINGLE POINT ENERGY      -652.835931984579
FINAL SINGLE POINT ENERGY      -652.860491011900
FINAL SINGLE POINT ENERGY      -652.864728374548
FINAL SINGLE POINT ENERGY      -652.865512976816
FINAL SINGLE POINT ENERGY      -652.865605642887
FINAL SINGLE POINT ENERGY      -652.865616396736
                    ***********************HURRAY********************

CARTESIAN COORDINATES (ANGSTROEM)
---------------------------------
  C    -21.131460   26.137813   46.261392
  C    -20.563220   27.517947   45.930973
  C    -20.492848   28.171390   47.328464
  C    -20.131722   26.989043   48.255165
  O    -20.459761   25.757302   47.489066
  H    -20.914635   25.338307   45.543834
  H    -19.564391   27.400964   45.495533
  H    -21.197834   28.065131   45.230929
  H    -19.754731   28.977961   47.379557
  H    -21.473126   28.580043   47.589130
  H    -20.700058   26.986886   49.188863
  H    -19.062967   26.937732   48.483984
  C    -23.249607   25.087939   46.880004
  H    -22.735714   24.188942   46.506215
  H    -23.239640   25.050437   47.975621
  O    -22.553035   26.284847   46.432021
  C    -24.668451   25.120797   46.322427
  C    -25.534063   23.929351   46.757919
  C    -26.023417   24.388561   48.157368
  C    -26.195059   25.917906   47.981813
  O    -25.419381   26.294923   46.776146
  H    -24.614925   25.196033   45.232223
  O    -26.643376   23.734123   45.837991
  H    -25.003935   22.975888   46.776998
  H    -26.952800   23.880663   48.425906
  H    -25.269751   24.155249   48.918021
  H    -25.821551   26.487237   48.838345
  H    -27.235696   26.204602   47.799982
  H    -27.020846   24.608981   45.605112

 Multiplicity           Mult            ....    1
 Number of Electrons    NEL             ....  102
 Basis Dimension        Dim             ....  149

ORBITAL ENERGIES
----------------

  NO   OCC          E(Eh)            E(eV)
   0   2.0000     -19.142776      -520.9014
   1   2.0000     -19.139607      -520.8152
   2   2.0000     -19.139529      -520.8131
   3   2.0000     -19.138334      -520.7805
   4   2.0000     -10.276855      -279.6475
   5   2.0000     -10.242945      -278.7247
   6   2.0000     -10.233086      -278.4564
   7   2.0000     -10.230022      -278.3730
   8   2.0000     -10.229195      -278.3505
   9   2.0000     -10.224351      -278.2187
  10   2.0000     -10.189290      -277.2647
  11   2.0000     -10.182944      -277.0920
  12   2.0000     -10.182617      -277.0831
  13   2.0000      -1.054528       -28.6952
  14   2.0000      -1.035178       -28.1686
  15   2.0000      -1.005465       -27.3601
  16   2.0000      -0.991894       -26.9908
  17   2.0000      -0.790113       -21.5001
  18   2.0000      -0.780686       -21.2435
  19   2.0000      -0.766249       -20.8507
  20   2.0000      -0.729099       -19.8398
  21   2.0000      -0.672191       -18.2912
  22   2.0000      -0.604350       -16.4452
  23   2.0000      -0.598551       -16.2874
  24   2.0000      -0.590556       -16.0698
  25   2.0000      -0.579642       -15.7729
  26   2.0000      -0.528004       -14.3677
  27   2.0000      -0.508364       -13.8333
  28   2.0000      -0.493556       -13.4303
  29   2.0000      -0.489185       -13.3114
  30   2.0000      -0.473922       -12.8961
  31   2.0000      -0.457868       -12.4592
  32   2.0000      -0.449565       -12.2333
  33   2.0000      -0.442113       -12.0305
  34   2.0000      -0.417997       -11.3743
  35   2.0000      -0.409645       -11.1470
  36   2.0000      -0.400327       -10.8935
  37   2.0000      -0.393148       -10.6981
  38   2.0000      -0.372222       -10.1287
  39   2.0000      -0.366839        -9.9822
  40   2.0000      -0.360714        -9.8155
  41   2.0000      -0.354832        -9.6555
  42   2.0000      -0.345700        -9.4070
  43   2.0000      -0.336087        -9.1454
  44   2.0000      -0.323702        -8.8084
  45   2.0000      -0.307064        -8.3556
  46   2.0000      -0.297160        -8.0861
  47   2.0000      -0.270879        -7.3710
  48   2.0000      -0.267454        -7.2778
  49   2.0000      -0.254514        -6.9257
  50   2.0000      -0.241054        -6.5594
  51   0.0000       0.066901         1.8205
  52   0.0000       0.086491         2.3535
  53   0.0000       0.089903         2.4464
  54   0.0000       0.100032         2.7220
  55   0.0000       0.104536         2.8446

MULLIKEN ATOMIC CHARGES
-----------------------
   0 C :    0.282743
   1 C :   -0.262572
   2 C :   -0.299644
   3 C :   -0.005493
   4 O :   -0.517066
   5 H :    0.142102
   6 H :    0.144047
   7 H :    0.162614
   8 H :    0.140317
   9 H :    0.167687
  10 H :    0.143979
  11 H :    0.143165
  12 C :    0.011450
  13 H :    0.127635
  14 H :    0.144713
  15 O :   -0.511248
  16 C :    0.066305
  17 C :    0.073526
  18 C :   -0.297093
  19 C :   -0.027252
  20 O :   -0.510869
  21 H :    0.164157
  22 O :   -0.601778
  23 H :    0.152208
  24 H :    0.162927
  25 H :    0.145055
  26 H :    0.148350
  27 H :    0.144362
  28 H :    0.365674
Sum of atomic charges:    0.0000000

LOEWDIN ATOMIC CHARGES
----------------------
   0 C :    0.170968
   1 C :   -0.214288
   2 C :   -0.216295
   3 C :   -0.028633
   4 O :   -0.334355
   5 H :    0.094032
   6 H :    0.113694
   7 H :    0.127101
   8 H :    0.113105
   9 H :    0.121841
  10 H :    0.103661
  11 H :    0.102701
  12 C :   -0.039024
  13 H :    0.099633
  14 H :    0.102773
  15 O :   -0.316695
  16 C :    0.015730
  17 C :    0.034847
  18 C :   -0.241714
  19 C :   -0.037768
  20 O :   -0.321443
  21 H :    0.118679
  22 O :   -0.414441
  23 H :    0.115304
  24 H :    0.126816
  25 H :    0.113193
  26 H :    0.105242
  27 H :    0.101629
  28 H :    0.283708

  Mayer bond orders larger than 0.100000
B(  0-C ,  1-C ) :   0.9523 B(  0-C ,  4-O ) :   0.8924 B(  0-C ,  5-H ) :   0.9173
B(  0-C , 15-O ) :   0.8709 B(  1-C ,  2-C ) :   0.9559 B(  1-C ,  6-H ) :   0.9400
B(  1-C ,  7-H ) :   0.9350 B(  2-C ,  3-C ) :   0.9558 B(  2-C ,  8-H ) :   0.9451
B(  2-C ,  9-H ) :   0.9433 B(  3-C ,  4-O ) :   0.8372 B(  3-C , 10-H ) :   0.9363
B(  3-C , 11-H ) :   0.9405 B( 12-C , 13-H ) :   0.9113 B( 12-C , 14-H ) :   0.9233
B( 12-C , 15-O ) :   0.8282 B( 12-C , 16-C ) :   0.8983 B( 16-C , 17-C ) :   0.8994
B( 16-C , 20-O ) :   0.8640 B( 16-C , 21-H ) :   0.9244 B( 17-C , 18-C ) :   0.9122
B( 17-C , 22-O ) :   0.8943 B( 17-C , 23-H ) :   0.9330 B( 18-C , 19-C ) :   0.9390
B( 18-C , 24-H ) :   0.9372 B( 18-C , 25-H ) :   0.9339 B( 19-C , 20-O ) :   0.8520
B( 19-C , 26-H ) :   0.9342 B( 19-C , 27-H ) :   0.9383 B( 22-O , 28-H ) :   0.7933

FINAL SINGLE POINT ENERGY      -652.865618505970

DIPOLE MOMENT
-------------
                                X             Y             Z
Electronic contribution:     -2.28863      -2.00460      -3.00972
Nuclear contribution   :      2.64868       2.32567       3.57674
                        -----------------------------------------
Total Dipole Moment    :      0.36005       0.32107       0.56702
                        -----------------------------------------
Magnitude (a.u.)       :      0.74447
Magnitude (Debye)      :      1.89230

Rotational constants in cm-1:     0.063033     0.011566     0.011331
Rotational constants in MHz :  1889.693673   346.740132   339.690157

                             ****ORCA TERMINATED NORMALLY****
TOTAL RUN TIME: 0 days 0 hours 31 minutes 20 seconds 100 msec
