                         Program Version 4.2.0 -  RELEASE  -
|  1> # Test redundant internal optimization
|  2> #
|  3> ! RKS B3LYP  Opt TightSCF SmallPrint
|  4>
|  5> %basis
|  6>         Basis "6-31G"
|  7> end
|  8>
|  9> %geom
| 10> Constraints
| 11> { D 4  0  15  12  150.0   C } # D for Dihedral angle
| 12> { D 0  15  12  16  60.0   C } # D for Dihedral angle
| 13> { D 0  4  3  2   C } # D for Dihedral angle
| 14> { D 4  3  2  1   C } # D for Dihedral angle
| 15> { D 3  2  1  0   C } # D for Dihedral angle
| 16> { D 2  1  0  4   C } # D for Dihedral angle
| 17> { D 1  0  4  3   C } # D for Dihedral angle
| 18> { D 16  20  19  18   C } # D for Dihedral angle
| 19> { D 20  19  18  17   C } # D for Dihedral angle
| 20> { D 19  18  17  16   C } # D for Dihedral angle
| 21> { D 18  17  16  20   C } # D for Dihedral angle
| 22> { D 17  16  20  19   C } # D for Dihedral angle
| 23> { D 15  12  16  20   C } # D for Dihedral angle
| 24> end
| 25> end
| 26>
| 27>
| 28> #%pal
| 29> #nprocs 8
| 30> #end
| 31>
| 32> * xyz 0 1
| 33> C  -21.048   26.222   46.251
| 34> C  -20.361   27.558   45.944
| 35> C  -20.329   28.222   47.341
| 36> C  -20.110   27.022   48.296
| 37> O  -20.473   25.807   47.535
| 38> H  -20.833   25.428   45.533
| 39> H  -19.344   27.382   45.576
| 40> H  -20.898   28.157   45.201
| 41> H  -19.543   28.978   47.434
| 42> H  -21.289   28.710   47.548
| 43> H  -20.733   27.082   49.195
| 44> H  -19.064   26.913   48.597
| 45> C  -23.210   27.459   45.431
| 46> H  -24.292   27.506   45.605
| 47> H  -22.785   28.450   45.637
| 48> O  -22.586   26.394   46.375
| 49> C  -22.969   27.144   43.929
| 50> C  -23.678   25.851   43.511
| 51> C  -25.136   26.335   43.335
| 52> C  -24.965   27.771   42.778
| 53> O  -23.577   28.178   43.085
| 54> H  -21.896   27.158   43.728
| 55> H  -23.272   25.491   42.558
| 56> O  -23.542   24.714   44.560
| 57> H  -25.718   25.695   42.664
| 58> H  -25.646   26.355   44.305
| 59> H  -25.658   28.484   43.237
| 60> H  -25.082   27.815   41.692
| 61> H  -23.943   25.052   45.522
| 62> *
| 63>
| 64>                          ****END OF INPUT****
 Total Charge           Charge          ....    0
 Multiplicity           Mult            ....    1
 Number of Electrons    NEL             ....  102
FINAL SINGLE POINT ENERGY      -652.825168384395
FINAL SINGLE POINT ENERGY      -652.850535524338
FINAL SINGLE POINT ENERGY      -652.856868112626
FINAL SINGLE POINT ENERGY      -652.858967511654
FINAL SINGLE POINT ENERGY      -652.859452543439
FINAL SINGLE POINT ENERGY      -652.859626437633
FINAL SINGLE POINT ENERGY      -652.859651657450
FINAL SINGLE POINT ENERGY      -652.859656132003
                    ***********************HURRAY********************

CARTESIAN COORDINATES (ANGSTROEM)
---------------------------------
  C    -21.096560   26.250994   46.246603
  C    -20.246622   27.485558   45.948172
  C    -20.261493   28.227888   47.310714
  C    -20.259021   27.065491   48.325296
  O    -20.690925   25.866327   47.563557
  H    -20.944989   25.391965   45.590934
  H    -19.232617   27.149269   45.704107
  H    -20.600735   28.103609   45.121404
  H    -19.399127   28.890000   47.431595
  H    -21.170594   28.830492   47.407718
  H    -20.949821   27.216412   49.158237
  H    -19.261782   26.843431   48.715144
  C    -23.179852   27.503404   45.425894
  H    -24.232132   27.484757   45.719989
  H    -22.794053   28.512029   45.615942
  O    -22.546886   26.520249   46.310364
  C    -23.013874   27.171871   43.935072
  C    -23.693712   25.860934   43.503318
  C    -25.179411   26.304006   43.374133
  C    -25.071228   27.750390   42.848953
  O    -23.673293   28.201472   43.133774
  H    -21.958683   27.192791   43.650171
  H    -23.312812   25.561954   42.522297
  O    -23.464970   24.734351   44.374970
  H    -25.739517   25.649413   42.701285
  H    -25.658684   26.259016   44.358469
  H    -25.767201   28.442213   43.332708
  H    -25.202812   27.816352   41.765197
  H    -23.376593   25.046364   45.306985

 Multiplicity           Mult            ....    1
 Number of Electrons    NEL             ....  102
 Basis Dimension        Dim             ....  149

ORBITAL ENERGIES
----------------

  NO   OCC          E(Eh)            E(eV)
   0   2.0000     -19.156595      -521.2774
   1   2.0000     -19.147220      -521.0223
   2   2.0000     -19.145655      -520.9797
   3   2.0000     -19.125664      -520.4358
   4   2.0000     -10.288555      -279.9658
   5   2.0000     -10.240229      -278.6508
   6   2.0000     -10.238411      -278.6013
   7   2.0000     -10.237478      -278.5759
   8   2.0000     -10.232143      -278.4308
   9   2.0000     -10.231595      -278.4159
  10   2.0000     -10.198248      -277.5084
  11   2.0000     -10.196595      -277.4635
  12   2.0000     -10.185857      -277.1713
  13   2.0000      -1.061221       -28.8773
  14   2.0000      -1.030320       -28.0364
  15   2.0000      -1.007218       -27.4078
  16   2.0000      -0.997362       -27.1396
  17   2.0000      -0.795432       -21.6448
  18   2.0000      -0.778124       -21.1738
  19   2.0000      -0.770529       -20.9672
  20   2.0000      -0.741858       -20.1870
  21   2.0000      -0.685415       -18.6511
  22   2.0000      -0.609598       -16.5880
  23   2.0000      -0.608153       -16.5487
  24   2.0000      -0.601878       -16.3779
  25   2.0000      -0.572889       -15.5891
  26   2.0000      -0.538574       -14.6554
  27   2.0000      -0.514901       -14.0112
  28   2.0000      -0.503358       -13.6971
  29   2.0000      -0.491923       -13.3859
  30   2.0000      -0.474711       -12.9175
  31   2.0000      -0.462829       -12.5942
  32   2.0000      -0.448120       -12.1940
  33   2.0000      -0.437346       -11.9008
  34   2.0000      -0.427363       -11.6291
  35   2.0000      -0.419897       -11.4260
  36   2.0000      -0.408508       -11.1161
  37   2.0000      -0.400024       -10.8852
  38   2.0000      -0.387342       -10.5401
  39   2.0000      -0.375818       -10.2265
  40   2.0000      -0.365521        -9.9463
  41   2.0000      -0.363478        -9.8907
  42   2.0000      -0.353641        -9.6231
  43   2.0000      -0.339414        -9.2359
  44   2.0000      -0.325147        -8.8477
  45   2.0000      -0.310473        -8.4484
  46   2.0000      -0.301378        -8.2009
  47   2.0000      -0.277205        -7.5431
  48   2.0000      -0.264203        -7.1893
  49   2.0000      -0.256982        -6.9928
  50   2.0000      -0.242204        -6.5907
  51   0.0000       0.057050         1.5524
  52   0.0000       0.069689         1.8963
  53   0.0000       0.087508         2.3812
  54   0.0000       0.095417         2.5964
  55   0.0000       0.101034         2.7493

MULLIKEN ATOMIC CHARGES
-----------------------
   0 C :    0.306769
   1 C :   -0.304018
   2 C :   -0.302006
   3 C :   -0.001862
   4 O :   -0.495957
   5 H :    0.167188
   6 H :    0.159320
   7 H :    0.155532
   8 H :    0.148695
   9 H :    0.156611
  10 H :    0.156141
  11 H :    0.147348
  12 C :   -0.045139
  13 H :    0.164005
  14 H :    0.150752
  15 O :   -0.541606
  16 C :    0.054660
  17 C :    0.108700
  18 C :   -0.310559
  19 C :   -0.022427
  20 O :   -0.522002
  21 H :    0.153889
  22 H :    0.152746
  23 O :   -0.628359
  24 H :    0.157107
  25 H :    0.146931
  26 H :    0.145412
  27 H :    0.152607
  28 H :    0.389522
Sum of atomic charges:   -0.0000000

LOEWDIN ATOMIC CHARGES
----------------------
   0 C :    0.177815
   1 C :   -0.233071
   2 C :   -0.216504
   3 C :   -0.025616
   4 O :   -0.299683
   5 H :    0.109663
   6 H :    0.123521
   7 H :    0.118762
   8 H :    0.117797
   9 H :    0.113870
  10 H :    0.110428
  11 H :    0.105686
  12 C :   -0.054177
  13 H :    0.117300
  14 H :    0.104956
  15 O :   -0.341359
  16 C :    0.001548
  17 C :    0.039512
  18 C :   -0.240562
  19 C :   -0.032203
  20 O :   -0.325035
  21 H :    0.108499
  22 H :    0.110211
  23 O :   -0.425641
  24 H :    0.123875
  25 H :    0.111772
  26 H :    0.103647
  27 H :    0.107714
  28 H :    0.287275

  Mayer bond orders larger than 0.100000
B(  0-C ,  1-C ) :   0.9365 B(  0-C ,  4-O ) :   0.9387 B(  0-C ,  5-H ) :   0.9168
B(  0-C , 15-O ) :   0.7941 B(  1-C ,  2-C ) :   0.9470 B(  1-C ,  6-H ) :   0.9340
B(  1-C ,  7-H ) :   0.9232 B(  2-C ,  3-C ) :   0.9531 B(  2-C ,  8-H ) :   0.9448
B(  2-C ,  9-H ) :   0.9435 B(  3-C ,  4-O ) :   0.8323 B(  3-C , 10-H ) :   0.9345
B(  3-C , 11-H ) :   0.9394 B( 12-C , 13-H ) :   0.9358 B( 12-C , 14-H ) :   0.9172
B( 12-C , 15-O ) :   0.8141 B( 12-C , 16-C ) :   0.8797 B( 16-C , 17-C ) :   0.9007
B( 16-C , 20-O ) :   0.8510 B( 16-C , 21-H ) :   0.9245 B( 17-C , 18-C ) :   0.9040
B( 17-C , 22-H ) :   0.9343 B( 17-C , 23-O ) :   0.9321 B( 18-C , 19-C ) :   0.9410
B( 18-C , 24-H ) :   0.9429 B( 18-C , 25-H ) :   0.9423 B( 19-C , 20-O ) :   0.8317
B( 19-C , 26-H ) :   0.9334 B( 19-C , 27-H ) :   0.9382 B( 23-O , 28-H ) :   0.7298

FINAL SINGLE POINT ENERGY      -652.859656345243

DIPOLE MOMENT
-------------
                                X             Y             Z
Electronic contribution:     -0.15947      -3.60245       0.05671
Nuclear contribution   :      0.33819       4.84295      -0.07778
                        -----------------------------------------
Total Dipole Moment    :      0.17872       1.24050      -0.02107
                        -----------------------------------------
Magnitude (a.u.)       :      1.25349
Magnitude (Debye)      :      3.18611

Rotational constants in cm-1:     0.059903     0.014336     0.012771
Rotational constants in MHz :  1795.836362   429.795019   382.855884

                             ****ORCA TERMINATED NORMALLY****
TOTAL RUN TIME: 0 days 0 hours 16 minutes 15 seconds 987 msec
