                         Program Version 4.2.0 -  RELEASE  -
|  1> # Test redundant internal optimization
|  2> #
|  3> ! RKS B3LYP  Opt TightSCF SmallPrint
|  4>
|  5> %basis
|  6>         Basis "6-31G"
|  7> end
|  8>
|  9> %geom
| 10> Constraints
| 11> { D 4  0  15  12  240.0   C } # D for Dihedral angle
| 12> { D 0  15  12  16  120.0   C } # D for Dihedral angle
| 13> { D 0  4  3  2   C } # D for Dihedral angle
| 14> { D 4  3  2  1   C } # D for Dihedral angle
| 15> { D 3  2  1  0   C } # D for Dihedral angle
| 16> { D 2  1  0  4   C } # D for Dihedral angle
| 17> { D 1  0  4  3   C } # D for Dihedral angle
| 18> { D 16  20  19  18   C } # D for Dihedral angle
| 19> { D 20  19  18  17   C } # D for Dihedral angle
| 20> { D 19  18  17  16   C } # D for Dihedral angle
| 21> { D 18  17  16  20   C } # D for Dihedral angle
| 22> { D 17  16  20  19   C } # D for Dihedral angle
| 23> { D 15  12  16  20   C } # D for Dihedral angle
| 24> end
| 25> end
| 26>
| 27>
| 28> #%pal
| 29> #nprocs 8
| 30> #end
| 31>
| 32> * xyz 0 1
| 33> C  -21.048   26.222   46.251
| 34> C  -20.361   27.558   45.944
| 35> C  -20.329   28.222   47.341
| 36> C  -20.110   27.022   48.296
| 37> O  -20.473   25.807   47.535
| 38> H  -20.833   25.428   45.533
| 39> H  -19.344   27.382   45.576
| 40> H  -20.898   28.157   45.201
| 41> H  -19.543   28.978   47.434
| 42> H  -21.289   28.710   47.548
| 43> H  -20.733   27.082   49.195
| 44> H  -19.064   26.913   48.597
| 45> C  -23.430   25.483   45.442
| 46> H  -24.035   26.109   44.775
| 47> H  -22.775   24.855   44.823
| 48> O  -22.586   26.394   46.375
| 49> C  -24.384   24.540   46.226
| 50> C  -25.448   25.336   46.990
| 51> C  -26.456   25.674   45.865
| 52> C  -26.405   24.418   44.960
| 53> O  -25.155   23.705   45.299
| 54> H  -23.791   23.866   46.847
| 55> H  -25.917   24.702   47.752
| 56> O  -24.879   26.601   47.690
| 57> H  -27.463   25.875   46.244
| 58> H  -26.121   26.561   45.315
| 59> H  -26.397   24.669   43.894
| 60> H  -27.232   23.729   45.154
| 61> H  -24.405   27.251   46.946
| 62> *
| 63>
| 64>                          ****END OF INPUT****
 Total Charge           Charge          ....    0
 Multiplicity           Mult            ....    1
 Number of Electrons    NEL             ....  102
FINAL SINGLE POINT ENERGY      -652.831521785480
FINAL SINGLE POINT ENERGY      -652.855547133309
FINAL SINGLE POINT ENERGY      -652.861709157086
FINAL SINGLE POINT ENERGY      -652.863950530739
FINAL SINGLE POINT ENERGY      -652.865302636308
FINAL SINGLE POINT ENERGY      -652.866144443048
FINAL SINGLE POINT ENERGY      -652.866531003750
FINAL SINGLE POINT ENERGY      -652.866621160682
FINAL SINGLE POINT ENERGY      -652.866632887331
                    ***********************HURRAY********************

CARTESIAN COORDINATES (ANGSTROEM)
---------------------------------
  C    -21.072564   26.158152   46.196496
  C    -20.421596   27.513732   45.927726
  C    -20.531327   28.201179   47.309923
  C    -20.342436   27.028147   48.295713
  O    -20.598353   25.794532   47.502267
  H    -20.798412   25.352378   45.510383
  H    -19.372148   27.360495   45.650259
  H    -20.922001   28.065755   45.129106
  H    -19.782343   28.986224   47.449076
  H    -21.522615   28.650721   47.423877
  H    -21.039856   27.050913   49.136486
  H    -19.319305   26.947807   48.673333
  C    -23.336747   25.455819   45.327191
  H    -23.877802   26.109309   44.635113
  H    -22.697751   24.781772   44.744767
  O    -22.522043   26.305203   46.203471
  C    -24.296868   24.628183   46.188881
  C    -25.319886   25.452245   46.988617
  C    -26.387458   25.770548   45.901781
  C    -26.390347   24.498482   45.029130
  O    -25.114274   23.778134   45.325536
  H    -23.713057   23.963109   46.831119
  H    -25.762705   24.808236   47.757170
  O    -24.807532   26.628368   47.645180
  H    -27.364310   25.985336   46.342536
  H    -26.070184   26.657121   45.342156
  H    -26.432720   24.707672   43.955575
  H    -27.201006   23.810712   45.287029
  H    -23.886354   26.798717   47.338101

 Multiplicity           Mult            ....    1
 Number of Electrons    NEL             ....  102
 Basis Dimension        Dim             ....  149

ORBITAL ENERGIES
----------------

  NO   OCC          E(Eh)            E(eV)
   0   2.0000     -19.163035      -521.4527
   1   2.0000     -19.149036      -521.0718
   2   2.0000     -19.139605      -520.8151
   3   2.0000     -19.111424      -520.0483
   4   2.0000     -10.293439      -280.0987
   5   2.0000     -10.241079      -278.6739
   6   2.0000     -10.231670      -278.4179
   7   2.0000     -10.231338      -278.4089
   8   2.0000     -10.228474      -278.3309
   9   2.0000     -10.225874      -278.2602
  10   2.0000     -10.193888      -277.3898
  11   2.0000     -10.192922      -277.3635
  12   2.0000     -10.177772      -276.9512
  13   2.0000      -1.064791       -28.9744
  14   2.0000      -1.024206       -27.8701
  15   2.0000      -1.007305       -27.4102
  16   2.0000      -0.990573       -26.9549
  17   2.0000      -0.795489       -21.6464
  18   2.0000      -0.772497       -21.0207
  19   2.0000      -0.766697       -20.8629
  20   2.0000      -0.736116       -20.0307
  21   2.0000      -0.679614       -18.4932
  22   2.0000      -0.606988       -16.5170
  23   2.0000      -0.601652       -16.3718
  24   2.0000      -0.594468       -16.1763
  25   2.0000      -0.581373       -15.8200
  26   2.0000      -0.528323       -14.3764
  27   2.0000      -0.522918       -14.2293
  28   2.0000      -0.497597       -13.5403
  29   2.0000      -0.487781       -13.2732
  30   2.0000      -0.472446       -12.8559
  31   2.0000      -0.456043       -12.4095
  32   2.0000      -0.449030       -12.2187
  33   2.0000      -0.437280       -11.8990
  34   2.0000      -0.425452       -11.5771
  35   2.0000      -0.414725       -11.2852
  36   2.0000      -0.407428       -11.0867
  37   2.0000      -0.386409       -10.5147
  38   2.0000      -0.381556       -10.3827
  39   2.0000      -0.366038        -9.9604
  40   2.0000      -0.363281        -9.8854
  41   2.0000      -0.360782        -9.8174
  42   2.0000      -0.347439        -9.4543
  43   2.0000      -0.341835        -9.3018
  44   2.0000      -0.327152        -8.9023
  45   2.0000      -0.318814        -8.6754
  46   2.0000      -0.286311        -7.7909
  47   2.0000      -0.281322        -7.6552
  48   2.0000      -0.262333        -7.1384
  49   2.0000      -0.246276        -6.7015
  50   2.0000      -0.239877        -6.5274
  51   0.0000       0.054179         1.4743
  52   0.0000       0.082241         2.2379
  53   0.0000       0.090255         2.4560
  54   0.0000       0.098002         2.6668
  55   0.0000       0.103558         2.8180

MULLIKEN ATOMIC CHARGES
-----------------------
   0 C :    0.296198
   1 C :   -0.254137
   2 C :   -0.306159
   3 C :   -0.009436
   4 O :   -0.499192
   5 H :    0.149107
   6 H :    0.149152
   7 H :    0.150106
   8 H :    0.147523
   9 H :    0.164516
  10 H :    0.161254
  11 H :    0.147086
  12 C :   -0.025510
  13 H :    0.151192
  14 H :    0.152930
  15 O :   -0.559308
  16 C :    0.059109
  17 C :    0.122265
  18 C :   -0.295218
  19 C :   -0.026937
  20 O :   -0.521436
  21 H :    0.163951
  22 H :    0.145984
  23 O :   -0.646940
  24 H :    0.149206
  25 H :    0.143912
  26 H :    0.142325
  27 H :    0.150847
  28 H :    0.397610
Sum of atomic charges:   -0.0000000

LOEWDIN ATOMIC CHARGES
----------------------
   0 C :    0.180297
   1 C :   -0.220528
   2 C :   -0.217220
   3 C :   -0.027706
   4 O :   -0.312432
   5 H :    0.103640
   6 H :    0.116129
   7 H :    0.120247
   8 H :    0.117261
   9 H :    0.119267
  10 H :    0.112245
  11 H :    0.105509
  12 C :   -0.040236
  13 H :    0.105955
  14 H :    0.110556
  15 O :   -0.343757
  16 C :    0.012358
  17 C :    0.042769
  18 C :   -0.234920
  19 C :   -0.034283
  20 O :   -0.326029
  21 H :    0.117603
  22 H :    0.104566
  23 O :   -0.437580
  24 H :    0.120743
  25 H :    0.110701
  26 H :    0.101650
  27 H :    0.106512
  28 H :    0.286683

  Mayer bond orders larger than 0.100000
B(  0-C ,  1-C ) :   0.9442 B(  0-C ,  4-O ) :   0.9470 B(  0-C ,  5-H ) :   0.9185
B(  0-C , 15-O ) :   0.7989 B(  1-C ,  2-C ) :   0.9551 B(  1-C ,  6-H ) :   0.9353
B(  1-C ,  7-H ) :   0.9378 B(  2-C ,  3-C ) :   0.9526 B(  2-C ,  8-H ) :   0.9448
B(  2-C ,  9-H ) :   0.9434 B(  3-C ,  4-O ) :   0.8299 B(  3-C , 10-H ) :   0.9333
B(  3-C , 11-H ) :   0.9395 B( 12-C , 13-H ) :   0.9315 B( 12-C , 14-H ) :   0.9242
B( 12-C , 15-O ) :   0.7939 B( 12-C , 16-C ) :   0.8924 B( 16-C , 17-C ) :   0.9177
B( 16-C , 20-O ) :   0.8525 B( 16-C , 21-H ) :   0.9290 B( 17-C , 18-C ) :   0.9020
B( 17-C , 22-H ) :   0.9301 B( 17-C , 23-O ) :   0.9307 B( 18-C , 19-C ) :   0.9399
B( 18-C , 24-H ) :   0.9452 B( 18-C , 25-H ) :   0.9435 B( 19-C , 20-O ) :   0.8344
B( 19-C , 26-H ) :   0.9341 B( 19-C , 27-H ) :   0.9380 B( 23-O , 28-H ) :   0.7208

FINAL SINGLE POINT ENERGY      -652.866634975633

DIPOLE MOMENT
-------------
                                X             Y             Z
Electronic contribution:     -0.18114      -3.90416       1.14141
Nuclear contribution   :      0.86532       4.67294      -1.96884
                        -----------------------------------------
Total Dipole Moment    :      0.68418       0.76879      -0.82743
                        -----------------------------------------
Magnitude (a.u.)       :      1.32052
Magnitude (Debye)      :      3.35650

Rotational constants in cm-1:     0.060649     0.013175     0.012363
Rotational constants in MHz :  1818.207021   394.976477   370.647742

                             ****ORCA TERMINATED NORMALLY****
TOTAL RUN TIME: 0 days 0 hours 32 minutes 45 seconds 142 msec
