                         Program Version 4.2.1 -  RELEASE  -
|  1> # Test redundant internal optimization
|  2> #
|  3> ! RKS B3LYP  Opt TightSCF SmallPrint
|  4>
|  5> %basis
|  6>         Basis "6-31G"
|  7> end
|  8>
|  9> %geom
| 10> Constraints
| 11> { D 4  0  19  14  240.0   C } # D for Dihedral angle
| 12> { D 0  19  14  12  135.0   C } # D for Dihedral angle
| 13> { D 0  4  3  2   C } # D for Dihedral angle
| 14> { D 4  3  2  1   C } # D for Dihedral angle
| 15> { D 3  2  1  0   C } # D for Dihedral angle
| 16> { D 2  1  0  4   C } # D for Dihedral angle
| 17> { D 1  0  4  3   C } # D for Dihedral angle
| 18> { D 14  15  16  17   C } # D for Dihedral angle
| 19> { D 15  16  17  12   C } # D for Dihedral angle
| 20> { D 16  17  12  14   C } # D for Dihedral angle
| 21> { D 17  12  14  15   C } # D for Dihedral angle
| 22> { D 12  14  15  16   C } # D for Dihedral angle
| 23> end
| 24> end
| 25>
| 26>
| 27> #%pal
| 28> #nprocs 8
| 29> #end
| 30>
| 31> * xyz 0 1
| 32> C  -21.048   26.222   46.251
| 33> C  -20.361   27.558   45.944
| 34> C  -20.329   28.222   47.341
| 35> C  -20.110   27.022   48.296
| 36> O  -20.473   25.807   47.535
| 37> H  -20.833   25.428   45.533
| 38> H  -19.344   27.382   45.576
| 39> H  -20.898   28.157   45.201
| 40> H  -19.543   28.978   47.434
| 41> H  -21.289   28.710   47.548
| 42> H  -20.733   27.082   49.195
| 43> H  -19.064   26.913   48.597
| 44> C  -24.399   24.897   46.268
| 45> H  -24.818   24.035   45.725
| 46> C  -23.235   25.530   45.496
| 47> C  -23.982   26.366   44.431
| 48> C  -25.245   26.852   45.187
| 49> O  -25.393   25.972   46.367
| 50> H  -24.154   24.594   47.287
| 51> O  -22.472   26.381   46.366
| 52> H  -22.558   24.790   45.056
| 53> H  -23.382   27.196   44.044
| 54> H  -24.262   25.732   43.581
| 55> H  -26.151   26.788   44.575
| 56> H  -25.141   27.875   45.560
| 57> *
| 58>
| 59>                          ****END OF INPUT****
 Total Charge           Charge          ....    0
 Multiplicity           Mult            ....    1
 Number of Electrons    NEL             ....   86
FINAL SINGLE POINT ENERGY      -538.429542587438
FINAL SINGLE POINT ENERGY      -538.431805943212
FINAL SINGLE POINT ENERGY      -538.431989406602
FINAL SINGLE POINT ENERGY      -538.432022826135
FINAL SINGLE POINT ENERGY      -538.432029277863
FINAL SINGLE POINT ENERGY      -538.432030470835
                    ***********************HURRAY********************

CARTESIAN COORDINATES (ANGSTROEM)
---------------------------------
  C    -20.972537   26.194989   46.219751
  C    -20.349236   27.564187   45.948411
  C    -20.399197   28.221833   47.349040
  C    -20.150106   27.028678   48.298212
  O    -20.429089   25.809895   47.497909
  H    -20.708733   25.406134   45.507898
  H    -19.312128   27.434121   45.616288
  H    -20.897025   28.125354   45.188060
  H    -19.655682   29.015145   47.470223
  H    -21.393366   28.645831   47.518632
  H    -20.806714   27.031385   49.171541
  H    -19.108817   26.956722   48.626630
  C    -24.394157   24.921417   46.286038
  H    -24.862926   24.069051   45.771529
  C    -23.243902   25.491713   45.454620
  C    -24.000541   26.345621   44.417455
  C    -25.203048   26.896050   45.222132
  O    -25.332252   26.036866   46.416997
  H    -24.081650   24.629320   47.288496
  O    -22.411916   26.333043   46.304197
  H    -22.630419   24.707269   44.991823
  H    -23.367477   27.135852   44.005684
  H    -24.336738   25.706492   43.592574
  H    -26.138760   26.866066   44.652472
  H    -25.030584   27.915965   45.577387

 Multiplicity           Mult            ....    1
 Number of Electrons    NEL             ....   86
 Basis Dimension        Dim             ....  127

ORBITAL ENERGIES
----------------

  NO   OCC          E(Eh)            E(eV)
   0   2.0000     -19.139484      -520.8118
   1   2.0000     -19.136652      -520.7348
   2   2.0000     -19.125470      -520.4305
   3   2.0000     -10.280218      -279.7389
   4   2.0000     -10.242670      -278.7172
   5   2.0000     -10.222033      -278.1557
   6   2.0000     -10.219733      -278.0931
   7   2.0000     -10.218175      -278.0507
   8   2.0000     -10.186650      -277.1928
   9   2.0000     -10.184676      -277.1391
  10   2.0000     -10.183476      -277.1065
  11   2.0000      -1.051819       -28.6215
  12   2.0000      -1.012820       -27.5602
  13   2.0000      -0.989314       -26.9206
  14   2.0000      -0.789710       -21.4891
  15   2.0000      -0.776939       -21.1416
  16   2.0000      -0.739479       -20.1223
  17   2.0000      -0.719785       -19.5864
  18   2.0000      -0.605636       -16.4802
  19   2.0000      -0.599421       -16.3111
  20   2.0000      -0.594944       -16.1892
  21   2.0000      -0.581296       -15.8179
  22   2.0000      -0.520130       -14.1535
  23   2.0000      -0.503769       -13.7082
  24   2.0000      -0.481014       -13.0890
  25   2.0000      -0.476613       -12.9693
  26   2.0000      -0.450821       -12.2675
  27   2.0000      -0.445006       -12.1092
  28   2.0000      -0.427513       -11.6332
  29   2.0000      -0.413803       -11.2602
  30   2.0000      -0.406547       -11.0627
  31   2.0000      -0.385790       -10.4979
  32   2.0000      -0.372655       -10.1405
  33   2.0000      -0.364661        -9.9229
  34   2.0000      -0.355738        -9.6801
  35   2.0000      -0.352664        -9.5965
  36   2.0000      -0.345344        -9.3973
  37   2.0000      -0.314512        -8.5583
  38   2.0000      -0.308850        -8.4042
  39   2.0000      -0.297770        -8.1027
  40   2.0000      -0.264909        -7.2085
  41   2.0000      -0.248225        -6.7546
  42   2.0000      -0.229456        -6.2438
  43   0.0000       0.073555         2.0015
  44   0.0000       0.086557         2.3553
  45   0.0000       0.098178         2.6716
  46   0.0000       0.115086         3.1316
  47   0.0000       0.124333         3.3833

MULLIKEN ATOMIC CHARGES
-----------------------
   0 C :    0.283909
   1 C :   -0.253755
   2 C :   -0.300486
   3 C :   -0.000582
   4 O :   -0.503144
   5 H :    0.137038
   6 H :    0.141662
   7 H :    0.143424
   8 H :    0.140233
   9 H :    0.166014
  10 H :    0.153987
  11 H :    0.139564
  12 C :    0.010950
  13 H :    0.120756
  14 C :    0.063669
  15 C :   -0.286602
  16 C :    0.003890
  17 O :   -0.518257
  18 H :    0.170101
  19 O :   -0.510302
  20 H :    0.124986
  21 H :    0.148035
  22 H :    0.139641
  23 H :    0.134428
  24 H :    0.150841
Sum of atomic charges:    0.0000000

LOEWDIN ATOMIC CHARGES
----------------------
   0 C :    0.176356
   1 C :   -0.221677
   2 C :   -0.216563
   3 C :   -0.026180
   4 O :   -0.317674
   5 H :    0.095996
   6 H :    0.111819
   7 H :    0.115859
   8 H :    0.113339
   9 H :    0.121089
  10 H :    0.109090
  11 H :    0.101193
  12 C :   -0.037162
  13 H :    0.089804
  14 C :    0.041655
  15 C :   -0.233229
  16 C :   -0.028080
  17 O :   -0.328431
  18 H :    0.124687
  19 O :   -0.324219
  20 H :    0.097076
  21 H :    0.119138
  22 H :    0.111718
  23 H :    0.097614
  24 H :    0.106783

  Mayer bond orders larger than 0.100000
B(  0-C ,  1-C ) :   0.9421 B(  0-C ,  4-O ) :   0.9302 B(  0-C ,  5-H ) :   0.9166
B(  0-C , 19-O ) :   0.8505 B(  1-C ,  2-C ) :   0.9576 B(  1-C ,  6-H ) :   0.9367
B(  1-C ,  7-H ) :   0.9382 B(  2-C ,  3-C ) :   0.9544 B(  2-C ,  8-H ) :   0.9452
B(  2-C ,  9-H ) :   0.9429 B(  3-C ,  4-O ) :   0.8374 B(  3-C , 10-H ) :   0.9344
B(  3-C , 11-H ) :   0.9399 B( 12-C , 13-H ) :   0.9133 B( 12-C , 14-C ) :   0.9316
B( 12-C , 17-O ) :   0.8712 B( 12-C , 18-H ) :   0.9307 B( 14-C , 15-C ) :   0.9404
B( 14-C , 19-O ) :   0.8332 B( 14-C , 20-H ) :   0.9182 B( 15-C , 16-C ) :   0.9478
B( 15-C , 21-H ) :   0.9406 B( 15-C , 22-H ) :   0.9379 B( 16-C , 17-O ) :   0.8576
B( 16-C , 23-H ) :   0.9333 B( 16-C , 24-H ) :   0.9360

FINAL SINGLE POINT ENERGY      -538.432030658545

DIPOLE MOMENT
-------------
                                X             Y             Z
Electronic contribution:     -1.19017      -2.96600       2.17185
Nuclear contribution   :      1.87919       3.33430      -3.28475
                        -----------------------------------------
Total Dipole Moment    :      0.68901       0.36830      -1.11290
                        -----------------------------------------
Magnitude (a.u.)       :      1.35975
Magnitude (Debye)      :      3.45621

Rotational constants in cm-1:     0.078098     0.020082     0.019222
Rotational constants in MHz :  2341.332897   602.035791   576.274798

                             ****ORCA TERMINATED NORMALLY****
TOTAL RUN TIME: 0 days 0 hours 13 minutes 23 seconds 433 msec
