                         Program Version 4.2.0 -  RELEASE  -
|  1> # Test redundant internal optimization
|  2> #
|  3> ! RKS B3LYP  Opt TightSCF SmallPrint
|  4>
|  5> %basis
|  6>         Basis "6-31G"
|  7> end
|  8>
|  9> %geom
| 10> Constraints
| 11> { D 4  0  15  12  135.0   C } # D for Dihedral angle
| 12> { D 0  15  12  16  75.0   C } # D for Dihedral angle
| 13> { D 0  4  3  2   C } # D for Dihedral angle
| 14> { D 4  3  2  1   C } # D for Dihedral angle
| 15> { D 3  2  1  0   C } # D for Dihedral angle
| 16> { D 2  1  0  4   C } # D for Dihedral angle
| 17> { D 1  0  4  3   C } # D for Dihedral angle
| 18> { D 16  20  19  18   C } # D for Dihedral angle
| 19> { D 20  19  18  17   C } # D for Dihedral angle
| 20> { D 19  18  17  16   C } # D for Dihedral angle
| 21> { D 18  17  16  20   C } # D for Dihedral angle
| 22> { D 17  16  20  19   C } # D for Dihedral angle
| 23> { D 15  12  16  20   C } # D for Dihedral angle
| 24> end
| 25> end
| 26>
| 27>
| 28> #%pal
| 29> #nprocs 8
| 30> #end
| 31>
| 32> * xyz 0 1
| 33> C  -21.048   26.222   46.251
| 34> C  -20.361   27.558   45.944
| 35> C  -20.329   28.222   47.341
| 36> C  -20.110   27.022   48.296
| 37> O  -20.473   25.807   47.535
| 38> H  -20.833   25.428   45.533
| 39> H  -19.344   27.382   45.576
| 40> H  -20.898   28.157   45.201
| 41> H  -19.543   28.978   47.434
| 42> H  -21.289   28.710   47.548
| 43> H  -20.733   27.082   49.195
| 44> H  -19.064   26.913   48.597
| 45> C  -23.162   27.680   45.721
| 46> H  -24.180   27.850   46.092
| 47> H  -22.550   28.552   45.985
| 48> O  -22.586   26.394   46.375
| 49> C  -23.215   27.592   44.170
| 50> C  -24.188   26.501   43.708
| 51> C  -25.554   27.210   43.869
| 52> C  -25.233   28.680   43.500
| 53> O  -23.766   28.829   43.606
| 54> H  -22.200   27.487   43.782
| 55> H  -24.002   26.253   42.656
| 56> O  -24.083   25.196   44.544
| 57> H  -26.332   26.780   43.231
| 58> H  -25.894   27.137   44.909
| 59> H  -25.715   29.396   44.174
| 60> H  -25.509   28.921   42.470
| 61> H  -24.265   25.420   45.600
| 62> *
| 63>
| 64>                          ****END OF INPUT****
 Total Charge           Charge          ....    0
 Multiplicity           Mult            ....    1
 Number of Electrons    NEL             ....  102
FINAL SINGLE POINT ENERGY      -652.821459898270
FINAL SINGLE POINT ENERGY      -652.847500623283
FINAL SINGLE POINT ENERGY      -652.854779690946
FINAL SINGLE POINT ENERGY      -652.857538215849
FINAL SINGLE POINT ENERGY      -652.858528974606
FINAL SINGLE POINT ENERGY      -652.858871981902
FINAL SINGLE POINT ENERGY      -652.858980430354
FINAL SINGLE POINT ENERGY      -652.858992298911
                    ***********************HURRAY********************

CARTESIAN COORDINATES (ANGSTROEM)
---------------------------------
  C    -21.146825   26.287787   46.277399
  C    -20.244350   27.479562   45.952961
  C    -20.172919   28.215812   47.318785
  C    -20.195080   27.047473   48.328787
  O    -20.714329   25.876239   47.580198
  H    -21.035492   25.423205   45.621507
  H    -19.258689   27.090141   45.676387
  H    -20.593112   28.115040   45.136331
  H    -19.271879   28.829124   47.411050
  H    -21.041082   28.868674   47.453872
  H    -20.845460   27.230745   49.187638
  H    -19.196950   26.774275   48.681761
  C    -23.189356   27.771798   45.732404
  H    -24.180873   27.830237   46.187355
  H    -22.643604   28.684745   45.991638
  O    -22.587638   26.580745   46.340068
  C    -23.283534   27.647630   44.205344
  C    -24.199151   26.510629   43.719408
  C    -25.608360   27.151091   43.880269
  C    -25.363820   28.634091   43.535545
  O    -23.889677   28.859495   43.656178
  H    -22.283142   27.576512   43.768774
  H    -24.003447   26.323552   42.658643
  O    -24.030977   25.247849   44.392634
  H    -26.344244   26.678573   43.224819
  H    -25.948179   27.018351   44.913298
  H    -25.879282   29.328732   44.205487
  H    -25.630173   28.876140   42.503064
  H    -23.677377   25.400753   45.301394

 Multiplicity           Mult            ....    1
 Number of Electrons    NEL             ....  102
 Basis Dimension        Dim             ....  149

ORBITAL ENERGIES
----------------

  NO   OCC          E(Eh)            E(eV)
   0   2.0000     -19.159155      -521.3471
   1   2.0000     -19.148286      -521.0514
   2   2.0000     -19.144444      -520.9468
   3   2.0000     -19.119134      -520.2581
   4   2.0000     -10.291397      -280.0431
   5   2.0000     -10.241253      -278.6787
   6   2.0000     -10.237113      -278.5660
   7   2.0000     -10.234415      -278.4926
   8   2.0000     -10.233625      -278.4711
   9   2.0000     -10.230205      -278.3780
  10   2.0000     -10.201637      -277.6006
  11   2.0000     -10.199684      -277.5475
  12   2.0000     -10.182924      -277.0915
  13   2.0000      -1.062025       -28.8992
  14   2.0000      -1.028803       -27.9952
  15   2.0000      -1.006850       -27.3978
  16   2.0000      -0.995478       -27.0883
  17   2.0000      -0.797895       -21.7118
  18   2.0000      -0.777077       -21.1453
  19   2.0000      -0.770768       -20.9737
  20   2.0000      -0.742126       -20.1943
  21   2.0000      -0.686013       -18.6674
  22   2.0000      -0.612067       -16.6552
  23   2.0000      -0.606413       -16.5013
  24   2.0000      -0.599592       -16.3157
  25   2.0000      -0.574560       -15.6346
  26   2.0000      -0.539960       -14.6931
  27   2.0000      -0.513671       -13.9777
  28   2.0000      -0.506206       -13.7746
  29   2.0000      -0.491151       -13.3649
  30   2.0000      -0.475662       -12.9434
  31   2.0000      -0.463368       -12.6089
  32   2.0000      -0.446254       -12.1432
  33   2.0000      -0.438717       -11.9381
  34   2.0000      -0.426934       -11.6175
  35   2.0000      -0.420385       -11.4393
  36   2.0000      -0.409768       -11.1503
  37   2.0000      -0.395973       -10.7750
  38   2.0000      -0.390622       -10.6294
  39   2.0000      -0.375727       -10.2241
  40   2.0000      -0.366098        -9.9620
  41   2.0000      -0.364678        -9.9234
  42   2.0000      -0.351649        -9.5689
  43   2.0000      -0.339387        -9.2352
  44   2.0000      -0.325821        -8.8661
  45   2.0000      -0.311216        -8.4686
  46   2.0000      -0.296142        -8.0584
  47   2.0000      -0.280385        -7.6297
  48   2.0000      -0.265949        -7.2368
  49   2.0000      -0.252501        -6.8709
  50   2.0000      -0.240801        -6.5525
  51   0.0000       0.056507         1.5376
  52   0.0000       0.069774         1.8987
  53   0.0000       0.089604         2.4382
  54   0.0000       0.093676         2.5491
  55   0.0000       0.100841         2.7440

MULLIKEN ATOMIC CHARGES
-----------------------
   0 C :    0.318000
   1 C :   -0.309759
   2 C :   -0.305901
   3 C :   -0.003493
   4 O :   -0.492976
   5 H :    0.167104
   6 H :    0.162109
   7 H :    0.157013
   8 H :    0.150526
   9 H :    0.156569
  10 H :    0.155147
  11 H :    0.148674
  12 C :   -0.043016
  13 H :    0.165670
  14 H :    0.152228
  15 O :   -0.550714
  16 C :    0.050145
  17 C :    0.115483
  18 C :   -0.307746
  19 C :   -0.018141
  20 O :   -0.522518
  21 H :    0.152298
  22 H :    0.151103
  23 O :   -0.635976
  24 H :    0.155863
  25 H :    0.145309
  26 H :    0.144886
  27 H :    0.148418
  28 H :    0.393692
Sum of atomic charges:    0.0000000

LOEWDIN ATOMIC CHARGES
----------------------
   0 C :    0.181351
   1 C :   -0.232524
   2 C :   -0.218109
   3 C :   -0.027162
   4 O :   -0.302979
   5 H :    0.110570
   6 H :    0.125743
   7 H :    0.119456
   8 H :    0.118820
   9 H :    0.112448
  10 H :    0.109621
  11 H :    0.106327
  12 C :   -0.051575
  13 H :    0.118140
  14 H :    0.106505
  15 O :   -0.339462
  16 C :    0.002301
  17 C :    0.040561
  18 C :   -0.239258
  19 C :   -0.031118
  20 O :   -0.326603
  21 H :    0.107573
  22 H :    0.108152
  23 O :   -0.430607
  24 H :    0.123258
  25 H :    0.111198
  26 H :    0.103102
  27 H :    0.106265
  28 H :    0.288007

  Mayer bond orders larger than 0.100000
B(  0-C ,  1-C ) :   0.9374 B(  0-C ,  4-O ) :   0.9379 B(  0-C ,  5-H ) :   0.9248
B(  0-C , 15-O ) :   0.8034 B(  1-C ,  2-C ) :   0.9486 B(  1-C ,  6-H ) :   0.9333
B(  1-C ,  7-H ) :   0.9231 B(  2-C ,  3-C ) :   0.9505 B(  2-C ,  8-H ) :   0.9447
B(  2-C ,  9-H ) :   0.9396 B(  3-C ,  4-O ) :   0.8351 B(  3-C , 10-H ) :   0.9343
B(  3-C , 11-H ) :   0.9392 B( 12-C , 13-H ) :   0.9353 B( 12-C , 14-H ) :   0.9139
B( 12-C , 15-O ) :   0.8076 B( 12-C , 16-C ) :   0.8800 B( 16-C , 17-C ) :   0.9054
B( 16-C , 20-O ) :   0.8534 B( 16-C , 21-H ) :   0.9253 B( 17-C , 18-C ) :   0.9003
B( 17-C , 22-H ) :   0.9332 B( 17-C , 23-O ) :   0.9364 B( 18-C , 19-C ) :   0.9391
B( 18-C , 24-H ) :   0.9436 B( 18-C , 25-H ) :   0.9435 B( 19-C , 20-O ) :   0.8294
B( 19-C , 26-H ) :   0.9339 B( 19-C , 27-H ) :   0.9392 B( 23-O , 28-H ) :   0.7241

FINAL SINGLE POINT ENERGY      -652.858994119754

DIPOLE MOMENT
-------------
                                X             Y             Z
Electronic contribution:     -0.39400      -3.83103      -0.32985
Nuclear contribution   :      0.84506       5.11717       0.50118
                        -----------------------------------------
Total Dipole Moment    :      0.45106       1.28615       0.17133
                        -----------------------------------------
Magnitude (a.u.)       :      1.37368
Magnitude (Debye)      :      3.49161

Rotational constants in cm-1:     0.058366     0.014195     0.012624
Rotational constants in MHz :  1749.758452   425.567615   378.463319

                             ****ORCA TERMINATED NORMALLY****
TOTAL RUN TIME: 0 days 1 hours 0 minutes 24 seconds 180 msec
