                         Program Version 4.2.0 -  RELEASE  -
|  1> # Test redundant internal optimization
|  2> #
|  3> ! RKS B3LYP  Opt TightSCF SmallPrint
|  4>
|  5> %basis
|  6>         Basis "6-31G"
|  7> end
|  8>
|  9> %geom
| 10> Constraints
| 11> { D 4  0  15  12  195.0   C } # D for Dihedral angle
| 12> { D 0  15  12  16  45.0   C } # D for Dihedral angle
| 13> { D 0  4  3  2   C } # D for Dihedral angle
| 14> { D 4  3  2  1   C } # D for Dihedral angle
| 15> { D 3  2  1  0   C } # D for Dihedral angle
| 16> { D 2  1  0  4   C } # D for Dihedral angle
| 17> { D 1  0  4  3   C } # D for Dihedral angle
| 18> { D 16  20  19  18   C } # D for Dihedral angle
| 19> { D 20  19  18  17   C } # D for Dihedral angle
| 20> { D 19  18  17  16   C } # D for Dihedral angle
| 21> { D 18  17  16  20   C } # D for Dihedral angle
| 22> { D 17  16  20  19   C } # D for Dihedral angle
| 23> { D 15  12  16  20   C } # D for Dihedral angle
| 24> end
| 25> end
| 26>
| 27>
| 28> #%pal
| 29> #nprocs 8
| 30> #end
| 31>
| 32> * xyz 0 1
| 33> C  -21.048   26.222   46.251
| 34> C  -20.361   27.558   45.944
| 35> C  -20.329   28.222   47.341
| 36> C  -20.110   27.022   48.296
| 37> O  -20.473   25.807   47.535
| 38> H  -20.833   25.428   45.533
| 39> H  -19.344   27.382   45.576
| 40> H  -20.898   28.157   45.201
| 41> H  -19.543   28.978   47.434
| 42> H  -21.289   28.710   47.548
| 43> H  -20.733   27.082   49.195
| 44> H  -19.064   26.913   48.597
| 45> C  -23.353   26.472   45.026
| 46> H  -24.425   26.332   45.211
| 47> H  -23.211   27.456   44.560
| 48> O  -22.586   26.394   46.375
| 49> C  -22.887   25.395   44.008
| 50> C  -23.206   23.982   44.508
| 51> C  -24.713   23.864   44.177
| 52> C  -24.846   24.662   42.855
| 53> O  -23.642   25.514   42.756
| 54> H  -21.836   25.563   43.765
| 55> H  -22.627   23.243   43.941
| 56> O  -22.903   23.786   46.018
| 57> H  -25.045   22.827   44.074
| 58> H  -25.309   24.329   44.971
| 59> H  -25.738   25.297   42.837
| 60> H  -24.856   24.013   41.976
| 61> H  -23.472   24.515   46.605
| 62> *
| 63>
| 64>                          ****END OF INPUT****
 Total Charge           Charge          ....    0
 Multiplicity           Mult            ....    1
 Number of Electrons    NEL             ....  102
FINAL SINGLE POINT ENERGY      -652.828022710751
FINAL SINGLE POINT ENERGY      -652.852840865569
FINAL SINGLE POINT ENERGY      -652.858583022123
FINAL SINGLE POINT ENERGY      -652.860340616936
FINAL SINGLE POINT ENERGY      -652.860601282332
FINAL SINGLE POINT ENERGY      -652.860703730412
FINAL SINGLE POINT ENERGY      -652.860710519790
                    ***********************HURRAY********************

CARTESIAN COORDINATES (ANGSTROEM)
---------------------------------
  C    -21.015722   26.206389   46.233659
  C    -20.273875   27.509910   45.951728
  C    -20.396655   28.246923   47.305566
  C    -20.319398   27.100036   48.333062
  O    -20.618552   25.858296   47.565365
  H    -20.771233   25.357023   45.595971
  H    -19.226644   27.284774   45.718084
  H    -20.697760   28.076665   45.117154
  H    -19.607355   28.990740   47.450165
  H    -21.364520   28.752761   47.364623
  H    -21.048371   27.191948   49.141724
  H    -19.319161   26.968810   48.755421
  C    -23.225479   26.465392   45.016616
  H    -24.269926   26.394039   45.330432
  H    -23.088381   27.439196   44.526833
  O    -22.468887   26.420644   46.273588
  C    -22.883709   25.371332   43.992927
  C    -23.209356   23.941532   44.457276
  C    -24.749517   23.881819   44.238509
  C    -24.958205   24.737465   42.972746
  O    -23.725423   25.568366   42.813270
  H    -21.852727   25.471192   43.643360
  H    -22.715042   23.223466   43.797149
  O    -22.769535   23.601674   45.788108
  H    -25.100539   22.853737   44.119339
  H    -25.257502   24.307966   45.111398
  H    -25.823500   25.403995   43.035687
  H    -25.043162   24.132520   42.065599
  H    -22.879863   24.366388   46.398643

 Multiplicity           Mult            ....    1
 Number of Electrons    NEL             ....  102
 Basis Dimension        Dim             ....  149

ORBITAL ENERGIES
----------------

  NO   OCC          E(Eh)            E(eV)
   0   2.0000     -19.154091      -521.2093
   1   2.0000     -19.146029      -520.9899
   2   2.0000     -19.145153      -520.9661
   3   2.0000     -19.128854      -520.5226
   4   2.0000     -10.283962      -279.8408
   5   2.0000     -10.239254      -278.6243
   6   2.0000     -10.238294      -278.5981
   7   2.0000     -10.238058      -278.5917
   8   2.0000     -10.232154      -278.4311
   9   2.0000     -10.227910      -278.3156
  10   2.0000     -10.191420      -277.3226
  11   2.0000     -10.189387      -277.2673
  12   2.0000     -10.186641      -277.1926
  13   2.0000      -1.059178       -28.8217
  14   2.0000      -1.030638       -28.0451
  15   2.0000      -1.007082       -27.4041
  16   2.0000      -0.997042       -27.1309
  17   2.0000      -0.790562       -21.5123
  18   2.0000      -0.778121       -21.1737
  19   2.0000      -0.768796       -20.9200
  20   2.0000      -0.738535       -20.0966
  21   2.0000      -0.682603       -18.5746
  22   2.0000      -0.611110       -16.6291
  23   2.0000      -0.604703       -16.4548
  24   2.0000      -0.601581       -16.3699
  25   2.0000      -0.568475       -15.4690
  26   2.0000      -0.532593       -14.4926
  27   2.0000      -0.521681       -14.1957
  28   2.0000      -0.497266       -13.5313
  29   2.0000      -0.489149       -13.3104
  30   2.0000      -0.469244       -12.7688
  31   2.0000      -0.461493       -12.5579
  32   2.0000      -0.450611       -12.2617
  33   2.0000      -0.430181       -11.7058
  34   2.0000      -0.424676       -11.5560
  35   2.0000      -0.420784       -11.4501
  36   2.0000      -0.404827       -11.0159
  37   2.0000      -0.401882       -10.9358
  38   2.0000      -0.379307       -10.3215
  39   2.0000      -0.374544       -10.1919
  40   2.0000      -0.362869        -9.8742
  41   2.0000      -0.360252        -9.8030
  42   2.0000      -0.353851        -9.6288
  43   2.0000      -0.338127        -9.2009
  44   2.0000      -0.321184        -8.7399
  45   2.0000      -0.313695        -8.5361
  46   2.0000      -0.303047        -8.2463
  47   2.0000      -0.269820        -7.3422
  48   2.0000      -0.263614        -7.1733
  49   2.0000      -0.256538        -6.9807
  50   2.0000      -0.243516        -6.6264
  51   0.0000       0.057199         1.5565
  52   0.0000       0.073689         2.0052
  53   0.0000       0.088683         2.4132
  54   0.0000       0.094692         2.5767
  55   0.0000       0.108212         2.9446

MULLIKEN ATOMIC CHARGES
-----------------------
   0 C :    0.278293
   1 C :   -0.269862
   2 C :   -0.297363
   3 C :   -0.004358
   4 O :   -0.503752
   5 H :    0.166266
   6 H :    0.150652
   7 H :    0.145766
   8 H :    0.144050
   9 H :    0.161605
  10 H :    0.155837
  11 H :    0.145745
  12 C :   -0.035310
  13 H :    0.159490
  14 H :    0.151726
  15 O :   -0.532145
  16 C :    0.045802
  17 C :    0.112244
  18 C :   -0.312040
  19 C :   -0.018765
  20 O :   -0.522968
  21 H :    0.154231
  22 H :    0.157989
  23 O :   -0.618836
  24 H :    0.156393
  25 H :    0.146173
  26 H :    0.144999
  27 H :    0.150983
  28 H :    0.387157
Sum of atomic charges:    0.0000000

LOEWDIN ATOMIC CHARGES
----------------------
   0 C :    0.168939
   1 C :   -0.226912
   2 C :   -0.215731
   3 C :   -0.025013
   4 O :   -0.301616
   5 H :    0.107271
   6 H :    0.117031
   7 H :    0.115880
   8 H :    0.115347
   9 H :    0.118801
  10 H :    0.110334
  11 H :    0.104633
  12 C :   -0.055028
  13 H :    0.114891
  14 H :    0.105013
  15 O :   -0.341315
  16 C :    0.001954
  17 C :    0.037665
  18 C :   -0.239429
  19 C :   -0.031168
  20 O :   -0.322410
  21 H :    0.110171
  22 H :    0.113141
  23 O :   -0.416397
  24 H :    0.123696
  25 H :    0.111174
  26 H :    0.103427
  27 H :    0.107352
  28 H :    0.288297

  Mayer bond orders larger than 0.100000
B(  0-C ,  1-C ) :   0.9341 B(  0-C ,  4-O ) :   0.9309 B(  0-C ,  5-H ) :   0.9076
B(  0-C , 15-O ) :   0.7933 B(  1-C ,  2-C ) :   0.9507 B(  1-C ,  6-H ) :   0.9349
B(  1-C ,  7-H ) :   0.9355 B(  2-C ,  3-C ) :   0.9555 B(  2-C ,  8-H ) :   0.9448
B(  2-C ,  9-H ) :   0.9445 B(  3-C ,  4-O ) :   0.8318 B(  3-C , 10-H ) :   0.9348
B(  3-C , 11-H ) :   0.9396 B( 12-C , 13-H ) :   0.9364 B( 12-C , 14-H ) :   0.9211
B( 12-C , 15-O ) :   0.8208 B( 12-C , 16-C ) :   0.8846 B( 16-C , 17-C ) :   0.8954
B( 16-C , 20-O ) :   0.8429 B( 16-C , 21-H ) :   0.9293 B( 17-C , 18-C ) :   0.9048
B( 17-C , 22-H ) :   0.9334 B( 17-C , 23-O ) :   0.9287 B( 18-C , 19-C ) :   0.9392
B( 18-C , 24-H ) :   0.9433 B( 18-C , 25-H ) :   0.9430 B( 19-C , 20-O ) :   0.8325
B( 19-C , 26-H ) :   0.9337 B( 19-C , 27-H ) :   0.9387 B( 23-O , 28-H ) :   0.7406

FINAL SINGLE POINT ENERGY      -652.860712437958

DIPOLE MOMENT
-------------
                                X             Y             Z
Electronic contribution:      0.16063      -2.95075       0.02605
Nuclear contribution   :     -0.28192       3.93308      -0.30823
                        -----------------------------------------
Total Dipole Moment    :     -0.12129       0.98232      -0.28218
                        -----------------------------------------
Magnitude (a.u.)       :      1.02922
Magnitude (Debye)      :      2.61607

Rotational constants in cm-1:     0.063386     0.013948     0.012511
Rotational constants in MHz :  1900.258485   418.137951   375.076016

                             ****ORCA TERMINATED NORMALLY****
TOTAL RUN TIME: 0 days 0 hours 43 minutes 29 seconds 210 msec
