                         Program Version 4.2.0 -  RELEASE  -
|  1> # Test redundant internal optimization
|  2> #
|  3> ! RKS B3LYP  Opt TightSCF SmallPrint
|  4>
|  5> %basis
|  6>         Basis "6-31G"
|  7> end
|  8>
|  9> %geom
| 10> Constraints
| 11> { D 4  0  15  12  210.0   C } # D for Dihedral angle
| 12> { D 0  15  12  16  180.0   C } # D for Dihedral angle
| 13> { D 0  4  3  2   C } # D for Dihedral angle
| 14> { D 4  3  2  1   C } # D for Dihedral angle
| 15> { D 3  2  1  0   C } # D for Dihedral angle
| 16> { D 2  1  0  4   C } # D for Dihedral angle
| 17> { D 1  0  4  3   C } # D for Dihedral angle
| 18> { D 16  20  19  18   C } # D for Dihedral angle
| 19> { D 20  19  18  17   C } # D for Dihedral angle
| 20> { D 19  18  17  16   C } # D for Dihedral angle
| 21> { D 18  17  16  20   C } # D for Dihedral angle
| 22> { D 17  16  20  19   C } # D for Dihedral angle
| 23> { D 15  12  16  20   C } # D for Dihedral angle
| 24> end
| 25> end
| 26>
| 27>
| 28> #%pal
| 29> #nprocs 8
| 30> #end
| 31>
| 32> * xyz 0 1
| 33> C  -21.048   26.222   46.251
| 34> C  -20.361   27.558   45.944
| 35> C  -20.329   28.222   47.341
| 36> C  -20.110   27.022   48.296
| 37> O  -20.473   25.807   47.535
| 38> H  -20.833   25.428   45.533
| 39> H  -19.344   27.382   45.576
| 40> H  -20.898   28.157   45.201
| 41> H  -19.543   28.978   47.434
| 42> H  -21.289   28.710   47.548
| 43> H  -20.733   27.082   49.195
| 44> H  -19.064   26.913   48.597
| 45> C  -23.389   26.110   45.076
| 46> H  -23.052   26.792   44.286
| 47> H  -23.219   25.081   44.736
| 48> O  -22.586   26.394   46.375
| 49> C  -24.920   26.299   45.263
| 50> C  -25.689   25.900   43.999
| 51> C  -25.708   24.357   44.117
| 52> C  -25.829   24.124   45.644
| 53> O  -25.426   25.388   46.296
| 54> H  -25.116   27.316   45.609
| 55> O  -27.132   26.472   44.049
| 56> H  -25.211   26.249   43.077
| 57> H  -26.531   23.899   43.559
| 58> H  -24.770   23.938   43.735
| 59> H  -25.179   23.316   45.997
| 60> H  -26.856   23.913   45.954
| 61> H  -27.630   26.135   44.965
| 62> *
| 63>
| 64>                          ****END OF INPUT****
 Total Charge           Charge          ....    0
 Multiplicity           Mult            ....    1
 Number of Electrons    NEL             ....  102
FINAL SINGLE POINT ENERGY      -652.830040999366
FINAL SINGLE POINT ENERGY      -652.853850333609
FINAL SINGLE POINT ENERGY      -652.857604531845
FINAL SINGLE POINT ENERGY      -652.858295385186
FINAL SINGLE POINT ENERGY      -652.858389828955
FINAL SINGLE POINT ENERGY      -652.858398115364
                    ***********************HURRAY********************

CARTESIAN COORDINATES (ANGSTROEM)
---------------------------------
  C    -21.084579   26.201767   46.165860
  C    -20.438268   27.562191   45.913889
  C    -20.516164   28.217870   47.313156
  C    -20.306836   27.022423   48.266450
  O    -20.581759   25.808495   47.451607
  H    -20.819177   25.411532   45.454980
  H    -19.395625   27.421118   45.604499
  H    -20.952889   28.140999   45.141291
  H    -19.766509   29.002235   47.452969
  H    -21.508754   28.654332   47.458188
  H    -20.986857   27.027779   49.121365
  H    -19.275390   26.933874   48.620289
  C    -23.244062   26.044979   45.019828
  H    -22.942301   26.739661   44.218293
  H    -23.019525   25.020453   44.684628
  O    -22.532006   26.326880   46.247639
  C    -24.735912   26.223615   45.287549
  C    -25.625824   25.915260   44.075798
  C    -25.752632   24.370589   44.160720
  C    -25.776843   24.107923   45.686828
  O    -25.230225   25.326475   46.331858
  H    -24.901802   27.240807   45.654678
  O    -26.918141   26.568350   44.207396
  H    -25.221614   26.264696   43.124631
  H    -26.657603   24.029684   43.651787
  H    -24.889196   23.891192   43.685961
  H    -25.168204   23.247509   45.979695
  H    -26.790962   23.965568   46.072743
  H    -27.228342   26.475743   45.133428

 Multiplicity           Mult            ....    1
 Number of Electrons    NEL             ....  102
 Basis Dimension        Dim             ....  149

ORBITAL ENERGIES
----------------

  NO   OCC          E(Eh)            E(eV)
   0   2.0000     -19.139889      -520.8229
   1   2.0000     -19.139852      -520.8218
   2   2.0000     -19.139819      -520.8210
   3   2.0000     -19.137417      -520.7556
   4   2.0000     -10.278261      -279.6857
   5   2.0000     -10.244456      -278.7658
   6   2.0000     -10.236382      -278.5461
   7   2.0000     -10.235631      -278.5257
   8   2.0000     -10.229096      -278.3479
   9   2.0000     -10.222018      -278.1553
  10   2.0000     -10.190406      -277.2950
  11   2.0000     -10.185799      -277.1697
  12   2.0000     -10.184205      -277.1263
  13   2.0000      -1.052685       -28.6450
  14   2.0000      -1.036629       -28.2081
  15   2.0000      -1.006953       -27.4006
  16   2.0000      -0.993593       -27.0371
  17   2.0000      -0.788334       -21.4517
  18   2.0000      -0.782572       -21.2949
  19   2.0000      -0.768375       -20.9086
  20   2.0000      -0.729756       -19.8577
  21   2.0000      -0.675180       -18.3726
  22   2.0000      -0.605244       -16.4695
  23   2.0000      -0.598405       -16.2834
  24   2.0000      -0.589969       -16.0539
  25   2.0000      -0.586547       -15.9607
  26   2.0000      -0.525887       -14.3101
  27   2.0000      -0.512363       -13.9421
  28   2.0000      -0.495085       -13.4720
  29   2.0000      -0.488397       -13.2900
  30   2.0000      -0.476030       -12.9534
  31   2.0000      -0.460371       -12.5273
  32   2.0000      -0.453606       -12.3432
  33   2.0000      -0.440574       -11.9886
  34   2.0000      -0.428171       -11.6511
  35   2.0000      -0.406336       -11.0570
  36   2.0000      -0.401646       -10.9293
  37   2.0000      -0.394001       -10.7213
  38   2.0000      -0.374558       -10.1922
  39   2.0000      -0.372586       -10.1386
  40   2.0000      -0.358595        -9.7579
  41   2.0000      -0.356404        -9.6982
  42   2.0000      -0.352059        -9.5800
  43   2.0000      -0.332865        -9.0577
  44   2.0000      -0.311177        -8.4676
  45   2.0000      -0.308931        -8.4064
  46   2.0000      -0.304332        -8.2813
  47   2.0000      -0.272259        -7.4085
  48   2.0000      -0.259767        -7.0686
  49   2.0000      -0.249887        -6.7998
  50   2.0000      -0.243375        -6.6226
  51   0.0000       0.065107         1.7717
  52   0.0000       0.081944         2.2298
  53   0.0000       0.086235         2.3466
  54   0.0000       0.096530         2.6267
  55   0.0000       0.104238         2.8364

MULLIKEN ATOMIC CHARGES
-----------------------
   0 C :    0.296761
   1 C :   -0.263985
   2 C :   -0.298773
   3 C :   -0.001387
   4 O :   -0.501554
   5 H :    0.135241
   6 H :    0.143126
   7 H :    0.141304
   8 H :    0.140972
   9 H :    0.162851
  10 H :    0.157549
  11 H :    0.140036
  12 C :    0.004632
  13 H :    0.120284
  14 H :    0.124883
  15 O :   -0.500897
  16 C :    0.070009
  17 C :    0.076754
  18 C :   -0.293518
  19 C :   -0.027210
  20 O :   -0.506092
  21 H :    0.167206
  22 O :   -0.603142
  23 H :    0.147034
  24 H :    0.163360
  25 H :    0.141927
  26 H :    0.151143
  27 H :    0.144875
  28 H :    0.366608
Sum of atomic charges:   -0.0000000

LOEWDIN ATOMIC CHARGES
----------------------
   0 C :    0.177874
   1 C :   -0.227830
   2 C :   -0.216619
   3 C :   -0.025065
   4 O :   -0.305384
   5 H :    0.095470
   6 H :    0.112665
   7 H :    0.113833
   8 H :    0.113930
   9 H :    0.119620
  10 H :    0.111121
  11 H :    0.101559
  12 C :   -0.041338
  13 H :    0.088571
  14 H :    0.091409
  15 O :   -0.321625
  16 C :    0.019850
  17 C :    0.035627
  18 C :   -0.240691
  19 C :   -0.037436
  20 O :   -0.316625
  21 H :    0.120202
  22 O :   -0.414538
  23 H :    0.113223
  24 H :    0.126941
  25 H :    0.111543
  26 H :    0.107063
  27 H :    0.102275
  28 H :    0.284375

  Mayer bond orders larger than 0.100000
B(  0-C ,  1-C ) :   0.9335 B(  0-C ,  4-O ) :   0.9373 B(  0-C ,  5-H ) :   0.9187
B(  0-C , 15-O ) :   0.8325 B(  1-C ,  2-C ) :   0.9548 B(  1-C ,  6-H ) :   0.9345
B(  1-C ,  7-H ) :   0.9373 B(  2-C ,  3-C ) :   0.9553 B(  2-C ,  8-H ) :   0.9451
B(  2-C ,  9-H ) :   0.9434 B(  3-C ,  4-O ) :   0.8363 B(  3-C , 10-H ) :   0.9338
B(  3-C , 11-H ) :   0.9397 B( 12-C , 13-H ) :   0.9060 B( 12-C , 14-H ) :   0.9123
B( 12-C , 15-O ) :   0.8498 B( 12-C , 16-C ) :   0.9006 B( 16-C , 17-C ) :   0.9002
B( 16-C , 20-O ) :   0.8719 B( 16-C , 21-H ) :   0.9242 B( 17-C , 18-C ) :   0.9115
B( 17-C , 22-O ) :   0.8923 B( 17-C , 23-H ) :   0.9340 B( 18-C , 19-C ) :   0.9384
B( 18-C , 24-H ) :   0.9374 B( 18-C , 25-H ) :   0.9340 B( 19-C , 20-O ) :   0.8514
B( 19-C , 26-H ) :   0.9340 B( 19-C , 27-H ) :   0.9379 B( 22-O , 28-H ) :   0.7929

FINAL SINGLE POINT ENERGY      -652.858400272168

DIPOLE MOMENT
-------------
                                X             Y             Z
Electronic contribution:     -2.74785      -1.18349       1.71877
Nuclear contribution   :      3.28563       1.33206      -2.50936
                        -----------------------------------------
Total Dipole Moment    :      0.53778       0.14857      -0.79060
                        -----------------------------------------
Magnitude (a.u.)       :      0.96764
Magnitude (Debye)      :      2.45955

Rotational constants in cm-1:     0.065162     0.011265     0.010739
Rotational constants in MHz :  1953.519508   337.723848   321.950627

                             ****ORCA TERMINATED NORMALLY****
TOTAL RUN TIME: 0 days 0 hours 21 minutes 48 seconds 45 msec
