                         Program Version 4.2.0 -  RELEASE  -
|  1> # Test redundant internal optimization
|  2> #
|  3> ! RKS B3LYP  Opt TightSCF SmallPrint
|  4>
|  5> %basis
|  6>         Basis "6-31G"
|  7> end
|  8>
|  9> %geom
| 10> Constraints
| 11> { D 4  0  15  12  345.0   C } # D for Dihedral angle
| 12> { D 0  15  12  16  150.0   C } # D for Dihedral angle
| 13> { D 0  4  3  2   C } # D for Dihedral angle
| 14> { D 4  3  2  1   C } # D for Dihedral angle
| 15> { D 3  2  1  0   C } # D for Dihedral angle
| 16> { D 2  1  0  4   C } # D for Dihedral angle
| 17> { D 1  0  4  3   C } # D for Dihedral angle
| 18> { D 16  20  19  18   C } # D for Dihedral angle
| 19> { D 20  19  18  17   C } # D for Dihedral angle
| 20> { D 19  18  17  16   C } # D for Dihedral angle
| 21> { D 18  17  16  20   C } # D for Dihedral angle
| 22> { D 17  16  20  19   C } # D for Dihedral angle
| 23> { D 15  12  16  20   C } # D for Dihedral angle
| 24> end
| 25> end
| 26>
| 27>
| 28> #%pal
| 29> #nprocs 8
| 30> #end
| 31>
| 32> * xyz 0 1
| 33> C  -21.048   26.222   46.251
| 34> C  -20.361   27.558   45.944
| 35> C  -20.329   28.222   47.341
| 36> C  -20.110   27.022   48.296
| 37> O  -20.473   25.807   47.535
| 38> H  -20.833   25.428   45.533
| 39> H  -19.344   27.382   45.576
| 40> H  -20.898   28.157   45.201
| 41> H  -19.543   28.978   47.434
| 42> H  -21.289   28.710   47.548
| 43> H  -20.733   27.082   49.195
| 44> H  -19.064   26.913   48.597
| 45> C  -23.221   25.764   47.645
| 46> H  -23.501   24.725   47.432
| 47> H  -22.501   25.762   48.474
| 48> O  -22.586   26.394   46.375
| 49> C  -24.489   26.524   48.123
| 50> C  -24.193   28.011   48.354
| 51> C  -24.218   28.564   46.909
| 52> C  -25.319   27.715   46.226
| 53> O  -25.515   26.519   47.075
| 54> H  -24.911   26.008   48.987
| 55> O  -25.322   28.652   49.206
| 56> H  -23.237   28.186   48.860
| 57> H  -24.433   29.637   46.869
| 58> H  -23.247   28.399   46.426
| 59> H  -25.038   27.397   45.217
| 60> H  -26.279   28.236   46.179
| 61> H  -26.289   28.489   48.718
| 62> *
| 63>
| 64>                          ****END OF INPUT****
 Total Charge           Charge          ....    0
 Multiplicity           Mult            ....    1
 Number of Electrons    NEL             ....  102
FINAL SINGLE POINT ENERGY      -652.833498481540
FINAL SINGLE POINT ENERGY      -652.855393017814
FINAL SINGLE POINT ENERGY      -652.859719564541
FINAL SINGLE POINT ENERGY      -652.861235583841
FINAL SINGLE POINT ENERGY      -652.861378910261
FINAL SINGLE POINT ENERGY      -652.861400000146
                    ***********************HURRAY********************

CARTESIAN COORDINATES (ANGSTROEM)
---------------------------------
  C    -21.076707   26.156171   46.363639
  C    -20.441760   27.487640   45.960385
  C    -20.310717   28.203296   47.326049
  C    -19.996227   27.046432   48.300060
  O    -20.406870   25.800617   47.590556
  H    -20.883706   25.331382   45.671700
  H    -19.456341   27.293787   45.522319
  H    -21.049250   28.036174   45.237371
  H    -19.525482   28.965593   47.325550
  H    -21.253544   28.691845   47.588981
  H    -20.543487   27.111436   49.244684
  H    -18.928383   26.943277   48.510382
  C    -23.191461   25.761010   47.661676
  H    -23.491388   24.724571   47.459597
  H    -22.505054   25.752896   48.514674
  O    -22.526715   26.296111   46.477595
  C    -24.444687   26.558646   48.009626
  C    -24.269672   28.049597   48.336849
  C    -24.288295   28.690787   46.923187
  C    -25.300444   27.802668   46.155938
  O    -25.430239   26.547466   46.927997
  H    -24.912857   26.047846   48.860721
  O    -25.365597   28.524065   49.169420
  H    -23.365470   28.271730   48.905259
  H    -24.593602   29.739463   46.977119
  H    -23.299748   28.614851   46.469237
  H    -24.955907   27.559030   45.147609
  H    -26.298134   28.250269   46.095832
  H    -26.212259   28.204344   48.791985

 Multiplicity           Mult            ....    1
 Number of Electrons    NEL             ....  102
 Basis Dimension        Dim             ....  149

ORBITAL ENERGIES
----------------

  NO   OCC          E(Eh)            E(eV)
   0   2.0000     -19.156732      -521.2812
   1   2.0000     -19.143711      -520.9268
   2   2.0000     -19.136050      -520.7184
   3   2.0000     -19.135033      -520.6907
   4   2.0000     -10.284800      -279.8636
   5   2.0000     -10.238308      -278.5985
   6   2.0000     -10.237933      -278.5883
   7   2.0000     -10.231822      -278.4220
   8   2.0000     -10.226817      -278.2858
   9   2.0000     -10.221236      -278.1340
  10   2.0000     -10.197196      -277.4798
  11   2.0000     -10.193359      -277.3754
  12   2.0000     -10.177905      -276.9549
  13   2.0000      -1.060377       -28.8543
  14   2.0000      -1.032132       -28.0857
  15   2.0000      -1.003643       -27.3105
  16   2.0000      -0.993938       -27.0464
  17   2.0000      -0.797702       -21.7066
  18   2.0000      -0.777438       -21.1552
  19   2.0000      -0.764835       -20.8122
  20   2.0000      -0.737565       -20.0702
  21   2.0000      -0.673082       -18.3155
  22   2.0000      -0.611106       -16.6290
  23   2.0000      -0.600020       -16.3274
  24   2.0000      -0.597029       -16.2460
  25   2.0000      -0.570954       -15.5364
  26   2.0000      -0.524326       -14.2676
  27   2.0000      -0.513507       -13.9732
  28   2.0000      -0.502746       -13.6804
  29   2.0000      -0.492948       -13.4138
  30   2.0000      -0.471182       -12.8215
  31   2.0000      -0.461235       -12.5508
  32   2.0000      -0.449971       -12.2443
  33   2.0000      -0.431294       -11.7361
  34   2.0000      -0.421290       -11.4639
  35   2.0000      -0.418338       -11.3836
  36   2.0000      -0.405136       -11.0243
  37   2.0000      -0.386014       -10.5040
  38   2.0000      -0.380491       -10.3537
  39   2.0000      -0.367869       -10.0102
  40   2.0000      -0.366976        -9.9859
  41   2.0000      -0.358683        -9.7603
  42   2.0000      -0.351732        -9.5711
  43   2.0000      -0.343416        -9.3448
  44   2.0000      -0.324111        -8.8195
  45   2.0000      -0.308091        -8.3836
  46   2.0000      -0.301624        -8.2076
  47   2.0000      -0.272173        -7.4062
  48   2.0000      -0.266364        -7.2481
  49   2.0000      -0.256180        -6.9710
  50   2.0000      -0.237831        -6.4717
  51   0.0000       0.057513         1.5650
  52   0.0000       0.075263         2.0480
  53   0.0000       0.090505         2.4628
  54   0.0000       0.096176         2.6171
  55   0.0000       0.102690         2.7943

MULLIKEN ATOMIC CHARGES
-----------------------
   0 C :    0.307319
   1 C :   -0.263016
   2 C :   -0.314782
   3 C :   -0.018026
   4 O :   -0.511485
   5 H :    0.156633
   6 H :    0.149445
   7 H :    0.159239
   8 H :    0.150973
   9 H :    0.159222
  10 H :    0.146141
  11 H :    0.154762
  12 C :    0.002046
  13 H :    0.148665
  14 H :    0.151350
  15 O :   -0.543902
  16 C :    0.068890
  17 C :    0.073860
  18 C :   -0.293732
  19 C :   -0.016718
  20 O :   -0.525323
  21 H :    0.153647
  22 O :   -0.606673
  23 H :    0.141499
  24 H :    0.147933
  25 H :    0.168787
  26 H :    0.154083
  27 H :    0.134421
  28 H :    0.364743
Sum of atomic charges:    0.0000000

LOEWDIN ATOMIC CHARGES
----------------------
   0 C :    0.183697
   1 C :   -0.218391
   2 C :   -0.220140
   3 C :   -0.031757
   4 O :   -0.317846
   5 H :    0.102390
   6 H :    0.116865
   7 H :    0.123614
   8 H :    0.119018
   9 H :    0.113346
  10 H :    0.102644
  11 H :    0.109111
  12 C :   -0.037182
  13 H :    0.106721
  14 H :    0.109323
  15 O :   -0.343034
  16 C :    0.012856
  17 C :    0.038124
  18 C :   -0.242934
  19 C :   -0.032046
  20 O :   -0.329235
  21 H :    0.115182
  22 O :   -0.418319
  23 H :    0.108936
  24 H :    0.118139
  25 H :    0.122824
  26 H :    0.109401
  27 H :    0.095569
  28 H :    0.283125

  Mayer bond orders larger than 0.100000
B(  0-C ,  1-C ) :   0.9356 B(  0-C ,  4-O ) :   0.9072 B(  0-C ,  5-H ) :   0.9261
B(  0-C , 15-O ) :   0.8434 B(  1-C ,  2-C ) :   0.9527 B(  1-C ,  6-H ) :   0.9356
B(  1-C ,  7-H ) :   0.9345 B(  2-C ,  3-C ) :   0.9532 B(  2-C ,  8-H ) :   0.9441
B(  2-C ,  9-H ) :   0.9362 B(  3-C ,  4-O ) :   0.8285 B(  3-C , 10-H ) :   0.9323
B(  3-C , 11-H ) :   0.9401 B( 12-C , 13-H ) :   0.9225 B( 12-C , 14-H ) :   0.9005
B( 12-C , 15-O ) :   0.8351 B( 12-C , 16-C ) :   0.9061 B( 16-C , 17-C ) :   0.9075
B( 16-C , 20-O ) :   0.8677 B( 16-C , 21-H ) :   0.9216 B( 17-C , 18-C ) :   0.9247
B( 17-C , 22-O ) :   0.8877 B( 17-C , 23-H ) :   0.9331 B( 18-C , 19-C ) :   0.9428
B( 18-C , 24-H ) :   0.9372 B( 18-C , 25-H ) :   0.9131 B( 19-C , 20-O ) :   0.8409
B( 19-C , 26-H ) :   0.9333 B( 19-C , 27-H ) :   0.9374 B( 22-O , 28-H ) :   0.7947

FINAL SINGLE POINT ENERGY      -652.861399990897

DIPOLE MOMENT
-------------
                                X             Y             Z
Electronic contribution:     -3.48994      -4.21127       0.70864
Nuclear contribution   :      4.41764       4.86660      -0.99438
                        -----------------------------------------
Total Dipole Moment    :      0.92770       0.65534      -0.28575
                        -----------------------------------------
Magnitude (a.u.)       :      1.17122
Magnitude (Debye)      :      2.97700

Rotational constants in cm-1:     0.046989     0.016556     0.015873
Rotational constants in MHz :  1408.688484   496.343426   475.869216

                             ****ORCA TERMINATED NORMALLY****
TOTAL RUN TIME: 0 days 1 hours 0 minutes 11 seconds 999 msec
