                         Program Version 4.2.1 -  RELEASE  -
|  1> # Test redundant internal optimization
|  2> #
|  3> ! RKS B3LYP  Opt TightSCF SmallPrint
|  4>
|  5> %basis
|  6>         Basis "6-31G"
|  7> end
|  8>
|  9> %geom
| 10> Constraints
| 11> { D 4  0  19  14  225.0   C } # D for Dihedral angle
| 12> { D 0  19  14  12  105.0   C } # D for Dihedral angle
| 13> { D 0  4  3  2   C } # D for Dihedral angle
| 14> { D 4  3  2  1   C } # D for Dihedral angle
| 15> { D 3  2  1  0   C } # D for Dihedral angle
| 16> { D 2  1  0  4   C } # D for Dihedral angle
| 17> { D 1  0  4  3   C } # D for Dihedral angle
| 18> { D 14  15  16  17   C } # D for Dihedral angle
| 19> { D 15  16  17  12   C } # D for Dihedral angle
| 20> { D 16  17  12  14   C } # D for Dihedral angle
| 21> { D 17  12  14  15   C } # D for Dihedral angle
| 22> { D 12  14  15  16   C } # D for Dihedral angle
| 23> end
| 24> end
| 25>
| 26>
| 27> #%pal
| 28> #nprocs 8
| 29> #end
| 30>
| 31> * xyz 0 1
| 32> C  -21.048   26.222   46.251
| 33> C  -20.361   27.558   45.944
| 34> C  -20.329   28.222   47.341
| 35> C  -20.110   27.022   48.296
| 36> O  -20.473   25.807   47.535
| 37> H  -20.833   25.428   45.533
| 38> H  -19.344   27.382   45.576
| 39> H  -20.898   28.157   45.201
| 40> H  -19.543   28.978   47.434
| 41> H  -21.289   28.710   47.548
| 42> H  -20.733   27.082   49.195
| 43> H  -19.064   26.913   48.597
| 44> C  -23.891   24.501   45.751
| 45> H  -24.222   23.893   44.895
| 46> C  -23.222   25.800   45.287
| 47> C  -24.447   26.677   44.939
| 48> C  -25.496   26.253   45.996
| 49> O  -25.046   24.951   46.536
| 50> H  -23.277   23.887   46.411
| 51> O  -22.472   26.381   46.366
| 52> H  -22.547   25.655   44.436
| 53> H  -24.227   27.749   44.976
| 54> H  -24.802   26.444   43.927
| 55> H  -26.499   26.137   45.571
| 56> H  -25.547   26.950   46.838
| 57> *
| 58>
| 59>                          ****END OF INPUT****
 Total Charge           Charge          ....    0
 Multiplicity           Mult            ....    1
 Number of Electrons    NEL             ....   86
FINAL SINGLE POINT ENERGY      -538.428373096492
FINAL SINGLE POINT ENERGY      -538.430423603896
FINAL SINGLE POINT ENERGY      -538.430640150235
FINAL SINGLE POINT ENERGY      -538.430673756388
FINAL SINGLE POINT ENERGY      -538.430683527269
                    ***********************HURRAY********************

CARTESIAN COORDINATES (ANGSTROEM)
---------------------------------
  C    -20.985518   26.199092   46.228283
  C    -20.335398   27.552223   45.944167
  C    -20.389156   28.231876   47.333732
  C    -20.171940   27.049572   48.303191
  O    -20.464533   25.824682   47.515137
  H    -20.728758   25.397897   45.528120
  H    -19.297007   27.399352   45.625506
  H    -20.861838   28.114009   45.168506
  H    -19.633246   29.014039   47.450606
  H    -21.377380   28.675975   47.485841
  H    -20.838419   27.074178   49.168529
  H    -19.135791   26.962858   48.643659
  C    -23.919010   24.483065   45.723021
  H    -24.299864   23.900752   44.869402
  C    -23.226414   25.758140   45.241534
  C    -24.428953   26.680466   44.961546
  C    -25.443440   26.285792   46.061353
  O    -25.015068   24.963079   46.563934
  H    -23.278979   23.855202   46.345266
  O    -22.429226   26.352798   46.308094
  H    -22.607798   25.594898   44.349134
  H    -24.135825   27.732039   45.007721
  H    -24.826969   26.470446   43.961808
  H    -26.468209   26.212705   45.680893
  H    -25.421261   26.973865   46.911016

 Multiplicity           Mult            ....    1
 Number of Electrons    NEL             ....   86
 Basis Dimension        Dim             ....  127

ORBITAL ENERGIES
----------------

  NO   OCC          E(Eh)            E(eV)
   0   2.0000     -19.138305      -520.7798
   1   2.0000     -19.137869      -520.7679
   2   2.0000     -19.125132      -520.4213
   3   2.0000     -10.280072      -279.7350
   4   2.0000     -10.242430      -278.7107
   5   2.0000     -10.222797      -278.1764
   6   2.0000     -10.218654      -278.0637
   7   2.0000     -10.218195      -278.0512
   8   2.0000     -10.186198      -277.1805
   9   2.0000     -10.185428      -277.1596
  10   2.0000     -10.184812      -277.1428
  11   2.0000      -1.051625       -28.6162
  12   2.0000      -1.012540       -27.5526
  13   2.0000      -0.988804       -26.9067
  14   2.0000      -0.789439       -21.4817
  15   2.0000      -0.777766       -21.1641
  16   2.0000      -0.737332       -20.0638
  17   2.0000      -0.721584       -19.6353
  18   2.0000      -0.608010       -16.5448
  19   2.0000      -0.597138       -16.2490
  20   2.0000      -0.595369       -16.2008
  21   2.0000      -0.579154       -15.7596
  22   2.0000      -0.521840       -14.2000
  23   2.0000      -0.502280       -13.6677
  24   2.0000      -0.484348       -13.1798
  25   2.0000      -0.476321       -12.9614
  26   2.0000      -0.448014       -12.1911
  27   2.0000      -0.441535       -12.0148
  28   2.0000      -0.435681       -11.8555
  29   2.0000      -0.411752       -11.2043
  30   2.0000      -0.408299       -11.1104
  31   2.0000      -0.382693       -10.4136
  32   2.0000      -0.370780       -10.0894
  33   2.0000      -0.362670        -9.8688
  34   2.0000      -0.356010        -9.6875
  35   2.0000      -0.355103        -9.6628
  36   2.0000      -0.347477        -9.4553
  37   2.0000      -0.314382        -8.5548
  38   2.0000      -0.307734        -8.3739
  39   2.0000      -0.300149        -8.1675
  40   2.0000      -0.262647        -7.1470
  41   2.0000      -0.247398        -6.7320
  42   2.0000      -0.229318        -6.2401
  43   0.0000       0.074915         2.0385
  44   0.0000       0.093575         2.5463
  45   0.0000       0.096467         2.6250
  46   0.0000       0.114533         3.1166
  47   0.0000       0.123110         3.3500

MULLIKEN ATOMIC CHARGES
-----------------------
   0 C :    0.287057
   1 C :   -0.254692
   2 C :   -0.299886
   3 C :   -0.000335
   4 O :   -0.501514
   5 H :    0.135911
   6 H :    0.141559
   7 H :    0.141715
   8 H :    0.140962
   9 H :    0.161689
  10 H :    0.155901
  11 H :    0.140254
  12 C :    0.010370
  13 H :    0.119169
  14 C :    0.048648
  15 C :   -0.281869
  16 C :    0.002822
  17 O :   -0.516439
  18 H :    0.169077
  19 O :   -0.505446
  20 H :    0.124144
  21 H :    0.154706
  22 H :    0.137263
  23 H :    0.133511
  24 H :    0.155425
Sum of atomic charges:    0.0000000

LOEWDIN ATOMIC CHARGES
----------------------
   0 C :    0.177343
   1 C :   -0.224560
   2 C :   -0.216711
   3 C :   -0.025234
   4 O :   -0.310552
   5 H :    0.095871
   6 H :    0.111739
   7 H :    0.115003
   8 H :    0.113798
   9 H :    0.119011
  10 H :    0.110211
  11 H :    0.101615
  12 C :   -0.043456
  13 H :    0.088756
  14 C :    0.036858
  15 C :   -0.225401
  16 C :   -0.028160
  17 O :   -0.326924
  18 H :    0.122958
  19 O :   -0.328035
  20 H :    0.095274
  21 H :    0.123550
  22 H :    0.110729
  23 H :    0.097283
  24 H :    0.109034

  Mayer bond orders larger than 0.100000
B(  0-C ,  1-C ) :   0.9373 B(  0-C ,  4-O ) :   0.9354 B(  0-C ,  5-H ) :   0.9187
B(  0-C , 19-O ) :   0.8408 B(  1-C ,  2-C ) :   0.9564 B(  1-C ,  6-H ) :   0.9351
B(  1-C ,  7-H ) :   0.9391 B(  2-C ,  3-C ) :   0.9546 B(  2-C ,  8-H ) :   0.9451
B(  2-C ,  9-H ) :   0.9436 B(  3-C ,  4-O ) :   0.8366 B(  3-C , 10-H ) :   0.9340
B(  3-C , 11-H ) :   0.9398 B( 12-C , 13-H ) :   0.9097 B( 12-C , 14-C ) :   0.9192
B( 12-C , 17-O ) :   0.8738 B( 12-C , 18-H ) :   0.9309 B( 14-C , 15-C ) :   0.9520
B( 14-C , 19-O ) :   0.8372 B( 14-C , 20-H ) :   0.9190 B( 15-C , 16-C ) :   0.9472
B( 15-C , 21-H ) :   0.9387 B( 15-C , 22-H ) :   0.9417 B( 16-C , 17-O ) :   0.8585
B( 16-C , 23-H ) :   0.9330 B( 16-C , 24-H ) :   0.9354

FINAL SINGLE POINT ENERGY      -538.430685099733

DIPOLE MOMENT
-------------
                                X             Y             Z
Electronic contribution:     -0.67854      -3.91645       1.88833
Nuclear contribution   :      1.22216       4.90093      -3.06842
                        -----------------------------------------
Total Dipole Moment    :      0.54362       0.98447      -1.18009
                        -----------------------------------------
Magnitude (a.u.)       :      1.63013
Magnitude (Debye)      :      4.14346

Rotational constants in cm-1:     0.078946     0.020079     0.019187
Rotational constants in MHz :  2366.734997   601.941106   575.222923

                             ****ORCA TERMINATED NORMALLY****
TOTAL RUN TIME: 0 days 0 hours 13 minutes 27 seconds 629 msec
