                         Program Version 4.2.1 -  RELEASE  -
|  1> # Test redundant internal optimization
|  2> #
|  3> ! RKS B3LYP  Opt TightSCF SmallPrint
|  4>
|  5> %basis
|  6>         Basis "6-31G"
|  7> end
|  8>
|  9> %geom
| 10> Constraints
| 11> { D 4  0  19  14  150.0   C } # D for Dihedral angle
| 12> { D 0  19  14  12  90.0   C } # D for Dihedral angle
| 13> { D 0  4  3  2   C } # D for Dihedral angle
| 14> { D 4  3  2  1   C } # D for Dihedral angle
| 15> { D 3  2  1  0   C } # D for Dihedral angle
| 16> { D 2  1  0  4   C } # D for Dihedral angle
| 17> { D 1  0  4  3   C } # D for Dihedral angle
| 18> { D 14  15  16  17   C } # D for Dihedral angle
| 19> { D 15  16  17  12   C } # D for Dihedral angle
| 20> { D 16  17  12  14   C } # D for Dihedral angle
| 21> { D 17  12  14  15   C } # D for Dihedral angle
| 22> { D 12  14  15  16   C } # D for Dihedral angle
| 23> end
| 24> end
| 25>
| 26>
| 27> #%pal
| 28> #nprocs 8
| 29> #end
| 30>
| 31> * xyz 0 1
| 32> C  -21.048   26.222   46.251
| 33> C  -20.361   27.558   45.944
| 34> C  -20.329   28.222   47.341
| 35> C  -20.110   27.022   48.296
| 36> O  -20.473   25.807   47.535
| 37> H  -20.833   25.428   45.533
| 38> H  -19.344   27.382   45.576
| 39> H  -20.898   28.157   45.201
| 40> H  -19.543   28.978   47.434
| 41> H  -21.289   28.710   47.548
| 42> H  -20.733   27.082   49.195
| 43> H  -19.064   26.913   48.597
| 44> C  -23.429   26.723   44.154
| 45> H  -23.583   27.481   43.371
| 46> C  -23.030   27.370   45.486
| 47> C  -24.396   27.864   46.016
| 48> C  -25.380   26.769   45.532
| 49> O  -24.688   26.031   44.452
| 50> H  -22.729   25.969   43.790
| 51> O  -22.472   26.381   46.366
| 52> H  -22.302   28.179   45.369
| 53> H  -24.411   27.987   47.104
| 54> H  -24.647   28.834   45.567
| 55> H  -26.314   27.186   45.141
| 56> H  -25.617   26.044   46.317
| 57> *
| 58>
| 59>                          ****END OF INPUT****
 Total Charge           Charge          ....    0
 Multiplicity           Mult            ....    1
 Number of Electrons    NEL             ....   86
FINAL SINGLE POINT ENERGY      -538.408985104851
FINAL SINGLE POINT ENERGY      -538.422639090714
FINAL SINGLE POINT ENERGY      -538.424616729093
FINAL SINGLE POINT ENERGY      -538.425139858600
FINAL SINGLE POINT ENERGY      -538.425172210215
FINAL SINGLE POINT ENERGY      -538.425183448715
                    ***********************HURRAY********************

CARTESIAN COORDINATES (ANGSTROEM)
---------------------------------
  C    -21.022552   26.260091   46.246204
  C    -20.155388   27.487238   45.961662
  C    -20.193024   28.233021   47.321667
  C    -20.221883   27.072884   48.340146
  O    -20.646574   25.874198   47.577990
  H    -20.825174   25.398908   45.603376
  H    -19.139138   27.138493   45.745757
  H    -20.477918   28.099911   45.116893
  H    -19.328622   28.889327   47.460282
  H    -21.099714   28.842644   47.398225
  H    -20.927126   27.237254   49.158915
  H    -19.234000   26.848812   48.753194
  C    -23.542628   26.834046   44.070147
  H    -23.815931   27.611383   43.339543
  C    -23.102663   27.468877   45.390400
  C    -24.458796   27.808381   46.039885
  C    -25.372396   26.644314   45.589351
  O    -24.699650   26.015584   44.429579
  H    -22.797029   26.168836   43.628601
  O    -22.463573   26.503433   46.272129
  H    -22.480830   28.359515   45.249089
  H    -24.359240   27.876615   47.125333
  H    -24.821768   28.768575   45.655359
  H    -26.368200   26.983674   45.284655
  H    -25.469184   25.872986   46.357619

 Multiplicity           Mult            ....    1
 Number of Electrons    NEL             ....   86
 Basis Dimension        Dim             ....  127

ORBITAL ENERGIES
----------------

  NO   OCC          E(Eh)            E(eV)
   0   2.0000     -19.139719      -520.8182
   1   2.0000     -19.137143      -520.7481
   2   2.0000     -19.126207      -520.4505
   3   2.0000     -10.280957      -279.7591
   4   2.0000     -10.242347      -278.7084
   5   2.0000     -10.227426      -278.3024
   6   2.0000     -10.222674      -278.1731
   7   2.0000     -10.217111      -278.0217
   8   2.0000     -10.194832      -277.4155
   9   2.0000     -10.193933      -277.3910
  10   2.0000     -10.184716      -277.1402
  11   2.0000      -1.052385       -28.6368
  12   2.0000      -1.013485       -27.5783
  13   2.0000      -0.986982       -26.8571
  14   2.0000      -0.791996       -21.5513
  15   2.0000      -0.783161       -21.3109
  16   2.0000      -0.738122       -20.0853
  17   2.0000      -0.726676       -19.7739
  18   2.0000      -0.620357       -16.8808
  19   2.0000      -0.604374       -16.4459
  20   2.0000      -0.594113       -16.1666
  21   2.0000      -0.564772       -15.3682
  22   2.0000      -0.528631       -14.3848
  23   2.0000      -0.502941       -13.6857
  24   2.0000      -0.490864       -13.3571
  25   2.0000      -0.480711       -13.0808
  26   2.0000      -0.451847       -12.2954
  27   2.0000      -0.449035       -12.2189
  28   2.0000      -0.429782       -11.6950
  29   2.0000      -0.421872       -11.4797
  30   2.0000      -0.404217       -10.9993
  31   2.0000      -0.384275       -10.4566
  32   2.0000      -0.373281       -10.1575
  33   2.0000      -0.366059        -9.9610
  34   2.0000      -0.364612        -9.9216
  35   2.0000      -0.358192        -9.7469
  36   2.0000      -0.353633        -9.6228
  37   2.0000      -0.314105        -8.5472
  38   2.0000      -0.303664        -8.2631
  39   2.0000      -0.294679        -8.0186
  40   2.0000      -0.261667        -7.1203
  41   2.0000      -0.251523        -6.8443
  42   2.0000      -0.231755        -6.3064
  43   0.0000       0.069596         1.8938
  44   0.0000       0.097595         2.6557
  45   0.0000       0.099273         2.7013
  46   0.0000       0.103595         2.8190
  47   0.0000       0.113125         3.0783

MULLIKEN ATOMIC CHARGES
-----------------------
   0 C :    0.319119
   1 C :   -0.301668
   2 C :   -0.300210
   3 C :    0.000147
   4 O :   -0.495559
   5 H :    0.152373
   6 H :    0.155236
   7 H :    0.142284
   8 H :    0.145164
   9 H :    0.152317
  10 H :    0.151700
  11 H :    0.144025
  12 C :    0.007978
  13 H :    0.120351
  14 C :    0.050582
  15 C :   -0.284008
  16 C :    0.001267
  17 O :   -0.516543
  18 H :    0.151325
  19 O :   -0.514772
  20 H :    0.124122
  21 H :    0.164772
  22 H :    0.134702
  23 H :    0.133348
  24 H :    0.161949
Sum of atomic charges:   -0.0000000

LOEWDIN ATOMIC CHARGES
----------------------
   0 C :    0.185196
   1 C :   -0.235019
   2 C :   -0.217857
   3 C :   -0.026623
   4 O :   -0.303897
   5 H :    0.102066
   6 H :    0.121218
   7 H :    0.112223
   8 H :    0.115716
   9 H :    0.111657
  10 H :    0.107938
  11 H :    0.103631
  12 C :   -0.046405
  13 H :    0.089612
  14 C :    0.033044
  15 C :   -0.223583
  16 C :   -0.027387
  17 O :   -0.328209
  18 H :    0.113034
  19 O :   -0.327529
  20 H :    0.093706
  21 H :    0.128520
  22 H :    0.109076
  23 H :    0.097317
  24 H :    0.112553

  Mayer bond orders larger than 0.100000
B(  0-C ,  1-C ) :   0.9292 B(  0-C ,  4-O ) :   0.9300 B(  0-C ,  5-H ) :   0.9246
B(  0-C , 19-O ) :   0.8444 B(  1-C ,  2-C ) :   0.9496 B(  1-C ,  6-H ) :   0.9334
B(  1-C ,  7-H ) :   0.9270 B(  2-C ,  3-C ) :   0.9532 B(  2-C ,  8-H ) :   0.9454
B(  2-C ,  9-H ) :   0.9450 B(  3-C ,  4-O ) :   0.8402 B(  3-C , 10-H ) :   0.9343
B(  3-C , 11-H ) :   0.9394 B( 12-C , 13-H ) :   0.9096 B( 12-C , 14-C ) :   0.9107
B( 12-C , 17-O ) :   0.8799 B( 12-C , 18-H ) :   0.9350 B( 14-C , 15-C ) :   0.9525
B( 14-C , 19-O ) :   0.8422 B( 14-C , 20-H ) :   0.9079 B( 15-C , 16-C ) :   0.9497
B( 15-C , 21-H ) :   0.9362 B( 15-C , 22-H ) :   0.9430 B( 16-C , 17-O ) :   0.8522
B( 16-C , 23-H ) :   0.9334 B( 16-C , 24-H ) :   0.9345

FINAL SINGLE POINT ENERGY      -538.425184268755

DIPOLE MOMENT
-------------
                                X             Y             Z
Electronic contribution:     -1.04477      -5.09006      -0.35244
Nuclear contribution   :      1.77042       6.83392       0.27452
                        -----------------------------------------
Total Dipole Moment    :      0.72566       1.74385      -0.07792
                        -----------------------------------------
Magnitude (a.u.)       :      1.89042
Magnitude (Debye)      :      4.80506

Rotational constants in cm-1:     0.083573     0.020192     0.019895
Rotational constants in MHz :  2505.455613   605.347879   596.450427

                             ****ORCA TERMINATED NORMALLY****
TOTAL RUN TIME: 0 days 0 hours 7 minutes 16 seconds 495 msec
