                         Program Version 4.2.0 -  RELEASE  -
|  1> # Test redundant internal optimization
|  2> #
|  3> ! RKS B3LYP  Opt TightSCF SmallPrint
|  4>
|  5> %basis
|  6>         Basis "6-31G"
|  7> end
|  8>
|  9> %geom
| 10> Constraints
| 11> { D 4  0  15  12  105.0   C } # D for Dihedral angle
| 12> { D 0  15  12  16  180.0   C } # D for Dihedral angle
| 13> { D 0  4  3  2   C } # D for Dihedral angle
| 14> { D 4  3  2  1   C } # D for Dihedral angle
| 15> { D 3  2  1  0   C } # D for Dihedral angle
| 16> { D 2  1  0  4   C } # D for Dihedral angle
| 17> { D 1  0  4  3   C } # D for Dihedral angle
| 18> { D 16  20  19  18   C } # D for Dihedral angle
| 19> { D 20  19  18  17   C } # D for Dihedral angle
| 20> { D 19  18  17  16   C } # D for Dihedral angle
| 21> { D 18  17  16  20   C } # D for Dihedral angle
| 22> { D 17  16  20  19   C } # D for Dihedral angle
| 23> { D 15  12  16  20   C } # D for Dihedral angle
| 24> end
| 25> end
| 26>
| 27>
| 28> #%pal
| 29> #nprocs 8
| 30> #end
| 31>
| 32> * xyz 0 1
| 33> C  -21.048   26.222   46.251
| 34> C  -20.361   27.558   45.944
| 35> C  -20.329   28.222   47.341
| 36> C  -20.110   27.022   48.296
| 37> O  -20.473   25.807   47.535
| 38> H  -20.833   25.428   45.533
| 39> H  -19.344   27.382   45.576
| 40> H  -20.898   28.157   45.201
| 41> H  -19.543   28.978   47.434
| 42> H  -21.289   28.710   47.548
| 43> H  -20.733   27.082   49.195
| 44> H  -19.064   26.913   48.597
| 45> C  -23.085   27.864   46.420
| 46> H  -22.633   28.373   47.281
| 47> H  -22.785   28.400   45.510
| 48> O  -22.586   26.394   46.375
| 49> C  -24.630   27.971   46.545
| 50> C  -25.122   27.396   47.877
| 51> C  -24.809   28.554   48.854
| 52> C  -25.066   29.818   47.994
| 53> O  -25.045   29.377   46.583
| 54> H  -25.091   27.525   45.662
| 55> H  -26.201   27.210   47.831
| 56> O  -24.414   26.070   48.268
| 57> H  -25.429   28.529   49.755
| 58> H  -23.759   28.508   49.168
| 59> H  -24.302   30.588   48.141
| 60> H  -26.050   30.256   48.181
| 61> H  -23.331   26.232   48.321
| 62> *
| 63>
| 64>                          ****END OF INPUT****
 Total Charge           Charge          ....    0
 Multiplicity           Mult            ....    1
 Number of Electrons    NEL             ....  102
FINAL SINGLE POINT ENERGY      -652.808444893733
FINAL SINGLE POINT ENERGY      -652.837038908074
FINAL SINGLE POINT ENERGY      -652.852193803573
FINAL SINGLE POINT ENERGY      -652.856370226737
FINAL SINGLE POINT ENERGY      -652.858280674268
FINAL SINGLE POINT ENERGY      -652.859421306050
FINAL SINGLE POINT ENERGY      -652.859983206043
FINAL SINGLE POINT ENERGY      -652.860127050224
FINAL SINGLE POINT ENERGY      -652.860159825211
FINAL SINGLE POINT ENERGY      -652.860164166966
                    ***********************HURRAY********************

CARTESIAN COORDINATES (ANGSTROEM)
---------------------------------
  C    -21.175454   26.359538   46.372120
  C    -20.201044   27.447237   45.907186
  C    -19.898037   28.199819   47.233255
  C    -19.918084   27.059813   48.280458
  O    -20.635624   25.929220   47.635992
  H    -21.184579   25.470616   45.740490
  H    -19.299864   26.955471   45.527880
  H    -20.597522   28.092442   45.118713
  H    -18.929492   28.708344   47.203869
  H    -20.658679   28.955777   47.443066
  H    -20.438117   27.328222   49.204057
  H    -18.916429   26.696860   48.525134
  C    -23.096254   28.076924   46.480103
  H    -22.691074   28.645471   47.325599
  H    -22.840207   28.595630   45.549944
  O    -22.585088   26.705356   46.474822
  C    -24.620609   27.971601   46.603453
  C    -25.133028   27.340276   47.909541
  C    -25.003078   28.529216   48.908725
  C    -25.336110   29.755705   48.034692
  O    -25.180571   29.321104   46.613151
  H    -25.017971   27.464592   45.720351
  H    -26.194439   27.100488   47.776944
  O    -24.475681   26.142252   48.353998
  H    -25.678038   28.416571   49.760933
  H    -23.978250   28.558373   49.294717
  H    -24.675940   30.610362   48.212280
  H    -26.373500   30.083517   48.145708
  H    -23.630235   26.025202   47.859821

 Multiplicity           Mult            ....    1
 Number of Electrons    NEL             ....  102
 Basis Dimension        Dim             ....  149

ORBITAL ENERGIES
----------------

  NO   OCC          E(Eh)            E(eV)
   0   2.0000     -19.164510      -521.4928
   1   2.0000     -19.152037      -521.1534
   2   2.0000     -19.141317      -520.8617
   3   2.0000     -19.107860      -519.9513
   4   2.0000     -10.293530      -280.1012
   5   2.0000     -10.242872      -278.7227
   6   2.0000     -10.237732      -278.5829
   7   2.0000     -10.234354      -278.4909
   8   2.0000     -10.228261      -278.3251
   9   2.0000     -10.227159      -278.2951
  10   2.0000     -10.205695      -277.7111
  11   2.0000     -10.203679      -277.6562
  12   2.0000     -10.178765      -276.9783
  13   2.0000      -1.065539       -28.9948
  14   2.0000      -1.026156       -27.9231
  15   2.0000      -1.009547       -27.4712
  16   2.0000      -0.988915       -26.9097
  17   2.0000      -0.801279       -21.8039
  18   2.0000      -0.779790       -21.2192
  19   2.0000      -0.768050       -20.8997
  20   2.0000      -0.739086       -20.1116
  21   2.0000      -0.685072       -18.6417
  22   2.0000      -0.616152       -16.7663
  23   2.0000      -0.601258       -16.3611
  24   2.0000      -0.596363       -16.2279
  25   2.0000      -0.577922       -15.7260
  26   2.0000      -0.524386       -14.2693
  27   2.0000      -0.523776       -14.2527
  28   2.0000      -0.514093       -13.9892
  29   2.0000      -0.486702       -13.2438
  30   2.0000      -0.477704       -12.9990
  31   2.0000      -0.462255       -12.5786
  32   2.0000      -0.440499       -11.9866
  33   2.0000      -0.438347       -11.9280
  34   2.0000      -0.431971       -11.7545
  35   2.0000      -0.424606       -11.5541
  36   2.0000      -0.412434       -11.2229
  37   2.0000      -0.393169       -10.6987
  38   2.0000      -0.387501       -10.5444
  39   2.0000      -0.373705       -10.1690
  40   2.0000      -0.368041       -10.0149
  41   2.0000      -0.362018        -9.8510
  42   2.0000      -0.348798        -9.4913
  43   2.0000      -0.340150        -9.2560
  44   2.0000      -0.323766        -8.8101
  45   2.0000      -0.311626        -8.4798
  46   2.0000      -0.295257        -8.0343
  47   2.0000      -0.275933        -7.5085
  48   2.0000      -0.266863        -7.2617
  49   2.0000      -0.249239        -6.7821
  50   2.0000      -0.238663        -6.4944
  51   0.0000       0.052010         1.4153
  52   0.0000       0.066225         1.8021
  53   0.0000       0.086948         2.3660
  54   0.0000       0.094574         2.5735
  55   0.0000       0.103436         2.8146

MULLIKEN ATOMIC CHARGES
-----------------------
   0 C :    0.317419
   1 C :   -0.296255
   2 C :   -0.311956
   3 C :   -0.011633
   4 O :   -0.496145
   5 H :    0.172598
   6 H :    0.164620
   7 H :    0.153200
   8 H :    0.151155
   9 H :    0.151562
  10 H :    0.153698
  11 H :    0.153039
  12 C :   -0.015453
  13 H :    0.139551
  14 H :    0.155251
  15 O :   -0.565028
  16 C :    0.062792
  17 C :    0.117468
  18 C :   -0.300938
  19 C :   -0.018360
  20 O :   -0.525434
  21 H :    0.160792
  22 H :    0.148530
  23 O :   -0.637390
  24 H :    0.154064
  25 H :    0.137983
  26 H :    0.137802
  27 H :    0.148879
  28 H :    0.398187
Sum of atomic charges:   -0.0000000

LOEWDIN ATOMIC CHARGES
----------------------
   0 C :    0.178765
   1 C :   -0.227846
   2 C :   -0.221489
   3 C :   -0.031334
   4 O :   -0.314034
   5 H :    0.114824
   6 H :    0.127435
   7 H :    0.119614
   8 H :    0.119125
   9 H :    0.110303
  10 H :    0.108143
  11 H :    0.108259
  12 C :   -0.043721
  13 H :    0.094330
  14 H :    0.108184
  15 O :   -0.334350
  16 C :    0.022557
  17 C :    0.041833
  18 C :   -0.237326
  19 C :   -0.032832
  20 O :   -0.325891
  21 H :    0.116607
  22 H :    0.105691
  23 O :   -0.432599
  24 H :    0.122582
  25 H :    0.107424
  26 H :    0.099629
  27 H :    0.106337
  28 H :    0.289779

  Mayer bond orders larger than 0.100000
B(  0-C ,  1-C ) :   0.9350 B(  0-C ,  4-O ) :   0.9225 B(  0-C ,  5-H ) :   0.9319
B(  0-C , 15-O ) :   0.8355 B(  1-C ,  2-C ) :   0.9499 B(  1-C ,  6-H ) :   0.9334
B(  1-C ,  7-H ) :   0.9313 B(  2-C ,  3-C ) :   0.9480 B(  2-C ,  8-H ) :   0.9443
B(  2-C ,  9-H ) :   0.9385 B(  3-C ,  4-O ) :   0.8381 B(  3-C , 10-H ) :   0.9339
B(  3-C , 11-H ) :   0.9387 B( 12-C , 13-H ) :   0.9080 B( 12-C , 14-H ) :   0.9212
B( 12-C , 15-O ) :   0.7885 B( 12-C , 16-C ) :   0.9020 B( 16-C , 17-C ) :   0.9121
B( 16-C , 20-O ) :   0.8547 B( 16-C , 21-H ) :   0.9294 B( 17-C , 18-C ) :   0.8999
B( 17-C , 22-H ) :   0.9289 B( 17-C , 23-O ) :   0.9442 B( 18-C , 19-C ) :   0.9388
B( 18-C , 24-H ) :   0.9440 B( 18-C , 25-H ) :   0.9439 B( 19-C , 20-O ) :   0.8321
B( 19-C , 26-H ) :   0.9348 B( 19-C , 27-H ) :   0.9388 B( 23-O , 28-H ) :   0.7195

FINAL SINGLE POINT ENERGY      -652.860166061336

DIPOLE MOMENT
-------------
                                X             Y             Z
Electronic contribution:     -3.15546      -4.64859      -1.79753
Nuclear contribution   :      4.50531       5.90178       1.50623
                        -----------------------------------------
Total Dipole Moment    :      1.34985       1.25319      -0.29130
                        -----------------------------------------
Magnitude (a.u.)       :      1.86478
Magnitude (Debye)      :      4.73990

Rotational constants in cm-1:     0.047659     0.015324     0.014450
Rotational constants in MHz :  1428.793064   459.389774   433.212702

                             ****ORCA TERMINATED NORMALLY****
TOTAL RUN TIME: 0 days 0 hours 34 minutes 10 seconds 520 msec
