                         Program Version 4.2.0 -  RELEASE  -
|  1> # Test redundant internal optimization
|  2> #
|  3> ! RKS B3LYP  Opt TightSCF SmallPrint
|  4>
|  5> %basis
|  6>         Basis "6-31G"
|  7> end
|  8>
|  9> %geom
| 10> Constraints
| 11> { D 4  0  15  12  0.0   C } # D for Dihedral angle
| 12> { D 0  15  12  16  270.0   C } # D for Dihedral angle
| 13> { D 0  4  3  2   C } # D for Dihedral angle
| 14> { D 4  3  2  1   C } # D for Dihedral angle
| 15> { D 3  2  1  0   C } # D for Dihedral angle
| 16> { D 2  1  0  4   C } # D for Dihedral angle
| 17> { D 1  0  4  3   C } # D for Dihedral angle
| 18> { D 16  20  19  18   C } # D for Dihedral angle
| 19> { D 20  19  18  17   C } # D for Dihedral angle
| 20> { D 19  18  17  16   C } # D for Dihedral angle
| 21> { D 18  17  16  20   C } # D for Dihedral angle
| 22> { D 17  16  20  19   C } # D for Dihedral angle
| 23> { D 15  12  16  20   C } # D for Dihedral angle
| 24> end
| 25> end
| 26>
| 27>
| 28> #%pal
| 29> #nprocs 8
| 30> #end
| 31>
| 32> * xyz 0 1
| 33> C  -21.048   26.222   46.251
| 34> C  -20.361   27.558   45.944
| 35> C  -20.329   28.222   47.341
| 36> C  -20.110   27.022   48.296
| 37> O  -20.473   25.807   47.535
| 38> H  -20.833   25.428   45.533
| 39> H  -19.344   27.382   45.576
| 40> H  -20.898   28.157   45.201
| 41> H  -19.543   28.978   47.434
| 42> H  -21.289   28.710   47.548
| 43> H  -20.733   27.082   49.195
| 44> H  -19.064   26.913   48.597
| 45> C  -23.172   26.101   47.783
| 46> H  -22.423   26.348   48.546
| 47> H  -24.062   26.717   47.965
| 48> O  -22.586   26.394   46.375
| 49> C  -23.581   24.613   47.966
| 50> C  -24.563   24.168   46.875
| 51> C  -23.612   23.920   45.680
| 52> C  -22.334   23.366   46.356
| 53> O  -22.420   23.736   47.786
| 54> H  -23.941   24.463   48.985
| 55> O  -25.267   22.850   47.298
| 56> H  -25.333   24.916   46.657
| 57> H  -24.029   23.226   44.943
| 58> H  -23.398   24.865   45.166
| 59> H  -21.417   23.787   45.931
| 60> H  -22.276   22.274   46.310
| 61> H  -24.514   22.085   47.521
| 62> *
| 63>
| 64>                          ****END OF INPUT****
 Total Charge           Charge          ....    0
 Multiplicity           Mult            ....    1
 Number of Electrons    NEL             ....  102
FINAL SINGLE POINT ENERGY      -652.822895261877
FINAL SINGLE POINT ENERGY      -652.847212878507
FINAL SINGLE POINT ENERGY      -652.854639432006
FINAL SINGLE POINT ENERGY      -652.857155100955
FINAL SINGLE POINT ENERGY      -652.857519846181
FINAL SINGLE POINT ENERGY      -652.857580838914
FINAL SINGLE POINT ENERGY      -652.857584419524
                    ***********************HURRAY********************

CARTESIAN COORDINATES (ANGSTROEM)
---------------------------------
  C    -21.022748   26.350293   46.306255
  C    -20.439881   27.735974   46.028471
  C    -20.288335   28.310302   47.457840
  C    -19.910813   27.069029   48.294677
  O    -20.307153   25.892722   47.467695
  H    -20.838200   25.615556   45.519782
  H    -19.463028   27.625037   45.543351
  H    -21.090640   28.335354   45.388378
  H    -19.529274   29.096278   47.516945
  H    -21.240736   28.734633   47.792219
  H    -20.429330   27.014397   49.255745
  H    -18.833897   26.978993   48.462845
  C    -23.140972   26.085983   47.699921
  H    -22.496288   26.324763   48.551506
  H    -24.030279   26.723746   47.739441
  O    -22.475242   26.439570   46.454476
  C    -23.572106   24.617929   47.835560
  C    -24.574832   24.119558   46.784248
  C    -23.635669   23.691189   45.625638
  C    -22.396884   23.136088   46.373414
  O    -22.472039   23.661717   47.755512
  H    -24.006280   24.511869   48.838015
  O    -25.354886   23.003202   47.300723
  H    -25.310391   24.868402   46.489106
  H    -24.119280   22.947029   44.986897
  H    -23.374074   24.569109   45.030115
  H    -21.449984   23.450513   45.927628
  H    -22.401685   22.043016   46.446458
  H    -24.748074   22.357749   47.721138

 Multiplicity           Mult            ....    1
 Number of Electrons    NEL             ....  102
 Basis Dimension        Dim             ....  149

ORBITAL ENERGIES
----------------

  NO   OCC          E(Eh)            E(eV)
   0   2.0000     -19.149513      -521.0847
   1   2.0000     -19.141701      -520.8722
   2   2.0000     -19.134113      -520.6657
   3   2.0000     -19.130584      -520.5697
   4   2.0000     -10.281522      -279.7744
   5   2.0000     -10.232558      -278.4421
   6   2.0000     -10.231904      -278.4243
   7   2.0000     -10.231106      -278.4025
   8   2.0000     -10.227509      -278.3047
   9   2.0000     -10.221311      -278.1360
  10   2.0000     -10.192289      -277.3463
  11   2.0000     -10.187255      -277.2093
  12   2.0000     -10.175587      -276.8918
  13   2.0000      -1.055130       -28.7115
  14   2.0000      -1.028807       -27.9953
  15   2.0000      -0.999430       -27.1959
  16   2.0000      -0.991837       -26.9893
  17   2.0000      -0.792119       -21.5547
  18   2.0000      -0.774401       -21.0725
  19   2.0000      -0.763150       -20.7664
  20   2.0000      -0.734184       -19.9782
  21   2.0000      -0.672419       -18.2974
  22   2.0000      -0.606087       -16.4925
  23   2.0000      -0.601792       -16.3756
  24   2.0000      -0.594260       -16.1706
  25   2.0000      -0.564026       -15.3479
  26   2.0000      -0.525286       -14.2938
  27   2.0000      -0.507480       -13.8092
  28   2.0000      -0.494298       -13.4505
  29   2.0000      -0.483306       -13.1514
  30   2.0000      -0.473398       -12.8818
  31   2.0000      -0.460919       -12.5423
  32   2.0000      -0.446937       -12.1618
  33   2.0000      -0.434537       -11.8243
  34   2.0000      -0.417669       -11.3653
  35   2.0000      -0.414179       -11.2704
  36   2.0000      -0.394862       -10.7447
  37   2.0000      -0.385246       -10.4831
  38   2.0000      -0.375497       -10.2178
  39   2.0000      -0.368297       -10.0219
  40   2.0000      -0.361336        -9.8325
  41   2.0000      -0.358290        -9.7496
  42   2.0000      -0.348284        -9.4773
  43   2.0000      -0.331324        -9.0158
  44   2.0000      -0.323001        -8.7893
  45   2.0000      -0.307923        -8.3790
  46   2.0000      -0.294065        -8.0019
  47   2.0000      -0.266130        -7.2418
  48   2.0000      -0.262148        -7.1334
  49   2.0000      -0.258822        -7.0429
  50   2.0000      -0.231221        -6.2918
  51   0.0000       0.067862         1.8466
  52   0.0000       0.078057         2.1240
  53   0.0000       0.094542         2.5726
  54   0.0000       0.102715         2.7950
  55   0.0000       0.106605         2.9009

MULLIKEN ATOMIC CHARGES
-----------------------
   0 C :    0.310338
   1 C :   -0.258826
   2 C :   -0.305675
   3 C :   -0.022333
   4 O :   -0.496954
   5 H :    0.147971
   6 H :    0.145390
   7 H :    0.158560
   8 H :    0.148166
   9 H :    0.153082
  10 H :    0.148819
  11 H :    0.152347
  12 C :   -0.008868
  13 H :    0.147853
  14 H :    0.143473
  15 O :   -0.545565
  16 C :    0.078091
  17 C :    0.082250
  18 C :   -0.298429
  19 C :   -0.025370
  20 O :   -0.515122
  21 H :    0.148209
  22 O :   -0.607033
  23 H :    0.150191
  24 H :    0.151022
  25 H :    0.169490
  26 H :    0.147811
  27 H :    0.139527
  28 H :    0.361585
Sum of atomic charges:   -0.0000000

LOEWDIN ATOMIC CHARGES
----------------------
   0 C :    0.182591
   1 C :   -0.220408
   2 C :   -0.219621
   3 C :   -0.033319
   4 O :   -0.306227
   5 H :    0.098948
   6 H :    0.113962
   7 H :    0.124653
   8 H :    0.117660
   9 H :    0.113812
  10 H :    0.103125
  11 H :    0.107786
  12 C :   -0.036536
  13 H :    0.106353
  14 H :    0.110807
  15 O :   -0.345539
  16 C :    0.006017
  17 C :    0.038186
  18 C :   -0.244137
  19 C :   -0.034934
  20 O :   -0.321047
  21 H :    0.113090
  22 O :   -0.419078
  23 H :    0.114902
  24 H :    0.119765
  25 H :    0.126635
  26 H :    0.103469
  27 H :    0.098026
  28 H :    0.281061

  Mayer bond orders larger than 0.100000
B(  0-C ,  1-C ) :   0.9318 B(  0-C ,  4-O ) :   0.9251 B(  0-C ,  5-H ) :   0.9240
B(  0-C , 15-O ) :   0.8270 B(  1-C ,  2-C ) :   0.9543 B(  1-C ,  6-H ) :   0.9354
B(  1-C ,  7-H ) :   0.9360 B(  2-C ,  3-C ) :   0.9508 B(  2-C ,  8-H ) :   0.9446
B(  2-C ,  9-H ) :   0.9459 B(  3-C ,  4-O ) :   0.8330 B(  3-C , 10-H ) :   0.9298
B(  3-C , 11-H ) :   0.9397 B( 12-C , 13-H ) :   0.9170 B( 12-C , 14-H ) :   0.9284
B( 12-C , 15-O ) :   0.8625 B( 12-C , 16-C ) :   0.8791 B( 16-C , 17-C ) :   0.9097
B( 16-C , 20-O ) :   0.8788 B( 16-C , 21-H ) :   0.9175 B( 17-C , 18-C ) :   0.9230
B( 17-C , 22-O ) :   0.8877 B( 17-C , 23-H ) :   0.9355 B( 18-C , 19-C ) :   0.9441
B( 18-C , 24-H ) :   0.9372 B( 18-C , 25-H ) :   0.9213 B( 19-C , 20-O ) :   0.8433
B( 19-C , 26-H ) :   0.9278 B( 19-C , 27-H ) :   0.9374 B( 22-O , 28-H ) :   0.7966

FINAL SINGLE POINT ENERGY      -652.857583048918

DIPOLE MOMENT
-------------
                                X             Y             Z
Electronic contribution:     -2.34867      -3.98081       1.20719
Nuclear contribution   :      3.08100       4.98851      -1.34539
                        -----------------------------------------
Total Dipole Moment    :      0.73233       1.00770      -0.13820
                        -----------------------------------------
Magnitude (a.u.)       :      1.25335
Magnitude (Debye)      :      3.18576

Rotational constants in cm-1:     0.062563     0.014778     0.014671
Rotational constants in MHz :  1875.588247   443.025798   439.811035

                             ****ORCA TERMINATED NORMALLY****
TOTAL RUN TIME: 0 days 1 hours 40 minutes 52 seconds 329 msec
