                         Program Version 4.2.0 -  RELEASE  -
|  1> # Test redundant internal optimization
|  2> #
|  3> ! RKS B3LYP  Opt TightSCF SmallPrint
|  4>
|  5> %basis
|  6>         Basis "6-31G"
|  7> end
|  8>
|  9> %geom
| 10> Constraints
| 11> { D 4  0  15  12  30.0   C } # D for Dihedral angle
| 12> { D 0  15  12  16  270.0   C } # D for Dihedral angle
| 13> { D 0  4  3  2   C } # D for Dihedral angle
| 14> { D 4  3  2  1   C } # D for Dihedral angle
| 15> { D 3  2  1  0   C } # D for Dihedral angle
| 16> { D 2  1  0  4   C } # D for Dihedral angle
| 17> { D 1  0  4  3   C } # D for Dihedral angle
| 18> { D 16  20  19  18   C } # D for Dihedral angle
| 19> { D 20  19  18  17   C } # D for Dihedral angle
| 20> { D 19  18  17  16   C } # D for Dihedral angle
| 21> { D 18  17  16  20   C } # D for Dihedral angle
| 22> { D 17  16  20  19   C } # D for Dihedral angle
| 23> { D 15  12  16  20   C } # D for Dihedral angle
| 24> end
| 25> end
| 26>
| 27>
| 28> #%pal
| 29> #nprocs 8
| 30> #end
| 31>
| 32> * xyz 0 1
| 33> C  -21.048   26.222   46.251
| 34> C  -20.361   27.558   45.944
| 35> C  -20.329   28.222   47.341
| 36> C  -20.110   27.022   48.296
| 37> O  -20.473   25.807   47.535
| 38> H  -20.833   25.428   45.533
| 39> H  -19.344   27.382   45.576
| 40> H  -20.898   28.157   45.201
| 41> H  -19.543   28.978   47.434
| 42> H  -21.289   28.710   47.548
| 43> H  -20.733   27.082   49.195
| 44> H  -19.064   26.913   48.597
| 45> C  -23.091   26.824   47.779
| 46> H  -22.323   27.436   48.269
| 47> H  -24.005   27.426   47.691
| 48> O  -22.586   26.394   46.375
| 49> C  -23.410   25.613   48.700
| 50> C  -24.414   24.661   48.039
| 51> C  -23.506   23.876   47.063
| 52> C  -22.170   23.764   47.838
| 53> O  -22.212   24.792   48.901
| 54> H  -23.715   25.980   49.681
| 55> H  -24.845   23.990   48.790
| 56> O  -25.574   25.401   47.319
| 57> H  -23.916   22.898   46.794
| 58> H  -23.367   24.447   46.136
| 59> H  -21.297   23.941   47.201
| 60> H  -22.055   22.795   48.333
| 61> H  -25.165   26.079   46.562
| 62> *
| 63>
| 64>                          ****END OF INPUT****
 Total Charge           Charge          ....    0
 Multiplicity           Mult            ....    1
 Number of Electrons    NEL             ....  102
FINAL SINGLE POINT ENERGY      -652.806340895772
FINAL SINGLE POINT ENERGY      -652.838516659340
FINAL SINGLE POINT ENERGY      -652.852515834936
FINAL SINGLE POINT ENERGY      -652.855387879684
FINAL SINGLE POINT ENERGY      -652.855846581593
FINAL SINGLE POINT ENERGY      -652.855932902229
FINAL SINGLE POINT ENERGY      -652.855941016541
                    ***********************HURRAY********************

CARTESIAN COORDINATES (ANGSTROEM)
---------------------------------
  C    -21.070586   26.437931   46.283337
  C    -20.414791   27.783680   45.962091
  C    -20.109907   28.343512   47.378510
  C    -19.755619   27.065702   48.177380
  O    -20.297928   25.932303   47.382188
  H    -20.995530   25.705463   45.478027
  H    -19.486185   27.606732   45.406771
  H    -21.065983   28.429215   45.368575
  H    -19.286759   29.064812   47.374000
  H    -20.989827   28.846462   47.791201
  H    -20.201044   27.025750   49.173927
  H    -18.676478   26.904274   48.255327
  C    -23.146607   26.804696   47.786813
  H    -22.529724   27.470414   48.400722
  H    -24.071806   27.336525   47.541807
  O    -22.508523   26.550615   46.498778
  C    -23.521819   25.579353   48.631383
  C    -24.514858   24.635096   47.931583
  C    -23.561852   23.706521   47.115655
  C    -22.336958   23.584211   48.049319
  O    -22.430293   24.706436   49.018032
  H    -23.945710   25.977350   49.561888
  H    -25.078618   24.065638   48.673805
  O    -25.520120   25.305824   47.131631
  H    -24.020579   22.740916   46.886740
  H    -23.298258   24.210118   46.181050
  H    -21.380919   23.668141   47.530262
  H    -22.355320   22.661450   48.637865
  H    -25.103400   25.648862   46.313334

 Multiplicity           Mult            ....    1
 Number of Electrons    NEL             ....  102
 Basis Dimension        Dim             ....  149

ORBITAL ENERGIES
----------------

  NO   OCC          E(Eh)            E(eV)
   0   2.0000     -19.148619      -521.0604
   1   2.0000     -19.143729      -520.9273
   2   2.0000     -19.134783      -520.6839
   3   2.0000     -19.127330      -520.4811
   4   2.0000     -10.283949      -279.8405
   5   2.0000     -10.230963      -278.3987
   6   2.0000     -10.230694      -278.3913
   7   2.0000     -10.230635      -278.3897
   8   2.0000     -10.224219      -278.2151
   9   2.0000     -10.212575      -277.8983
  10   2.0000     -10.194267      -277.4001
  11   2.0000     -10.189164      -277.2612
  12   2.0000     -10.175661      -276.8938
  13   2.0000      -1.054966       -28.7071
  14   2.0000      -1.021744       -27.8031
  15   2.0000      -1.003821       -27.3154
  16   2.0000      -0.994474       -27.0610
  17   2.0000      -0.790791       -21.5185
  18   2.0000      -0.771502       -20.9936
  19   2.0000      -0.762220       -20.7411
  20   2.0000      -0.732860       -19.9421
  21   2.0000      -0.676278       -18.4025
  22   2.0000      -0.605759       -16.4835
  23   2.0000      -0.602843       -16.4042
  24   2.0000      -0.595903       -16.2153
  25   2.0000      -0.555876       -15.1262
  26   2.0000      -0.526926       -14.3384
  27   2.0000      -0.507043       -13.7973
  28   2.0000      -0.496056       -13.4984
  29   2.0000      -0.486347       -13.2342
  30   2.0000      -0.468049       -12.7363
  31   2.0000      -0.458010       -12.4631
  32   2.0000      -0.436193       -11.8694
  33   2.0000      -0.427699       -11.6383
  34   2.0000      -0.420253       -11.4357
  35   2.0000      -0.411285       -11.1916
  36   2.0000      -0.403292       -10.9741
  37   2.0000      -0.390331       -10.6215
  38   2.0000      -0.381310       -10.3760
  39   2.0000      -0.367772       -10.0076
  40   2.0000      -0.361179        -9.8282
  41   2.0000      -0.355822        -9.6824
  42   2.0000      -0.345099        -9.3906
  43   2.0000      -0.326972        -8.8974
  44   2.0000      -0.316191        -8.6040
  45   2.0000      -0.310560        -8.4508
  46   2.0000      -0.299301        -8.1444
  47   2.0000      -0.264458        -7.1963
  48   2.0000      -0.262076        -7.1315
  49   2.0000      -0.256091        -6.9686
  50   2.0000      -0.225175        -6.1273
  51   0.0000       0.064930         1.7668
  52   0.0000       0.087833         2.3901
  53   0.0000       0.092596         2.5197
  54   0.0000       0.097907         2.6642
  55   0.0000       0.107159         2.9159

MULLIKEN ATOMIC CHARGES
-----------------------
   0 C :    0.308815
   1 C :   -0.262455
   2 C :   -0.319298
   3 C :   -0.012865
   4 O :   -0.499728
   5 H :    0.157301
   6 H :    0.148556
   7 H :    0.154688
   8 H :    0.149189
   9 H :    0.152339
  10 H :    0.162731
  11 H :    0.150132
  12 C :   -0.035089
  13 H :    0.135038
  14 H :    0.158960
  15 O :   -0.555595
  16 C :    0.108716
  17 C :    0.089649
  18 C :   -0.319958
  19 C :   -0.001358
  20 O :   -0.518503
  21 H :    0.138605
  22 H :    0.158162
  23 O :   -0.611276
  24 H :    0.142678
  25 H :    0.156221
  26 H :    0.162212
  27 H :    0.135210
  28 H :    0.366924
Sum of atomic charges:   -0.0000000

LOEWDIN ATOMIC CHARGES
----------------------
   0 C :    0.180003
   1 C :   -0.223972
   2 C :   -0.222960
   3 C :   -0.031369
   4 O :   -0.305646
   5 H :    0.107426
   6 H :    0.116053
   7 H :    0.121950
   8 H :    0.117774
   9 H :    0.110761
  10 H :    0.111588
  11 H :    0.106801
  12 C :   -0.048037
  13 H :    0.098639
  14 H :    0.117510
  15 O :   -0.351682
  16 C :    0.010808
  17 C :    0.035398
  18 C :   -0.242571
  19 C :   -0.026963
  20 O :   -0.318394
  21 H :    0.111166
  22 H :    0.114202
  23 O :   -0.414157
  24 H :    0.114865
  25 H :    0.116430
  26 H :    0.112340
  27 H :    0.098504
  28 H :    0.283534

  Mayer bond orders larger than 0.100000
B(  0-C ,  1-C ) :   0.9268 B(  0-C ,  4-O ) :   0.9216 B(  0-C ,  5-H ) :   0.9344
B(  0-C , 15-O ) :   0.8407 B(  1-C ,  2-C ) :   0.9544 B(  1-C ,  6-H ) :   0.9347
B(  1-C ,  7-H ) :   0.9375 B(  2-C ,  3-C ) :   0.9488 B(  2-C ,  8-H ) :   0.9440
B(  2-C ,  9-H ) :   0.9412 B(  3-C ,  4-O ) :   0.8263 B(  3-C , 10-H ) :   0.9282
B(  3-C , 11-H ) :   0.9393 B( 12-C , 13-H ) :   0.9204 B( 12-C , 14-H ) :   0.9190
B( 12-C , 15-O ) :   0.8391 B( 12-C , 16-C ) :   0.8840 B( 16-C , 17-C ) :   0.8865
B( 16-C , 20-O ) :   0.8920 B( 16-C , 21-H ) :   0.9219 B( 17-C , 18-C ) :   0.9330
B( 17-C , 22-H ) :   0.9378 B( 17-C , 23-O ) :   0.8975 B( 18-C , 19-C ) :   0.9444
B( 18-C , 24-H ) :   0.9416 B( 18-C , 25-H ) :   0.9302 B( 19-C , 20-O ) :   0.8298
B( 19-C , 26-H ) :   0.9209 B( 19-C , 27-H ) :   0.9399 B( 23-O , 28-H ) :   0.7908

FINAL SINGLE POINT ENERGY      -652.855940087043

DIPOLE MOMENT
-------------
                                X             Y             Z
Electronic contribution:     -2.67487      -2.39905       0.65481
Nuclear contribution   :      3.49018       3.13035      -1.08355
                        -----------------------------------------
Total Dipole Moment    :      0.81531       0.73131      -0.42873
                        -----------------------------------------
Magnitude (a.u.)       :      1.17616
Magnitude (Debye)      :      2.98957

Rotational constants in cm-1:     0.049803     0.018211     0.016408
Rotational constants in MHz :  1493.061424   545.940005   491.898305

                             ****ORCA TERMINATED NORMALLY****
TOTAL RUN TIME: 0 days 0 hours 30 minutes 24 seconds 662 msec
