                         Program Version 4.2.0 -  RELEASE  -
|  1> # Test redundant internal optimization
|  2> #
|  3> ! RKS B3LYP  Opt TightSCF SmallPrint
|  4>
|  5> %basis
|  6>         Basis "6-31G"
|  7> end
|  8>
|  9> %geom
| 10> Constraints
| 11> { D 4  0  15  12  270.0   C } # D for Dihedral angle
| 12> { D 0  15  12  16  30.0   C } # D for Dihedral angle
| 13> { D 0  4  3  2   C } # D for Dihedral angle
| 14> { D 4  3  2  1   C } # D for Dihedral angle
| 15> { D 3  2  1  0   C } # D for Dihedral angle
| 16> { D 2  1  0  4   C } # D for Dihedral angle
| 17> { D 1  0  4  3   C } # D for Dihedral angle
| 18> { D 16  20  19  18   C } # D for Dihedral angle
| 19> { D 20  19  18  17   C } # D for Dihedral angle
| 20> { D 19  18  17  16   C } # D for Dihedral angle
| 21> { D 18  17  16  20   C } # D for Dihedral angle
| 22> { D 17  16  20  19   C } # D for Dihedral angle
| 23> { D 15  12  16  20   C } # D for Dihedral angle
| 24> end
| 25> end
| 26>
| 27>
| 28> #%pal
| 29> #nprocs 8
| 30> #end
| 31>
| 32> * xyz 0 1
| 33> C  -21.048   26.222   46.251
| 34> C  -20.361   27.558   45.944
| 35> C  -20.329   28.222   47.341
| 36> C  -20.110   27.022   48.296
| 37> O  -20.473   25.807   47.535
| 38> H  -20.833   25.428   45.533
| 39> H  -19.344   27.382   45.576
| 40> H  -20.898   28.157   45.201
| 41> H  -19.543   28.978   47.434
| 42> H  -21.289   28.710   47.548
| 43> H  -20.733   27.082   49.195
| 44> H  -19.064   26.913   48.597
| 45> C  -23.420   25.119   46.072
| 46> H  -24.348   25.147   46.656
| 47> H  -23.684   25.077   45.008
| 48> O  -22.586   26.394   46.375
| 49> C  -22.662   23.808   46.423
| 50> C  -22.400   23.704   47.930
| 51> C  -23.776   23.230   48.455
| 52> C  -24.287   22.306   47.321
| 53> O  -23.493   22.639   46.119
| 54> H  -21.767   23.736   45.802
| 55> O  -21.309   22.633   48.207
| 56> H  -22.076   24.649   48.378
| 57> H  -23.708   22.712   49.416
| 58> H  -24.445   24.090   48.585
| 59> H  -25.349   22.458   47.102
| 60> H  -24.118   21.248   47.537
| 61> H  -21.612   21.675   47.767
| 62> *
| 63>
| 64>                          ****END OF INPUT****
 Total Charge           Charge          ....    0
 Multiplicity           Mult            ....    1
 Number of Electrons    NEL             ....  102
FINAL SINGLE POINT ENERGY      -652.831466607259
FINAL SINGLE POINT ENERGY      -652.855327223685
FINAL SINGLE POINT ENERGY      -652.859674305861
FINAL SINGLE POINT ENERGY      -652.861837837107
FINAL SINGLE POINT ENERGY      -652.862046590579
FINAL SINGLE POINT ENERGY      -652.862095983543
                    ***********************HURRAY********************

CARTESIAN COORDINATES (ANGSTROEM)
---------------------------------
  C    -20.922374   26.203471   46.250207
  C    -20.414206   27.611550   45.931354
  C    -20.502724   28.301215   47.314498
  C    -20.148054   27.161450   48.295893
  O    -20.333575   25.896516   47.538506
  H    -20.587791   25.422135   45.563122
  H    -19.374804   27.552655   45.588847
  H    -21.017727   28.099615   45.164081
  H    -19.822925   29.153590   47.405131
  H    -21.524798   28.651647   47.483741
  H    -20.791366   27.140737   49.179233
  H    -19.101382   27.182604   48.612918
  C    -23.183552   25.084109   46.089434
  H    -24.098343   25.276425   46.656604
  H    -23.453152   25.039289   45.026904
  O    -22.359001   26.273946   46.314956
  C    -22.611805   23.706398   46.465649
  C    -22.317497   23.457449   47.953175
  C    -23.740063   23.199482   48.513864
  C    -24.450290   22.457572   47.353648
  O    -23.652064   22.723061   46.130500
  H    -21.738892   23.458157   45.855352
  O    -21.469529   22.282151   48.106783
  H    -21.778485   24.273956   48.426235
  H    -23.691398   22.605961   49.430183
  H    -24.236463   24.147738   48.746876
  H    -25.475716   22.802214   47.189288
  H    -24.465688   21.372301   47.495534
  H    -21.801334   21.568607   47.521481

 Multiplicity           Mult            ....    1
 Number of Electrons    NEL             ....  102
 Basis Dimension        Dim             ....  149

ORBITAL ENERGIES
----------------

  NO   OCC          E(Eh)            E(eV)
   0   2.0000     -19.145234      -520.9683
   1   2.0000     -19.143825      -520.9300
   2   2.0000     -19.141839      -520.8759
   3   2.0000     -19.129200      -520.5320
   4   2.0000     -10.281145      -279.7642
   5   2.0000     -10.233676      -278.4725
   6   2.0000     -10.230665      -278.3905
   7   2.0000     -10.230281      -278.3801
   8   2.0000     -10.228112      -278.3211
   9   2.0000     -10.225717      -278.2559
  10   2.0000     -10.185257      -277.1549
  11   2.0000     -10.185088      -277.1503
  12   2.0000     -10.184500      -277.1343
  13   2.0000      -1.052927       -28.6516
  14   2.0000      -1.033963       -28.1356
  15   2.0000      -0.999548       -27.1991
  16   2.0000      -0.993554       -27.0360
  17   2.0000      -0.788956       -21.4686
  18   2.0000      -0.773422       -21.0459
  19   2.0000      -0.764231       -20.7958
  20   2.0000      -0.734026       -19.9739
  21   2.0000      -0.673401       -18.3242
  22   2.0000      -0.604996       -16.4628
  23   2.0000      -0.600759       -16.3475
  24   2.0000      -0.596614       -16.2347
  25   2.0000      -0.568456       -15.4685
  26   2.0000      -0.522519       -14.2185
  27   2.0000      -0.517817       -14.0905
  28   2.0000      -0.494226       -13.4486
  29   2.0000      -0.482069       -13.1178
  30   2.0000      -0.465896       -12.6777
  31   2.0000      -0.459107       -12.4929
  32   2.0000      -0.450296       -12.2532
  33   2.0000      -0.432028       -11.7561
  34   2.0000      -0.420453       -11.4411
  35   2.0000      -0.412680       -11.2296
  36   2.0000      -0.400508       -10.8984
  37   2.0000      -0.388727       -10.5778
  38   2.0000      -0.374764       -10.1978
  39   2.0000      -0.365430        -9.9439
  40   2.0000      -0.359086        -9.7712
  41   2.0000      -0.355835        -9.6828
  42   2.0000      -0.348572        -9.4851
  43   2.0000      -0.333984        -9.0882
  44   2.0000      -0.321160        -8.7392
  45   2.0000      -0.304488        -8.2855
  46   2.0000      -0.303091        -8.2475
  47   2.0000      -0.266945        -7.2639
  48   2.0000      -0.263296        -7.1646
  49   2.0000      -0.256597        -6.9824
  50   2.0000      -0.239612        -6.5202
  51   0.0000       0.065959         1.7948
  52   0.0000       0.075399         2.0517
  53   0.0000       0.095907         2.6098
  54   0.0000       0.098542         2.6815
  55   0.0000       0.102865         2.7991

MULLIKEN ATOMIC CHARGES
-----------------------
   0 C :    0.282255
   1 C :   -0.254108
   2 C :   -0.297177
   3 C :   -0.003809
   4 O :   -0.505973
   5 H :    0.146484
   6 H :    0.145357
   7 H :    0.155677
   8 H :    0.140753
   9 H :    0.163336
  10 H :    0.146419
  11 H :    0.145661
  12 C :    0.005842
  13 H :    0.147307
  14 H :    0.150670
  15 O :   -0.531560
  16 C :    0.025560
  17 C :    0.083834
  18 C :   -0.302909
  19 C :   -0.035597
  20 O :   -0.528837
  21 H :    0.162838
  22 O :   -0.601750
  23 H :    0.197013
  24 H :    0.161818
  25 H :    0.145698
  26 H :    0.146747
  27 H :    0.149297
  28 H :    0.359155
Sum of atomic charges:   -0.0000000

LOEWDIN ATOMIC CHARGES
----------------------
   0 C :    0.171382
   1 C :   -0.213627
   2 C :   -0.215222
   3 C :   -0.028063
   4 O :   -0.323728
   5 H :    0.098529
   6 H :    0.113740
   7 H :    0.123525
   8 H :    0.113602
   9 H :    0.119721
  10 H :    0.104830
  11 H :    0.104273
  12 C :   -0.039716
  13 H :    0.110456
  14 H :    0.106385
  15 O :   -0.331378
  16 C :    0.002964
  17 C :    0.033376
  18 C :   -0.242929
  19 C :   -0.040151
  20 O :   -0.329488
  21 H :    0.112795
  22 O :   -0.413953
  23 H :    0.136481
  24 H :    0.126503
  25 H :    0.113755
  26 H :    0.104040
  27 H :    0.103378
  28 H :    0.278520

  Mayer bond orders larger than 0.100000
B(  0-C ,  1-C ) :   0.9457 B(  0-C ,  4-O ) :   0.8975 B(  0-C ,  5-H ) :   0.9186
B(  0-C , 15-O ) :   0.8604 B(  1-C ,  2-C ) :   0.9583 B(  1-C ,  6-H ) :   0.9399
B(  1-C ,  7-H ) :   0.9373 B(  2-C ,  3-C ) :   0.9542 B(  2-C ,  8-H ) :   0.9453
B(  2-C ,  9-H ) :   0.9439 B(  3-C ,  4-O ) :   0.8335 B(  3-C , 10-H ) :   0.9357
B(  3-C , 11-H ) :   0.9399 B( 12-C , 13-H ) :   0.9373 B( 12-C , 14-H ) :   0.9211
B( 12-C , 15-O ) :   0.8343 B( 12-C , 16-C ) :   0.8883 B( 16-C , 17-C ) :   0.9074
B( 16-C , 20-O ) :   0.8263 B( 16-C , 21-H ) :   0.9234 B( 17-C , 18-C ) :   0.9083
B( 17-C , 22-O ) :   0.8864 B( 17-C , 23-H ) :   0.9037 B( 18-C , 19-C ) :   0.9412
B( 18-C , 24-H ) :   0.9378 B( 18-C , 25-H ) :   0.9350 B( 19-C , 20-O ) :   0.8398
B( 19-C , 26-H ) :   0.9357 B( 19-C , 27-H ) :   0.9373 B( 22-O , 28-H ) :   0.7966

FINAL SINGLE POINT ENERGY      -652.862099757887

DIPOLE MOMENT
-------------
                                X             Y             Z
Electronic contribution:      0.43502      -3.97272      -1.63156
Nuclear contribution   :     -0.77927       4.69055       1.63085
                        -----------------------------------------
Total Dipole Moment    :     -0.34425       0.71783      -0.00071
                        -----------------------------------------
Magnitude (a.u.)       :      0.79611
Magnitude (Debye)      :      2.02354

Rotational constants in cm-1:     0.054770     0.014848     0.013375
Rotational constants in MHz :  1641.968990   445.139781   400.962975

                             ****ORCA TERMINATED NORMALLY****
TOTAL RUN TIME: 0 days 0 hours 48 minutes 20 seconds 376 msec
