                         Program Version 4.2.1 -  RELEASE  -
|  1> # Test redundant internal optimization
|  2> #
|  3> ! RKS B3LYP  Opt TightSCF SmallPrint
|  4>
|  5> %basis
|  6>         Basis "6-31G"
|  7> end
|  8>
|  9> %geom
| 10> Constraints
| 11> { D 4  0  19  14  30.0   C } # D for Dihedral angle
| 12> { D 0  19  14  12  195.0   C } # D for Dihedral angle
| 13> { D 0  4  3  2   C } # D for Dihedral angle
| 14> { D 4  3  2  1   C } # D for Dihedral angle
| 15> { D 3  2  1  0   C } # D for Dihedral angle
| 16> { D 2  1  0  4   C } # D for Dihedral angle
| 17> { D 1  0  4  3   C } # D for Dihedral angle
| 18> { D 14  15  16  17   C } # D for Dihedral angle
| 19> { D 15  16  17  12   C } # D for Dihedral angle
| 20> { D 16  17  12  14   C } # D for Dihedral angle
| 21> { D 17  12  14  15   C } # D for Dihedral angle
| 22> { D 12  14  15  16   C } # D for Dihedral angle
| 23> end
| 24> end
| 25>
| 26>
| 27> #%pal
| 28> #nprocs 8
| 29> #end
| 30>
| 31> * xyz 0 1
| 32> C  -21.048   26.222   46.251
| 33> C  -20.361   27.558   45.944
| 34> C  -20.329   28.222   47.341
| 35> C  -20.110   27.022   48.296
| 36> O  -20.473   25.807   47.535
| 37> H  -20.833   25.428   45.533
| 38> H  -19.344   27.382   45.576
| 39> H  -20.898   28.157   45.201
| 40> H  -19.543   28.978   47.434
| 41> H  -21.289   28.710   47.548
| 42> H  -20.733   27.082   49.195
| 43> H  -19.064   26.913   48.597
| 44> C  -24.432   26.561   47.798
| 45> H  -24.847   27.113   48.655
| 46> C  -22.920   26.779   47.672
| 47> C  -22.373   25.818   48.753
| 48> C  -23.359   24.625   48.696
| 49> O  -24.572   25.115   48.004
| 50> H  -25.002   26.811   46.901
| 51> O  -22.472   26.381   46.366
| 52> H  -22.621   27.819   47.837
| 53> H  -21.338   25.514   48.567
| 54> H  -22.407   26.300   49.738
| 55> H  -23.637   24.260   49.691
| 56> H  -22.970   23.788   48.108
| 57> *
| 58>
| 59>                          ****END OF INPUT****
 Total Charge           Charge          ....    0
 Multiplicity           Mult            ....    1
 Number of Electrons    NEL             ....   86
FINAL SINGLE POINT ENERGY      -538.347700461733
FINAL SINGLE POINT ENERGY      -538.420180028875
FINAL SINGLE POINT ENERGY      -538.424043530763
FINAL SINGLE POINT ENERGY      -538.424674153885
FINAL SINGLE POINT ENERGY      -538.424816038765
FINAL SINGLE POINT ENERGY      -538.424874141879
FINAL SINGLE POINT ENERGY      -538.424883911366
FINAL SINGLE POINT ENERGY      -538.424886416989
                    ***********************HURRAY********************

CARTESIAN COORDINATES (ANGSTROEM)
---------------------------------
  C    -21.022901   26.332394   46.341235
  C    -20.380120   27.655967   45.909850
  C    -20.002086   28.289143   47.276890
  C    -19.610792   27.059315   48.128614
  O    -20.191371   25.877957   47.434501
  H    -20.969492   25.552953   45.579284
  H    -19.482261   27.446063   45.317060
  H    -21.064022   28.268317   45.318712
  H    -19.182596   29.009871   47.196622
  H    -20.864830   28.808978   47.707136
  H    -20.000344   27.099571   49.150134
  H    -18.529709   26.896431   48.164465
  C    -24.569620   26.383972   47.636341
  H    -25.210988   26.883410   48.378171
  C    -23.103160   26.757955   47.854531
  C    -22.717655   25.832854   49.025363
  C    -23.530349   24.548535   48.750169
  O    -24.603007   24.928920   47.801720
  H    -24.913835   26.611745   46.627373
  O    -22.449439   26.449786   46.583153
  H    -22.969401   27.820161   48.101873
  H    -21.650832   25.632489   49.077395
  H    -23.045112   26.308277   49.958611
  H    -23.981533   24.132686   49.657734
  H    -22.929546   23.777250   48.260063

 Multiplicity           Mult            ....    1
 Number of Electrons    NEL             ....   86
 Basis Dimension        Dim             ....  127

ORBITAL ENERGIES
----------------

  NO   OCC          E(Eh)            E(eV)
   0   2.0000     -19.153539      -521.1943
   1   2.0000     -19.136675      -520.7354
   2   2.0000     -19.121148      -520.3129
   3   2.0000     -10.281539      -279.7749
   4   2.0000     -10.241295      -278.6798
   5   2.0000     -10.236644      -278.5532
   6   2.0000     -10.216726      -278.0113
   7   2.0000     -10.213293      -277.9178
   8   2.0000     -10.196559      -277.4625
   9   2.0000     -10.188485      -277.2428
  10   2.0000     -10.177310      -276.9387
  11   2.0000      -1.053768       -28.6745
  12   2.0000      -1.010616       -27.5002
  13   2.0000      -0.987077       -26.8597
  14   2.0000      -0.794353       -21.6154
  15   2.0000      -0.781095       -21.2547
  16   2.0000      -0.741153       -20.1678
  17   2.0000      -0.720566       -19.6076
  18   2.0000      -0.620593       -16.8872
  19   2.0000      -0.606704       -16.5092
  20   2.0000      -0.593392       -16.1470
  21   2.0000      -0.561277       -15.2731
  22   2.0000      -0.520717       -14.1694
  23   2.0000      -0.502226       -13.6663
  24   2.0000      -0.488856       -13.3025
  25   2.0000      -0.482788       -13.1373
  26   2.0000      -0.452324       -12.3084
  27   2.0000      -0.447714       -12.1829
  28   2.0000      -0.424198       -11.5430
  29   2.0000      -0.409732       -11.1494
  30   2.0000      -0.406099       -11.0505
  31   2.0000      -0.385432       -10.4881
  32   2.0000      -0.377033       -10.2596
  33   2.0000      -0.366388        -9.9699
  34   2.0000      -0.363544        -9.8925
  35   2.0000      -0.361543        -9.8381
  36   2.0000      -0.341621        -9.2960
  37   2.0000      -0.326471        -8.8837
  38   2.0000      -0.306420        -8.3381
  39   2.0000      -0.293222        -7.9790
  40   2.0000      -0.265108        -7.2140
  41   2.0000      -0.249659        -6.7936
  42   2.0000      -0.228096        -6.2068
  43   0.0000       0.066562         1.8113
  44   0.0000       0.090315         2.4576
  45   0.0000       0.095888         2.6093
  46   0.0000       0.108246         2.9455
  47   0.0000       0.122698         3.3388

MULLIKEN ATOMIC CHARGES
-----------------------
   0 C :    0.309471
   1 C :   -0.264841
   2 C :   -0.315083
   3 C :   -0.021208
   4 O :   -0.510247
   5 H :    0.169045
   6 H :    0.148795
   7 H :    0.158058
   8 H :    0.150070
   9 H :    0.150929
  10 H :    0.141339
  11 H :    0.155404
  12 C :    0.009561
  13 H :    0.120478
  14 C :    0.083175
  15 C :   -0.317561
  16 C :    0.000933
  17 O :   -0.520048
  18 H :    0.165932
  19 O :   -0.540013
  20 H :    0.120025
  21 H :    0.191794
  22 H :    0.128373
  23 H :    0.132189
  24 H :    0.153431
Sum of atomic charges:   -0.0000000

LOEWDIN ATOMIC CHARGES
----------------------
   0 C :    0.183586
   1 C :   -0.225597
   2 C :   -0.221405
   3 C :   -0.036148
   4 O :   -0.319104
   5 H :    0.113472
   6 H :    0.116328
   7 H :    0.123890
   8 H :    0.118384
   9 H :    0.110301
  10 H :    0.100310
  11 H :    0.108411
  12 C :   -0.032396
  13 H :    0.088716
  14 C :    0.044631
  15 C :   -0.245901
  16 C :   -0.026745
  17 O :   -0.329935
  18 H :    0.122514
  19 O :   -0.332750
  20 H :    0.088564
  21 H :    0.138438
  22 H :    0.107570
  23 H :    0.096999
  24 H :    0.107868

  Mayer bond orders larger than 0.100000
B(  0-C ,  1-C ) :   0.9185 B(  0-C ,  4-O ) :   0.8956 B(  0-C ,  5-H ) :   0.9338
B(  0-C , 19-O ) :   0.8726 B(  1-C ,  2-C ) :   0.9563 B(  1-C ,  6-H ) :   0.9349
B(  1-C ,  7-H ) :   0.9376 B(  2-C ,  3-C ) :   0.9512 B(  2-C ,  8-H ) :   0.9440
B(  2-C ,  9-H ) :   0.9436 B(  3-C ,  4-O ) :   0.8339 B(  3-C , 10-H ) :   0.9281
B(  3-C , 11-H ) :   0.9397 B( 12-C , 13-H ) :   0.9150 B( 12-C , 14-C ) :   0.9337
B( 12-C , 17-O ) :   0.8758 B( 12-C , 18-H ) :   0.9305 B( 14-C , 15-C ) :   0.9365
B( 14-C , 19-O ) :   0.8268 B( 14-C , 20-H ) :   0.9163 B( 15-C , 16-C ) :   0.9456
B( 15-C , 21-H ) :   0.9106 B( 15-C , 22-H ) :   0.9358 B( 16-C , 17-O ) :   0.8561
B( 16-C , 23-H ) :   0.9339 B( 16-C , 24-H ) :   0.9360

FINAL SINGLE POINT ENERGY      -538.424886963356

DIPOLE MOMENT
-------------
                                X             Y             Z
Electronic contribution:     -2.32467      -3.51752      -2.40213
Nuclear contribution   :      3.31359       4.87077       2.95867
                        -----------------------------------------
Total Dipole Moment    :      0.98892       1.35325       0.55654
                        -----------------------------------------
Magnitude (a.u.)       :      1.76607
Magnitude (Debye)      :      4.48899

Rotational constants in cm-1:     0.077607     0.023878     0.021971
Rotational constants in MHz :  2326.609932   715.844715   658.670418

                             ****ORCA TERMINATED NORMALLY****
TOTAL RUN TIME: 0 days 0 hours 9 minutes 41 seconds 247 msec
