                         Program Version 4.2.1 -  RELEASE  -
|  1> # Test redundant internal optimization
|  2> #
|  3> ! RKS B3LYP  Opt TightSCF SmallPrint
|  4>
|  5> %basis
|  6>         Basis "6-31G"
|  7> end
|  8>
|  9> %geom
| 10> Constraints
| 11> { D 4  0  19  14  300.0   C } # D for Dihedral angle
| 12> { D 0  19  14  12  30.0   C } # D for Dihedral angle
| 13> { D 0  4  3  2   C } # D for Dihedral angle
| 14> { D 4  3  2  1   C } # D for Dihedral angle
| 15> { D 3  2  1  0   C } # D for Dihedral angle
| 16> { D 2  1  0  4   C } # D for Dihedral angle
| 17> { D 1  0  4  3   C } # D for Dihedral angle
| 18> { D 14  15  16  17   C } # D for Dihedral angle
| 19> { D 15  16  17  12   C } # D for Dihedral angle
| 20> { D 16  17  12  14   C } # D for Dihedral angle
| 21> { D 17  12  14  15   C } # D for Dihedral angle
| 22> { D 12  14  15  16   C } # D for Dihedral angle
| 23> end
| 24> end
| 25>
| 26>
| 27> #%pal
| 28> #nprocs 8
| 29> #end
| 30>
| 31> * xyz 0 1
| 32> C  -21.048   26.222   46.251
| 33> C  -20.361   27.558   45.944
| 34> C  -20.329   28.222   47.341
| 35> C  -20.110   27.022   48.296
| 36> O  -20.473   25.807   47.535
| 37> H  -20.833   25.428   45.533
| 38> H  -19.344   27.382   45.576
| 39> H  -20.898   28.157   45.201
| 40> H  -19.543   28.978   47.434
| 41> H  -21.289   28.710   47.548
| 42> H  -20.733   27.082   49.195
| 43> H  -19.064   26.913   48.597
| 44> C  -22.269   24.316   47.638
| 45> H  -22.656   23.287   47.711
| 46> C  -23.171   25.189   46.758
| 47> C  -24.326   25.527   47.729
| 48> C  -23.611   25.647   49.098
| 49> O  -22.304   24.970   48.951
| 50> H  -21.225   24.284   47.324
| 51> O  -22.472   26.381   46.366
| 52> H  -23.514   24.676   45.852
| 53> H  -24.858   26.443   47.454
| 54> H  -25.057   24.708   47.746
| 55> H  -24.172   25.171   49.909
| 56> H  -23.406   26.687   49.373
| 57> *
| 58>
| 59>                          ****END OF INPUT****
 Total Charge           Charge          ....    0
 Multiplicity           Mult            ....    1
 Number of Electrons    NEL             ....   86
FINAL SINGLE POINT ENERGY      -538.404958980570
FINAL SINGLE POINT ENERGY      -538.429898280154
FINAL SINGLE POINT ENERGY      -538.432395409997
FINAL SINGLE POINT ENERGY      -538.432879533664
FINAL SINGLE POINT ENERGY      -538.432939810262
FINAL SINGLE POINT ENERGY      -538.432957892757
                    ***********************HURRAY********************

CARTESIAN COORDINATES (ANGSTROEM)
---------------------------------
  C    -20.881129   26.215259   46.241899
  C    -20.432985   27.644652   45.939246
  C    -20.403724   28.275799   47.351196
  C    -19.935859   27.103616   48.245233
  O    -20.171230   25.872153   47.448847
  H    -20.602467   25.457492   45.501894
  H    -19.430177   27.621945   45.496942
  H    -21.114396   28.151490   45.253138
  H    -19.733231   29.138375   47.411848
  H    -21.411067   28.597022   47.629647
  H    -20.494510   27.014778   49.178738
  H    -18.863702   27.134843   48.460872
  C    -22.437423   24.106110   47.735036
  H    -23.023792   23.175332   47.726872
  C    -23.108887   25.120715   46.808893
  C    -24.268925   25.622422   47.687570
  C    -23.670341   25.610639   49.115405
  O    -22.478999   24.736720   49.060885
  H    -21.392606   23.895120   47.520327
  O    -22.320005   26.279507   46.385630
  H    -23.475666   24.629762   45.896103
  H    -24.599928   26.613042   47.368196
  H    -25.112457   24.927544   47.605098
  H    -24.371823   25.220684   49.861537
  H    -23.330670   26.601980   49.428949

 Multiplicity           Mult            ....    1
 Number of Electrons    NEL             ....   86
 Basis Dimension        Dim             ....  127

ORBITAL ENERGIES
----------------

  NO   OCC          E(Eh)            E(eV)
   0   2.0000     -19.138543      -520.7862
   1   2.0000     -19.135569      -520.7053
   2   2.0000     -19.123959      -520.3894
   3   2.0000     -10.276144      -279.6281
   4   2.0000     -10.236785      -278.5571
   5   2.0000     -10.218400      -278.0568
   6   2.0000     -10.217502      -278.0324
   7   2.0000     -10.215000      -277.9643
   8   2.0000     -10.182166      -277.0708
   9   2.0000     -10.181156      -277.0433
  10   2.0000     -10.180886      -277.0360
  11   2.0000      -1.048821       -28.5399
  12   2.0000      -1.006919       -27.3996
  13   2.0000      -0.986239       -26.8369
  14   2.0000      -0.790027       -21.4977
  15   2.0000      -0.772808       -21.0292
  16   2.0000      -0.732770       -19.9397
  17   2.0000      -0.719690       -19.5838
  18   2.0000      -0.611659       -16.6441
  19   2.0000      -0.596479       -16.2310
  20   2.0000      -0.589540       -16.0422
  21   2.0000      -0.564307       -15.3556
  22   2.0000      -0.516281       -14.0487
  23   2.0000      -0.496950       -13.5227
  24   2.0000      -0.483600       -13.1594
  25   2.0000      -0.475443       -12.9375
  26   2.0000      -0.445065       -12.1108
  27   2.0000      -0.439397       -11.9566
  28   2.0000      -0.426577       -11.6077
  29   2.0000      -0.406549       -11.0628
  30   2.0000      -0.398949       -10.8560
  31   2.0000      -0.379758       -10.3337
  32   2.0000      -0.369083       -10.0433
  33   2.0000      -0.360946        -9.8219
  34   2.0000      -0.355577        -9.6758
  35   2.0000      -0.351243        -9.5578
  36   2.0000      -0.339733        -9.2446
  37   2.0000      -0.325984        -8.8705
  38   2.0000      -0.299143        -8.1401
  39   2.0000      -0.288992        -7.8639
  40   2.0000      -0.260338        -7.0841
  41   2.0000      -0.248875        -6.7722
  42   2.0000      -0.229530        -6.2458
  43   0.0000       0.077964         2.1215
  44   0.0000       0.096372         2.6224
  45   0.0000       0.101619         2.7652
  46   0.0000       0.117908         3.2084
  47   0.0000       0.122224         3.3259

MULLIKEN ATOMIC CHARGES
-----------------------
   0 C :    0.293325
   1 C :   -0.261168
   2 C :   -0.298307
   3 C :   -0.004630
   4 O :   -0.506883
   5 H :    0.138503
   6 H :    0.143002
   7 H :    0.156624
   8 H :    0.138558
   9 H :    0.157073
  10 H :    0.162907
  11 H :    0.141227
  12 C :   -0.014060
  13 H :    0.121892
  14 C :    0.094338
  15 C :   -0.291274
  16 C :   -0.002814
  17 O :   -0.518830
  18 H :    0.184755
  19 O :   -0.537152
  20 H :    0.126767
  21 H :    0.159198
  22 H :    0.139710
  23 H :    0.135423
  24 H :    0.141816
Sum of atomic charges:    0.0000000

LOEWDIN ATOMIC CHARGES
----------------------
   0 C :    0.175306
   1 C :   -0.213604
   2 C :   -0.216140
   3 C :   -0.027239
   4 O :   -0.318479
   5 H :    0.092999
   6 H :    0.112573
   7 H :    0.123576
   8 H :    0.112419
   9 H :    0.116305
  10 H :    0.113186
  11 H :    0.102258
  12 C :   -0.050458
  13 H :    0.092082
  14 C :    0.043058
  15 C :   -0.225393
  16 C :   -0.031137
  17 O :   -0.328730
  18 H :    0.129898
  19 O :   -0.334650
  20 H :    0.095718
  21 H :    0.126407
  22 H :    0.111548
  23 H :    0.097693
  24 H :    0.100803

  Mayer bond orders larger than 0.100000
B(  0-C ,  1-C ) :   0.9495 B(  0-C ,  4-O ) :   0.9075 B(  0-C ,  5-H ) :   0.9221
B(  0-C , 19-O ) :   0.8498 B(  1-C ,  2-C ) :   0.9573 B(  1-C ,  6-H ) :   0.9405
B(  1-C ,  7-H ) :   0.9368 B(  2-C ,  3-C ) :   0.9553 B(  2-C ,  8-H ) :   0.9450
B(  2-C ,  9-H ) :   0.9447 B(  3-C ,  4-O ) :   0.8277 B(  3-C , 10-H ) :   0.9294
B(  3-C , 11-H ) :   0.9406 B( 12-C , 13-H ) :   0.9091 B( 12-C , 14-C ) :   0.9243
B( 12-C , 17-O ) :   0.8576 B( 12-C , 18-H ) :   0.9162 B( 14-C , 15-C ) :   0.9507
B( 14-C , 19-O ) :   0.8370 B( 14-C , 20-H ) :   0.9258 B( 15-C , 16-C ) :   0.9467
B( 15-C , 21-H ) :   0.9377 B( 15-C , 22-H ) :   0.9401 B( 16-C , 17-O ) :   0.8633
B( 16-C , 23-H ) :   0.9328 B( 16-C , 24-H ) :   0.9365

FINAL SINGLE POINT ENERGY      -538.432959387745

DIPOLE MOMENT
-------------
                                X             Y             Z
Electronic contribution:      0.96402      -2.86423      -0.33272
Nuclear contribution   :     -1.32713       3.33499      -0.20869
                        -----------------------------------------
Total Dipole Moment    :     -0.36311       0.47076      -0.54142
                        -----------------------------------------
Magnitude (a.u.)       :      0.80411
Magnitude (Debye)      :      2.04389

Rotational constants in cm-1:     0.065895     0.027465     0.025552
Rotational constants in MHz :  1975.487688   823.387511   766.039571

                             ****ORCA TERMINATED NORMALLY****
TOTAL RUN TIME: 0 days 0 hours 7 minutes 53 seconds 576 msec
