                         Program Version 4.2.0 -  RELEASE  -
|  1> # Test redundant internal optimization
|  2> #
|  3> ! RKS B3LYP  Opt TightSCF SmallPrint
|  4>
|  5> %basis
|  6>         Basis "6-31G"
|  7> end
|  8>
|  9> %geom
| 10> Constraints
| 11> { D 4  0  15  12  60.0   C } # D for Dihedral angle
| 12> { D 0  15  12  16  225.0   C } # D for Dihedral angle
| 13> { D 0  4  3  2   C } # D for Dihedral angle
| 14> { D 4  3  2  1   C } # D for Dihedral angle
| 15> { D 3  2  1  0   C } # D for Dihedral angle
| 16> { D 2  1  0  4   C } # D for Dihedral angle
| 17> { D 1  0  4  3   C } # D for Dihedral angle
| 18> { D 16  20  19  18   C } # D for Dihedral angle
| 19> { D 20  19  18  17   C } # D for Dihedral angle
| 20> { D 19  18  17  16   C } # D for Dihedral angle
| 21> { D 18  17  16  20   C } # D for Dihedral angle
| 22> { D 17  16  20  19   C } # D for Dihedral angle
| 23> { D 15  12  16  20   C } # D for Dihedral angle
| 24> end
| 25> end
| 26>
| 27>
| 28> #%pal
| 29> #nprocs 8
| 30> #end
| 31>
| 32> * xyz 0 1
| 33> C  -21.048   26.222   46.251
| 34> C  -20.361   27.558   45.944
| 35> C  -20.329   28.222   47.341
| 36> C  -20.110   27.022   48.296
| 37> O  -20.473   25.807   47.535
| 38> H  -20.833   25.428   45.533
| 39> H  -19.344   27.382   45.576
| 40> H  -20.898   28.157   45.201
| 41> H  -19.543   28.978   47.434
| 42> H  -21.289   28.710   47.548
| 43> H  -20.733   27.082   49.195
| 44> H  -19.064   26.913   48.597
| 45> C  -23.051   27.452   47.413
| 46> H  -22.208   27.713   48.066
| 47> H  -23.388   28.365   46.907
| 48> O  -22.586   26.394   46.375
| 49> C  -24.219   26.946   48.304
| 50> C  -24.728   28.051   49.236
| 51> C  -25.614   28.885   48.279
| 52> C  -26.227   27.812   47.344
| 53> O  -25.383   26.606   47.479
| 54> H  -23.910   26.031   48.814
| 55> H  -25.331   27.618   50.041
| 56> O  -23.583   28.885   49.875
| 57> H  -26.378   29.465   48.806
| 58> H  -24.994   29.586   47.708
| 59> H  -26.237   28.127   46.295
| 60> H  -27.241   27.531   47.640
| 61> H  -22.966   29.330   49.088
| 62> *
| 63>
| 64>                          ****END OF INPUT****
 Total Charge           Charge          ....    0
 Multiplicity           Mult            ....    1
 Number of Electrons    NEL             ....  102
FINAL SINGLE POINT ENERGY      -652.799760531206
FINAL SINGLE POINT ENERGY      -652.830109455418
FINAL SINGLE POINT ENERGY      -652.846195650244
FINAL SINGLE POINT ENERGY      -652.849055281359
FINAL SINGLE POINT ENERGY      -652.849587634074
FINAL SINGLE POINT ENERGY      -652.849753879674
FINAL SINGLE POINT ENERGY      -652.849772787175
FINAL SINGLE POINT ENERGY      -652.849776061958
                    ***********************HURRAY********************

CARTESIAN COORDINATES (ANGSTROEM)
---------------------------------
  C    -21.173878   26.330759   46.406668
  C    -20.262168   27.456201   45.894631
  C    -19.866273   28.179947   47.215784
  C    -19.776280   27.007418   48.227164
  O    -20.518156   25.877060   47.615136
  H    -21.193149   25.469443   45.737309
  H    -19.382719   27.008073   45.420870
  H    -20.762122   28.105613   45.171226
  H    -18.913281   28.711495   47.128878
  H    -20.624779   28.912586   47.504085
  H    -20.218587   27.238797   49.201120
  H    -18.746695   26.669019   48.375961
  C    -23.065266   27.617951   47.476952
  H    -22.311387   27.880816   48.223977
  H    -23.340790   28.517351   46.907801
  O    -22.578573   26.611171   46.546829
  C    -24.258726   27.033160   48.231242
  C    -24.899420   28.010651   49.229822
  C    -25.851643   28.830943   48.308429
  C    -26.326709   27.774840   47.286100
  O    -25.362565   26.649394   47.357472
  H    -23.921324   26.109426   48.708916
  H    -25.471404   27.448865   49.970986
  O    -23.964661   28.804256   50.006167
  H    -26.674462   29.289924   48.862528
  H    -25.282500   29.633429   47.819941
  H    -26.356419   28.156934   46.261022
  H    -27.311353   27.369935   47.538891
  H    -23.653710   29.572543   49.485091

 Multiplicity           Mult            ....    1
 Number of Electrons    NEL             ....  102
 Basis Dimension        Dim             ....  149

ORBITAL ENERGIES
----------------

  NO   OCC          E(Eh)            E(eV)
   0   2.0000     -19.152066      -521.1542
   1   2.0000     -19.140730      -520.8458
   2   2.0000     -19.139037      -520.7997
   3   2.0000     -19.133743      -520.6556
   4   2.0000     -10.275058      -279.5985
   5   2.0000     -10.244909      -278.7782
   6   2.0000     -10.229960      -278.3714
   7   2.0000     -10.229371      -278.3553
   8   2.0000     -10.228882      -278.3420
   9   2.0000     -10.226608      -278.2801
  10   2.0000     -10.196912      -277.4721
  11   2.0000     -10.194344      -277.4022
  12   2.0000     -10.189389      -277.2674
  13   2.0000      -1.050144       -28.5759
  14   2.0000      -1.033774       -28.1304
  15   2.0000      -1.014443       -27.6044
  16   2.0000      -0.992622       -27.0106
  17   2.0000      -0.788340       -21.4518
  18   2.0000      -0.783236       -21.3129
  19   2.0000      -0.771138       -20.9837
  20   2.0000      -0.731839       -19.9144
  21   2.0000      -0.682374       -18.5683
  22   2.0000      -0.612285       -16.6611
  23   2.0000      -0.604001       -16.4357
  24   2.0000      -0.597986       -16.2720
  25   2.0000      -0.569030       -15.4841
  26   2.0000      -0.523644       -14.2491
  27   2.0000      -0.513846       -13.9825
  28   2.0000      -0.502104       -13.6629
  29   2.0000      -0.493404       -13.4262
  30   2.0000      -0.469163       -12.7666
  31   2.0000      -0.460679       -12.5357
  32   2.0000      -0.440692       -11.9918
  33   2.0000      -0.433796       -11.8042
  34   2.0000      -0.422601       -11.4996
  35   2.0000      -0.420648       -11.4464
  36   2.0000      -0.416649       -11.3376
  37   2.0000      -0.400962       -10.9107
  38   2.0000      -0.380863       -10.3638
  39   2.0000      -0.376575       -10.2471
  40   2.0000      -0.360747        -9.8164
  41   2.0000      -0.354826        -9.6553
  42   2.0000      -0.347647        -9.4600
  43   2.0000      -0.327992        -8.9251
  44   2.0000      -0.318406        -8.6643
  45   2.0000      -0.314624        -8.5614
  46   2.0000      -0.300341        -8.1727
  47   2.0000      -0.271849        -7.3974
  48   2.0000      -0.264964        -7.2100
  49   2.0000      -0.251913        -6.8549
  50   2.0000      -0.235491        -6.4080
  51   0.0000       0.043986         1.1969
  52   0.0000       0.072491         1.9726
  53   0.0000       0.084439         2.2977
  54   0.0000       0.091863         2.4997
  55   0.0000       0.102140         2.7794

MULLIKEN ATOMIC CHARGES
-----------------------
   0 C :    0.292492
   1 C :   -0.270030
   2 C :   -0.316106
   3 C :   -0.016797
   4 O :   -0.504775
   5 H :    0.168553
   6 H :    0.154195
   7 H :    0.148792
   8 H :    0.145655
   9 H :    0.141232
  10 H :    0.151737
  11 H :    0.148086
  12 C :   -0.025083
  13 H :    0.142386
  14 H :    0.120629
  15 O :   -0.503262
  16 C :    0.104690
  17 C :    0.082144
  18 C :   -0.322609
  19 C :   -0.006911
  20 O :   -0.502524
  21 H :    0.170340
  22 H :    0.168186
  23 O :   -0.601288
  24 H :    0.156341
  25 H :    0.128074
  26 H :    0.144693
  27 H :    0.148019
  28 H :    0.353143
Sum of atomic charges:    0.0000000

LOEWDIN ATOMIC CHARGES
----------------------
   0 C :    0.173426
   1 C :   -0.228874
   2 C :   -0.225243
   3 C :   -0.036826
   4 O :   -0.321909
   5 H :    0.114828
   6 H :    0.120826
   7 H :    0.118749
   8 H :    0.115655
   9 H :    0.105577
  10 H :    0.104143
  11 H :    0.105385
  12 C :   -0.053429
  13 H :    0.105348
  14 H :    0.090786
  15 O :   -0.305244
  16 C :    0.021433
  17 C :    0.033576
  18 C :   -0.240334
  19 C :   -0.029109
  20 O :   -0.310516
  21 H :    0.124107
  22 H :    0.119996
  23 O :   -0.410074
  24 H :    0.121760
  25 H :    0.101302
  26 H :    0.103247
  27 H :    0.105401
  28 H :    0.276013

  Mayer bond orders larger than 0.100000
B(  0-C ,  1-C ) :   0.9131 B(  0-C ,  4-O ) :   0.8956 B(  0-C ,  5-H ) :   0.9354
B(  0-C , 15-O ) :   0.9136 B(  1-C ,  2-C ) :   0.9545 B(  1-C ,  6-H ) :   0.9355
B(  1-C ,  7-H ) :   0.9384 B(  2-C ,  3-C ) :   0.9466 B(  2-C ,  8-H ) :   0.9451
B(  2-C ,  9-H ) :   0.9429 B(  3-C ,  4-O ) :   0.8458 B(  3-C , 10-H ) :   0.9301
B(  3-C , 11-H ) :   0.9382 B( 12-C , 13-H ) :   0.8931 B( 12-C , 14-H ) :   0.9268
B( 12-C , 15-O ) :   0.8463 B( 12-C , 16-C ) :   0.8999 B( 16-C , 17-C ) :   0.8697
B( 16-C , 20-O ) :   0.8708 B( 16-C , 21-H ) :   0.9282 B( 17-C , 18-C ) :   0.9260
B( 17-C , 22-H ) :   0.9331 B( 17-C , 23-O ) :   0.8894 B( 18-C , 19-C ) :   0.9396
B( 18-C , 24-H ) :   0.9418 B( 18-C , 25-H ) :   0.9409 B( 19-C , 20-O ) :   0.8540
B( 19-C , 26-H ) :   0.9312 B( 19-C , 27-H ) :   0.9376 B( 23-O , 28-H ) :   0.8001

FINAL SINGLE POINT ENERGY      -652.849764877657

DIPOLE MOMENT
-------------
                                X             Y             Z
Electronic contribution:     -2.04894      -5.25589       0.46443
Nuclear contribution   :      2.36410       7.11813      -0.69054
                        -----------------------------------------
Total Dipole Moment    :      0.31517       1.86225      -0.22610
                        -----------------------------------------
Magnitude (a.u.)       :      1.90221
Magnitude (Debye)      :      4.83504

Rotational constants in cm-1:     0.049804     0.014397     0.012828
Rotational constants in MHz :  1493.089478   431.609800   384.573187

                             ****ORCA TERMINATED NORMALLY****
TOTAL RUN TIME: 0 days 1 hours 27 minutes 29 seconds 837 msec
