                         Program Version 4.2.0 -  RELEASE  -
|  1> # Test redundant internal optimization
|  2> #
|  3> ! RKS B3LYP  Opt TightSCF SmallPrint
|  4>
|  5> %basis
|  6>         Basis "6-31G"
|  7> end
|  8>
|  9> %geom
| 10> Constraints
| 11> { D 4  0  15  12  135.0   C } # D for Dihedral angle
| 12> { D 0  15  12  16  150.0   C } # D for Dihedral angle
| 13> { D 0  4  3  2   C } # D for Dihedral angle
| 14> { D 4  3  2  1   C } # D for Dihedral angle
| 15> { D 3  2  1  0   C } # D for Dihedral angle
| 16> { D 2  1  0  4   C } # D for Dihedral angle
| 17> { D 1  0  4  3   C } # D for Dihedral angle
| 18> { D 16  20  19  18   C } # D for Dihedral angle
| 19> { D 20  19  18  17   C } # D for Dihedral angle
| 20> { D 19  18  17  16   C } # D for Dihedral angle
| 21> { D 18  17  16  20   C } # D for Dihedral angle
| 22> { D 17  16  20  19   C } # D for Dihedral angle
| 23> { D 15  12  16  20   C } # D for Dihedral angle
| 24> end
| 25> end
| 26>
| 27>
| 28> #%pal
| 29> #nprocs 8
| 30> #end
| 31>
| 32> * xyz 0 1
| 33> C  -21.048   26.222   46.251
| 34> C  -20.361   27.558   45.944
| 35> C  -20.329   28.222   47.341
| 36> C  -20.110   27.022   48.296
| 37> O  -20.473   25.807   47.535
| 38> H  -20.833   25.428   45.533
| 39> H  -19.344   27.382   45.576
| 40> H  -20.898   28.157   45.201
| 41> H  -19.543   28.978   47.434
| 42> H  -21.289   28.710   47.548
| 43> H  -20.733   27.082   49.195
| 44> H  -19.064   26.913   48.597
| 45> C  -23.162   27.680   45.721
| 46> H  -23.158   28.493   46.457
| 47> H  -22.543   27.987   44.868
| 48> O  -22.586   26.394   46.375
| 49> C  -24.616   27.492   45.206
| 50> C  -24.715   26.309   44.236
| 51> C  -24.741   25.107   45.211
| 52> C  -25.533   25.655   46.424
| 53> O  -25.508   27.130   46.312
| 54> H  -24.977   28.439   44.801
| 55> O  -26.041   26.390   43.431
| 56> H  -23.882   26.262   43.527
| 57> H  -25.208   24.217   44.776
| 58> H  -23.720   24.839   45.506
| 59> H  -25.091   25.360   47.382
| 60> H  -26.583   25.349   46.410
| 61> H  -26.889   26.437   44.122
| 62> *
| 63>
| 64>                          ****END OF INPUT****
 Total Charge           Charge          ....    0
 Multiplicity           Mult            ....    1
 Number of Electrons    NEL             ....  102
FINAL SINGLE POINT ENERGY      -652.824059370352
FINAL SINGLE POINT ENERGY      -652.847448236918
FINAL SINGLE POINT ENERGY      -652.852620308091
FINAL SINGLE POINT ENERGY      -652.854779189937
FINAL SINGLE POINT ENERGY      -652.854999533263
FINAL SINGLE POINT ENERGY      -652.855036083254
FINAL SINGLE POINT ENERGY      -652.855037682414
                    ***********************HURRAY********************

CARTESIAN COORDINATES (ANGSTROEM)
---------------------------------
  C    -21.127161   26.322366   46.265224
  C    -20.250918   27.534940   45.944806
  C    -20.199206   28.268096   47.311909
  C    -20.196992   27.098032   48.320743
  O    -20.687514   25.915644   47.571534
  H    -20.978028   25.460628   45.610887
  H    -19.255841   27.169886   45.667341
  H    -20.613460   28.163514   45.128728
  H    -19.314280   28.903963   47.408877
  H    -21.085106   28.898163   47.443469
  H    -20.853491   27.268007   49.177742
  H    -19.193296   26.849259   48.676905
  C    -23.190938   27.738550   45.724073
  H    -23.233584   28.552509   46.458977
  H    -22.636815   28.091673   44.843759
  O    -22.566104   26.571032   46.323835
  C    -24.617670   27.411519   45.282411
  C    -24.782504   26.292000   44.244135
  C    -24.778429   25.024528   45.141426
  C    -25.501985   25.505543   46.423600
  O    -25.457105   26.987912   46.400516
  H    -25.053832   28.342124   44.897441
  O    -26.031303   26.452087   43.514061
  H    -24.004739   26.283341   43.478944
  H    -25.294864   24.198291   44.644872
  H    -23.751966   24.736174   45.369010
  H    -25.005960   25.157692   47.332516
  H    -26.557953   25.217186   46.453016
  H    -26.756956   26.606342   44.155244

 Multiplicity           Mult            ....    1
 Number of Electrons    NEL             ....  102
 Basis Dimension        Dim             ....  149

ORBITAL ENERGIES
----------------

  NO   OCC          E(Eh)            E(eV)
   0   2.0000     -19.144140      -520.9385
   1   2.0000     -19.142920      -520.9053
   2   2.0000     -19.134375      -520.6728
   3   2.0000     -19.133613      -520.6521
   4   2.0000     -10.286605      -279.9127
   5   2.0000     -10.237048      -278.5642
   6   2.0000     -10.235400      -278.5194
   7   2.0000     -10.232892      -278.4512
   8   2.0000     -10.229749      -278.3656
   9   2.0000     -10.217856      -278.0420
  10   2.0000     -10.198521      -277.5159
  11   2.0000     -10.196529      -277.4616
  12   2.0000     -10.173047      -276.8227
  13   2.0000      -1.055404       -28.7190
  14   2.0000      -1.030484       -28.0409
  15   2.0000      -1.002557       -27.2810
  16   2.0000      -0.993197       -27.0263
  17   2.0000      -0.794572       -21.6214
  18   2.0000      -0.778197       -21.1758
  19   2.0000      -0.762633       -20.7523
  20   2.0000      -0.736386       -20.0381
  21   2.0000      -0.678424       -18.4609
  22   2.0000      -0.609482       -16.5849
  23   2.0000      -0.601004       -16.3542
  24   2.0000      -0.594366       -16.1735
  25   2.0000      -0.568609       -15.4726
  26   2.0000      -0.525992       -14.3130
  27   2.0000      -0.509620       -13.8675
  28   2.0000      -0.507597       -13.8124
  29   2.0000      -0.485400       -13.2084
  30   2.0000      -0.474600       -12.9145
  31   2.0000      -0.458065       -12.4646
  32   2.0000      -0.449242       -12.2245
  33   2.0000      -0.431505       -11.7418
  34   2.0000      -0.430349       -11.7104
  35   2.0000      -0.417346       -11.3566
  36   2.0000      -0.403992       -10.9932
  37   2.0000      -0.387161       -10.5352
  38   2.0000      -0.383613       -10.4386
  39   2.0000      -0.365098        -9.9348
  40   2.0000      -0.362424        -9.8621
  41   2.0000      -0.360052        -9.7975
  42   2.0000      -0.353403        -9.6166
  43   2.0000      -0.326503        -8.8846
  44   2.0000      -0.317096        -8.6286
  45   2.0000      -0.301624        -8.2076
  46   2.0000      -0.297846        -8.1048
  47   2.0000      -0.270567        -7.3625
  48   2.0000      -0.262728        -7.1492
  49   2.0000      -0.257172        -6.9980
  50   2.0000      -0.236903        -6.4465
  51   0.0000       0.066944         1.8216
  52   0.0000       0.076026         2.0688
  53   0.0000       0.091029         2.4770
  54   0.0000       0.101226         2.7545
  55   0.0000       0.106048         2.8857

MULLIKEN ATOMIC CHARGES
-----------------------
   0 C :    0.317565
   1 C :   -0.299272
   2 C :   -0.306173
   3 C :   -0.001519
   4 O :   -0.494734
   5 H :    0.151639
   6 H :    0.156671
   7 H :    0.146523
   8 H :    0.147581
   9 H :    0.156356
  10 H :    0.155176
  11 H :    0.144921
  12 C :    0.004242
  13 H :    0.147953
  14 H :    0.119472
  15 O :   -0.531900
  16 C :    0.074693
  17 C :    0.074790
  18 C :   -0.283092
  19 C :   -0.015868
  20 O :   -0.527292
  21 H :    0.149349
  22 O :   -0.604267
  23 H :    0.143641
  24 H :    0.145239
  25 H :    0.171684
  26 H :    0.159818
  27 H :    0.133429
  28 H :    0.363376
Sum of atomic charges:   -0.0000000

LOEWDIN ATOMIC CHARGES
----------------------
   0 C :    0.183196
   1 C :   -0.232748
   2 C :   -0.218168
   3 C :   -0.027445
   4 O :   -0.308094
   5 H :    0.102398
   6 H :    0.122395
   7 H :    0.114793
   8 H :    0.117188
   9 H :    0.113156
  10 H :    0.109706
  11 H :    0.104273
  12 C :   -0.036846
  13 H :    0.103601
  14 H :    0.092669
  15 O :   -0.335619
  16 C :    0.014125
  17 C :    0.037862
  18 C :   -0.239703
  19 C :   -0.031127
  20 O :   -0.329940
  21 H :    0.113108
  22 O :   -0.417453
  23 H :    0.112028
  24 H :    0.116837
  25 H :    0.129001
  26 H :    0.113165
  27 H :    0.095210
  28 H :    0.282431

  Mayer bond orders larger than 0.100000
B(  0-C ,  1-C ) :   0.9359 B(  0-C ,  4-O ) :   0.9309 B(  0-C ,  5-H ) :   0.9273
B(  0-C , 15-O ) :   0.8439 B(  1-C ,  2-C ) :   0.9488 B(  1-C ,  6-H ) :   0.9333
B(  1-C ,  7-H ) :   0.9270 B(  2-C ,  3-C ) :   0.9523 B(  2-C ,  8-H ) :   0.9452
B(  2-C ,  9-H ) :   0.9426 B(  3-C ,  4-O ) :   0.8386 B(  3-C , 10-H ) :   0.9339
B(  3-C , 11-H ) :   0.9396 B( 12-C , 13-H ) :   0.9146 B( 12-C , 14-H ) :   0.9026
B( 12-C , 15-O ) :   0.8502 B( 12-C , 16-C ) :   0.8984 B( 16-C , 17-C ) :   0.9081
B( 16-C , 20-O ) :   0.8797 B( 16-C , 21-H ) :   0.9214 B( 17-C , 18-C ) :   0.9246
B( 17-C , 22-O ) :   0.8908 B( 17-C , 23-H ) :   0.9366 B( 18-C , 19-C ) :   0.9475
B( 18-C , 24-H ) :   0.9376 B( 18-C , 25-H ) :   0.9197 B( 19-C , 20-O ) :   0.8350
B( 19-C , 26-H ) :   0.9333 B( 19-C , 27-H ) :   0.9378 B( 22-O , 28-H ) :   0.7953

FINAL SINGLE POINT ENERGY      -652.855036510762

DIPOLE MOMENT
-------------
                                X             Y             Z
Electronic contribution:     -3.90531      -1.83846      -0.34166
Nuclear contribution   :      4.98923       2.55864       0.24871
                        -----------------------------------------
Total Dipole Moment    :      1.08392       0.72018      -0.09295
                        -----------------------------------------
Magnitude (a.u.)       :      1.30468
Magnitude (Debye)      :      3.31623

Rotational constants in cm-1:     0.060263     0.013373     0.012862
Rotational constants in MHz :  1806.624830   400.920861   385.594096

                             ****ORCA TERMINATED NORMALLY****
TOTAL RUN TIME: 0 days 1 hours 5 minutes 34 seconds 651 msec
