                         Program Version 4.2.0 -  RELEASE  -
|  1> # Test redundant internal optimization
|  2> #
|  3> ! RKS B3LYP  Opt TightSCF SmallPrint
|  4>
|  5> %basis
|  6>         Basis "6-31G"
|  7> end
|  8>
|  9> %geom
| 10> Constraints
| 11> { D 4  0  15  12  165.0   C } # D for Dihedral angle
| 12> { D 0  15  12  16  75.0   C } # D for Dihedral angle
| 13> { D 0  4  3  2   C } # D for Dihedral angle
| 14> { D 4  3  2  1   C } # D for Dihedral angle
| 15> { D 3  2  1  0   C } # D for Dihedral angle
| 16> { D 2  1  0  4   C } # D for Dihedral angle
| 17> { D 1  0  4  3   C } # D for Dihedral angle
| 18> { D 16  20  19  18   C } # D for Dihedral angle
| 19> { D 20  19  18  17   C } # D for Dihedral angle
| 20> { D 19  18  17  16   C } # D for Dihedral angle
| 21> { D 18  17  16  20   C } # D for Dihedral angle
| 22> { D 17  16  20  19   C } # D for Dihedral angle
| 23> { D 15  12  16  20   C } # D for Dihedral angle
| 24> end
| 25> end
| 26>
| 27>
| 28> #%pal
| 29> #nprocs 8
| 30> #end
| 31>
| 32> * xyz 0 1
| 33> C  -21.048   26.222   46.251
| 34> C  -20.361   27.558   45.944
| 35> C  -20.329   28.222   47.341
| 36> C  -20.110   27.022   48.296
| 37> O  -20.473   25.807   47.535
| 38> H  -20.833   25.428   45.533
| 39> H  -19.344   27.382   45.576
| 40> H  -20.898   28.157   45.201
| 41> H  -19.543   28.978   47.434
| 42> H  -21.289   28.710   47.548
| 43> H  -20.733   27.082   49.195
| 44> H  -19.064   26.913   48.597
| 45> C  -23.260   27.170   45.210
| 46> H  -24.268   27.477   45.515
| 47> H  -22.685   28.074   44.968
| 48> O  -22.586   26.394   46.375
| 49> C  -23.378   26.323   43.913
| 50> C  -24.309   25.122   44.116
| 51> C  -25.703   25.782   43.995
| 52> C  -25.480   26.883   42.928
| 53> O  -24.020   27.102   42.849
| 54> H  -22.377   26.065   43.562
| 55> H  -24.158   24.390   43.314
| 56> O  -24.096   24.407   45.478
| 57> H  -26.485   25.073   43.706
| 58> H  -25.992   26.227   44.955
| 59> H  -25.970   27.827   43.190
| 60> H  -25.814   26.575   41.934
| 61> H  -24.243   25.122   46.295
| 62> *
| 63>
| 64>                          ****END OF INPUT****
 Total Charge           Charge          ....    0
 Multiplicity           Mult            ....    1
 Number of Electrons    NEL             ....  102
FINAL SINGLE POINT ENERGY      -652.825770848185
FINAL SINGLE POINT ENERGY      -652.851123228996
FINAL SINGLE POINT ENERGY      -652.858050623248
FINAL SINGLE POINT ENERGY      -652.860336593313
FINAL SINGLE POINT ENERGY      -652.861318095807
FINAL SINGLE POINT ENERGY      -652.861727051982
FINAL SINGLE POINT ENERGY      -652.861831057207
FINAL SINGLE POINT ENERGY      -652.861845698696
                    ***********************HURRAY********************

CARTESIAN COORDINATES (ANGSTROEM)
---------------------------------
  C    -21.095854   26.246743   46.208777
  C    -20.268005   27.498880   45.929948
  C    -20.313845   28.226978   47.296298
  C    -20.300184   27.060596   48.304314
  O    -20.700034   25.856809   47.526393
  H    -20.913942   25.397162   45.547155
  H    -19.245602   27.183889   45.691915
  H    -20.626270   28.112587   45.100201
  H    -19.467650   28.906807   47.432800
  H    -21.237922   28.806612   47.384308
  H    -21.005373   27.190694   49.128338
  H    -19.304100   26.852956   48.704696
  C    -23.218469   27.233637   45.196537
  H    -24.183177   27.520351   45.622890
  H    -22.681458   28.149575   44.929771
  O    -22.545810   26.504854   46.277588
  C    -23.400996   26.361109   43.948609
  C    -24.306849   25.135042   44.155971
  C    -25.723208   25.772497   44.067111
  C    -25.545075   26.884406   43.013963
  O    -24.074629   27.137251   42.908484
  H    -22.424067   26.082836   43.539177
  H    -24.166650   24.445161   43.317158
  O    -24.066755   24.373694   45.354958
  H    -26.480018   25.036562   43.783569
  H    -25.999911   26.173031   45.048412
  H    -26.042364   27.821867   43.281347
  H    -25.878616   26.579873   42.017830
  H    -23.632167   24.941542   46.035482

 Multiplicity           Mult            ....    1
 Number of Electrons    NEL             ....  102
 Basis Dimension        Dim             ....  149

ORBITAL ENERGIES
----------------

  NO   OCC          E(Eh)            E(eV)
   0   2.0000     -19.160715      -521.3896
   1   2.0000     -19.149814      -521.0929
   2   2.0000     -19.143133      -520.9111
   3   2.0000     -19.117071      -520.2020
   4   2.0000     -10.291736      -280.0524
   5   2.0000     -10.239795      -278.6390
   6   2.0000     -10.236263      -278.5429
   7   2.0000     -10.232930      -278.4522
   8   2.0000     -10.232831      -278.4495
   9   2.0000     -10.229149      -278.3493
  10   2.0000     -10.199172      -277.5336
  11   2.0000     -10.196453      -277.4596
  12   2.0000     -10.181473      -277.0520
  13   2.0000      -1.064310       -28.9614
  14   2.0000      -1.027663       -27.9641
  15   2.0000      -1.006186       -27.3797
  16   2.0000      -0.993927       -27.0461
  17   2.0000      -0.796765       -21.6811
  18   2.0000      -0.775207       -21.0945
  19   2.0000      -0.769210       -20.9313
  20   2.0000      -0.741102       -20.1664
  21   2.0000      -0.684434       -18.6244
  22   2.0000      -0.610432       -16.6107
  23   2.0000      -0.606666       -16.5082
  24   2.0000      -0.597882       -16.2692
  25   2.0000      -0.573200       -15.5976
  26   2.0000      -0.536182       -14.5903
  27   2.0000      -0.517722       -14.0879
  28   2.0000      -0.504177       -13.7193
  29   2.0000      -0.490283       -13.3413
  30   2.0000      -0.474822       -12.9206
  31   2.0000      -0.463467       -12.6116
  32   2.0000      -0.448669       -12.2089
  33   2.0000      -0.432573       -11.7709
  34   2.0000      -0.424311       -11.5461
  35   2.0000      -0.422320       -11.4919
  36   2.0000      -0.408956       -11.1282
  37   2.0000      -0.393527       -10.7084
  38   2.0000      -0.386976       -10.5302
  39   2.0000      -0.372042       -10.1238
  40   2.0000      -0.365888        -9.9563
  41   2.0000      -0.364899        -9.9294
  42   2.0000      -0.350481        -9.5371
  43   2.0000      -0.339470        -9.2375
  44   2.0000      -0.326006        -8.8711
  45   2.0000      -0.314233        -8.5507
  46   2.0000      -0.295152        -8.0315
  47   2.0000      -0.277413        -7.5488
  48   2.0000      -0.267683        -7.2840
  49   2.0000      -0.250256        -6.8098
  50   2.0000      -0.240172        -6.5354
  51   0.0000       0.057264         1.5582
  52   0.0000       0.072472         1.9721
  53   0.0000       0.090661         2.4670
  54   0.0000       0.092522         2.5176
  55   0.0000       0.100988         2.7480

MULLIKEN ATOMIC CHARGES
-----------------------
   0 C :    0.307842
   1 C :   -0.295371
   2 C :   -0.297966
   3 C :   -0.002967
   4 O :   -0.497346
   5 H :    0.160927
   6 H :    0.158350
   7 H :    0.151628
   8 H :    0.147757
   9 H :    0.158758
  10 H :    0.157834
  11 H :    0.147857
  12 C :   -0.048527
  13 H :    0.162719
  14 H :    0.152656
  15 O :   -0.539250
  16 C :    0.054838
  17 C :    0.117531
  18 C :   -0.304914
  19 C :   -0.020236
  20 O :   -0.522515
  21 H :    0.147689
  22 H :    0.150054
  23 O :   -0.635532
  24 H :    0.155615
  25 H :    0.144300
  26 H :    0.142990
  27 H :    0.149879
  28 H :    0.395402
Sum of atomic charges:   -0.0000000

LOEWDIN ATOMIC CHARGES
----------------------
   0 C :    0.179914
   1 C :   -0.231230
   2 C :   -0.216029
   3 C :   -0.024605
   4 O :   -0.299155
   5 H :    0.105744
   6 H :    0.122378
   7 H :    0.117517
   8 H :    0.117286
   9 H :    0.116266
  10 H :    0.111559
  11 H :    0.105963
  12 C :   -0.054146
  13 H :    0.116106
  14 H :    0.106577
  15 O :   -0.339424
  16 C :    0.004195
  17 C :    0.040849
  18 C :   -0.238649
  19 C :   -0.031636
  20 O :   -0.326071
  21 H :    0.107623
  22 H :    0.107670
  23 O :   -0.430394
  24 H :    0.123112
  25 H :    0.110805
  26 H :    0.102254
  27 H :    0.106535
  28 H :    0.288987

  Mayer bond orders larger than 0.100000
B(  0-C ,  1-C ) :   0.9356 B(  0-C ,  4-O ) :   0.9444 B(  0-C ,  5-H ) :   0.9202
B(  0-C , 15-O ) :   0.7904 B(  1-C ,  2-C ) :   0.9487 B(  1-C ,  6-H ) :   0.9333
B(  1-C ,  7-H ) :   0.9266 B(  2-C ,  3-C ) :   0.9550 B(  2-C ,  8-H ) :   0.9446
B(  2-C ,  9-H ) :   0.9453 B(  3-C ,  4-O ) :   0.8296 B(  3-C , 10-H ) :   0.9344
B(  3-C , 11-H ) :   0.9394 B( 12-C , 13-H ) :   0.9359 B( 12-C , 14-H ) :   0.9169
B( 12-C , 15-O ) :   0.8120 B( 12-C , 16-C ) :   0.8805 B( 16-C , 17-C ) :   0.9068
B( 16-C , 20-O ) :   0.8538 B( 16-C , 21-H ) :   0.9315 B( 17-C , 18-C ) :   0.9013
B( 17-C , 22-H ) :   0.9327 B( 17-C , 23-O ) :   0.9401 B( 18-C , 19-C ) :   0.9381
B( 18-C , 24-H ) :   0.9436 B( 18-C , 25-H ) :   0.9433 B( 19-C , 20-O ) :   0.8292
B( 19-C , 26-H ) :   0.9343 B( 19-C , 27-H ) :   0.9387 B( 23-O , 28-H ) :   0.7235

FINAL SINGLE POINT ENERGY      -652.861846233229

DIPOLE MOMENT
-------------
                                X             Y             Z
Electronic contribution:     -0.12979      -3.89381      -0.09312
Nuclear contribution   :      0.54434       5.30750       0.00982
                        -----------------------------------------
Total Dipole Moment    :      0.41455       1.41369      -0.08331
                        -----------------------------------------
Magnitude (a.u.)       :      1.47557
Magnitude (Debye)      :      3.75060

Rotational constants in cm-1:     0.060801     0.013619     0.012173
Rotational constants in MHz :  1822.768812   408.285572   364.932000

                             ****ORCA TERMINATED NORMALLY****
TOTAL RUN TIME: 0 days 0 hours 25 minutes 36 seconds 591 msec
