                         Program Version 4.2.0 -  RELEASE  -
|  1> # Test redundant internal optimization
|  2> #
|  3> ! RKS B3LYP  Opt TightSCF SmallPrint
|  4>
|  5> %basis
|  6>         Basis "6-31G"
|  7> end
|  8>
|  9> %geom
| 10> Constraints
| 11> { D 4  0  15  12  165.0   C } # D for Dihedral angle
| 12> { D 0  15  12  16  300.0   C } # D for Dihedral angle
| 13> { D 0  4  3  2   C } # D for Dihedral angle
| 14> { D 4  3  2  1   C } # D for Dihedral angle
| 15> { D 3  2  1  0   C } # D for Dihedral angle
| 16> { D 2  1  0  4   C } # D for Dihedral angle
| 17> { D 1  0  4  3   C } # D for Dihedral angle
| 18> { D 16  20  19  18   C } # D for Dihedral angle
| 19> { D 20  19  18  17   C } # D for Dihedral angle
| 20> { D 19  18  17  16   C } # D for Dihedral angle
| 21> { D 18  17  16  20   C } # D for Dihedral angle
| 22> { D 17  16  20  19   C } # D for Dihedral angle
| 23> { D 15  12  16  20   C } # D for Dihedral angle
| 24> end
| 25> end
| 26>
| 27>
| 28> #%pal
| 29> #nprocs 8
| 30> #end
| 31>
| 32> * xyz 0 1
| 33> C  -21.048   26.222   46.251
| 34> C  -20.361   27.558   45.944
| 35> C  -20.329   28.222   47.341
| 36> C  -20.110   27.022   48.296
| 37> O  -20.473   25.807   47.535
| 38> H  -20.833   25.428   45.533
| 39> H  -19.344   27.382   45.576
| 40> H  -20.898   28.157   45.201
| 41> H  -19.543   28.978   47.434
| 42> H  -21.289   28.710   47.548
| 43> H  -20.733   27.082   49.195
| 44> H  -19.064   26.913   48.597
| 45> C  -23.260   27.170   45.210
| 46> H  -23.085   26.634   44.269
| 47> H  -24.344   27.238   45.370
| 48> O  -22.586   26.394   46.375
| 49> C  -22.713   28.617   45.057
| 50> C  -23.479   29.389   43.978
| 51> C  -24.768   29.791   44.734
| 52> C  -24.264   30.048   46.176
| 53> O  -22.946   29.385   46.285
| 54> H  -21.633   28.577   44.904
| 55> H  -22.913   30.279   43.678
| 56> O  -23.766   28.541   42.708
| 57> H  -25.258   30.669   44.300
| 58> H  -25.487   28.964   44.718
| 59> H  -24.937   29.635   46.935
| 60> H  -24.108   31.111   46.381
| 61> H  -24.332   27.645   42.983
| 62> *
| 63>
| 64>                          ****END OF INPUT****
 Total Charge           Charge          ....    0
 Multiplicity           Mult            ....    1
 Number of Electrons    NEL             ....  102
FINAL SINGLE POINT ENERGY      -652.754667570979
FINAL SINGLE POINT ENERGY      -652.815331922508
FINAL SINGLE POINT ENERGY      -652.838139948611
FINAL SINGLE POINT ENERGY      -652.843349117434
FINAL SINGLE POINT ENERGY      -652.844213678873
FINAL SINGLE POINT ENERGY      -652.844441709035
FINAL SINGLE POINT ENERGY      -652.844473750705
FINAL SINGLE POINT ENERGY      -652.844483322284
FINAL SINGLE POINT ENERGY      -652.844485189971
                    ***********************HURRAY********************

CARTESIAN COORDINATES (ANGSTROEM)
---------------------------------
  C    -20.928239   26.251738   46.208959
  C    -19.992350   27.449354   46.042003
  C    -20.108146   28.148466   47.423791
  C    -20.265054   26.954994   48.387527
  O    -20.675647   25.805217   47.546488
  H    -20.716409   25.414337   45.536176
  H    -18.979356   27.050565   45.901922
  H    -20.206863   28.099463   45.197110
  H    -19.228921   28.758217   47.653483
  H    -20.995175   28.788605   47.438922
  H    -21.030442   27.117995   49.150550
  H    -19.325425   26.668294   48.869939
  C    -23.113783   27.262893   45.186939
  H    -23.057084   26.742261   44.215610
  H    -24.140704   27.179560   45.556732
  O    -22.368950   26.516094   46.182984
  C    -22.782363   28.737064   44.921457
  C    -23.739773   29.367335   43.892119
  C    -24.979868   29.721371   44.776729
  C    -24.327825   30.119797   46.120510
  O    -22.947017   29.572170   46.108149
  H    -21.750887   28.859927   44.598660
  H    -23.287192   30.281223   43.500899
  O    -24.021329   28.572865   42.717566
  H    -25.578553   30.524625   44.339691
  H    -25.621763   28.838203   44.886688
  H    -24.859138   29.718079   46.988269
  H    -24.238631   31.204574   46.231369
  H    -24.637112   27.842713   42.930761

 Multiplicity           Mult            ....    1
 Number of Electrons    NEL             ....  102
 Basis Dimension        Dim             ....  149

ORBITAL ENERGIES
----------------

  NO   OCC          E(Eh)            E(eV)
   0   2.0000     -19.155971      -521.2605
   1   2.0000     -19.146921      -521.0142
   2   2.0000     -19.131024      -520.5816
   3   2.0000     -19.130284      -520.5615
   4   2.0000     -10.275142      -279.6008
   5   2.0000     -10.252343      -278.9804
   6   2.0000     -10.237707      -278.5822
   7   2.0000     -10.237227      -278.5691
   8   2.0000     -10.233821      -278.4764
   9   2.0000     -10.215381      -277.9747
  10   2.0000     -10.201907      -277.6080
  11   2.0000     -10.181879      -277.0630
  12   2.0000     -10.173729      -276.8412
  13   2.0000      -1.044961       -28.4348
  14   2.0000      -1.039381       -28.2830
  15   2.0000      -1.023237       -27.8437
  16   2.0000      -0.981419       -26.7058
  17   2.0000      -0.789285       -21.4775
  18   2.0000      -0.777188       -21.1484
  19   2.0000      -0.771764       -21.0008
  20   2.0000      -0.732121       -19.9220
  21   2.0000      -0.683323       -18.5942
  22   2.0000      -0.618600       -16.8330
  23   2.0000      -0.601565       -16.3694
  24   2.0000      -0.590851       -16.0779
  25   2.0000      -0.571313       -15.5462
  26   2.0000      -0.528990       -14.3946
  27   2.0000      -0.512535       -13.9468
  28   2.0000      -0.493559       -13.4304
  29   2.0000      -0.492375       -13.3982
  30   2.0000      -0.465277       -12.6608
  31   2.0000      -0.453567       -12.3422
  32   2.0000      -0.443925       -12.0798
  33   2.0000      -0.439023       -11.9464
  34   2.0000      -0.433123       -11.7859
  35   2.0000      -0.422174       -11.4879
  36   2.0000      -0.409483       -11.1426
  37   2.0000      -0.403616       -10.9829
  38   2.0000      -0.381768       -10.3884
  39   2.0000      -0.373375       -10.1600
  40   2.0000      -0.359125        -9.7723
  41   2.0000      -0.349808        -9.5188
  42   2.0000      -0.345084        -9.3902
  43   2.0000      -0.333450        -9.0736
  44   2.0000      -0.320951        -8.7335
  45   2.0000      -0.302455        -8.2302
  46   2.0000      -0.284376        -7.7383
  47   2.0000      -0.277936        -7.5630
  48   2.0000      -0.263134        -7.1602
  49   2.0000      -0.250073        -6.8048
  50   2.0000      -0.235903        -6.4192
  51   0.0000       0.048085         1.3085
  52   0.0000       0.073165         1.9909
  53   0.0000       0.077987         2.1221
  54   0.0000       0.094353         2.5675
  55   0.0000       0.101354         2.7580

MULLIKEN ATOMIC CHARGES
-----------------------
   0 C :    0.310410
   1 C :   -0.281726
   2 C :   -0.319568
   3 C :    0.000667
   4 O :   -0.496595
   5 H :    0.140337
   6 H :    0.143764
   7 H :    0.137519
   8 H :    0.133829
   9 H :    0.199156
  10 H :    0.151689
  11 H :    0.137946
  12 C :   -0.001813
  13 H :    0.119322
  14 H :    0.145922
  15 O :   -0.521427
  16 C :    0.071281
  17 C :    0.086225
  18 C :   -0.328841
  19 C :   -0.008873
  20 O :   -0.513769
  21 H :    0.158619
  22 H :    0.168323
  23 O :   -0.597532
  24 H :    0.160561
  25 H :    0.140998
  26 H :    0.151449
  27 H :    0.153031
  28 H :    0.359097
Sum of atomic charges:   -0.0000000

LOEWDIN ATOMIC CHARGES
----------------------
   0 C :    0.189297
   1 C :   -0.230641
   2 C :   -0.225267
   3 C :   -0.025437
   4 O :   -0.302632
   5 H :    0.096355
   6 H :    0.115159
   7 H :    0.110520
   8 H :    0.111063
   9 H :    0.133744
  10 H :    0.108076
  11 H :    0.099748
  12 C :   -0.045730
  13 H :    0.090821
  14 H :    0.110589
  15 O :   -0.335538
  16 C :    0.003223
  17 C :    0.037312
  18 C :   -0.242353
  19 C :   -0.028580
  20 O :   -0.321071
  21 H :    0.111329
  22 H :    0.119152
  23 O :   -0.404772
  24 H :    0.124012
  25 H :    0.107245
  26 H :    0.106974
  27 H :    0.107723
  28 H :    0.279678

  Mayer bond orders larger than 0.100000
B(  0-C ,  1-C ) :   0.9277 B(  0-C ,  4-O ) :   0.9399 B(  0-C ,  5-H ) :   0.9237
B(  0-C , 15-O ) :   0.8364 B(  1-C ,  2-C ) :   0.9519 B(  1-C ,  6-H ) :   0.9324
B(  1-C ,  7-H ) :   0.9217 B(  2-C ,  3-C ) :   0.9536 B(  2-C ,  8-H ) :   0.9457
B(  2-C ,  9-H ) :   0.9187 B(  3-C ,  4-O ) :   0.8319 B(  3-C , 10-H ) :   0.9356
B(  3-C , 11-H ) :   0.9401 B( 12-C , 13-H ) :   0.9012 B( 12-C , 14-H ) :   0.9374
B( 12-C , 15-O ) :   0.8793 B( 12-C , 16-C ) :   0.8810 B( 16-C , 17-C ) :   0.8625
B( 16-C , 20-O ) :   0.8546 B( 16-C , 21-H ) :   0.9159 B( 17-C , 18-C ) :   0.9225
B( 17-C , 22-H ) :   0.9329 B( 17-C , 23-O ) :   0.9034 B( 18-C , 19-C ) :   0.9383
B( 18-C , 24-H ) :   0.9415 B( 18-C , 25-H ) :   0.9394 B( 19-C , 20-O ) :   0.8382
B( 19-C , 26-H ) :   0.9316 B( 19-C , 27-H ) :   0.9377 B( 23-O , 28-H ) :   0.7958

FINAL SINGLE POINT ENERGY      -652.844485832719

DIPOLE MOMENT
-------------
                                X             Y             Z
Electronic contribution:     -0.37739      -3.38837      -0.68456
Nuclear contribution   :     -0.14753       4.36940       0.25428
                        -----------------------------------------
Total Dipole Moment    :     -0.52491       0.98103      -0.43028
                        -----------------------------------------
Magnitude (a.u.)       :      1.19293
Magnitude (Debye)      :      3.03220

Rotational constants in cm-1:     0.052314     0.014780     0.013393
Rotational constants in MHz :  1568.322975   443.095033   401.519977

                             ****ORCA TERMINATED NORMALLY****
TOTAL RUN TIME: 0 days 0 hours 31 minutes 20 seconds 864 msec
