                         Program Version 4.2.0 -  RELEASE  -
|  1> # Test redundant internal optimization
|  2> #
|  3> ! RKS B3LYP  Opt TightSCF SmallPrint
|  4>
|  5> %basis
|  6>         Basis "6-31G"
|  7> end
|  8>
|  9> %geom
| 10> Constraints
| 11> { D 4  0  15  12  330.0   C } # D for Dihedral angle
| 12> { D 0  15  12  16  210.0   C } # D for Dihedral angle
| 13> { D 0  4  3  2   C } # D for Dihedral angle
| 14> { D 4  3  2  1   C } # D for Dihedral angle
| 15> { D 3  2  1  0   C } # D for Dihedral angle
| 16> { D 2  1  0  4   C } # D for Dihedral angle
| 17> { D 1  0  4  3   C } # D for Dihedral angle
| 18> { D 16  20  19  18   C } # D for Dihedral angle
| 19> { D 20  19  18  17   C } # D for Dihedral angle
| 20> { D 19  18  17  16   C } # D for Dihedral angle
| 21> { D 18  17  16  20   C } # D for Dihedral angle
| 22> { D 17  16  20  19   C } # D for Dihedral angle
| 23> { D 15  12  16  20   C } # D for Dihedral angle
| 24> end
| 25> end
| 26>
| 27>
| 28> #%pal
| 29> #nprocs 8
| 30> #end
| 31>
| 32> * xyz 0 1
| 33> C  -21.048   26.222   46.251
| 34> C  -20.361   27.558   45.944
| 35> C  -20.329   28.222   47.341
| 36> C  -20.110   27.022   48.296
| 37> O  -20.473   25.807   47.535
| 38> H  -20.833   25.428   45.533
| 39> H  -19.344   27.382   45.576
| 40> H  -20.898   28.157   45.201
| 41> H  -19.543   28.978   47.434
| 42> H  -21.289   28.710   47.548
| 43> H  -20.733   27.082   49.195
| 44> H  -19.064   26.913   48.597
| 45> C  -23.271   25.476   47.424
| 46> H  -22.699   24.544   47.517
| 47> H  -23.292   25.965   48.407
| 48> O  -22.586   26.394   46.375
| 49> C  -24.734   25.115   47.043
| 50> C  -25.574   26.376   46.807
| 51> C  -25.138   26.779   45.378
| 52> C  -24.911   25.415   44.681
| 53> O  -24.770   24.411   45.758
| 54> H  -25.141   24.435   47.793
| 55> H  -26.640   26.126   46.830
| 56> O  -25.309   27.491   47.854
| 57> H  -25.886   27.391   44.863
| 58> H  -24.205   27.353   45.417
| 59> H  -24.008   25.405   44.060
| 60> H  -25.765   25.111   44.068
| 61> H  -24.247   27.757   47.848
| 62> *
| 63>
| 64>                          ****END OF INPUT****
 Total Charge           Charge          ....    0
 Multiplicity           Mult            ....    1
 Number of Electrons    NEL             ....  102
FINAL SINGLE POINT ENERGY      -652.836707936599
FINAL SINGLE POINT ENERGY      -652.859651906692
FINAL SINGLE POINT ENERGY      -652.863942983062
FINAL SINGLE POINT ENERGY      -652.865239383848
FINAL SINGLE POINT ENERGY      -652.865353114027
FINAL SINGLE POINT ENERGY      -652.865371435295
                    ***********************HURRAY********************

CARTESIAN COORDINATES (ANGSTROEM)
---------------------------------
  C    -21.057864   26.161838   46.321438
  C    -20.444648   27.520645   45.986085
  C    -20.374356   28.186812   47.378000
  C    -20.061539   27.004981   48.321862
  O    -20.417881   25.775518   47.557335
  H    -20.852777   25.353793   45.613671
  H    -19.442957   27.368565   45.568772
  H    -21.046476   28.081966   45.267950
  H    -19.613802   28.971755   47.431028
  H    -21.342713   28.633719   47.624100
  H    -20.641714   27.023226   49.247991
  H    -18.998487   26.921538   48.563892
  C    -23.173902   25.486668   47.438916
  H    -22.629416   24.545705   47.562999
  H    -23.191598   26.000870   48.407842
  O    -22.499468   26.320699   46.442404
  C    -24.602616   25.179837   47.002029
  C    -25.511376   26.405559   46.801000
  C    -25.178370   26.815182   45.333479
  C    -24.937683   25.452941   44.649537
  O    -24.688811   24.469504   45.734075
  H    -25.020630   24.505375   47.759831
  H    -26.559224   26.116345   46.905436
  O    -25.313600   27.460444   47.774532
  H    -25.991266   27.382697   44.870578
  H    -24.266759   27.416517   45.332547
  H    -24.071978   25.464517   43.980921
  H    -25.814558   25.099580   44.097495
  H    -24.454528   27.898203   47.598256

 Multiplicity           Mult            ....    1
 Number of Electrons    NEL             ....  102
 Basis Dimension        Dim             ....  149

ORBITAL ENERGIES
----------------

  NO   OCC          E(Eh)            E(eV)
   0   2.0000     -19.152743      -521.1726
   1   2.0000     -19.148368      -521.0536
   2   2.0000     -19.137804      -520.7661
   3   2.0000     -19.130325      -520.5626
   4   2.0000     -10.284792      -279.8634
   5   2.0000     -10.235298      -278.5166
   6   2.0000     -10.233338      -278.4633
   7   2.0000     -10.226408      -278.2747
   8   2.0000     -10.225383      -278.2468
   9   2.0000     -10.219280      -278.0807
  10   2.0000     -10.195735      -277.4400
  11   2.0000     -10.193207      -277.3713
  12   2.0000     -10.176545      -276.9179
  13   2.0000      -1.060692       -28.8629
  14   2.0000      -1.024827       -27.8870
  15   2.0000      -1.007168       -27.4064
  16   2.0000      -0.995317       -27.0840
  17   2.0000      -0.797272       -21.6949
  18   2.0000      -0.770788       -20.9742
  19   2.0000      -0.763592       -20.7784
  20   2.0000      -0.734976       -19.9997
  21   2.0000      -0.674661       -18.3585
  22   2.0000      -0.608719       -16.5641
  23   2.0000      -0.599177       -16.3044
  24   2.0000      -0.596986       -16.2448
  25   2.0000      -0.564051       -15.3486
  26   2.0000      -0.527039       -14.3415
  27   2.0000      -0.512531       -13.9467
  28   2.0000      -0.497753       -13.5445
  29   2.0000      -0.491195       -13.3661
  30   2.0000      -0.467441       -12.7197
  31   2.0000      -0.457704       -12.4548
  32   2.0000      -0.446704       -12.1554
  33   2.0000      -0.424867       -11.5612
  34   2.0000      -0.421637       -11.4733
  35   2.0000      -0.416495       -11.3334
  36   2.0000      -0.399551       -10.8723
  37   2.0000      -0.397581       -10.8187
  38   2.0000      -0.382276       -10.4023
  39   2.0000      -0.368086       -10.0161
  40   2.0000      -0.364335        -9.9141
  41   2.0000      -0.356773        -9.7083
  42   2.0000      -0.351585        -9.5671
  43   2.0000      -0.335201        -9.1213
  44   2.0000      -0.321327        -8.7437
  45   2.0000      -0.307092        -8.3564
  46   2.0000      -0.302957        -8.2439
  47   2.0000      -0.269715        -7.3393
  48   2.0000      -0.264918        -7.2088
  49   2.0000      -0.256917        -6.9911
  50   2.0000      -0.235562        -6.4100
  51   0.0000       0.052335         1.4241
  52   0.0000       0.083735         2.2785
  53   0.0000       0.093139         2.5345
  54   0.0000       0.098002         2.6668
  55   0.0000       0.106080         2.8866

MULLIKEN ATOMIC CHARGES
-----------------------
   0 C :    0.301261
   1 C :   -0.262526
   2 C :   -0.301474
   3 C :   -0.013380
   4 O :   -0.509976
   5 H :    0.159843
   6 H :    0.149278
   7 H :    0.156583
   8 H :    0.148855
   9 H :    0.149236
  10 H :    0.149125
  11 H :    0.151441
  12 C :   -0.012871
  13 H :    0.168221
  14 H :    0.134867
  15 O :   -0.554993
  16 C :    0.087241
  17 C :    0.087119
  18 C :   -0.312641
  19 C :   -0.001670
  20 O :   -0.521894
  21 H :    0.149251
  22 H :    0.159966
  23 O :   -0.608752
  24 H :    0.141896
  25 H :    0.163527
  26 H :    0.142094
  27 H :    0.139424
  28 H :    0.360947
Sum of atomic charges:   -0.0000000

LOEWDIN ATOMIC CHARGES
----------------------
   0 C :    0.179977
   1 C :   -0.216243
   2 C :   -0.217024
   3 C :   -0.030456
   4 O :   -0.320826
   5 H :    0.104497
   6 H :    0.116510
   7 H :    0.123372
   8 H :    0.117702
   9 H :    0.111893
  10 H :    0.105526
  11 H :    0.107531
  12 C :   -0.045987
  13 H :    0.118678
  14 H :    0.099545
  15 O :   -0.350125
  16 C :    0.016841
  17 C :    0.037525
  18 C :   -0.243691
  19 C :   -0.024662
  20 O :   -0.323414
  21 H :    0.114138
  22 H :    0.115239
  23 O :   -0.412851
  24 H :    0.113726
  25 H :    0.120562
  26 H :    0.102740
  27 H :    0.099739
  28 H :    0.279537

  Mayer bond orders larger than 0.100000
B(  0-C ,  1-C ) :   0.9457 B(  0-C ,  4-O ) :   0.9066 B(  0-C ,  5-H ) :   0.9228
B(  0-C , 15-O ) :   0.8341 B(  1-C ,  2-C ) :   0.9522 B(  1-C ,  6-H ) :   0.9367
B(  1-C ,  7-H ) :   0.9364 B(  2-C ,  3-C ) :   0.9551 B(  2-C ,  8-H ) :   0.9443
B(  2-C ,  9-H ) :   0.9463 B(  3-C ,  4-O ) :   0.8314 B(  3-C , 10-H ) :   0.9340
B(  3-C , 11-H ) :   0.9399 B( 12-C , 13-H ) :   0.9198 B( 12-C , 14-H ) :   0.9104
B( 12-C , 15-O ) :   0.8140 B( 12-C , 16-C ) :   0.9101 B( 16-C , 17-C ) :   0.8850
B( 16-C , 20-O ) :   0.8776 B( 16-C , 21-H ) :   0.9281 B( 17-C , 18-C ) :   0.9331
B( 17-C , 22-H ) :   0.9367 B( 17-C , 23-O ) :   0.8995 B( 18-C , 19-C ) :   0.9451
B( 18-C , 24-H ) :   0.9414 B( 18-C , 25-H ) :   0.9266 B( 19-C , 20-O ) :   0.8393
B( 19-C , 26-H ) :   0.9332 B( 19-C , 27-H ) :   0.9378 B( 23-O , 28-H ) :   0.7929

FINAL SINGLE POINT ENERGY      -652.865372049465

DIPOLE MOMENT
-------------
                                X             Y             Z
Electronic contribution:     -2.17688      -4.14763       0.77905
Nuclear contribution   :      3.05278       5.16130      -1.04207
                        -----------------------------------------
Total Dipole Moment    :      0.87589       1.01368      -0.26301
                        -----------------------------------------
Magnitude (a.u.)       :      1.36525
Magnitude (Debye)      :      3.47018

Rotational constants in cm-1:     0.048087     0.015592     0.014840
Rotational constants in MHz :  1441.609490   467.429757   444.896897

                             ****ORCA TERMINATED NORMALLY****
TOTAL RUN TIME: 0 days 0 hours 36 minutes 22 seconds 73 msec
