                         Program Version 4.2.0 -  RELEASE  -
|  1> # Test redundant internal optimization
|  2> #
|  3> ! RKS B3LYP  Opt TightSCF SmallPrint
|  4>
|  5> %basis
|  6>         Basis "6-31G"
|  7> end
|  8>
|  9> %geom
| 10> Constraints
| 11> { D 4  0  15  12  225.0   C } # D for Dihedral angle
| 12> { D 0  15  12  16  105.0   C } # D for Dihedral angle
| 13> { D 0  4  3  2   C } # D for Dihedral angle
| 14> { D 4  3  2  1   C } # D for Dihedral angle
| 15> { D 3  2  1  0   C } # D for Dihedral angle
| 16> { D 2  1  0  4   C } # D for Dihedral angle
| 17> { D 1  0  4  3   C } # D for Dihedral angle
| 18> { D 16  20  19  18   C } # D for Dihedral angle
| 19> { D 20  19  18  17   C } # D for Dihedral angle
| 20> { D 19  18  17  16   C } # D for Dihedral angle
| 21> { D 18  17  16  20   C } # D for Dihedral angle
| 22> { D 17  16  20  19   C } # D for Dihedral angle
| 23> { D 15  12  16  20   C } # D for Dihedral angle
| 24> end
| 25> end
| 26>
| 27>
| 28> #%pal
| 29> #nprocs 8
| 30> #end
| 31>
| 32> * xyz 0 1
| 33> C  -21.048   26.222   46.251
| 34> C  -20.361   27.558   45.944
| 35> C  -20.329   28.222   47.341
| 36> C  -20.110   27.022   48.296
| 37> O  -20.473   25.807   47.535
| 38> H  -20.833   25.428   45.533
| 39> H  -19.344   27.382   45.576
| 40> H  -20.898   28.157   45.201
| 41> H  -19.543   28.978   47.434
| 42> H  -21.289   28.710   47.548
| 43> H  -20.733   27.082   49.195
| 44> H  -19.064   26.913   48.597
| 45> C  -23.415   25.773   45.218
| 46> H  -24.180   26.490   44.895
| 47> H  -22.769   25.550   44.359
| 48> O  -22.586   26.394   46.375
| 49> C  -24.126   24.454   45.629
| 50> C  -24.839   23.810   44.435
| 51> C  -23.661   23.126   43.699
| 52> C  -22.741   22.668   44.858
| 53> O  -23.142   23.450   46.047
| 54> H  -24.771   24.648   46.489
| 55> H  -25.561   23.064   44.784
| 56> O  -25.589   24.838   43.545
| 57> H  -23.983   22.292   43.067
| 58> H  -23.145   23.852   43.059
| 59> H  -21.681   22.852   44.649
| 60> H  -22.875   21.612   45.105
| 61> H  -24.886   25.595   43.182
| 62> *
| 63>
| 64>                          ****END OF INPUT****
 Total Charge           Charge          ....    0
 Multiplicity           Mult            ....    1
 Number of Electrons    NEL             ....  102
FINAL SINGLE POINT ENERGY      -652.826151444836
FINAL SINGLE POINT ENERGY      -652.849278766872
FINAL SINGLE POINT ENERGY      -652.853395423698
FINAL SINGLE POINT ENERGY      -652.854074312239
FINAL SINGLE POINT ENERGY      -652.854185731906
FINAL SINGLE POINT ENERGY      -652.854214720560
FINAL SINGLE POINT ENERGY      -652.854220319096
FINAL SINGLE POINT ENERGY      -652.854221072485
                    ***********************HURRAY********************

CARTESIAN COORDINATES (ANGSTROEM)
---------------------------------
  C    -21.015950   26.225580   46.183325
  C    -20.363195   27.589760   45.967526
  C    -20.420860   28.201776   47.388392
  C    -20.208599   26.973443   48.299058
  O    -20.500140   25.789311   47.451267
  H    -20.763278   25.455696   45.449349
  H    -19.323508   27.451109   45.646014
  H    -20.885684   28.190641   45.218772
  H    -19.664782   28.976723   47.545581
  H    -21.409272   28.639433   47.557955
  H    -20.877483   26.956835   49.162874
  H    -19.173631   26.869061   48.638832
  C    -23.259493   25.847288   45.176657
  H    -24.012876   26.602948   44.929397
  H    -22.631718   25.681276   44.286543
  O    -22.459474   26.380702   46.262208
  C    -23.959705   24.556634   45.602859
  C    -24.804422   23.892700   44.502927
  C    -23.725755   23.092020   43.713087
  C    -22.750788   22.644535   44.823998
  O    -23.011278   23.518206   45.996991
  H    -24.546411   24.775433   46.499313
  H    -25.525834   23.212769   44.960956
  O    -25.608314   24.795741   43.703693
  H    -24.155200   22.254338   43.157719
  H    -23.232244   23.757818   42.991285
  H    -21.699137   22.737364   44.534046
  H    -22.934695   21.615079   45.146110
  H    -25.051276   25.264781   43.049266

 Multiplicity           Mult            ....    1
 Number of Electrons    NEL             ....  102
 Basis Dimension        Dim             ....  149

ORBITAL ENERGIES
----------------

  NO   OCC          E(Eh)            E(eV)
   0   2.0000     -19.151052      -521.1266
   1   2.0000     -19.136978      -520.7437
   2   2.0000     -19.134634      -520.6799
   3   2.0000     -19.131301      -520.5892
   4   2.0000     -10.273686      -279.5612
   5   2.0000     -10.245554      -278.7957
   6   2.0000     -10.232394      -278.4376
   7   2.0000     -10.231050      -278.4010
   8   2.0000     -10.226982      -278.2903
   9   2.0000     -10.217698      -278.0377
  10   2.0000     -10.197527      -277.4888
  11   2.0000     -10.180581      -277.0277
  12   2.0000     -10.180332      -277.0209
  13   2.0000      -1.046204       -28.4687
  14   2.0000      -1.033466       -28.1220
  15   2.0000      -1.015513       -27.6335
  16   2.0000      -0.988165       -26.8893
  17   2.0000      -0.784335       -21.3429
  18   2.0000      -0.780713       -21.2443
  19   2.0000      -0.765078       -20.8188
  20   2.0000      -0.727045       -19.7839
  21   2.0000      -0.679734       -18.4965
  22   2.0000      -0.612700       -16.6724
  23   2.0000      -0.593973       -16.1628
  24   2.0000      -0.588716       -16.0198
  25   2.0000      -0.576265       -15.6810
  26   2.0000      -0.528738       -14.3877
  27   2.0000      -0.508759       -13.8440
  28   2.0000      -0.499148       -13.5825
  29   2.0000      -0.484639       -13.1877
  30   2.0000      -0.464746       -12.6464
  31   2.0000      -0.454819       -12.3762
  32   2.0000      -0.447165       -12.1680
  33   2.0000      -0.432668       -11.7735
  34   2.0000      -0.430280       -11.7085
  35   2.0000      -0.415013       -11.2931
  36   2.0000      -0.407632       -11.0922
  37   2.0000      -0.391227       -10.6458
  38   2.0000      -0.380914       -10.3652
  39   2.0000      -0.365275        -9.9397
  40   2.0000      -0.356079        -9.6894
  41   2.0000      -0.350745        -9.5443
  42   2.0000      -0.346124        -9.4185
  43   2.0000      -0.330485        -8.9929
  44   2.0000      -0.315140        -8.5754
  45   2.0000      -0.306326        -8.3356
  46   2.0000      -0.302627        -8.2349
  47   2.0000      -0.271191        -7.3795
  48   2.0000      -0.262272        -7.1368
  49   2.0000      -0.249165        -6.7801
  50   2.0000      -0.230305        -6.2669
  51   0.0000       0.047429         1.2906
  52   0.0000       0.065401         1.7797
  53   0.0000       0.089874         2.4456
  54   0.0000       0.096635         2.6296
  55   0.0000       0.108227         2.9450

MULLIKEN ATOMIC CHARGES
-----------------------
   0 C :    0.299574
   1 C :   -0.256290
   2 C :   -0.300697
   3 C :   -0.000346
   4 O :   -0.494059
   5 H :    0.136775
   6 H :    0.139001
   7 H :    0.139717
   8 H :    0.138750
   9 H :    0.162254
  10 H :    0.153306
  11 H :    0.137857
  12 C :   -0.031837
  13 H :    0.151299
  14 H :    0.108096
  15 O :   -0.507540
  16 C :    0.102432
  17 C :    0.082820
  18 C :   -0.322392
  19 C :   -0.014399
  20 O :   -0.500032
  21 H :    0.169031
  22 H :    0.169062
  23 O :   -0.599235
  24 H :    0.158107
  25 H :    0.128408
  26 H :    0.143530
  27 H :    0.152600
  28 H :    0.354207
Sum of atomic charges:   -0.0000000

LOEWDIN ATOMIC CHARGES
----------------------
   0 C :    0.182024
   1 C :   -0.226388
   2 C :   -0.217225
   3 C :   -0.026148
   4 O :   -0.303397
   5 H :    0.097075
   6 H :    0.110358
   7 H :    0.114140
   8 H :    0.112545
   9 H :    0.119245
  10 H :    0.108754
  11 H :    0.100319
  12 C :   -0.047981
  13 H :    0.111531
  14 H :    0.083797
  15 O :   -0.325981
  16 C :    0.012924
  17 C :    0.033913
  18 C :   -0.241593
  19 C :   -0.031545
  20 O :   -0.311415
  21 H :    0.122305
  22 H :    0.120301
  23 O :   -0.407706
  24 H :    0.122953
  25 H :    0.101206
  26 H :    0.101501
  27 H :    0.107528
  28 H :    0.276962

  Mayer bond orders larger than 0.100000
B(  0-C ,  1-C ) :   0.9352 B(  0-C ,  4-O ) :   0.9381 B(  0-C ,  5-H ) :   0.9190
B(  0-C , 15-O ) :   0.8290 B(  1-C ,  2-C ) :   0.9566 B(  1-C ,  6-H ) :   0.9358
B(  1-C ,  7-H ) :   0.9394 B(  2-C ,  3-C ) :   0.9541 B(  2-C ,  8-H ) :   0.9455
B(  2-C ,  9-H ) :   0.9435 B(  3-C ,  4-O ) :   0.8412 B(  3-C , 10-H ) :   0.9342
B(  3-C , 11-H ) :   0.9398 B( 12-C , 13-H ) :   0.9191 B( 12-C , 14-H ) :   0.9219
B( 12-C , 15-O ) :   0.8709 B( 12-C , 16-C ) :   0.8911 B( 16-C , 17-C ) :   0.8660
B( 16-C , 20-O ) :   0.8719 B( 16-C , 21-H ) :   0.9293 B( 17-C , 18-C ) :   0.9232
B( 17-C , 22-H ) :   0.9321 B( 17-C , 23-O ) :   0.8967 B( 18-C , 19-C ) :   0.9379
B( 18-C , 24-H ) :   0.9418 B( 18-C , 25-H ) :   0.9406 B( 19-C , 20-O ) :   0.8507
B( 19-C , 26-H ) :   0.9307 B( 19-C , 27-H ) :   0.9375 B( 23-O , 28-H ) :   0.7995

FINAL SINGLE POINT ENERGY      -652.854220935903

DIPOLE MOMENT
-------------
                                X             Y             Z
Electronic contribution:     -3.03876      -2.36234       1.86739
Nuclear contribution   :      3.61141       2.75596      -3.20194
                        -----------------------------------------
Total Dipole Moment    :      0.57265       0.39363      -1.33456
                        -----------------------------------------
Magnitude (a.u.)       :      1.50463
Magnitude (Debye)      :      3.82447

Rotational constants in cm-1:     0.059233     0.012902     0.011749
Rotational constants in MHz :  1775.772256   386.789893   352.214155

                             ****ORCA TERMINATED NORMALLY****
TOTAL RUN TIME: 0 days 0 hours 23 minutes 5 seconds 454 msec
