                         Program Version 4.2.0 -  RELEASE  -
|  1> # Test redundant internal optimization
|  2> #
|  3> ! RKS B3LYP  Opt TightSCF SmallPrint
|  4>
|  5> %basis
|  6>         Basis "6-31G"
|  7> end
|  8>
|  9> %geom
| 10> Constraints
| 11> { D 4  0  15  12  195.0   C } # D for Dihedral angle
| 12> { D 0  15  12  16  105.0   C } # D for Dihedral angle
| 13> { D 0  4  3  2   C } # D for Dihedral angle
| 14> { D 4  3  2  1   C } # D for Dihedral angle
| 15> { D 3  2  1  0   C } # D for Dihedral angle
| 16> { D 2  1  0  4   C } # D for Dihedral angle
| 17> { D 1  0  4  3   C } # D for Dihedral angle
| 18> { D 16  20  19  18   C } # D for Dihedral angle
| 19> { D 20  19  18  17   C } # D for Dihedral angle
| 20> { D 19  18  17  16   C } # D for Dihedral angle
| 21> { D 18  17  16  20   C } # D for Dihedral angle
| 22> { D 17  16  20  19   C } # D for Dihedral angle
| 23> { D 15  12  16  20   C } # D for Dihedral angle
| 24> end
| 25> end
| 26>
| 27>
| 28> #%pal
| 29> #nprocs 8
| 30> #end
| 31>
| 32> * xyz 0 1
| 33> C  -21.048   26.222   46.251
| 34> C  -20.361   27.558   45.944
| 35> C  -20.329   28.222   47.341
| 36> C  -20.110   27.022   48.296
| 37> O  -20.473   25.807   47.535
| 38> H  -20.833   25.428   45.533
| 39> H  -19.344   27.382   45.576
| 40> H  -20.898   28.157   45.201
| 41> H  -19.543   28.978   47.434
| 42> H  -21.289   28.710   47.548
| 43> H  -20.733   27.082   49.195
| 44> H  -19.064   26.913   48.597
| 45> C  -23.353   26.472   45.026
| 46> H  -24.076   27.296   45.068
| 47> H  -22.657   26.668   44.200
| 48> O  -22.586   26.394   46.375
| 49> C  -24.122   25.163   44.696
| 50> C  -25.237   24.901   45.716
| 51> C  -26.346   25.860   45.221
| 52> C  -26.180   25.826   43.681
| 53> O  -24.827   25.292   43.416
| 54> H  -23.407   24.346   44.587
| 55> H  -25.569   23.859   45.649
| 56> O  -24.804   25.184   47.180
| 57> H  -27.346   25.552   45.540
| 58> H  -26.168   26.871   45.607
| 59> H  -26.269   26.818   43.227
| 60> H  -26.893   25.151   43.199
| 61> H  -24.467   26.223   47.270
| 62> *
| 63>
| 64>                          ****END OF INPUT****
 Total Charge           Charge          ....    0
 Multiplicity           Mult            ....    1
 Number of Electrons    NEL             ....  102
FINAL SINGLE POINT ENERGY      -652.828651727587
FINAL SINGLE POINT ENERGY      -652.853218983712
FINAL SINGLE POINT ENERGY      -652.859349344386
FINAL SINGLE POINT ENERGY      -652.861842129151
FINAL SINGLE POINT ENERGY      -652.863370138811
FINAL SINGLE POINT ENERGY      -652.864373520304
FINAL SINGLE POINT ENERGY      -652.864912666894
FINAL SINGLE POINT ENERGY      -652.865092298003
FINAL SINGLE POINT ENERGY      -652.865117976741
FINAL SINGLE POINT ENERGY      -652.865122925563
                    ***********************HURRAY********************

CARTESIAN COORDINATES (ANGSTROEM)
---------------------------------
  C    -21.115334   26.217793   46.185778
  C    -20.353965   27.512126   45.915201
  C    -20.410680   28.211585   47.293767
  C    -20.323456   27.033431   48.283718
  O    -20.679911   25.822317   47.488345
  H    -20.913447   25.392479   45.497126
  H    -19.321594   27.268309   45.638504
  H    -20.791671   28.112866   45.112841
  H    -19.599090   28.932299   47.430214
  H    -21.363162   28.738283   47.402677
  H    -21.020966   27.113707   49.120308
  H    -19.312504   26.864729   48.664231
  C    -23.279402   26.543787   44.974252
  H    -23.936287   27.415653   45.040948
  H    -22.584741   26.697834   44.140455
  O    -22.560574   26.458331   46.254373
  C    -24.076599   25.253867   44.750585
  C    -25.176825   24.990390   45.793118
  C    -26.319680   25.914382   45.283606
  C    -26.172355   25.846759   43.750281
  O    -24.794457   25.332976   43.479819
  H    -23.384013   24.410035   44.666703
  H    -25.490825   23.942957   45.708420
  O    -24.822559   25.237373   47.166594
  H    -27.298972   25.576007   45.631426
  H    -26.156391   26.924742   45.673161
  H    -26.286292   26.817497   43.258276
  H    -26.863323   25.134832   43.289702
  H    -23.922924   25.639654   47.214571

 Multiplicity           Mult            ....    1
 Number of Electrons    NEL             ....  102
 Basis Dimension        Dim             ....  149

ORBITAL ENERGIES
----------------

  NO   OCC          E(Eh)            E(eV)
   0   2.0000     -19.162387      -521.4351
   1   2.0000     -19.153046      -521.1809
   2   2.0000     -19.140800      -520.8477
   3   2.0000     -19.108853      -519.9783
   4   2.0000     -10.293956      -280.1128
   5   2.0000     -10.240890      -278.6688
   6   2.0000     -10.234053      -278.4828
   7   2.0000     -10.233925      -278.4793
   8   2.0000     -10.228346      -278.3274
   9   2.0000     -10.226230      -278.2699
  10   2.0000     -10.197334      -277.4836
  11   2.0000     -10.194876      -277.4167
  12   2.0000     -10.177337      -276.9394
  13   2.0000      -1.067114       -29.0376
  14   2.0000      -1.025318       -27.9003
  15   2.0000      -1.007869       -27.4255
  16   2.0000      -0.988623       -26.9018
  17   2.0000      -0.796722       -21.6799
  18   2.0000      -0.773003       -21.0345
  19   2.0000      -0.766804       -20.8658
  20   2.0000      -0.739007       -20.1094
  21   2.0000      -0.681210       -18.5367
  22   2.0000      -0.610330       -16.6079
  23   2.0000      -0.602458       -16.3937
  24   2.0000      -0.595215       -16.1966
  25   2.0000      -0.577385       -15.7114
  26   2.0000      -0.530246       -14.4287
  27   2.0000      -0.522743       -14.2246
  28   2.0000      -0.500398       -13.6165
  29   2.0000      -0.488941       -13.3048
  30   2.0000      -0.473368       -12.8810
  31   2.0000      -0.462398       -12.5825
  32   2.0000      -0.449298       -12.2260
  33   2.0000      -0.431925       -11.7533
  34   2.0000      -0.427184       -11.6243
  35   2.0000      -0.414714       -11.2849
  36   2.0000      -0.411735       -11.2039
  37   2.0000      -0.385336       -10.4855
  38   2.0000      -0.384242       -10.4558
  39   2.0000      -0.371003       -10.0955
  40   2.0000      -0.365960        -9.9583
  41   2.0000      -0.363879        -9.9017
  42   2.0000      -0.346802        -9.4370
  43   2.0000      -0.343005        -9.3336
  44   2.0000      -0.322841        -8.7849
  45   2.0000      -0.321515        -8.7489
  46   2.0000      -0.285224        -7.7613
  47   2.0000      -0.278179        -7.5696
  48   2.0000      -0.269129        -7.3234
  49   2.0000      -0.244094        -6.6421
  50   2.0000      -0.239789        -6.5250
  51   0.0000       0.058097         1.5809
  52   0.0000       0.078255         2.1294
  53   0.0000       0.090557         2.4642
  54   0.0000       0.096692         2.6311
  55   0.0000       0.103724         2.8225

MULLIKEN ATOMIC CHARGES
-----------------------
   0 C :    0.301392
   1 C :   -0.269504
   2 C :   -0.299159
   3 C :   -0.007141
   4 O :   -0.501691
   5 H :    0.152055
   6 H :    0.151607
   7 H :    0.148395
   8 H :    0.147036
   9 H :    0.162955
  10 H :    0.161052
  11 H :    0.148342
  12 C :   -0.041632
  13 H :    0.158759
  14 H :    0.151464
  15 O :   -0.543787
  16 C :    0.050907
  17 C :    0.129461
  18 C :   -0.295274
  19 C :   -0.022681
  20 O :   -0.522320
  21 H :    0.155048
  22 H :    0.142798
  23 O :   -0.644935
  24 H :    0.149208
  25 H :    0.146506
  26 H :    0.140199
  27 H :    0.150549
  28 H :    0.400389
Sum of atomic charges:   -0.0000000

LOEWDIN ATOMIC CHARGES
----------------------
   0 C :    0.181453
   1 C :   -0.227874
   2 C :   -0.216124
   3 C :   -0.024486
   4 O :   -0.300962
   5 H :    0.102446
   6 H :    0.117581
   7 H :    0.116968
   8 H :    0.117147
   9 H :    0.119560
  10 H :    0.112915
  11 H :    0.106214
  12 C :   -0.050148
  13 H :    0.112925
  14 H :    0.109191
  15 O :   -0.344230
  16 C :    0.009120
  17 C :    0.043670
  18 C :   -0.233994
  19 C :   -0.032708
  20 O :   -0.326801
  21 H :    0.111427
  22 H :    0.102393
  23 O :   -0.436645
  24 H :    0.120964
  25 H :    0.111656
  26 H :    0.101102
  27 H :    0.106456
  28 H :    0.290785

  Mayer bond orders larger than 0.100000
B(  0-C ,  1-C ) :   0.9337 B(  0-C ,  4-O ) :   0.9512 B(  0-C ,  5-H ) :   0.9201
B(  0-C , 15-O ) :   0.7883 B(  1-C ,  2-C ) :   0.9503 B(  1-C ,  6-H ) :   0.9333
B(  1-C ,  7-H ) :   0.9342 B(  2-C ,  3-C ) :   0.9557 B(  2-C ,  8-H ) :   0.9443
B(  2-C ,  9-H ) :   0.9440 B(  3-C ,  4-O ) :   0.8260 B(  3-C , 10-H ) :   0.9340
B(  3-C , 11-H ) :   0.9395 B( 12-C , 13-H ) :   0.9338 B( 12-C , 14-H ) :   0.9245
B( 12-C , 15-O ) :   0.7969 B( 12-C , 16-C ) :   0.8875 B( 16-C , 17-C ) :   0.9146
B( 16-C , 20-O ) :   0.8547 B( 16-C , 21-H ) :   0.9312 B( 17-C , 18-C ) :   0.9020
B( 17-C , 22-H ) :   0.9292 B( 17-C , 23-O ) :   0.9366 B( 18-C , 19-C ) :   0.9382
B( 18-C , 24-H ) :   0.9456 B( 18-C , 25-H ) :   0.9429 B( 19-C , 20-O ) :   0.8327
B( 19-C , 26-H ) :   0.9349 B( 19-C , 27-H ) :   0.9380 B( 23-O , 28-H ) :   0.7192

FINAL SINGLE POINT ENERGY      -652.865124197754

DIPOLE MOMENT
-------------
                                X             Y             Z
Electronic contribution:     -0.32790      -4.48217       0.39497
Nuclear contribution   :      1.09416       5.76755      -0.94350
                        -----------------------------------------
Total Dipole Moment    :      0.76627       1.28538      -0.54852
                        -----------------------------------------
Magnitude (a.u.)       :      1.59381
Magnitude (Debye)      :      4.05114

Rotational constants in cm-1:     0.061014     0.013047     0.011980
Rotational constants in MHz :  1829.148458   391.146143   359.147479

                             ****ORCA TERMINATED NORMALLY****
TOTAL RUN TIME: 0 days 0 hours 32 minutes 38 seconds 299 msec
