                         Program Version 4.2.0 -  RELEASE  -
|  1> # Test redundant internal optimization
|  2> #
|  3> ! RKS B3LYP  Opt TightSCF SmallPrint
|  4>
|  5> %basis
|  6>         Basis "6-31G"
|  7> end
|  8>
|  9> %geom
| 10> Constraints
| 11> { D 4  0  15  12  210.0   C } # D for Dihedral angle
| 12> { D 0  15  12  16  75.0   C } # D for Dihedral angle
| 13> { D 0  4  3  2   C } # D for Dihedral angle
| 14> { D 4  3  2  1   C } # D for Dihedral angle
| 15> { D 3  2  1  0   C } # D for Dihedral angle
| 16> { D 2  1  0  4   C } # D for Dihedral angle
| 17> { D 1  0  4  3   C } # D for Dihedral angle
| 18> { D 16  20  19  18   C } # D for Dihedral angle
| 19> { D 20  19  18  17   C } # D for Dihedral angle
| 20> { D 19  18  17  16   C } # D for Dihedral angle
| 21> { D 18  17  16  20   C } # D for Dihedral angle
| 22> { D 17  16  20  19   C } # D for Dihedral angle
| 23> { D 15  12  16  20   C } # D for Dihedral angle
| 24> end
| 25> end
| 26>
| 27>
| 28> #%pal
| 29> #nprocs 8
| 30> #end
| 31>
| 32> * xyz 0 1
| 33> C  -21.048   26.222   46.251
| 34> C  -20.361   27.558   45.944
| 35> C  -20.329   28.222   47.341
| 36> C  -20.110   27.022   48.296
| 37> O  -20.473   25.807   47.535
| 38> H  -20.833   25.428   45.533
| 39> H  -19.344   27.382   45.576
| 40> H  -20.898   28.157   45.201
| 41> H  -19.543   28.978   47.434
| 42> H  -21.289   28.710   47.548
| 43> H  -20.733   27.082   49.195
| 44> H  -19.064   26.913   48.597
| 45> C  -23.389   26.110   45.076
| 46> H  -24.402   26.518   45.181
| 47> H  -22.911   26.596   44.215
| 48> O  -22.586   26.394   46.375
| 49> C  -23.503   24.593   44.760
| 50> C  -24.199   24.356   43.415
| 51> C  -23.053   24.636   42.414
| 52> C  -21.801   24.106   43.157
| 53> O  -22.171   24.005   44.585
| 54> H  -23.970   24.085   45.606
| 55> O  -24.670   22.879   43.311
| 56> H  -25.067   25.006   43.259
| 57> H  -23.204   24.144   41.448
| 58> H  -22.967   25.714   42.233
| 59> H  -20.939   24.775   43.057
| 60> H  -21.512   23.104   42.827
| 61> H  -23.816   22.210   43.464
| 62> *
| 63>
| 64>                          ****END OF INPUT****
 Total Charge           Charge          ....    0
 Multiplicity           Mult            ....    1
 Number of Electrons    NEL             ....  102
FINAL SINGLE POINT ENERGY      -652.832680585943
FINAL SINGLE POINT ENERGY      -652.855031186827
FINAL SINGLE POINT ENERGY      -652.859334450841
FINAL SINGLE POINT ENERGY      -652.860057106148
FINAL SINGLE POINT ENERGY      -652.860168756112
FINAL SINGLE POINT ENERGY      -652.860178620578
                    ***********************HURRAY********************

CARTESIAN COORDINATES (ANGSTROEM)
---------------------------------
  C    -20.963524   26.229540   46.192049
  C    -20.332927   27.604376   45.980315
  C    -20.443346   28.228968   47.391838
  C    -20.232203   27.015572   48.321741
  O    -20.475612   25.816666   47.477938
  H    -20.706058   25.448639   45.479508
  H    -19.283230   27.483385   45.685837
  H    -20.843110   28.192845   45.211797
  H    -19.707783   29.020808   47.562151
  H    -21.444676   28.647603   47.528898
  H    -20.924260   26.995064   49.167334
  H    -19.205142   26.935543   48.690940
  C    -23.213077   26.113923   45.095476
  H    -24.204705   26.512598   45.333034
  H    -22.814235   26.688886   44.243091
  O    -22.421250   26.360813   46.283954
  C    -23.351459   24.633226   44.727950
  C    -24.171535   24.372052   43.454311
  C    -23.103242   24.566287   42.346175
  C    -21.811756   24.014824   43.001066
  O    -22.059830   23.983544   44.465339
  H    -23.777719   24.105444   45.586664
  O    -24.714356   23.024319   43.448037
  H    -25.033567   25.031137   43.341495
  H    -23.385692   24.026749   41.439328
  H    -23.001875   25.628396   42.097890
  H    -20.935312   24.639181   42.801594
  H    -21.587069   22.990041   42.692310
  H    -24.036451   22.401573   43.785939

 Multiplicity           Mult            ....    1
 Number of Electrons    NEL             ....  102
 Basis Dimension        Dim             ....  149

ORBITAL ENERGIES
----------------

  NO   OCC          E(Eh)            E(eV)
   0   2.0000     -19.151887      -521.1493
   1   2.0000     -19.142510      -520.8942
   2   2.0000     -19.134135      -520.6663
   3   2.0000     -19.130811      -520.5758
   4   2.0000     -10.265241      -279.3314
   5   2.0000     -10.248336      -278.8714
   6   2.0000     -10.238250      -278.5969
   7   2.0000     -10.237406      -278.5740
   8   2.0000     -10.235916      -278.5334
   9   2.0000     -10.217191      -278.0239
  10   2.0000     -10.195752      -277.4405
  11   2.0000     -10.180092      -277.0144
  12   2.0000     -10.179677      -277.0031
  13   2.0000      -1.047342       -28.4996
  14   2.0000      -1.038766       -28.2663
  15   2.0000      -1.011884       -27.5348
  16   2.0000      -0.986157       -26.8347
  17   2.0000      -0.790388       -21.5076
  18   2.0000      -0.779787       -21.2191
  19   2.0000      -0.769083       -20.9278
  20   2.0000      -0.727621       -19.7996
  21   2.0000      -0.676306       -18.4032
  22   2.0000      -0.609975       -16.5983
  23   2.0000      -0.601146       -16.3580
  24   2.0000      -0.590824       -16.0771
  25   2.0000      -0.575024       -15.6472
  26   2.0000      -0.530210       -14.4278
  27   2.0000      -0.506437       -13.7809
  28   2.0000      -0.498586       -13.5672
  29   2.0000      -0.486339       -13.2340
  30   2.0000      -0.476101       -12.9554
  31   2.0000      -0.457931       -12.4609
  32   2.0000      -0.446887       -12.1604
  33   2.0000      -0.444351       -12.0914
  34   2.0000      -0.426755       -11.6126
  35   2.0000      -0.408519       -11.1164
  36   2.0000      -0.400856       -10.9079
  37   2.0000      -0.393478       -10.7071
  38   2.0000      -0.379284       -10.3208
  39   2.0000      -0.368560       -10.0290
  40   2.0000      -0.366872        -9.9831
  41   2.0000      -0.350415        -9.5353
  42   2.0000      -0.347256        -9.4493
  43   2.0000      -0.335725        -9.1355
  44   2.0000      -0.316971        -8.6252
  45   2.0000      -0.303897        -8.2694
  46   2.0000      -0.299463        -8.1488
  47   2.0000      -0.277787        -7.5590
  48   2.0000      -0.268600        -7.3090
  49   2.0000      -0.251197        -6.8354
  50   2.0000      -0.232098        -6.3157
  51   0.0000       0.058477         1.5912
  52   0.0000       0.080946         2.2027
  53   0.0000       0.087338         2.3766
  54   0.0000       0.096352         2.6219
  55   0.0000       0.103150         2.8069

MULLIKEN ATOMIC CHARGES
-----------------------
   0 C :    0.274285
   1 C :   -0.262188
   2 C :   -0.297614
   3 C :   -0.000460
   4 O :   -0.500847
   5 H :    0.182840
   6 H :    0.140572
   7 H :    0.135963
   8 H :    0.137385
   9 H :    0.159356
  10 H :    0.151116
  11 H :    0.137949
  12 C :   -0.021059
  13 H :    0.154296
  14 H :    0.115316
  15 O :   -0.513094
  16 C :    0.068909
  17 C :    0.077044
  18 C :   -0.290917
  19 C :   -0.031949
  20 O :   -0.517068
  21 H :    0.174216
  22 O :   -0.600300
  23 H :    0.154580
  24 H :    0.165166
  25 H :    0.142889
  26 H :    0.143533
  27 H :    0.152643
  28 H :    0.367440
Sum of atomic charges:   -0.0000000

LOEWDIN ATOMIC CHARGES
----------------------
   0 C :    0.171997
   1 C :   -0.228238
   2 C :   -0.217218
   3 C :   -0.026761
   4 O :   -0.303765
   5 H :    0.117585
   6 H :    0.111028
   7 H :    0.111193
   8 H :    0.111881
   9 H :    0.117886
  10 H :    0.107619
  11 H :    0.100338
  12 C :   -0.043099
  13 H :    0.118194
  14 H :    0.084880
  15 O :   -0.332801
  16 C :    0.006062
  17 C :    0.035811
  18 C :   -0.239867
  19 C :   -0.039340
  20 O :   -0.325118
  21 H :    0.122953
  22 O :   -0.412381
  23 H :    0.116939
  24 H :    0.128314
  25 H :    0.112420
  26 H :    0.102398
  27 H :    0.106152
  28 H :    0.284938

  Mayer bond orders larger than 0.100000
B(  0-C ,  1-C ) :   0.9320 B(  0-C ,  4-O ) :   0.9316 B(  0-C ,  5-H ) :   0.8979
B(  0-C , 15-O ) :   0.8100 B(  1-C ,  2-C ) :   0.9531 B(  1-C ,  6-H ) :   0.9360
B(  1-C ,  7-H ) :   0.9385 B(  2-C ,  3-C ) :   0.9561 B(  2-C ,  8-H ) :   0.9456
B(  2-C ,  9-H ) :   0.9440 B(  3-C ,  4-O ) :   0.8409 B(  3-C , 10-H ) :   0.9347
B(  3-C , 11-H ) :   0.9399 B( 12-C , 13-H ) :   0.9297 B( 12-C , 14-H ) :   0.9194
B( 12-C , 15-O ) :   0.8805 B( 12-C , 16-C ) :   0.8854 B( 16-C , 17-C ) :   0.8946
B( 16-C , 20-O ) :   0.8463 B( 16-C , 21-H ) :   0.9222 B( 17-C , 18-C ) :   0.9100
B( 17-C , 22-O ) :   0.8943 B( 17-C , 23-H ) :   0.9332 B( 18-C , 19-C ) :   0.9421
B( 18-C , 24-H ) :   0.9372 B( 18-C , 25-H ) :   0.9334 B( 19-C , 20-O ) :   0.8421
B( 19-C , 26-H ) :   0.9345 B( 19-C , 27-H ) :   0.9379 B( 22-O , 28-H ) :   0.7931

FINAL SINGLE POINT ENERGY      -652.860179127043

DIPOLE MOMENT
-------------
                                X             Y             Z
Electronic contribution:     -2.31379      -5.19714       1.93963
Nuclear contribution   :      2.70438       6.19690      -3.01867
                        -----------------------------------------
Total Dipole Moment    :      0.39059       0.99975      -1.07904
                        -----------------------------------------
Magnitude (a.u.)       :      1.52197
Magnitude (Debye)      :      3.86854

Rotational constants in cm-1:     0.067788     0.012210     0.012044
Rotational constants in MHz :  2032.218866   366.052799   361.069436

                             ****ORCA TERMINATED NORMALLY****
TOTAL RUN TIME: 0 days 1 hours 25 minutes 38 seconds 953 msec
