                         Program Version 4.2.0 -  RELEASE  -
|  1> # Test redundant internal optimization
|  2> #
|  3> ! RKS B3LYP  Opt TightSCF SmallPrint
|  4>
|  5> %basis
|  6>         Basis "6-31G"
|  7> end
|  8>
|  9> %geom
| 10> Constraints
| 11> { D 4  0  15  12  285.0   C } # D for Dihedral angle
| 12> { D 0  15  12  16  300.0   C } # D for Dihedral angle
| 13> { D 0  4  3  2   C } # D for Dihedral angle
| 14> { D 4  3  2  1   C } # D for Dihedral angle
| 15> { D 3  2  1  0   C } # D for Dihedral angle
| 16> { D 2  1  0  4   C } # D for Dihedral angle
| 17> { D 1  0  4  3   C } # D for Dihedral angle
| 18> { D 16  20  19  18   C } # D for Dihedral angle
| 19> { D 20  19  18  17   C } # D for Dihedral angle
| 20> { D 19  18  17  16   C } # D for Dihedral angle
| 21> { D 18  17  16  20   C } # D for Dihedral angle
| 22> { D 17  16  20  19   C } # D for Dihedral angle
| 23> { D 15  12  16  20   C } # D for Dihedral angle
| 24> end
| 25> end
| 26>
| 27>
| 28> #%pal
| 29> #nprocs 8
| 30> #end
| 31>
| 32> * xyz 0 1
| 33> C  -21.048   26.222   46.251
| 34> C  -20.361   27.558   45.944
| 35> C  -20.329   28.222   47.341
| 36> C  -20.110   27.022   48.296
| 37> O  -20.473   25.807   47.535
| 38> H  -20.833   25.428   45.533
| 39> H  -19.344   27.382   45.576
| 40> H  -20.898   28.157   45.201
| 41> H  -19.543   28.978   47.434
| 42> H  -21.289   28.710   47.548
| 43> H  -20.733   27.082   49.195
| 44> H  -19.064   26.913   48.597
| 45> C  -23.396   25.070   46.435
| 46> H  -23.079   24.492   47.312
| 47> H  -24.469   25.280   46.532
| 48> O  -22.586   26.394   46.375
| 49> C  -23.200   24.188   45.171
| 50> C  -23.538   24.963   43.893
| 51> C  -22.257   25.808   43.691
| 52> C  -21.132   24.866   44.187
| 53> O  -21.787   23.827   45.012
| 54> H  -23.755   23.257   45.295
| 55> H  -23.678   24.268   43.058
| 56> O  -24.818   25.833   44.027
| 57> H  -22.113   26.119   42.651
| 58> H  -22.302   26.714   44.307
| 59> H  -20.385   25.388   44.794
| 60> H  -20.625   24.352   43.365
| 61> H  -24.699   26.537   44.858
| 62> *
| 63>
| 64>                          ****END OF INPUT****
 Total Charge           Charge          ....    0
 Multiplicity           Mult            ....    1
 Number of Electrons    NEL             ....  102
FINAL SINGLE POINT ENERGY      -652.713207279375
FINAL SINGLE POINT ENERGY      -652.826413516887
FINAL SINGLE POINT ENERGY      -652.848962946289
FINAL SINGLE POINT ENERGY      -652.854925000014
FINAL SINGLE POINT ENERGY      -652.856160561442
FINAL SINGLE POINT ENERGY      -652.856935094800
FINAL SINGLE POINT ENERGY      -652.857382952184
FINAL SINGLE POINT ENERGY      -652.857704126073
FINAL SINGLE POINT ENERGY      -652.857794308870
FINAL SINGLE POINT ENERGY      -652.857811139482
                    ***********************HURRAY********************

CARTESIAN COORDINATES (ANGSTROEM)
---------------------------------
  C    -20.903515   26.389081   46.390094
  C    -20.372001   27.816952   46.257902
  C    -20.455459   28.322002   47.717071
  C    -20.123313   27.059145   48.543409
  O    -20.325437   25.907818   47.628890
  H    -20.595123   25.675192   45.635792
  H    -19.332913   27.783159   45.911079
  H    -20.961455   28.417996   45.561990
  H    -19.761515   29.143834   47.917297
  H    -21.471976   28.665660   47.928498
  H    -20.770385   26.937744   49.415972
  H    -19.077540   27.024855   48.863623
  C    -23.137255   25.258821   46.441095
  H    -22.878581   24.663159   47.326124
  H    -24.171962   25.596683   46.541460
  O    -22.343021   26.484433   46.485636
  C    -23.088023   24.322415   45.220277
  C    -23.653942   24.904621   43.911356
  C    -22.369197   25.477194   43.231037
  C    -21.284355   24.460286   43.648358
  O    -21.828401   23.711189   44.815374
  H    -23.712949   23.477011   45.539791
  H    -24.092745   24.109179   43.305888
  O    -24.714463   25.870878   44.085761
  H    -22.473734   25.568173   42.146757
  H    -22.165868   26.471609   43.646763
  H    -20.331452   24.923966   43.917975
  H    -21.093701   23.714977   42.870505
  H    -24.353720   26.678968   44.508225

 Multiplicity           Mult            ....    1
 Number of Electrons    NEL             ....  102
 Basis Dimension        Dim             ....  149

ORBITAL ENERGIES
----------------

  NO   OCC          E(Eh)            E(eV)
   0   2.0000     -19.147699      -521.0354
   1   2.0000     -19.147340      -521.0256
   2   2.0000     -19.145716      -520.9814
   3   2.0000     -19.136406      -520.7281
   4   2.0000     -10.275604      -279.6134
   5   2.0000     -10.243323      -278.7350
   6   2.0000     -10.235860      -278.5319
   7   2.0000     -10.234987      -278.5081
   8   2.0000     -10.229462      -278.3578
   9   2.0000     -10.222789      -278.1762
  10   2.0000     -10.193996      -277.3927
  11   2.0000     -10.186924      -277.2003
  12   2.0000     -10.184712      -277.1401
  13   2.0000      -1.052709       -28.6457
  14   2.0000      -1.034135       -28.1402
  15   2.0000      -1.017571       -27.6895
  16   2.0000      -0.991694       -26.9854
  17   2.0000      -0.789319       -21.4784
  18   2.0000      -0.780270       -21.2322
  19   2.0000      -0.770137       -20.9565
  20   2.0000      -0.732200       -19.9242
  21   2.0000      -0.682246       -18.5649
  22   2.0000      -0.612159       -16.6577
  23   2.0000      -0.605218       -16.4688
  24   2.0000      -0.597287       -16.2530
  25   2.0000      -0.566031       -15.4025
  26   2.0000      -0.531656       -14.4671
  27   2.0000      -0.509375       -13.8608
  28   2.0000      -0.503492       -13.7007
  29   2.0000      -0.483865       -13.1666
  30   2.0000      -0.465473       -12.6662
  31   2.0000      -0.461703       -12.5636
  32   2.0000      -0.443137       -12.0584
  33   2.0000      -0.440602       -11.9894
  34   2.0000      -0.429099       -11.6764
  35   2.0000      -0.413361       -11.2481
  36   2.0000      -0.405180       -11.0255
  37   2.0000      -0.397231       -10.8092
  38   2.0000      -0.382389       -10.4053
  39   2.0000      -0.368554       -10.0289
  40   2.0000      -0.363373        -9.8879
  41   2.0000      -0.355677        -9.6785
  42   2.0000      -0.345557        -9.4031
  43   2.0000      -0.335423        -9.1273
  44   2.0000      -0.325780        -8.8649
  45   2.0000      -0.314531        -8.5588
  46   2.0000      -0.301392        -8.2013
  47   2.0000      -0.276160        -7.5147
  48   2.0000      -0.267954        -7.2914
  49   2.0000      -0.250924        -6.8280
  50   2.0000      -0.242691        -6.6040
  51   0.0000       0.063258         1.7213
  52   0.0000       0.074559         2.0288
  53   0.0000       0.085004         2.3131
  54   0.0000       0.096080         2.6145
  55   0.0000       0.102286         2.7833

MULLIKEN ATOMIC CHARGES
-----------------------
   0 C :    0.275528
   1 C :   -0.262325
   2 C :   -0.295388
   3 C :   -0.003211
   4 O :   -0.509993
   5 H :    0.171452
   6 H :    0.143785
   7 H :    0.147578
   8 H :    0.139495
   9 H :    0.161403
  10 H :    0.147422
  11 H :    0.141453
  12 C :   -0.039771
  13 H :    0.161663
  14 H :    0.158299
  15 O :   -0.539847
  16 C :    0.087249
  17 C :    0.086420
  18 C :   -0.318212
  19 C :   -0.026964
  20 O :   -0.515457
  21 H :    0.156794
  22 H :    0.168210
  23 O :   -0.602545
  24 H :    0.158421
  25 H :    0.146464
  26 H :    0.140900
  27 H :    0.154390
  28 H :    0.366788
Sum of atomic charges:    0.0000000

LOEWDIN ATOMIC CHARGES
----------------------
   0 C :    0.167670
   1 C :   -0.216832
   2 C :   -0.215271
   3 C :   -0.028132
   4 O :   -0.323820
   5 H :    0.110168
   6 H :    0.113399
   7 H :    0.118117
   8 H :    0.112677
   9 H :    0.118698
  10 H :    0.105293
  11 H :    0.102124
  12 C :   -0.055780
  13 H :    0.112282
  14 H :    0.121274
  15 O :   -0.338240
  16 C :    0.004948
  17 C :    0.034298
  18 C :   -0.243226
  19 C :   -0.034981
  20 O :   -0.319603
  21 H :    0.119469
  22 H :    0.118432
  23 O :   -0.407015
  24 H :    0.123139
  25 H :    0.111112
  26 H :    0.097499
  27 H :    0.108316
  28 H :    0.283983

  Mayer bond orders larger than 0.100000
B(  0-C ,  1-C ) :   0.9459 B(  0-C ,  4-O ) :   0.9063 B(  0-C ,  5-H ) :   0.8957
B(  0-C , 15-O ) :   0.8412 B(  1-C ,  2-C ) :   0.9559 B(  1-C ,  6-H ) :   0.9410
B(  1-C ,  7-H ) :   0.9366 B(  2-C ,  3-C ) :   0.9545 B(  2-C ,  8-H ) :   0.9456
B(  2-C ,  9-H ) :   0.9443 B(  3-C ,  4-O ) :   0.8407 B(  3-C , 10-H ) :   0.9357
B(  3-C , 11-H ) :   0.9401 B( 12-C , 13-H ) :   0.9228 B( 12-C , 14-H ) :   0.9193
B( 12-C , 15-O ) :   0.8493 B( 12-C , 16-C ) :   0.8980 B( 16-C , 17-C ) :   0.8781
B( 16-C , 20-O ) :   0.8678 B( 16-C , 21-H ) :   0.9188 B( 17-C , 18-C ) :   0.9269
B( 17-C , 22-H ) :   0.9351 B( 17-C , 23-O ) :   0.9054 B( 18-C , 19-C ) :   0.9416
B( 18-C , 24-H ) :   0.9402 B( 18-C , 25-H ) :   0.9356 B( 19-C , 20-O ) :   0.8384
B( 19-C , 26-H ) :   0.9172 B( 19-C , 27-H ) :   0.9390 B( 23-O , 28-H ) :   0.7895

FINAL SINGLE POINT ENERGY      -652.857811259526

DIPOLE MOMENT
-------------
                                X             Y             Z
Electronic contribution:     -2.62402      -4.07767       0.11889
Nuclear contribution   :      3.09773       5.00038      -0.47047
                        -----------------------------------------
Total Dipole Moment    :      0.47371       0.92271      -0.35158
                        -----------------------------------------
Magnitude (a.u.)       :      1.09518
Magnitude (Debye)      :      2.78372

Rotational constants in cm-1:     0.049018     0.015851     0.015153
Rotational constants in MHz :  1469.508216   475.199882   454.274153

                             ****ORCA TERMINATED NORMALLY****
TOTAL RUN TIME: 0 days 0 hours 35 minutes 13 seconds 627 msec
