                         Program Version 4.2.0 -  RELEASE  -
|  1> # Test redundant internal optimization
|  2> #
|  3> ! RKS B3LYP  Opt TightSCF SmallPrint
|  4>
|  5> %basis
|  6>         Basis "6-31G"
|  7> end
|  8>
|  9> %geom
| 10> Constraints
| 11> { D 4  0  15  12  330.0   C } # D for Dihedral angle
| 12> { D 0  15  12  16  240.0   C } # D for Dihedral angle
| 13> { D 0  4  3  2   C } # D for Dihedral angle
| 14> { D 4  3  2  1   C } # D for Dihedral angle
| 15> { D 3  2  1  0   C } # D for Dihedral angle
| 16> { D 2  1  0  4   C } # D for Dihedral angle
| 17> { D 1  0  4  3   C } # D for Dihedral angle
| 18> { D 16  20  19  18   C } # D for Dihedral angle
| 19> { D 20  19  18  17   C } # D for Dihedral angle
| 20> { D 19  18  17  16   C } # D for Dihedral angle
| 21> { D 18  17  16  20   C } # D for Dihedral angle
| 22> { D 17  16  20  19   C } # D for Dihedral angle
| 23> { D 15  12  16  20   C } # D for Dihedral angle
| 24> end
| 25> end
| 26>
| 27>
| 28> #%pal
| 29> #nprocs 8
| 30> #end
| 31>
| 32> * xyz 0 1
| 33> C  -21.048   26.222   46.251
| 34> C  -20.361   27.558   45.944
| 35> C  -20.329   28.222   47.341
| 36> C  -20.110   27.022   48.296
| 37> O  -20.473   25.807   47.535
| 38> H  -20.833   25.428   45.533
| 39> H  -19.344   27.382   45.576
| 40> H  -20.898   28.157   45.201
| 41> H  -19.543   28.978   47.434
| 42> H  -21.289   28.710   47.548
| 43> H  -20.733   27.082   49.195
| 44> H  -19.064   26.913   48.597
| 45> C  -23.271   25.476   47.424
| 46> H  -22.510   24.854   47.912
| 47> H  -23.768   26.078   48.195
| 48> O  -22.586   26.394   46.375
| 49> C  -24.339   24.538   46.795
| 50> C  -25.074   23.731   47.871
| 51> C  -26.082   24.773   48.411
| 52> C  -26.454   25.589   47.148
| 53> O  -25.395   25.325   46.150
| 54> H  -23.870   23.932   46.017
| 55> H  -25.599   22.885   47.415
| 56> O  -24.128   23.182   48.975
| 57> H  -26.957   24.313   48.883
| 58> H  -25.598   25.415   49.157
| 59> H  -26.501   26.667   47.343
| 60> H  -27.401   25.267   46.706
| 61> H  -23.591   24.012   49.447
| 62> *
| 63>
| 64>                          ****END OF INPUT****
 Total Charge           Charge          ....    0
 Multiplicity           Mult            ....    1
 Number of Electrons    NEL             ....  102
FINAL SINGLE POINT ENERGY      -652.829377553217
FINAL SINGLE POINT ENERGY      -652.852519358117
FINAL SINGLE POINT ENERGY      -652.856843224304
FINAL SINGLE POINT ENERGY      -652.857593482341
FINAL SINGLE POINT ENERGY      -652.857714613570
FINAL SINGLE POINT ENERGY      -652.857740995801
FINAL SINGLE POINT ENERGY      -652.857744177027
                    ***********************HURRAY********************

CARTESIAN COORDINATES (ANGSTROEM)
---------------------------------
  C    -21.082882   26.166012   46.308850
  C    -20.499049   27.529661   45.941700
  C    -20.382077   28.203489   47.325819
  C    -20.018902   27.032350   48.264011
  O    -20.389611   25.792369   47.523058
  H    -20.887137   25.359028   45.596691
  H    -19.514245   27.389531   45.481562
  H    -21.144507   28.075272   45.250450
  H    -19.629053   28.997504   47.345423
  H    -21.347201   28.637182   47.603966
  H    -20.563063   27.052227   49.212087
  H    -18.946383   26.961174   48.465902
  C    -23.176945   25.518990   47.499498
  H    -22.439510   24.901418   48.022719
  H    -23.627910   26.218466   48.216108
  O    -22.518404   26.327023   46.480239
  C    -24.243695   24.633307   46.859190
  C    -25.026720   23.775360   47.868328
  C    -26.105329   24.780490   48.374773
  C    -26.411578   25.613146   47.110468
  O    -25.278774   25.403483   46.174563
  H    -23.767102   24.022624   46.086185
  H    -25.501110   22.943722   47.343366
  O    -24.238560   23.142671   48.904266
  H    -26.986348   24.274008   48.776891
  H    -25.679622   25.402519   49.173746
  H    -26.510361   26.683372   47.317530
  H    -27.316513   25.269348   46.600170
  H    -23.916407   23.806253   49.547442

 Multiplicity           Mult            ....    1
 Number of Electrons    NEL             ....  102
 Basis Dimension        Dim             ....  149

ORBITAL ENERGIES
----------------

  NO   OCC          E(Eh)            E(eV)
   0   2.0000     -19.148217      -521.0495
   1   2.0000     -19.146357      -520.9989
   2   2.0000     -19.135871      -520.7135
   3   2.0000     -19.132007      -520.6084
   4   2.0000     -10.276637      -279.6415
   5   2.0000     -10.241332      -278.6808
   6   2.0000     -10.230675      -278.3908
   7   2.0000     -10.226602      -278.2800
   8   2.0000     -10.225192      -278.2416
   9   2.0000     -10.222729      -278.1746
  10   2.0000     -10.192341      -277.3477
  11   2.0000     -10.187448      -277.2146
  12   2.0000     -10.183626      -277.1106
  13   2.0000      -1.053079       -28.6557
  14   2.0000      -1.030077       -28.0298
  15   2.0000      -1.011615       -27.5275
  16   2.0000      -0.988874       -26.9086
  17   2.0000      -0.790075       -21.4990
  18   2.0000      -0.778692       -21.1893
  19   2.0000      -0.763865       -20.7858
  20   2.0000      -0.731415       -19.9028
  21   2.0000      -0.676103       -18.3977
  22   2.0000      -0.607810       -16.5394
  23   2.0000      -0.601811       -16.3761
  24   2.0000      -0.593165       -16.1408
  25   2.0000      -0.566297       -15.4097
  26   2.0000      -0.527299       -14.3485
  27   2.0000      -0.506628       -13.7861
  28   2.0000      -0.497027       -13.5248
  29   2.0000      -0.495711       -13.4890
  30   2.0000      -0.468659       -12.7529
  31   2.0000      -0.453221       -12.3328
  32   2.0000      -0.445326       -12.1179
  33   2.0000      -0.427577       -11.6350
  34   2.0000      -0.423369       -11.5205
  35   2.0000      -0.413658       -11.2562
  36   2.0000      -0.408839       -11.1251
  37   2.0000      -0.397985       -10.8297
  38   2.0000      -0.374367       -10.1870
  39   2.0000      -0.367830       -10.0092
  40   2.0000      -0.358611        -9.7583
  41   2.0000      -0.350363        -9.5339
  42   2.0000      -0.347646        -9.4599
  43   2.0000      -0.338226        -9.2036
  44   2.0000      -0.324648        -8.8341
  45   2.0000      -0.310384        -8.4460
  46   2.0000      -0.295812        -8.0494
  47   2.0000      -0.268050        -7.2940
  48   2.0000      -0.263828        -7.1791
  49   2.0000      -0.257087        -6.9957
  50   2.0000      -0.231714        -6.3053
  51   0.0000       0.053411         1.4534
  52   0.0000       0.078032         2.1234
  53   0.0000       0.089923         2.4469
  54   0.0000       0.095829         2.6076
  55   0.0000       0.108685         2.9575

MULLIKEN ATOMIC CHARGES
-----------------------
   0 C :    0.291542
   1 C :   -0.258673
   2 C :   -0.302196
   3 C :   -0.011874
   4 O :   -0.514028
   5 H :    0.151275
   6 H :    0.143402
   7 H :    0.166722
   8 H :    0.144269
   9 H :    0.159447
  10 H :    0.140789
  11 H :    0.149562
  12 C :   -0.030667
  13 H :    0.165232
  14 H :    0.123176
  15 O :   -0.520440
  16 C :    0.099865
  17 C :    0.086570
  18 C :   -0.321394
  19 C :   -0.008822
  20 O :   -0.506367
  21 H :    0.154696
  22 H :    0.165539
  23 O :   -0.599675
  24 H :    0.155405
  25 H :    0.130585
  26 H :    0.144565
  27 H :    0.146321
  28 H :    0.355175
Sum of atomic charges:   -0.0000000

LOEWDIN ATOMIC CHARGES
----------------------
   0 C :    0.178456
   1 C :   -0.215258
   2 C :   -0.217456
   3 C :   -0.030728
   4 O :   -0.324780
   5 H :    0.099419
   6 H :    0.113203
   7 H :    0.129141
   8 H :    0.115502
   9 H :    0.117760
  10 H :    0.101622
  11 H :    0.106289
  12 C :   -0.057506
  13 H :    0.116799
  14 H :    0.093721
  15 O :   -0.326568
  16 C :    0.016467
  17 C :    0.034118
  18 C :   -0.240979
  19 C :   -0.030122
  20 O :   -0.315747
  21 H :    0.115375
  22 H :    0.118967
  23 O :   -0.406532
  24 H :    0.121714
  25 H :    0.102504
  26 H :    0.102885
  27 H :    0.104505
  28 H :    0.277228

  Mayer bond orders larger than 0.100000
B(  0-C ,  1-C ) :   0.9436 B(  0-C ,  4-O ) :   0.8972 B(  0-C ,  5-H ) :   0.9228
B(  0-C , 15-O ) :   0.8578 B(  1-C ,  2-C ) :   0.9535 B(  1-C ,  6-H ) :   0.9378
B(  1-C ,  7-H ) :   0.9343 B(  2-C ,  3-C ) :   0.9561 B(  2-C ,  8-H ) :   0.9448
B(  2-C ,  9-H ) :   0.9448 B(  3-C ,  4-O ) :   0.8310 B(  3-C , 10-H ) :   0.9362
B(  3-C , 11-H ) :   0.9404 B( 12-C , 13-H ) :   0.8929 B( 12-C , 14-H ) :   0.9335
B( 12-C , 15-O ) :   0.8423 B( 12-C , 16-C ) :   0.8985 B( 16-C , 17-C ) :   0.8710
B( 16-C , 20-O ) :   0.8660 B( 16-C , 21-H ) :   0.9332 B( 17-C , 18-C ) :   0.9211
B( 17-C , 22-H ) :   0.9337 B( 17-C , 23-O ) :   0.8972 B( 18-C , 19-C ) :   0.9380
B( 18-C , 24-H ) :   0.9428 B( 18-C , 25-H ) :   0.9423 B( 19-C , 20-O ) :   0.8532
B( 19-C , 26-H ) :   0.9313 B( 19-C , 27-H ) :   0.9381 B( 23-O , 28-H ) :   0.7979

FINAL SINGLE POINT ENERGY      -652.857744944205

DIPOLE MOMENT
-------------
                                X             Y             Z
Electronic contribution:     -0.59965      -4.03091      -2.20478
Nuclear contribution   :      0.67943       4.93506       3.06937
                        -----------------------------------------
Total Dipole Moment    :      0.07978       0.90414       0.86459
                        -----------------------------------------
Magnitude (a.u.)       :      1.25354
Magnitude (Debye)      :      3.18623

Rotational constants in cm-1:     0.053004     0.013141     0.011848
Rotational constants in MHz :  1589.028271   393.968620   355.189305

                             ****ORCA TERMINATED NORMALLY****
TOTAL RUN TIME: 0 days 1 hours 12 minutes 0 seconds 905 msec
