                         Program Version 4.2.0 -  RELEASE  -
|  1> # Test redundant internal optimization
|  2> #
|  3> ! RKS B3LYP  Opt TightSCF SmallPrint
|  4>
|  5> %basis
|  6>         Basis "6-31G"
|  7> end
|  8>
|  9> %geom
| 10> Constraints
| 11> { D 4  0  15  12  345.0   C } # D for Dihedral angle
| 12> { D 0  15  12  16  105.0   C } # D for Dihedral angle
| 13> { D 0  4  3  2   C } # D for Dihedral angle
| 14> { D 4  3  2  1   C } # D for Dihedral angle
| 15> { D 3  2  1  0   C } # D for Dihedral angle
| 16> { D 2  1  0  4   C } # D for Dihedral angle
| 17> { D 1  0  4  3   C } # D for Dihedral angle
| 18> { D 16  20  19  18   C } # D for Dihedral angle
| 19> { D 20  19  18  17   C } # D for Dihedral angle
| 20> { D 19  18  17  16   C } # D for Dihedral angle
| 21> { D 18  17  16  20   C } # D for Dihedral angle
| 22> { D 17  16  20  19   C } # D for Dihedral angle
| 23> { D 15  12  16  20   C } # D for Dihedral angle
| 24> end
| 25> end
| 26>
| 27>
| 28> #%pal
| 29> #nprocs 8
| 30> #end
| 31>
| 32> * xyz 0 1
| 33> C  -21.048   26.222   46.251
| 34> C  -20.361   27.558   45.944
| 35> C  -20.329   28.222   47.341
| 36> C  -20.110   27.022   48.296
| 37> O  -20.473   25.807   47.535
| 38> H  -20.833   25.428   45.533
| 39> H  -19.344   27.382   45.576
| 40> H  -20.898   28.157   45.201
| 41> H  -19.543   28.978   47.434
| 42> H  -21.289   28.710   47.548
| 43> H  -20.733   27.082   49.195
| 44> H  -19.064   26.913   48.597
| 45> C  -23.221   25.764   47.645
| 46> H  -24.124   25.210   47.362
| 47> H  -22.521   25.062   48.116
| 48> O  -22.586   26.394   46.375
| 49> C  -23.613   26.826   48.710
| 50> C  -24.718   27.752   48.191
| 51> C  -25.978   26.873   48.380
| 52> C  -25.667   26.087   49.678
| 53> O  -24.206   26.178   49.885
| 54> H  -22.713   27.341   49.049
| 55> H  -24.778   28.652   48.815
| 56> O  -24.505   28.192   46.717
| 57> H  -26.898   27.461   48.458
| 58> H  -26.089   26.189   47.530
| 59> H  -25.954   25.032   49.608
| 60> H  -26.146   26.526   50.557
| 61> H  -24.442   27.306   46.075
| 62> *
| 63>
| 64>                          ****END OF INPUT****
 Total Charge           Charge          ....    0
 Multiplicity           Mult            ....    1
 Number of Electrons    NEL             ....  102
FINAL SINGLE POINT ENERGY      -652.832160464803
FINAL SINGLE POINT ENERGY      -652.856430631092
FINAL SINGLE POINT ENERGY      -652.862788407086
FINAL SINGLE POINT ENERGY      -652.864924619152
FINAL SINGLE POINT ENERGY      -652.866015887946
FINAL SINGLE POINT ENERGY      -652.866515611626
FINAL SINGLE POINT ENERGY      -652.866632826976
FINAL SINGLE POINT ENERGY      -652.866658036497
                    ***********************HURRAY********************

CARTESIAN COORDINATES (ANGSTROEM)
---------------------------------
  C    -21.094339   26.182568   46.342453
  C    -20.544713   27.555957   45.960215
  C    -20.411413   28.238620   47.340908
  C    -20.006439   27.078191   48.273790
  O    -20.373424   25.829045   47.535084
  H    -20.895390   25.386262   45.621329
  H    -19.566878   27.424592   45.483595
  H    -21.203337   28.095927   45.276232
  H    -19.669945   29.043261   47.339755
  H    -21.375330   28.667973   47.631021
  H    -20.523342   27.080220   49.236082
  H    -18.928127   27.023020   48.444946
  C    -23.191589   25.662037   47.698499
  H    -24.052180   25.098333   47.327230
  H    -22.502589   24.979062   48.200693
  O    -22.549327   26.250112   46.512030
  C    -23.625176   26.759213   48.677018
  C    -24.688633   27.727255   48.134463
  C    -25.989917   26.892837   48.307533
  C    -25.733790   26.103692   49.607838
  O    -24.257784   26.140462   49.841467
  H    -22.744737   27.288471   49.050492
  H    -24.735576   28.606417   48.785985
  O    -24.454308   28.212630   46.797163
  H    -26.875944   27.530516   48.366327
  H    -26.111215   26.232968   47.441295
  H    -26.053582   25.058824   49.552615
  H    -26.198411   26.569600   50.481592
  H    -23.826566   27.607933   46.334351

 Multiplicity           Mult            ....    1
 Number of Electrons    NEL             ....  102
 Basis Dimension        Dim             ....  149

ORBITAL ENERGIES
----------------

  NO   OCC          E(Eh)            E(eV)
   0   2.0000     -19.160422      -521.3816
   1   2.0000     -19.157955      -521.3145
   2   2.0000     -19.139850      -520.8218
   3   2.0000     -19.116986      -520.1996
   4   2.0000     -10.291197      -280.0377
   5   2.0000     -10.238698      -278.6091
   6   2.0000     -10.232428      -278.4385
   7   2.0000     -10.232287      -278.4347
   8   2.0000     -10.231156      -278.4039
   9   2.0000     -10.226740      -278.2837
  10   2.0000     -10.195791      -277.4416
  11   2.0000     -10.194719      -277.4124
  12   2.0000     -10.180020      -277.0124
  13   2.0000      -1.065400       -28.9910
  14   2.0000      -1.025169       -27.8963
  15   2.0000      -1.005427       -27.3591
  16   2.0000      -0.993360       -27.0307
  17   2.0000      -0.798888       -21.7389
  18   2.0000      -0.774447       -21.0738
  19   2.0000      -0.768695       -20.9172
  20   2.0000      -0.737319       -20.0635
  21   2.0000      -0.678911       -18.4741
  22   2.0000      -0.610785       -16.6203
  23   2.0000      -0.599384       -16.3101
  24   2.0000      -0.596536       -16.2326
  25   2.0000      -0.578541       -15.7429
  26   2.0000      -0.530829       -14.4446
  27   2.0000      -0.514663       -14.0047
  28   2.0000      -0.504862       -13.7380
  29   2.0000      -0.486749       -13.2451
  30   2.0000      -0.477451       -12.9921
  31   2.0000      -0.460696       -12.5362
  32   2.0000      -0.446886       -12.1604
  33   2.0000      -0.426899       -11.6165
  34   2.0000      -0.425004       -11.5649
  35   2.0000      -0.416249       -11.3267
  36   2.0000      -0.411389       -11.1945
  37   2.0000      -0.389383       -10.5956
  38   2.0000      -0.382099       -10.3974
  39   2.0000      -0.369790       -10.0625
  40   2.0000      -0.367623       -10.0035
  41   2.0000      -0.360171        -9.8007
  42   2.0000      -0.351295        -9.5592
  43   2.0000      -0.347180        -9.4472
  44   2.0000      -0.329206        -8.9582
  45   2.0000      -0.316782        -8.6201
  46   2.0000      -0.289044        -7.8653
  47   2.0000      -0.275385        -7.4936
  48   2.0000      -0.274755        -7.4765
  49   2.0000      -0.249803        -6.7975
  50   2.0000      -0.238736        -6.4963
  51   0.0000       0.059547         1.6204
  52   0.0000       0.071850         1.9551
  53   0.0000       0.089704         2.4410
  54   0.0000       0.093270         2.5380
  55   0.0000       0.100320         2.7298

MULLIKEN ATOMIC CHARGES
-----------------------
   0 C :    0.313766
   1 C :   -0.268127
   2 C :   -0.315406
   3 C :   -0.022991
   4 O :   -0.509769
   5 H :    0.161749
   6 H :    0.152195
   7 H :    0.165266
   8 H :    0.152391
   9 H :    0.166799
  10 H :    0.157690
  11 H :    0.156233
  12 C :   -0.039917
  13 H :    0.153316
  14 H :    0.187349
  15 O :   -0.572216
  16 C :    0.053608
  17 C :    0.117972
  18 C :   -0.301830
  19 C :   -0.020242
  20 O :   -0.521698
  21 H :    0.147063
  22 H :    0.146892
  23 O :   -0.642688
  24 H :    0.151270
  25 H :    0.144919
  26 H :    0.143587
  27 H :    0.148403
  28 H :    0.394416
Sum of atomic charges:   -0.0000000

LOEWDIN ATOMIC CHARGES
----------------------
   0 C :    0.185132
   1 C :   -0.218213
   2 C :   -0.221267
   3 C :   -0.032144
   4 O :   -0.314563
   5 H :    0.106044
   6 H :    0.118098
   7 H :    0.127432
   8 H :    0.120335
   9 H :    0.118076
  10 H :    0.107457
  11 H :    0.110282
  12 C :   -0.049505
  13 H :    0.109495
  14 H :    0.128049
  15 O :   -0.352829
  16 C :    0.008531
  17 C :    0.040005
  18 C :   -0.237766
  19 C :   -0.031561
  20 O :   -0.324512
  21 H :    0.106559
  22 H :    0.105241
  23 O :   -0.434947
  24 H :    0.121041
  25 H :    0.111465
  26 H :    0.102692
  27 H :    0.105599
  28 H :    0.285775

  Mayer bond orders larger than 0.100000
B(  0-C ,  1-C ) :   0.9390 B(  0-C ,  4-O ) :   0.9261 B(  0-C ,  5-H ) :   0.9281
B(  0-C , 15-O ) :   0.8033 B(  1-C ,  2-C ) :   0.9502 B(  1-C ,  6-H ) :   0.9356
B(  1-C ,  7-H ) :   0.9343 B(  2-C ,  3-C ) :   0.9542 B(  2-C ,  8-H ) :   0.9435
B(  2-C ,  9-H ) :   0.9349 B(  3-C ,  4-O ) :   0.8205 B(  3-C , 10-H ) :   0.9267
B(  3-C , 11-H ) :   0.9385 B( 12-C , 13-H ) :   0.9342 B( 12-C , 14-H ) :   0.9163
B( 12-C , 15-O ) :   0.7863 B( 12-C , 16-C ) :   0.8934 B( 16-C , 17-C ) :   0.9097
B( 16-C , 20-O ) :   0.8515 B( 16-C , 21-H ) :   0.9231 B( 17-C , 18-C ) :   0.9031
B( 17-C , 22-H ) :   0.9324 B( 17-C , 23-O ) :   0.9308 B( 18-C , 19-C ) :   0.9398
B( 18-C , 24-H ) :   0.9448 B( 18-C , 25-H ) :   0.9430 B( 19-C , 20-O ) :   0.8327
B( 19-C , 26-H ) :   0.9338 B( 19-C , 27-H ) :   0.9385 B( 23-O , 28-H ) :   0.7212

FINAL SINGLE POINT ENERGY      -652.866659487102

DIPOLE MOMENT
-------------
                                X             Y             Z
Electronic contribution:      0.24944      -2.39344      -0.40212
Nuclear contribution   :      0.23616       2.49108       0.31971
                        -----------------------------------------
Total Dipole Moment    :      0.48560       0.09764      -0.08241
                        -----------------------------------------
Magnitude (a.u.)       :      0.50213
Magnitude (Debye)      :      1.27630

Rotational constants in cm-1:     0.050689     0.016419     0.015042
Rotational constants in MHz :  1519.632312   492.229912   450.952338

                             ****ORCA TERMINATED NORMALLY****
TOTAL RUN TIME: 0 days 0 hours 36 minutes 55 seconds 924 msec
