                         Program Version 4.2.1 -  RELEASE  -
|  1> # Test redundant internal optimization
|  2> #
|  3> ! RKS B3LYP  Opt TightSCF SmallPrint
|  4>
|  5> %basis
|  6>         Basis "6-31G"
|  7> end
|  8>
|  9> %geom
| 10> Constraints
| 11> { D 4  0  19  14  240.0   C } # D for Dihedral angle
| 12> { D 0  19  14  12  90.0   C } # D for Dihedral angle
| 13> { D 0  4  3  2   C } # D for Dihedral angle
| 14> { D 4  3  2  1   C } # D for Dihedral angle
| 15> { D 3  2  1  0   C } # D for Dihedral angle
| 16> { D 2  1  0  4   C } # D for Dihedral angle
| 17> { D 1  0  4  3   C } # D for Dihedral angle
| 18> { D 14  15  16  17   C } # D for Dihedral angle
| 19> { D 15  16  17  12   C } # D for Dihedral angle
| 20> { D 16  17  12  14   C } # D for Dihedral angle
| 21> { D 17  12  14  15   C } # D for Dihedral angle
| 22> { D 12  14  15  16   C } # D for Dihedral angle
| 23> end
| 24> end
| 25>
| 26>
| 27> #%pal
| 28> #nprocs 8
| 29> #end
| 30>
| 31> * xyz 0 1
| 32> C  -21.048   26.222   46.251
| 33> C  -20.361   27.558   45.944
| 34> C  -20.329   28.222   47.341
| 35> C  -20.110   27.022   48.296
| 36> O  -20.473   25.807   47.535
| 37> H  -20.833   25.428   45.533
| 38> H  -19.344   27.382   45.576
| 39> H  -20.898   28.157   45.201
| 40> H  -19.543   28.978   47.434
| 41> H  -21.289   28.710   47.548
| 42> H  -20.733   27.082   49.195
| 43> H  -19.064   26.913   48.597
| 44> C  -23.545   24.203   46.198
| 45> H  -23.865   23.434   45.478
| 46> C  -23.235   25.530   45.496
| 47> C  -24.653   26.107   45.273
| 48> C  -25.425   25.638   46.532
| 49> O  -24.641   24.529   47.118
| 50> H  -22.727   23.809   46.803
| 51> O  -22.472   26.381   46.366
| 52> H  -22.677   25.402   44.562
| 53> H  -24.656   27.195   45.162
| 54> H  -25.097   25.677   44.366
| 55> H  -26.433   25.280   46.297
| 56> H  -25.496   26.420   47.294
| 57> *
| 58>
| 59>                          ****END OF INPUT****
 Total Charge           Charge          ....    0
 Multiplicity           Mult            ....    1
 Number of Electrons    NEL             ....   86
FINAL SINGLE POINT ENERGY      -538.430306329175
FINAL SINGLE POINT ENERGY      -538.432418828602
FINAL SINGLE POINT ENERGY      -538.432690259623
FINAL SINGLE POINT ENERGY      -538.432721398920
FINAL SINGLE POINT ENERGY      -538.432730696188
                    ***********************HURRAY********************

CARTESIAN COORDINATES (ANGSTROEM)
---------------------------------
  C    -20.981946   26.188114   46.236316
  C    -20.362655   27.555227   45.946661
  C    -20.410328   28.229751   47.339134
  C    -20.155815   27.048638   48.302240
  O    -20.434181   25.819931   47.517436
  H    -20.718798   25.392704   45.532745
  H    -19.326127   27.423897   45.613149
  H    -20.914372   28.105151   45.180956
  H    -19.668313   29.026237   47.448377
  H    -21.404875   28.653902   47.506145
  H    -20.809780   27.059482   49.177387
  H    -19.113341   26.982983   48.628131
  C    -23.584849   24.160525   46.162527
  H    -23.964063   23.424528   45.436434
  C    -23.227927   25.470986   45.462849
  C    -24.612555   26.127171   45.302615
  C    -25.363153   25.691561   46.584685
  O    -24.619991   24.534228   47.125923
  H    -22.755451   23.729479   46.726545
  O    -22.423598   26.337377   46.315425
  H    -22.721719   25.316346   44.500145
  H    -24.522158   27.211638   45.207081
  H    -25.100395   25.732891   44.404056
  H    -26.398687   25.394497   46.384942
  H    -25.351923   26.468756   47.354097

 Multiplicity           Mult            ....    1
 Number of Electrons    NEL             ....   86
 Basis Dimension        Dim             ....  127

ORBITAL ENERGIES
----------------

  NO   OCC          E(Eh)            E(eV)
   0   2.0000     -19.139516      -520.8127
   1   2.0000     -19.136419      -520.7284
   2   2.0000     -19.124131      -520.3941
   3   2.0000     -10.278873      -279.7024
   4   2.0000     -10.241672      -278.6901
   5   2.0000     -10.221693      -278.1464
   6   2.0000     -10.217897      -278.0431
   7   2.0000     -10.217625      -278.0357
   8   2.0000     -10.185526      -277.1623
   9   2.0000     -10.184160      -277.1251
  10   2.0000     -10.183575      -277.1092
  11   2.0000      -1.051270       -28.6065
  12   2.0000      -1.011601       -27.5271
  13   2.0000      -0.988722       -26.9045
  14   2.0000      -0.789687       -21.4885
  15   2.0000      -0.776109       -21.1190
  16   2.0000      -0.735812       -20.0225
  17   2.0000      -0.720997       -19.6193
  18   2.0000      -0.608156       -16.5488
  19   2.0000      -0.596345       -16.2274
  20   2.0000      -0.593723       -16.1560
  21   2.0000      -0.578079       -15.7303
  22   2.0000      -0.521616       -14.1939
  23   2.0000      -0.501340       -13.6422
  24   2.0000      -0.483091       -13.1456
  25   2.0000      -0.474792       -12.9197
  26   2.0000      -0.447198       -12.1689
  27   2.0000      -0.440845       -11.9960
  28   2.0000      -0.436098       -11.8668
  29   2.0000      -0.410136       -11.1604
  30   2.0000      -0.406488       -11.0611
  31   2.0000      -0.382309       -10.4032
  32   2.0000      -0.368325       -10.0226
  33   2.0000      -0.363042        -9.8789
  34   2.0000      -0.354746        -9.6531
  35   2.0000      -0.353684        -9.6242
  36   2.0000      -0.344924        -9.3859
  37   2.0000      -0.316307        -8.6072
  38   2.0000      -0.306745        -8.3470
  39   2.0000      -0.299978        -8.1628
  40   2.0000      -0.263682        -7.1751
  41   2.0000      -0.246021        -6.6946
  42   2.0000      -0.229378        -6.2417
  43   0.0000       0.077012         2.0956
  44   0.0000       0.095364         2.5950
  45   0.0000       0.101227         2.7545
  46   0.0000       0.115745         3.1496
  47   0.0000       0.124800         3.3960

MULLIKEN ATOMIC CHARGES
-----------------------
   0 C :    0.285635
   1 C :   -0.251727
   2 C :   -0.300425
   3 C :    0.000274
   4 O :   -0.503375
   5 H :    0.136343
   6 H :    0.141429
   7 H :    0.144205
   8 H :    0.140335
   9 H :    0.162692
  10 H :    0.155164
  11 H :    0.139751
  12 C :    0.006553
  13 H :    0.118631
  14 C :    0.049673
  15 C :   -0.287702
  16 C :   -0.000977
  17 O :   -0.515362
  18 H :    0.172248
  19 O :   -0.506923
  20 H :    0.124543
  21 H :    0.159008
  22 H :    0.138794
  23 H :    0.134974
  24 H :    0.156242
Sum of atomic charges:   -0.0000000

LOEWDIN ATOMIC CHARGES
----------------------
   0 C :    0.174590
   1 C :   -0.220596
   2 C :   -0.216541
   3 C :   -0.025627
   4 O :   -0.316513
   5 H :    0.096668
   6 H :    0.111621
   7 H :    0.117121
   8 H :    0.113389
   9 H :    0.119433
  10 H :    0.109805
  11 H :    0.101336
  12 C :   -0.045935
  13 H :    0.088789
  14 C :    0.036739
  15 C :   -0.224824
  16 C :   -0.028962
  17 O :   -0.326621
  18 H :    0.123760
  19 O :   -0.325685
  20 H :    0.093992
  21 H :    0.125862
  22 H :    0.111633
  23 H :    0.097560
  24 H :    0.109006

  Mayer bond orders larger than 0.100000
B(  0-C ,  1-C ) :   0.9428 B(  0-C ,  4-O ) :   0.9283 B(  0-C ,  5-H ) :   0.9183
B(  0-C , 19-O ) :   0.8430 B(  1-C ,  2-C ) :   0.9575 B(  1-C ,  6-H ) :   0.9369
B(  1-C ,  7-H ) :   0.9390 B(  2-C ,  3-C ) :   0.9543 B(  2-C ,  8-H ) :   0.9452
B(  2-C ,  9-H ) :   0.9437 B(  3-C ,  4-O ) :   0.8370 B(  3-C , 10-H ) :   0.9341
B(  3-C , 11-H ) :   0.9399 B( 12-C , 13-H ) :   0.9095 B( 12-C , 14-C ) :   0.9136
B( 12-C , 17-O ) :   0.8733 B( 12-C , 18-H ) :   0.9289 B( 14-C , 15-C ) :   0.9575
B( 14-C , 19-O ) :   0.8434 B( 14-C , 20-H ) :   0.9193 B( 15-C , 16-C ) :   0.9485
B( 15-C , 21-H ) :   0.9374 B( 15-C , 22-H ) :   0.9422 B( 16-C , 17-O ) :   0.8567
B( 16-C , 23-H ) :   0.9324 B( 16-C , 24-H ) :   0.9355

FINAL SINGLE POINT ENERGY      -538.432731846833

DIPOLE MOMENT
-------------
                                X             Y             Z
Electronic contribution:     -0.24622      -3.45024       1.69967
Nuclear contribution   :      0.57403       4.31017      -2.88218
                        -----------------------------------------
Total Dipole Moment    :      0.32781       0.85993      -1.18251
                        -----------------------------------------
Magnitude (a.u.)       :      1.49842
Magnitude (Debye)      :      3.80868

Rotational constants in cm-1:     0.077719     0.020621     0.019652
Rotational constants in MHz :  2329.943586   618.208352   589.166391

                             ****ORCA TERMINATED NORMALLY****
TOTAL RUN TIME: 0 days 0 hours 5 minutes 40 seconds 41 msec
