                         Program Version 4.2.0 -  RELEASE  -
|  1> # Test redundant internal optimization
|  2> #
|  3> ! RKS B3LYP  Opt TightSCF SmallPrint
|  4>
|  5> %basis
|  6>         Basis "6-31G"
|  7> end
|  8>
|  9> %geom
| 10> Constraints
| 11> { D 4  0  15  12  345.0   C } # D for Dihedral angle
| 12> { D 0  15  12  16  90.0   C } # D for Dihedral angle
| 13> { D 0  4  3  2   C } # D for Dihedral angle
| 14> { D 4  3  2  1   C } # D for Dihedral angle
| 15> { D 3  2  1  0   C } # D for Dihedral angle
| 16> { D 2  1  0  4   C } # D for Dihedral angle
| 17> { D 1  0  4  3   C } # D for Dihedral angle
| 18> { D 16  20  19  18   C } # D for Dihedral angle
| 19> { D 20  19  18  17   C } # D for Dihedral angle
| 20> { D 19  18  17  16   C } # D for Dihedral angle
| 21> { D 18  17  16  20   C } # D for Dihedral angle
| 22> { D 17  16  20  19   C } # D for Dihedral angle
| 23> { D 15  12  16  20   C } # D for Dihedral angle
| 24> end
| 25> end
| 26>
| 27>
| 28> #%pal
| 29> #nprocs 8
| 30> #end
| 31>
| 32> * xyz 0 1
| 33> C  -21.048   26.222   46.251
| 34> C  -20.361   27.558   45.944
| 35> C  -20.329   28.222   47.341
| 36> C  -20.110   27.022   48.296
| 37> O  -20.473   25.807   47.535
| 38> H  -20.833   25.428   45.533
| 39> H  -19.344   27.382   45.576
| 40> H  -20.898   28.157   45.201
| 41> H  -19.543   28.978   47.434
| 42> H  -21.289   28.710   47.548
| 43> H  -20.733   27.082   49.195
| 44> H  -19.064   26.913   48.597
| 45> C  -23.221   25.764   47.645
| 46> H  -24.245   25.445   47.418
| 47> H  -22.650   24.882   47.963
| 48> O  -22.586   26.394   46.375
| 49> C  -23.271   26.752   48.844
| 50> C  -24.193   27.940   48.547
| 51> C  -25.590   27.324   48.797
| 52> C  -25.337   26.344   49.970
| 53> O  -23.878   26.107   50.013
| 54> H  -22.253   27.028   49.123
| 55> O  -23.914   29.093   49.550
| 56> H  -24.076   28.333   47.531
| 57> H  -26.348   28.075   49.037
| 58> H  -25.926   26.781   47.905
| 59> H  -25.852   25.387   49.835
| 60> H  -25.625   26.766   50.936
| 61> H  -24.026   28.723   50.577
| 62> *
| 63>
| 64>                          ****END OF INPUT****
 Total Charge           Charge          ....    0
 Multiplicity           Mult            ....    1
 Number of Electrons    NEL             ....  102
FINAL SINGLE POINT ENERGY      -652.831491138596
FINAL SINGLE POINT ENERGY      -652.853497580552
FINAL SINGLE POINT ENERGY      -652.859618075298
FINAL SINGLE POINT ENERGY      -652.862206278930
FINAL SINGLE POINT ENERGY      -652.862531014156
FINAL SINGLE POINT ENERGY      -652.862591781881
FINAL SINGLE POINT ENERGY      -652.862600175646
FINAL SINGLE POINT ENERGY      -652.862602432111
                    ***********************HURRAY********************

CARTESIAN COORDINATES (ANGSTROEM)
---------------------------------
  C    -21.088877   26.223749   46.385479
  C    -20.515962   27.586224   45.989199
  C    -20.312160   28.259420   47.369265
  C    -19.903913   27.078178   48.278346
  O    -20.330027   25.846057   47.551624
  H    -20.895922   25.432295   45.654441
  H    -19.558582   27.432552   45.479038
  H    -21.188094   28.142491   45.332334
  H    -19.544824   29.039453   47.344222
  H    -21.244460   28.717627   47.714205
  H    -20.369548   27.095477   49.265950
  H    -18.820024   26.995633   48.402312
  C    -23.203218   25.698830   47.690617
  H    -24.188131   25.398354   47.321623
  H    -22.669358   24.808367   48.037063
  O    -22.537089   26.296384   46.538501
  C    -23.329575   26.681326   48.855092
  C    -24.180760   27.923519   48.559155
  C    -25.615139   27.373431   48.751987
  C    -25.452877   26.353865   49.907752
  O    -24.004065   26.039381   49.990083
  H    -22.340052   26.964209   49.212929
  O    -23.867506   29.002938   49.484417
  H    -24.002737   28.328870   47.563994
  H    -26.312675   28.180497   48.989907
  H    -25.957203   26.884443   47.833938
  H    -26.009786   25.426836   49.740629
  H    -25.747986   26.766836   50.877548
  H    -23.825451   28.641756   50.395349

 Multiplicity           Mult            ....    1
 Number of Electrons    NEL             ....  102
 Basis Dimension        Dim             ....  149

ORBITAL ENERGIES
----------------

  NO   OCC          E(Eh)            E(eV)
   0   2.0000     -19.151349      -521.1347
   1   2.0000     -19.144093      -520.9373
   2   2.0000     -19.141341      -520.8624
   3   2.0000     -19.139695      -520.8176
   4   2.0000     -10.279268      -279.7131
   5   2.0000     -10.236835      -278.5585
   6   2.0000     -10.231761      -278.4204
   7   2.0000     -10.231266      -278.4069
   8   2.0000     -10.229569      -278.3607
   9   2.0000     -10.227238      -278.2973
  10   2.0000     -10.188419      -277.2410
  11   2.0000     -10.188247      -277.2363
  12   2.0000     -10.186070      -277.1771
  13   2.0000      -1.053629       -28.6707
  14   2.0000      -1.036060       -28.1926
  15   2.0000      -1.006282       -27.3823
  16   2.0000      -0.994839       -27.0709
  17   2.0000      -0.790163       -21.5014
  18   2.0000      -0.780526       -21.2392
  19   2.0000      -0.768286       -20.9061
  20   2.0000      -0.732611       -19.9354
  21   2.0000      -0.674385       -18.3509
  22   2.0000      -0.605695       -16.4818
  23   2.0000      -0.602672       -16.3995
  24   2.0000      -0.599470       -16.3124
  25   2.0000      -0.572670       -15.5831
  26   2.0000      -0.525672       -14.3043
  27   2.0000      -0.508734       -13.8434
  28   2.0000      -0.496161       -13.5012
  29   2.0000      -0.490747       -13.3539
  30   2.0000      -0.476851       -12.9758
  31   2.0000      -0.459812       -12.5121
  32   2.0000      -0.453251       -12.3336
  33   2.0000      -0.433903       -11.8071
  34   2.0000      -0.419484       -11.4147
  35   2.0000      -0.413870       -11.2620
  36   2.0000      -0.403188       -10.9713
  37   2.0000      -0.393798       -10.7158
  38   2.0000      -0.374419       -10.1885
  39   2.0000      -0.367065        -9.9883
  40   2.0000      -0.360355        -9.8058
  41   2.0000      -0.359590        -9.7849
  42   2.0000      -0.349602        -9.5131
  43   2.0000      -0.333956        -9.0874
  44   2.0000      -0.329193        -8.9578
  45   2.0000      -0.310634        -8.4528
  46   2.0000      -0.302830        -8.2404
  47   2.0000      -0.272642        -7.4190
  48   2.0000      -0.265480        -7.2241
  49   2.0000      -0.263834        -7.1793
  50   2.0000      -0.237852        -6.4723
  51   0.0000       0.061930         1.6852
  52   0.0000       0.078772         2.1435
  53   0.0000       0.089036         2.4228
  54   0.0000       0.095433         2.5969
  55   0.0000       0.104405         2.8410

MULLIKEN ATOMIC CHARGES
-----------------------
   0 C :    0.308929
   1 C :   -0.264002
   2 C :   -0.319431
   3 C :   -0.023351
   4 O :   -0.514621
   5 H :    0.154126
   6 H :    0.147335
   7 H :    0.160101
   8 H :    0.148532
   9 H :    0.174927
  10 H :    0.152175
  11 H :    0.151830
  12 C :   -0.016050
  13 H :    0.142914
  14 H :    0.167637
  15 O :   -0.541871
  16 C :    0.049787
  17 C :    0.092610
  18 C :   -0.302553
  19 C :   -0.028769
  20 O :   -0.527621
  21 H :    0.161974
  22 O :   -0.610262
  23 H :    0.170025
  24 H :    0.162670
  25 H :    0.148783
  26 H :    0.148994
  27 H :    0.143081
  28 H :    0.362101
Sum of atomic charges:   -0.0000000

LOEWDIN ATOMIC CHARGES
----------------------
   0 C :    0.181390
   1 C :   -0.217828
   2 C :   -0.222338
   3 C :   -0.034092
   4 O :   -0.320205
   5 H :    0.100204
   6 H :    0.115402
   7 H :    0.125673
   8 H :    0.118171
   9 H :    0.122080
  10 H :    0.102863
  11 H :    0.107190
  12 C :   -0.037956
  13 H :    0.107168
  14 H :    0.117876
  15 O :   -0.343664
  16 C :    0.004160
  17 C :    0.034447
  18 C :   -0.240986
  19 C :   -0.037936
  20 O :   -0.329926
  21 H :    0.112503
  22 O :   -0.418054
  23 H :    0.123226
  24 H :    0.126760
  25 H :    0.116092
  26 H :    0.104992
  27 H :    0.101269
  28 H :    0.281522

  Mayer bond orders larger than 0.100000
B(  0-C ,  1-C ) :   0.9357 B(  0-C ,  4-O ) :   0.9111 B(  0-C ,  5-H ) :   0.9290
B(  0-C , 15-O ) :   0.8413 B(  1-C ,  2-C ) :   0.9525 B(  1-C ,  6-H ) :   0.9366
B(  1-C ,  7-H ) :   0.9360 B(  2-C ,  3-C ) :   0.9542 B(  2-C ,  8-H ) :   0.9446
B(  2-C ,  9-H ) :   0.9343 B(  3-C ,  4-O ) :   0.8277 B(  3-C , 10-H ) :   0.9204
B(  3-C , 11-H ) :   0.9390 B( 12-C , 13-H ) :   0.9386 B( 12-C , 14-H ) :   0.9180
B( 12-C , 15-O ) :   0.8322 B( 12-C , 16-C ) :   0.8853 B( 16-C , 17-C ) :   0.9082
B( 16-C , 20-O ) :   0.8388 B( 16-C , 21-H ) :   0.9123 B( 17-C , 18-C ) :   0.9165
B( 17-C , 22-O ) :   0.8778 B( 17-C , 23-H ) :   0.9242 B( 18-C , 19-C ) :   0.9414
B( 18-C , 24-H ) :   0.9372 B( 18-C , 25-H ) :   0.9341 B( 19-C , 20-O ) :   0.8435
B( 19-C , 26-H ) :   0.9349 B( 19-C , 27-H ) :   0.9385 B( 22-O , 28-H ) :   0.7975

FINAL SINGLE POINT ENERGY      -652.862602416948

DIPOLE MOMENT
-------------
                                X             Y             Z
Electronic contribution:      0.12740      -2.52239       0.67660
Nuclear contribution   :     -0.29809       2.79472      -0.77677
                        -----------------------------------------
Total Dipole Moment    :     -0.17068       0.27233      -0.10016
                        -----------------------------------------
Magnitude (a.u.)       :      0.33664
Magnitude (Debye)      :      0.85568

Rotational constants in cm-1:     0.048543     0.016314     0.015245
Rotational constants in MHz :  1455.278365   489.071102   457.027170

                             ****ORCA TERMINATED NORMALLY****
TOTAL RUN TIME: 0 days 1 hours 23 minutes 42 seconds 27 msec
