                         Program Version 4.2.0 -  RELEASE  -
|  1> # Test redundant internal optimization
|  2> #
|  3> ! RKS B3LYP  Opt TightSCF SmallPrint
|  4>
|  5> %basis
|  6>         Basis "6-31G"
|  7> end
|  8>
|  9> %geom
| 10> Constraints
| 11> { D 4  0  15  12  60.0   C } # D for Dihedral angle
| 12> { D 0  15  12  16  150.0   C } # D for Dihedral angle
| 13> { D 0  4  3  2   C } # D for Dihedral angle
| 14> { D 4  3  2  1   C } # D for Dihedral angle
| 15> { D 3  2  1  0   C } # D for Dihedral angle
| 16> { D 2  1  0  4   C } # D for Dihedral angle
| 17> { D 1  0  4  3   C } # D for Dihedral angle
| 18> { D 16  20  19  18   C } # D for Dihedral angle
| 19> { D 20  19  18  17   C } # D for Dihedral angle
| 20> { D 19  18  17  16   C } # D for Dihedral angle
| 21> { D 18  17  16  20   C } # D for Dihedral angle
| 22> { D 17  16  20  19   C } # D for Dihedral angle
| 23> { D 15  12  16  20   C } # D for Dihedral angle
| 24> end
| 25> end
| 26>
| 27>
| 28> #%pal
| 29> #nprocs 8
| 30> #end
| 31>
| 32> * xyz 0 1
| 33> C  -21.048   26.222   46.251
| 34> C  -20.361   27.558   45.944
| 35> C  -20.329   28.222   47.341
| 36> C  -20.110   27.022   48.296
| 37> O  -20.473   25.807   47.535
| 38> H  -20.833   25.428   45.533
| 39> H  -19.344   27.382   45.576
| 40> H  -20.898   28.157   45.201
| 41> H  -19.543   28.978   47.434
| 42> H  -21.289   28.710   47.548
| 43> H  -20.733   27.082   49.195
| 44> H  -19.064   26.913   48.597
| 45> C  -23.051   27.452   47.413
| 46> H  -23.173   26.969   48.391
| 47> H  -22.300   28.246   47.514
| 48> O  -22.586   26.394   46.375
| 49> C  -24.399   28.121   47.027
| 50> C  -24.768   29.237   48.010
| 51> C  -23.873   30.399   47.516
| 52> C  -23.849   30.196   45.980
| 53> O  -24.280   28.803   45.734
| 54> H  -25.162   27.348   46.913
| 55> O  -26.270   29.602   47.863
| 56> H  -24.578   28.970   49.055
| 57> H  -24.258   31.383   47.801
| 58> H  -22.864   30.300   47.934
| 59> H  -22.851   30.343   45.553
| 60> H  -24.557   30.849   45.462
| 61> H  -26.483   29.874   46.823
| 62> *
| 63>
| 64>                          ****END OF INPUT****
 Total Charge           Charge          ....    0
 Multiplicity           Mult            ....    1
 Number of Electrons    NEL             ....  102
FINAL SINGLE POINT ENERGY      -652.792134207399
FINAL SINGLE POINT ENERGY      -652.829163940965
FINAL SINGLE POINT ENERGY      -652.849014713231
FINAL SINGLE POINT ENERGY      -652.852895766686
FINAL SINGLE POINT ENERGY      -652.853482040065
FINAL SINGLE POINT ENERGY      -652.853600975178
FINAL SINGLE POINT ENERGY      -652.853619436642
FINAL SINGLE POINT ENERGY      -652.853623142354
FINAL SINGLE POINT ENERGY      -652.853622221773
                    ***********************HURRAY********************

CARTESIAN COORDINATES (ANGSTROEM)
---------------------------------
  C    -21.221669   26.349309   46.401109
  C    -20.281361   27.475198   45.941881
  C    -19.827023   28.094110   47.297989
  C    -19.756097   26.851913   48.224154
  O    -20.552060   25.792863   47.559447
  H    -21.277839   25.536165   45.675352
  H    -19.430812   27.029305   45.416404
  H    -20.781647   28.185366   45.278878
  H    -18.853888   28.590373   47.220919
  H    -20.541172   28.838076   47.658765
  H    -20.165023   27.033145   49.223172
  H    -18.736193   26.468778   48.322309
  C    -23.106878   27.595573   47.569065
  H    -23.325178   27.064393   48.505482
  H    -22.382533   28.386633   47.782034
  O    -22.613331   26.655467   46.580752
  C    -24.387717   28.204726   47.002716
  C    -25.042077   29.264308   47.901037
  C    -24.224605   30.533165   47.539129
  C    -23.932449   30.342639   46.030182
  O    -24.147772   28.904581   45.736535
  H    -25.084315   27.393418   46.772364
  O    -26.449723   29.423051   47.576567
  H    -25.015809   29.023023   48.964874
  H    -24.803778   31.435223   47.752509
  H    -23.299638   30.572153   48.125234
  H    -22.907536   30.614203   45.759096
  H    -24.620532   30.908722   45.394965
  H    -26.558345   29.401119   46.602080

 Multiplicity           Mult            ....    1
 Number of Electrons    NEL             ....  102
 Basis Dimension        Dim             ....  149

ORBITAL ENERGIES
----------------

  NO   OCC          E(Eh)            E(eV)
   0   2.0000     -19.143898      -520.9320
   1   2.0000     -19.141571      -520.8686
   2   2.0000     -19.140918      -520.8509
   3   2.0000     -19.140732      -520.8458
   4   2.0000     -10.276815      -279.6464
   5   2.0000     -10.246142      -278.8117
   6   2.0000     -10.235252      -278.5154
   7   2.0000     -10.234501      -278.4949
   8   2.0000     -10.233918      -278.4791
   9   2.0000     -10.231027      -278.4004
  10   2.0000     -10.195615      -277.4368
  11   2.0000     -10.194007      -277.3930
  12   2.0000     -10.188954      -277.2555
  13   2.0000      -1.051712       -28.6185
  14   2.0000      -1.038050       -28.2468
  15   2.0000      -1.008877       -27.4529
  16   2.0000      -0.994650       -27.0658
  17   2.0000      -0.790213       -21.5028
  18   2.0000      -0.787291       -21.4233
  19   2.0000      -0.773890       -21.0586
  20   2.0000      -0.733975       -19.9725
  21   2.0000      -0.680515       -18.5178
  22   2.0000      -0.608116       -16.5477
  23   2.0000      -0.605641       -16.4803
  24   2.0000      -0.599524       -16.3139
  25   2.0000      -0.579132       -15.7590
  26   2.0000      -0.528125       -14.3710
  27   2.0000      -0.507657       -13.8140
  28   2.0000      -0.503473       -13.7002
  29   2.0000      -0.492350       -13.3975
  30   2.0000      -0.479515       -13.0483
  31   2.0000      -0.462656       -12.5895
  32   2.0000      -0.455878       -12.4051
  33   2.0000      -0.438065       -11.9204
  34   2.0000      -0.427068       -11.6211
  35   2.0000      -0.416667       -11.3381
  36   2.0000      -0.405744       -11.0409
  37   2.0000      -0.397268       -10.8102
  38   2.0000      -0.382334       -10.4038
  39   2.0000      -0.374895       -10.2014
  40   2.0000      -0.364562        -9.9202
  41   2.0000      -0.360433        -9.8079
  42   2.0000      -0.349766        -9.5176
  43   2.0000      -0.333810        -9.0834
  44   2.0000      -0.317324        -8.6348
  45   2.0000      -0.310224        -8.4416
  46   2.0000      -0.304036        -8.2732
  47   2.0000      -0.273538        -7.4433
  48   2.0000      -0.263307        -7.1650
  49   2.0000      -0.254244        -6.9183
  50   2.0000      -0.244599        -6.6559
  51   0.0000       0.049163         1.3378
  52   0.0000       0.074599         2.0299
  53   0.0000       0.082446         2.2435
  54   0.0000       0.098471         2.6795
  55   0.0000       0.101691         2.7671

MULLIKEN ATOMIC CHARGES
-----------------------
   0 C :    0.302245
   1 C :   -0.274626
   2 C :   -0.318444
   3 C :   -0.011086
   4 O :   -0.507264
   5 H :    0.168663
   6 H :    0.154467
   7 H :    0.161796
   8 H :    0.144655
   9 H :    0.143986
  10 H :    0.142166
  11 H :    0.149554
  12 C :    0.000356
  13 H :    0.144188
  14 H :    0.119683
  15 O :   -0.513253
  16 C :    0.065806
  17 C :    0.076187
  18 C :   -0.293725
  19 C :   -0.029450
  20 O :   -0.511063
  21 H :    0.174262
  22 O :   -0.600264
  23 H :    0.152497
  24 H :    0.163308
  25 H :    0.138694
  26 H :    0.139826
  27 H :    0.150246
  28 H :    0.366590
Sum of atomic charges:   -0.0000000

LOEWDIN ATOMIC CHARGES
----------------------
   0 C :    0.177080
   1 C :   -0.228445
   2 C :   -0.224530
   3 C :   -0.034672
   4 O :   -0.323474
   5 H :    0.114730
   6 H :    0.121427
   7 H :    0.124862
   8 H :    0.114979
   9 H :    0.103901
  10 H :    0.101181
  11 H :    0.105713
  12 C :   -0.041255
  13 H :    0.105467
  14 H :    0.091304
  15 O :   -0.309989
  16 C :    0.017054
  17 C :    0.035146
  18 C :   -0.241714
  19 C :   -0.039358
  20 O :   -0.321887
  21 H :    0.122982
  22 O :   -0.412794
  23 H :    0.115707
  24 H :    0.127225
  25 H :    0.109799
  26 H :    0.100844
  27 H :    0.104228
  28 H :    0.284490

  Mayer bond orders larger than 0.100000
B(  0-C ,  1-C ) :   0.9152 B(  0-C ,  4-O ) :   0.8954 B(  0-C ,  5-H ) :   0.9362
B(  0-C , 15-O ) :   0.9034 B(  1-C ,  2-C ) :   0.9556 B(  1-C ,  6-H ) :   0.9351
B(  1-C ,  7-H ) :   0.9338 B(  2-C ,  3-C ) :   0.9468 B(  2-C ,  8-H ) :   0.9444
B(  2-C ,  9-H ) :   0.9378 B(  3-C ,  4-O ) :   0.8489 B(  3-C , 10-H ) :   0.9340
B(  3-C , 11-H ) :   0.9386 B( 12-C , 13-H ) :   0.9159 B( 12-C , 14-H ) :   0.9023
B( 12-C , 15-O ) :   0.8394 B( 12-C , 16-C ) :   0.9014 B( 16-C , 17-C ) :   0.9002
B( 16-C , 20-O ) :   0.8614 B( 16-C , 21-H ) :   0.9218 B( 17-C , 18-C ) :   0.9095
B( 17-C , 22-O ) :   0.8970 B( 17-C , 23-H ) :   0.9325 B( 18-C , 19-C ) :   0.9402
B( 18-C , 24-H ) :   0.9375 B( 18-C , 25-H ) :   0.9347 B( 19-C , 20-O ) :   0.8540
B( 19-C , 26-H ) :   0.9349 B( 19-C , 27-H ) :   0.9372 B( 22-O , 28-H ) :   0.7927

FINAL SINGLE POINT ENERGY      -652.853620561594

DIPOLE MOMENT
-------------
                                X             Y             Z
Electronic contribution:     -4.90761      -4.87818      -1.68144
Nuclear contribution   :      5.97186       6.21428       1.92435
                        -----------------------------------------
Total Dipole Moment    :      1.06426       1.33610       0.24291
                        -----------------------------------------
Magnitude (a.u.)       :      1.72534
Magnitude (Debye)      :      4.38547

Rotational constants in cm-1:     0.055742     0.013522     0.013037
Rotational constants in MHz :  1671.117167   405.380066   390.832347

                             ****ORCA TERMINATED NORMALLY****
TOTAL RUN TIME: 0 days 0 hours 30 minutes 17 seconds 745 msec
