                         Program Version 4.2.0 -  RELEASE  -
|  1> # Test redundant internal optimization
|  2> #
|  3> ! RKS B3LYP  Opt TightSCF SmallPrint
|  4>
|  5> %basis
|  6>         Basis "6-31G"
|  7> end
|  8>
|  9> %geom
| 10> Constraints
| 11> { D 4  0  15  12  150.0   C } # D for Dihedral angle
| 12> { D 0  15  12  16  195.0   C } # D for Dihedral angle
| 13> { D 0  4  3  2   C } # D for Dihedral angle
| 14> { D 4  3  2  1   C } # D for Dihedral angle
| 15> { D 3  2  1  0   C } # D for Dihedral angle
| 16> { D 2  1  0  4   C } # D for Dihedral angle
| 17> { D 1  0  4  3   C } # D for Dihedral angle
| 18> { D 16  20  19  18   C } # D for Dihedral angle
| 19> { D 20  19  18  17   C } # D for Dihedral angle
| 20> { D 19  18  17  16   C } # D for Dihedral angle
| 21> { D 18  17  16  20   C } # D for Dihedral angle
| 22> { D 17  16  20  19   C } # D for Dihedral angle
| 23> { D 15  12  16  20   C } # D for Dihedral angle
| 24> end
| 25> end
| 26>
| 27>
| 28> #%pal
| 29> #nprocs 8
| 30> #end
| 31>
| 32> * xyz 0 1
| 33> C  -21.048   26.222   46.251
| 34> C  -20.361   27.558   45.944
| 35> C  -20.329   28.222   47.341
| 36> C  -20.110   27.022   48.296
| 37> O  -20.473   25.807   47.535
| 38> H  -20.833   25.428   45.533
| 39> H  -19.344   27.382   45.576
| 40> H  -20.898   28.157   45.201
| 41> H  -19.543   28.978   47.434
| 42> H  -21.289   28.710   47.548
| 43> H  -20.733   27.082   49.195
| 44> H  -19.064   26.913   48.597
| 45> C  -23.210   27.459   45.431
| 46> H  -22.588   28.363   45.445
| 47> H  -23.247   27.083   44.401
| 48> O  -22.586   26.394   46.375
| 49> C  -24.655   27.854   45.844
| 50> C  -24.673   28.547   47.211
| 51> C  -24.222   29.980   46.842
| 52> C  -24.855   30.200   45.445
| 53> O  -25.194   28.859   44.922
| 54> H  -25.300   26.976   45.773
| 55> H  -25.693   28.554   47.614
| 56> O  -23.740   27.869   48.252
| 57> H  -24.548   30.728   47.571
| 58> H  -23.128   30.026   46.783
| 59> H  -24.170   30.694   44.748
| 60> H  -25.785   30.772   45.494
| 61> H  -22.714   27.851   47.868
| 62> *
| 63>
| 64>                          ****END OF INPUT****
 Total Charge           Charge          ....    0
 Multiplicity           Mult            ....    1
 Number of Electrons    NEL             ....  102
FINAL SINGLE POINT ENERGY      -652.815085705486
FINAL SINGLE POINT ENERGY      -652.841608137228
FINAL SINGLE POINT ENERGY      -652.850378118715
FINAL SINGLE POINT ENERGY      -652.854478849179
FINAL SINGLE POINT ENERGY      -652.857044110184
FINAL SINGLE POINT ENERGY      -652.859132941183
FINAL SINGLE POINT ENERGY      -652.860755116933
FINAL SINGLE POINT ENERGY      -652.861801824188
FINAL SINGLE POINT ENERGY      -652.862198978461
FINAL SINGLE POINT ENERGY      -652.862264436848
FINAL SINGLE POINT ENERGY      -652.862282101463
FINAL SINGLE POINT ENERGY      -652.862286713422
                    ***********************HURRAY********************

CARTESIAN COORDINATES (ANGSTROEM)
---------------------------------
  C    -21.096142   26.276747   46.240039
  C    -20.188701   27.462092   45.912867
  C    -20.206113   28.257490   47.243244
  C    -20.276078   27.144710   48.308034
  O    -20.741271   25.926687   47.581759
  H    -20.949383   25.389569   45.620641
  H    -19.186103   27.069934   45.709097
  H    -20.495906   28.050551   45.045244
  H    -19.323611   28.893047   47.359482
  H    -21.098751   28.887323   47.306691
  H    -20.986702   27.365127   49.107491
  H    -19.301882   26.893506   48.735357
  C    -23.137437   27.541751   45.325493
  H    -22.536373   28.455978   45.264349
  H    -23.226778   27.112922   44.320874
  O    -22.537044   26.578401   46.251219
  C    -24.531264   27.863023   45.880339
  C    -24.548061   28.536182   47.263700
  C    -24.245680   30.020099   46.898724
  C    -24.960062   30.195160   45.541188
  O    -25.200122   28.823890   45.007828
  H    -25.135241   26.951578   45.865621
  H    -25.563681   28.460498   47.673121
  O    -23.615262   28.016152   48.235282
  H    -24.610632   30.711738   47.662831
  H    -23.161942   30.149794   46.815569
  H    -24.369957   30.758426   44.810675
  H    -25.941897   30.667190   45.638623
  H    -23.160925   27.230433   47.844619

 Multiplicity           Mult            ....    1
 Number of Electrons    NEL             ....  102
 Basis Dimension        Dim             ....  149

ORBITAL ENERGIES
----------------

  NO   OCC          E(Eh)            E(eV)
   0   2.0000     -19.160077      -521.3722
   1   2.0000     -19.150875      -521.1218
   2   2.0000     -19.142924      -520.9055
   3   2.0000     -19.116987      -520.1997
   4   2.0000     -10.292793      -280.0811
   5   2.0000     -10.240820      -278.6669
   6   2.0000     -10.236638      -278.5531
   7   2.0000     -10.233767      -278.4750
   8   2.0000     -10.230310      -278.3809
   9   2.0000     -10.229952      -278.3711
  10   2.0000     -10.200232      -277.5624
  11   2.0000     -10.194456      -277.4052
  12   2.0000     -10.184146      -277.1247
  13   2.0000      -1.064762       -28.9737
  14   2.0000      -1.028631       -27.9905
  15   2.0000      -1.006536       -27.3892
  16   2.0000      -0.993546       -27.0358
  17   2.0000      -0.796753       -21.6808
  18   2.0000      -0.776900       -21.1405
  19   2.0000      -0.771181       -20.9849
  20   2.0000      -0.738218       -20.0879
  21   2.0000      -0.683329       -18.5943
  22   2.0000      -0.609864       -16.5952
  23   2.0000      -0.600489       -16.3401
  24   2.0000      -0.595793       -16.2123
  25   2.0000      -0.579759       -15.7760
  26   2.0000      -0.532055       -14.4780
  27   2.0000      -0.515732       -14.0338
  28   2.0000      -0.508367       -13.8334
  29   2.0000      -0.492563       -13.4033
  30   2.0000      -0.475670       -12.9436
  31   2.0000      -0.458393       -12.4735
  32   2.0000      -0.449192       -12.2231
  33   2.0000      -0.439205       -11.9514
  34   2.0000      -0.430676       -11.7193
  35   2.0000      -0.417237       -11.3536
  36   2.0000      -0.411505       -11.1976
  37   2.0000      -0.389413       -10.5965
  38   2.0000      -0.384495       -10.4626
  39   2.0000      -0.371187       -10.1005
  40   2.0000      -0.368070       -10.0157
  41   2.0000      -0.364036        -9.9059
  42   2.0000      -0.351065        -9.5530
  43   2.0000      -0.341689        -9.2978
  44   2.0000      -0.324867        -8.8401
  45   2.0000      -0.312000        -8.4900
  46   2.0000      -0.293090        -7.9754
  47   2.0000      -0.276988        -7.5372
  48   2.0000      -0.264646        -7.2014
  49   2.0000      -0.248671        -6.7667
  50   2.0000      -0.247683        -6.7398
  51   0.0000       0.057784         1.5724
  52   0.0000       0.066577         1.8117
  53   0.0000       0.091739         2.4963
  54   0.0000       0.093738         2.5507
  55   0.0000       0.105021         2.8578

MULLIKEN ATOMIC CHARGES
-----------------------
   0 C :    0.325792
   1 C :   -0.297104
   2 C :   -0.314679
   3 C :   -0.020239
   4 O :   -0.501289
   5 H :    0.159320
   6 H :    0.157737
   7 H :    0.146898
   8 H :    0.146644
   9 H :    0.171329
  10 H :    0.175554
  11 H :    0.148302
  12 C :   -0.007731
  13 H :    0.134695
  14 H :    0.155214
  15 O :   -0.564139
  16 C :    0.051376
  17 C :    0.119362
  18 C :   -0.308125
  19 C :   -0.025430
  20 O :   -0.520693
  21 H :    0.166528
  22 H :    0.145497
  23 O :   -0.651715
  24 H :    0.154552
  25 H :    0.150030
  26 H :    0.141818
  27 H :    0.152936
  28 H :    0.407561
Sum of atomic charges:   -0.0000000

LOEWDIN ATOMIC CHARGES
----------------------
   0 C :    0.186897
   1 C :   -0.231979
   2 C :   -0.222089
   3 C :   -0.030083
   4 O :   -0.304898
   5 H :    0.107250
   6 H :    0.122894
   7 H :    0.115660
   8 H :    0.117666
   9 H :    0.117324
  10 H :    0.118622
  11 H :    0.106514
  12 C :   -0.042831
  13 H :    0.095201
  14 H :    0.108401
  15 O :   -0.346281
  16 C :    0.019728
  17 C :    0.042220
  18 C :   -0.234467
  19 C :   -0.034024
  20 O :   -0.322052
  21 H :    0.117815
  22 H :    0.102505
  23 O :   -0.441605
  24 H :    0.122659
  25 H :    0.109668
  26 H :    0.101200
  27 H :    0.107468
  28 H :    0.290618

  Mayer bond orders larger than 0.100000
B(  0-C ,  1-C ) :   0.9340 B(  0-C ,  4-O ) :   0.9452 B(  0-C ,  5-H ) :   0.9262
B(  0-C , 15-O ) :   0.7882 B(  1-C ,  2-C ) :   0.9464 B(  1-C ,  6-H ) :   0.9325
B(  1-C ,  7-H ) :   0.9279 B(  2-C ,  3-C ) :   0.9523 B(  2-C ,  8-H ) :   0.9450
B(  2-C ,  9-H ) :   0.9262 B(  3-C ,  4-O ) :   0.8210 B(  3-C , 10-H ) :   0.9273
B(  3-C , 11-H ) :   0.9398 B( 12-C , 13-H ) :   0.9108 B( 12-C , 14-H ) :   0.9237
B( 12-C , 15-O ) :   0.7936 B( 12-C , 16-C ) :   0.9034 B( 16-C , 17-C ) :   0.9164
B( 16-C , 20-O ) :   0.8590 B( 16-C , 21-H ) :   0.9271 B( 17-C , 18-C ) :   0.9093
B( 17-C , 22-H ) :   0.9257 B( 17-C , 23-O ) :   0.9235 B( 18-C , 19-C ) :   0.9413
B( 18-C , 24-H ) :   0.9435 B( 18-C , 25-H ) :   0.9395 B( 19-C , 20-O ) :   0.8332
B( 19-C , 26-H ) :   0.9341 B( 19-C , 27-H ) :   0.9376 B( 23-O , 28-H ) :   0.7035

FINAL SINGLE POINT ENERGY      -652.862286768969

DIPOLE MOMENT
-------------
                                X             Y             Z
Electronic contribution:     -3.12660      -5.51147       0.10875
Nuclear contribution   :      4.12886       6.44217      -0.80270
                        -----------------------------------------
Total Dipole Moment    :      1.00226       0.93071      -0.69395
                        -----------------------------------------
Magnitude (a.u.)       :      1.53372
Magnitude (Debye)      :      3.89841

Rotational constants in cm-1:     0.050752     0.016468     0.015568
Rotational constants in MHz :  1521.512773   493.700209   466.703893

                             ****ORCA TERMINATED NORMALLY****
TOTAL RUN TIME: 0 days 0 hours 40 minutes 53 seconds 353 msec
