                         Program Version 4.2.0 -  RELEASE  -
|  1> # Test redundant internal optimization
|  2> #
|  3> ! RKS B3LYP  Opt TightSCF SmallPrint
|  4>
|  5> %basis
|  6>         Basis "6-31G"
|  7> end
|  8>
|  9> %geom
| 10> Constraints
| 11> { D 4  0  15  12  270.0   C } # D for Dihedral angle
| 12> { D 0  15  12  16  255.0   C } # D for Dihedral angle
| 13> { D 0  4  3  2   C } # D for Dihedral angle
| 14> { D 4  3  2  1   C } # D for Dihedral angle
| 15> { D 3  2  1  0   C } # D for Dihedral angle
| 16> { D 2  1  0  4   C } # D for Dihedral angle
| 17> { D 1  0  4  3   C } # D for Dihedral angle
| 18> { D 16  20  19  18   C } # D for Dihedral angle
| 19> { D 20  19  18  17   C } # D for Dihedral angle
| 20> { D 19  18  17  16   C } # D for Dihedral angle
| 21> { D 18  17  16  20   C } # D for Dihedral angle
| 22> { D 17  16  20  19   C } # D for Dihedral angle
| 23> { D 15  12  16  20   C } # D for Dihedral angle
| 24> end
| 25> end
| 26>
| 27>
| 28> #%pal
| 29> #nprocs 8
| 30> #end
| 31>
| 32> * xyz 0 1
| 33> C  -21.048   26.222   46.251
| 34> C  -20.361   27.558   45.944
| 35> C  -20.329   28.222   47.341
| 36> C  -20.110   27.022   48.296
| 37> O  -20.473   25.807   47.535
| 38> H  -20.833   25.428   45.533
| 39> H  -19.344   27.382   45.576
| 40> H  -20.898   28.157   45.201
| 41> H  -19.543   28.978   47.434
| 42> H  -21.289   28.710   47.548
| 43> H  -20.733   27.082   49.195
| 44> H  -19.064   26.913   48.597
| 45> C  -23.420   25.119   46.072
| 46> H  -22.760   24.242   46.089
| 47> H  -24.197   24.978   46.835
| 48> O  -22.586   26.394   46.375
| 49> C  -24.122   25.175   44.687
| 50> C  -25.026   23.956   44.472
| 51> C  -26.277   24.344   45.294
| 52> C  -26.367   25.878   45.094
| 53> O  -25.037   26.319   44.623
| 54> H  -23.369   25.323   43.910
| 55> O  -25.381   23.815   42.966
| 56> H  -24.570   23.018   44.808
| 57> H  -27.182   23.826   44.960
| 58> H  -26.123   24.101   46.352
| 59> H  -26.613   26.408   46.022
| 60> H  -27.092   26.157   44.324
| 61> H  -25.839   24.744   42.607
| 62> *
| 63>
| 64>                          ****END OF INPUT****
 Total Charge           Charge          ....    0
 Multiplicity           Mult            ....    1
 Number of Electrons    NEL             ....  102
FINAL SINGLE POINT ENERGY      -652.834403002058
FINAL SINGLE POINT ENERGY      -652.857910552781
FINAL SINGLE POINT ENERGY      -652.862012928248
FINAL SINGLE POINT ENERGY      -652.862746191928
FINAL SINGLE POINT ENERGY      -652.862841365456
FINAL SINGLE POINT ENERGY      -652.862852007915
FINAL SINGLE POINT ENERGY      -652.862853519300
                    ***********************HURRAY********************

CARTESIAN COORDINATES (ANGSTROEM)
---------------------------------
  C    -21.098541   26.139815   46.205070
  C    -20.517204   27.519015   45.892999
  C    -20.481087   28.172238   47.294117
  C    -20.148147   26.984147   48.224253
  O    -20.460463   25.758670   47.446835
  H    -20.868520   25.349284   45.484059
  H    -19.505119   27.402125   45.488316
  H    -21.130237   28.068045   45.175785
  H    -19.742110   28.976297   47.365456
  H    -21.466705   28.583031   47.530879
  H    -20.741531   26.980021   49.142021
  H    -19.085717   26.929293   48.480761
  C    -23.344072   25.114928   46.136079
  H    -22.727635   24.205529   46.174001
  H    -24.062671   25.073834   46.961538
  O    -22.525030   26.295612   46.361835
  C    -24.065914   25.200737   44.790535
  C    -24.992190   24.008763   44.506643
  C    -26.272512   24.410841   45.285238
  C    -26.313255   25.950109   45.117664
  O    -24.948561   26.367345   44.714496
  H    -23.326972   25.321824   43.991537
  O    -25.246033   23.878816   43.080600
  H    -24.584461   23.044809   44.814563
  H    -27.149288   23.910689   44.866864
  H    -26.182797   24.124963   46.339015
  H    -26.585771   26.470328   46.040680
  H    -26.996340   26.268134   44.323515
  H    -25.417117   24.768759   42.705644

 Multiplicity           Mult            ....    1
 Number of Electrons    NEL             ....  102
 Basis Dimension        Dim             ....  149

ORBITAL ENERGIES
----------------

  NO   OCC          E(Eh)            E(eV)
   0   2.0000     -19.141739      -520.8732
   1   2.0000     -19.140986      -520.8527
   2   2.0000     -19.140728      -520.8457
   3   2.0000     -19.134735      -520.6826
   4   2.0000     -10.276502      -279.6378
   5   2.0000     -10.245009      -278.7809
   6   2.0000     -10.235029      -278.5093
   7   2.0000     -10.232844      -278.4498
   8   2.0000     -10.231302      -278.4079
   9   2.0000     -10.220886      -278.1244
  10   2.0000     -10.191410      -277.3224
  11   2.0000     -10.180546      -277.0268
  12   2.0000     -10.180413      -277.0231
  13   2.0000      -1.051072       -28.6011
  14   2.0000      -1.037118       -28.2214
  15   2.0000      -1.007613       -27.4186
  16   2.0000      -0.990994       -26.9663
  17   2.0000      -0.788813       -21.4647
  18   2.0000      -0.780630       -21.2420
  19   2.0000      -0.766537       -20.8585
  20   2.0000      -0.729426       -19.8487
  21   2.0000      -0.673830       -18.3358
  22   2.0000      -0.606478       -16.5031
  23   2.0000      -0.599569       -16.3151
  24   2.0000      -0.592844       -16.1321
  25   2.0000      -0.577892       -15.7252
  26   2.0000      -0.528197       -14.3730
  27   2.0000      -0.511318       -13.9137
  28   2.0000      -0.493310       -13.4236
  29   2.0000      -0.489657       -13.3242
  30   2.0000      -0.472286       -12.8515
  31   2.0000      -0.455716       -12.4007
  32   2.0000      -0.451169       -12.2769
  33   2.0000      -0.440666       -11.9911
  34   2.0000      -0.424875       -11.5614
  35   2.0000      -0.411814       -11.2060
  36   2.0000      -0.397939       -10.8285
  37   2.0000      -0.394642       -10.7388
  38   2.0000      -0.374111       -10.1801
  39   2.0000      -0.367643       -10.0041
  40   2.0000      -0.358023        -9.7423
  41   2.0000      -0.352091        -9.5809
  42   2.0000      -0.345684        -9.4065
  43   2.0000      -0.333386        -9.0719
  44   2.0000      -0.321721        -8.7545
  45   2.0000      -0.309245        -8.4150
  46   2.0000      -0.298007        -8.1092
  47   2.0000      -0.272941        -7.4271
  48   2.0000      -0.271399        -7.3851
  49   2.0000      -0.251531        -6.8445
  50   2.0000      -0.237320        -6.4578
  51   0.0000       0.064844         1.7645
  52   0.0000       0.084498         2.2993
  53   0.0000       0.088795         2.4162
  54   0.0000       0.099603         2.7103
  55   0.0000       0.101275         2.7558

MULLIKEN ATOMIC CHARGES
-----------------------
   0 C :    0.277003
   1 C :   -0.256207
   2 C :   -0.299881
   3 C :   -0.001048
   4 O :   -0.510279
   5 H :    0.136973
   6 H :    0.142228
   7 H :    0.160753
   8 H :    0.139269
   9 H :    0.166475
  10 H :    0.146541
  11 H :    0.140201
  12 C :   -0.014303
  13 H :    0.138046
  14 H :    0.148876
  15 O :   -0.501334
  16 C :    0.070071
  17 C :    0.076756
  18 C :   -0.293849
  19 C :   -0.031506
  20 O :   -0.510485
  21 H :    0.157096
  22 O :   -0.601783
  23 H :    0.150293
  24 H :    0.162864
  25 H :    0.144270
  26 H :    0.151448
  27 H :    0.146093
  28 H :    0.365418
Sum of atomic charges:   -0.0000000

LOEWDIN ATOMIC CHARGES
----------------------
   0 C :    0.170725
   1 C :   -0.216159
   2 C :   -0.216047
   3 C :   -0.027223
   4 O :   -0.329884
   5 H :    0.094758
   6 H :    0.112418
   7 H :    0.125787
   8 H :    0.112566
   9 H :    0.121226
  10 H :    0.105270
  11 H :    0.101350
  12 C :   -0.040996
  13 H :    0.104045
  14 H :    0.109685
  15 O :   -0.316018
  16 C :    0.008332
  17 C :    0.034673
  18 C :   -0.240289
  19 C :   -0.038683
  20 O :   -0.322318
  21 H :    0.113693
  22 O :   -0.414353
  23 H :    0.114628
  24 H :    0.127020
  25 H :    0.113112
  26 H :    0.106821
  27 H :    0.102286
  28 H :    0.283574

  Mayer bond orders larger than 0.100000
B(  0-C ,  1-C ) :   0.9478 B(  0-C ,  4-O ) :   0.9137 B(  0-C ,  5-H ) :   0.9185
B(  0-C , 15-O ) :   0.8638 B(  1-C ,  2-C ) :   0.9578 B(  1-C ,  6-H ) :   0.9400
B(  1-C ,  7-H ) :   0.9355 B(  2-C ,  3-C ) :   0.9549 B(  2-C ,  8-H ) :   0.9454
B(  2-C ,  9-H ) :   0.9435 B(  3-C ,  4-O ) :   0.8387 B(  3-C , 10-H ) :   0.9358
B(  3-C , 11-H ) :   0.9403 B( 12-C , 13-H ) :   0.9137 B( 12-C , 14-H ) :   0.9352
B( 12-C , 15-O ) :   0.8504 B( 12-C , 16-C ) :   0.8848 B( 16-C , 17-C ) :   0.8965
B( 16-C , 20-O ) :   0.8651 B( 16-C , 21-H ) :   0.9272 B( 17-C , 18-C ) :   0.9122
B( 17-C , 22-O ) :   0.8918 B( 17-C , 23-H ) :   0.9337 B( 18-C , 19-C ) :   0.9384
B( 18-C , 24-H ) :   0.9374 B( 18-C , 25-H ) :   0.9344 B( 19-C , 20-O ) :   0.8502
B( 19-C , 26-H ) :   0.9338 B( 19-C , 27-H ) :   0.9376 B( 22-O , 28-H ) :   0.7937

FINAL SINGLE POINT ENERGY      -652.862853360690

DIPOLE MOMENT
-------------
                                X             Y             Z
Electronic contribution:     -0.55548      -1.93299      -2.32120
Nuclear contribution   :      0.36938       2.18368       2.60404
                        -----------------------------------------
Total Dipole Moment    :     -0.18610       0.25070       0.28284
                        -----------------------------------------
Magnitude (a.u.)       :      0.42129
Magnitude (Debye)      :      1.07083

Rotational constants in cm-1:     0.066683     0.011113     0.010872
Rotational constants in MHz :  1999.105935   333.173803   325.932001

                             ****ORCA TERMINATED NORMALLY****
TOTAL RUN TIME: 0 days 0 hours 23 minutes 42 seconds 195 msec
