                         Program Version 4.2.0 -  RELEASE  -
|  1> # Test redundant internal optimization
|  2> #
|  3> ! RKS B3LYP  Opt TightSCF SmallPrint
|  4>
|  5> %basis
|  6>         Basis "6-31G"
|  7> end
|  8>
|  9> %geom
| 10> Constraints
| 11> { D 4  0  15  12  15.0   C } # D for Dihedral angle
| 12> { D 0  15  12  16  120.0   C } # D for Dihedral angle
| 13> { D 0  4  3  2   C } # D for Dihedral angle
| 14> { D 4  3  2  1   C } # D for Dihedral angle
| 15> { D 3  2  1  0   C } # D for Dihedral angle
| 16> { D 2  1  0  4   C } # D for Dihedral angle
| 17> { D 1  0  4  3   C } # D for Dihedral angle
| 18> { D 16  20  19  18   C } # D for Dihedral angle
| 19> { D 20  19  18  17   C } # D for Dihedral angle
| 20> { D 19  18  17  16   C } # D for Dihedral angle
| 21> { D 18  17  16  20   C } # D for Dihedral angle
| 22> { D 17  16  20  19   C } # D for Dihedral angle
| 23> { D 15  12  16  20   C } # D for Dihedral angle
| 24> end
| 25> end
| 26>
| 27>
| 28> #%pal
| 29> #nprocs 8
| 30> #end
| 31>
| 32> * xyz 0 1
| 33> C  -21.048   26.222   46.251
| 34> C  -20.361   27.558   45.944
| 35> C  -20.329   28.222   47.341
| 36> C  -20.110   27.022   48.296
| 37> O  -20.473   25.807   47.535
| 38> H  -20.833   25.428   45.533
| 39> H  -19.344   27.382   45.576
| 40> H  -20.898   28.157   45.201
| 41> H  -19.543   28.978   47.434
| 42> H  -21.289   28.710   47.548
| 43> H  -20.733   27.082   49.195
| 44> H  -19.064   26.913   48.597
| 45> C  -23.128   26.462   47.829
| 46> H  -23.829   25.634   47.994
| 47> H  -22.306   26.364   48.550
| 48> O  -22.586   26.394   46.375
| 49> C  -23.867   27.795   48.133
| 50> C  -24.285   27.876   49.605
| 51> C  -22.956   28.279   50.287
| 52> C  -22.290   29.206   49.240
| 53> O  -22.962   28.935   47.951
| 54> H  -24.686   27.920   47.422
| 55> H  -25.041   28.658   49.739
| 56> O  -24.862   26.541   50.150
| 57> H  -23.107   28.777   51.250
| 58> H  -22.339   27.389   50.463
| 59> H  -21.217   29.014   49.132
| 60> H  -22.440   30.266   49.466
| 61> H  -24.122   25.742   50.027
| 62> *
| 63>
| 64>                          ****END OF INPUT****
 Total Charge           Charge          ....    0
 Multiplicity           Mult            ....    1
 Number of Electrons    NEL             ....  102
FINAL SINGLE POINT ENERGY      -652.797936838704
FINAL SINGLE POINT ENERGY      -652.827497541237
FINAL SINGLE POINT ENERGY      -652.847850690506
FINAL SINGLE POINT ENERGY      -652.852194157164
FINAL SINGLE POINT ENERGY      -652.852745629383
FINAL SINGLE POINT ENERGY      -652.852873000270
FINAL SINGLE POINT ENERGY      -652.852890177739
FINAL SINGLE POINT ENERGY      -652.852892574338
                    ***********************HURRAY********************

CARTESIAN COORDINATES (ANGSTROEM)
---------------------------------
  C    -21.087877   26.260869   46.284591
  C    -20.365152   27.530766   45.830177
  C    -19.973842   28.173749   47.182400
  C    -19.665661   26.952616   48.076559
  O    -20.304240   25.786014   47.401757
  H    -21.052437   25.464112   45.536779
  H    -19.482887   27.241779   45.247489
  H    -21.006362   28.173418   45.223304
  H    -19.114167   28.845958   47.096978
  H    -20.831448   28.735757   47.553973
  H    -20.072195   27.038877   49.089828
  H    -18.597212   26.725829   48.140380
  C    -23.076551   26.441987   47.878621
  H    -23.820026   25.636996   47.924189
  H    -22.293214   26.220653   48.614358
  O    -22.509431   26.422017   46.544928
  C    -23.804693   27.753982   48.182964
  C    -24.448268   27.818535   49.580487
  C    -23.267662   28.348300   50.450323
  C    -22.537386   29.310469   49.492289
  O    -22.984551   28.963278   48.112089
  H    -24.556063   27.888620   47.397879
  H    -25.265476   28.542853   49.568090
  O    -25.056380   26.594416   50.052175
  H    -23.614398   28.837785   51.363971
  H    -22.624379   27.506554   50.740841
  H    -21.447183   29.226614   49.549263
  H    -22.817405   30.354504   49.658610
  H    -24.371457   25.935695   50.288709

 Multiplicity           Mult            ....    1
 Number of Electrons    NEL             ....  102
 Basis Dimension        Dim             ....  149

ORBITAL ENERGIES
----------------

  NO   OCC          E(Eh)            E(eV)
   0   2.0000     -19.153009      -521.1799
   1   2.0000     -19.148906      -521.0682
   2   2.0000     -19.147724      -521.0361
   3   2.0000     -19.133136      -520.6391
   4   2.0000     -10.274967      -279.5961
   5   2.0000     -10.249666      -278.9076
   6   2.0000     -10.238604      -278.6066
   7   2.0000     -10.232053      -278.4283
   8   2.0000     -10.230064      -278.3742
   9   2.0000     -10.229231      -278.3515
  10   2.0000     -10.200881      -277.5801
  11   2.0000     -10.178283      -276.9652
  12   2.0000     -10.178165      -276.9620
  13   2.0000      -1.049888       -28.5689
  14   2.0000      -1.037921       -28.2433
  15   2.0000      -1.021426       -27.7944
  16   2.0000      -0.989400       -26.9229
  17   2.0000      -0.789001       -21.4698
  18   2.0000      -0.783387       -21.3170
  19   2.0000      -0.770148       -20.9568
  20   2.0000      -0.734395       -19.9839
  21   2.0000      -0.681400       -18.5418
  22   2.0000      -0.617300       -16.7976
  23   2.0000      -0.601326       -16.3629
  24   2.0000      -0.592617       -16.1259
  25   2.0000      -0.569873       -15.5070
  26   2.0000      -0.528787       -14.3890
  27   2.0000      -0.515739       -14.0340
  28   2.0000      -0.498962       -13.5774
  29   2.0000      -0.489361       -13.3162
  30   2.0000      -0.471648       -12.8342
  31   2.0000      -0.462459       -12.5841
  32   2.0000      -0.445111       -12.1121
  33   2.0000      -0.438680       -11.9371
  34   2.0000      -0.432308       -11.7637
  35   2.0000      -0.416447       -11.3321
  36   2.0000      -0.408360       -11.1120
  37   2.0000      -0.395273       -10.7559
  38   2.0000      -0.385774       -10.4974
  39   2.0000      -0.367194        -9.9918
  40   2.0000      -0.359948        -9.7947
  41   2.0000      -0.353507        -9.6194
  42   2.0000      -0.342823        -9.3287
  43   2.0000      -0.335771        -9.1368
  44   2.0000      -0.326281        -8.8786
  45   2.0000      -0.316665        -8.6169
  46   2.0000      -0.301175        -8.1954
  47   2.0000      -0.275154        -7.4873
  48   2.0000      -0.266039        -7.2393
  49   2.0000      -0.259195        -7.0530
  50   2.0000      -0.234212        -6.3732
  51   0.0000       0.046346         1.2611
  52   0.0000       0.056888         1.5480
  53   0.0000       0.086248         2.3469
  54   0.0000       0.090947         2.4748
  55   0.0000       0.098322         2.6755

MULLIKEN ATOMIC CHARGES
-----------------------
   0 C :    0.307762
   1 C :   -0.257538
   2 C :   -0.339060
   3 C :   -0.023835
   4 O :   -0.514476
   5 H :    0.157830
   6 H :    0.141518
   7 H :    0.163434
   8 H :    0.137736
   9 H :    0.204112
  10 H :    0.130226
  11 H :    0.149895
  12 C :   -0.025413
  13 H :    0.150694
  14 H :    0.135387
  15 O :   -0.534919
  16 C :    0.100501
  17 C :    0.078035
  18 C :   -0.316767
  19 C :   -0.024803
  20 O :   -0.510166
  21 H :    0.167707
  22 H :    0.172288
  23 O :   -0.596689
  24 H :    0.159305
  25 H :    0.133625
  26 H :    0.138940
  27 H :    0.156280
  28 H :    0.358391
Sum of atomic charges:    0.0000000

LOEWDIN ATOMIC CHARGES
----------------------
   0 C :    0.187099
   1 C :   -0.220747
   2 C :   -0.235184
   3 C :   -0.034191
   4 O :   -0.321478
   5 H :    0.104992
   6 H :    0.112430
   7 H :    0.127929
   8 H :    0.113234
   9 H :    0.133917
  10 H :    0.092383
  11 H :    0.105396
  12 C :   -0.047546
  13 H :    0.110506
  14 H :    0.098087
  15 O :   -0.333293
  16 C :    0.011883
  17 C :    0.035017
  18 C :   -0.240017
  19 C :   -0.035824
  20 O :   -0.317295
  21 H :    0.119806
  22 H :    0.121107
  23 O :   -0.403724
  24 H :    0.124209
  25 H :    0.104297
  26 H :    0.098454
  27 H :    0.108969
  28 H :    0.279585

  Mayer bond orders larger than 0.100000
B(  0-C ,  1-C ) :   0.9212 B(  0-C ,  4-O ) :   0.9082 B(  0-C ,  5-H ) :   0.9337
B(  0-C , 15-O ) :   0.8573 B(  1-C ,  2-C ) :   0.9560 B(  1-C ,  6-H ) :   0.9356
B(  1-C ,  7-H ) :   0.9351 B(  2-C ,  3-C ) :   0.9536 B(  2-C ,  8-H ) :   0.9447
B(  2-C ,  9-H ) :   0.9005 B(  3-C ,  4-O ) :   0.8310 B(  3-C , 10-H ) :   0.9311
B(  3-C , 11-H ) :   0.9401 B( 12-C , 13-H ) :   0.9143 B( 12-C , 14-H ) :   0.9137
B( 12-C , 15-O ) :   0.8526 B( 12-C , 16-C ) :   0.8952 B( 16-C , 17-C ) :   0.8681
B( 16-C , 20-O ) :   0.8530 B( 16-C , 21-H ) :   0.9290 B( 17-C , 18-C ) :   0.9236
B( 17-C , 22-H ) :   0.9318 B( 17-C , 23-O ) :   0.9023 B( 18-C , 19-C ) :   0.9423
B( 18-C , 24-H ) :   0.9415 B( 18-C , 25-H ) :   0.9403 B( 19-C , 20-O ) :   0.8419
B( 19-C , 26-H ) :   0.9225 B( 19-C , 27-H ) :   0.9379 B( 23-O , 28-H ) :   0.7967

FINAL SINGLE POINT ENERGY      -652.852891826310

DIPOLE MOMENT
-------------
                                X             Y             Z
Electronic contribution:     -3.90724      -3.21078      -2.27822
Nuclear contribution   :      4.71913       3.81688       3.22062
                        -----------------------------------------
Total Dipole Moment    :      0.81189       0.60610       0.94240
                        -----------------------------------------
Magnitude (a.u.)       :      1.38371
Magnitude (Debye)      :      3.51710

Rotational constants in cm-1:     0.045249     0.017700     0.015811
Rotational constants in MHz :  1356.545349   530.624407   474.016064

                             ****ORCA TERMINATED NORMALLY****
TOTAL RUN TIME: 0 days 1 hours 0 minutes 20 seconds 224 msec
