                         Program Version 4.2.0 -  RELEASE  -
|  1> # Test redundant internal optimization
|  2> #
|  3> ! RKS B3LYP  Opt TightSCF SmallPrint
|  4>
|  5> %basis
|  6>         Basis "6-31G"
|  7> end
|  8>
|  9> %geom
| 10> Constraints
| 11> { D 4  0  15  12  120.0   C } # D for Dihedral angle
| 12> { D 0  15  12  16  180.0   C } # D for Dihedral angle
| 13> { D 0  4  3  2   C } # D for Dihedral angle
| 14> { D 4  3  2  1   C } # D for Dihedral angle
| 15> { D 3  2  1  0   C } # D for Dihedral angle
| 16> { D 2  1  0  4   C } # D for Dihedral angle
| 17> { D 1  0  4  3   C } # D for Dihedral angle
| 18> { D 16  20  19  18   C } # D for Dihedral angle
| 19> { D 20  19  18  17   C } # D for Dihedral angle
| 20> { D 19  18  17  16   C } # D for Dihedral angle
| 21> { D 18  17  16  20   C } # D for Dihedral angle
| 22> { D 17  16  20  19   C } # D for Dihedral angle
| 23> { D 15  12  16  20   C } # D for Dihedral angle
| 24> end
| 25> end
| 26>
| 27>
| 28> #%pal
| 29> #nprocs 8
| 30> #end
| 31>
| 32> * xyz 0 1
| 33> C  -21.048   26.222   46.251
| 34> C  -20.361   27.558   45.944
| 35> C  -20.329   28.222   47.341
| 36> C  -20.110   27.022   48.296
| 37> O  -20.473   25.807   47.535
| 38> H  -20.833   25.428   45.533
| 39> H  -19.344   27.382   45.576
| 40> H  -20.898   28.157   45.201
| 41> H  -19.543   28.978   47.434
| 42> H  -21.289   28.710   47.548
| 43> H  -20.733   27.082   49.195
| 44> H  -19.064   26.913   48.597
| 45> C  -23.119   27.818   46.058
| 46> H  -22.658   28.538   46.745
| 47> H  -22.856   28.107   45.032
| 48> O  -22.586   26.394   46.375
| 49> C  -24.663   27.927   46.199
| 50> C  -25.376   26.884   45.331
| 51> C  -25.233   25.607   46.194
| 52> C  -25.337   26.148   47.642
| 53> O  -25.076   27.602   47.568
| 54> H  -24.967   28.957   46.009
| 55> H  -26.431   27.153   45.212
| 56> O  -24.747   26.730   43.920
| 57> H  -25.998   24.857   45.973
| 58> H  -24.253   25.146   46.024
| 59> H  -24.608   25.686   48.316
| 60> H  -26.339   26.022   48.064
| 61> H  -23.689   26.460   44.016
| 62> *
| 63>
| 64>                          ****END OF INPUT****
 Total Charge           Charge          ....    0
 Multiplicity           Mult            ....    1
 Number of Electrons    NEL             ....  102
FINAL SINGLE POINT ENERGY      -652.819901698381
FINAL SINGLE POINT ENERGY      -652.844899217209
FINAL SINGLE POINT ENERGY      -652.852719826005
FINAL SINGLE POINT ENERGY      -652.854977958033
FINAL SINGLE POINT ENERGY      -652.855318053902
FINAL SINGLE POINT ENERGY      -652.855374613638
FINAL SINGLE POINT ENERGY      -652.855376530355
                    ***********************HURRAY********************

CARTESIAN COORDINATES (ANGSTROEM)
---------------------------------
  C    -21.142557   26.370482   46.322081
  C    -20.234758   27.549938   45.958320
  C    -20.077456   28.273541   47.325041
  C    -20.068063   27.095565   48.328068
  O    -20.647340   25.938488   47.602567
  H    -21.035634   25.505218   45.664522
  H    -19.272461   27.150012   45.622789
  H    -20.629896   28.193825   45.168203
  H    -19.157436   28.863871   47.374846
  H    -20.916912   28.947779   47.513861
  H    -20.666380   27.287698   49.222364
  H    -19.056679   26.804751   48.625325
  C    -23.161263   27.924567   46.083632
  H    -22.794573   28.686990   46.779714
  H    -22.930703   28.241249   45.057307
  O    -22.575548   26.624103   46.377648
  C    -24.679472   27.850227   46.233290
  C    -25.389153   26.843177   45.312399
  C    -25.271687   25.519726   46.130070
  C    -25.395543   26.012291   47.587383
  O    -25.117742   27.473206   47.567061
  H    -25.054185   28.867317   46.062307
  H    -26.432357   27.135800   45.176797
  O    -24.839463   26.773792   43.972497
  H    -26.050496   24.800445   45.859968
  H    -24.288794   25.077642   45.955421
  H    -24.675963   25.532161   48.254930
  H    -26.406528   25.890420   47.988703
  H    -23.991956   26.282720   44.001887

 Multiplicity           Mult            ....    1
 Number of Electrons    NEL             ....  102
 Basis Dimension        Dim             ....  149

ORBITAL ENERGIES
----------------

  NO   OCC          E(Eh)            E(eV)
   0   2.0000     -19.148789      -521.0651
   1   2.0000     -19.143402      -520.9184
   2   2.0000     -19.138815      -520.7936
   3   2.0000     -19.130088      -520.5562
   4   2.0000     -10.286719      -279.9158
   5   2.0000     -10.234243      -278.4879
   6   2.0000     -10.233999      -278.4813
   7   2.0000     -10.230229      -278.3787
   8   2.0000     -10.229472      -278.3581
   9   2.0000     -10.216245      -277.9982
  10   2.0000     -10.199654      -277.5467
  11   2.0000     -10.197133      -277.4781
  12   2.0000     -10.174886      -276.8727
  13   2.0000      -1.055661       -28.7260
  14   2.0000      -1.025177       -27.8965
  15   2.0000      -1.007626       -27.4189
  16   2.0000      -0.996955       -27.1285
  17   2.0000      -0.794662       -21.6239
  18   2.0000      -0.774785       -21.0830
  19   2.0000      -0.763535       -20.7768
  20   2.0000      -0.735416       -20.0117
  21   2.0000      -0.681030       -18.5318
  22   2.0000      -0.610092       -16.6014
  23   2.0000      -0.600445       -16.3389
  24   2.0000      -0.598148       -16.2764
  25   2.0000      -0.561799       -15.2873
  26   2.0000      -0.528517       -14.3817
  27   2.0000      -0.509641       -13.8680
  28   2.0000      -0.505593       -13.7579
  29   2.0000      -0.487222       -13.2580
  30   2.0000      -0.472104       -12.8466
  31   2.0000      -0.458203       -12.4683
  32   2.0000      -0.445776       -12.1302
  33   2.0000      -0.428081       -11.6487
  34   2.0000      -0.422366       -11.4932
  35   2.0000      -0.417869       -11.3708
  36   2.0000      -0.404010       -10.9937
  37   2.0000      -0.398609       -10.8467
  38   2.0000      -0.389039       -10.5863
  39   2.0000      -0.368184       -10.0188
  40   2.0000      -0.364819        -9.9272
  41   2.0000      -0.357984        -9.7412
  42   2.0000      -0.347625        -9.4593
  43   2.0000      -0.324288        -8.8243
  44   2.0000      -0.315623        -8.5885
  45   2.0000      -0.306361        -8.3365
  46   2.0000      -0.297629        -8.0989
  47   2.0000      -0.273935        -7.4542
  48   2.0000      -0.259701        -7.0668
  49   2.0000      -0.257256        -7.0003
  50   2.0000      -0.235906        -6.4193
  51   0.0000       0.060092         1.6352
  52   0.0000       0.082998         2.2585
  53   0.0000       0.088692         2.4134
  54   0.0000       0.094836         2.5806
  55   0.0000       0.102426         2.7872

MULLIKEN ATOMIC CHARGES
-----------------------
   0 C :    0.318728
   1 C :   -0.298361
   2 C :   -0.310942
   3 C :   -0.004962
   4 O :   -0.495349
   5 H :    0.152928
   6 H :    0.158129
   7 H :    0.147398
   8 H :    0.148018
   9 H :    0.157655
  10 H :    0.155987
  11 H :    0.146001
  12 C :   -0.014871
  13 H :    0.145957
  14 H :    0.132175
  15 O :   -0.543094
  16 C :    0.095583
  17 C :    0.082828
  18 C :   -0.310256
  19 C :   -0.002408
  20 O :   -0.523154
  21 H :    0.145034
  22 H :    0.159942
  23 O :   -0.607682
  24 H :    0.142220
  25 H :    0.167641
  26 H :    0.159146
  27 H :    0.136237
  28 H :    0.359474
Sum of atomic charges:    0.0000000

LOEWDIN ATOMIC CHARGES
----------------------
   0 C :    0.179498
   1 C :   -0.230940
   2 C :   -0.220014
   3 C :   -0.029171
   4 O :   -0.312124
   5 H :    0.103527
   6 H :    0.123922
   7 H :    0.116313
   8 H :    0.117371
   9 H :    0.112450
  10 H :    0.109772
  11 H :    0.104654
  12 C :   -0.046606
  13 H :    0.101768
  14 H :    0.095939
  15 O :   -0.337507
  16 C :    0.021348
  17 C :    0.037171
  18 C :   -0.241919
  19 C :   -0.023429
  20 O :   -0.323269
  21 H :    0.112294
  22 H :    0.115428
  23 O :   -0.413410
  24 H :    0.113708
  25 H :    0.123270
  26 H :    0.111567
  27 H :    0.098832
  28 H :    0.279557

  Mayer bond orders larger than 0.100000
B(  0-C ,  1-C ) :   0.9336 B(  0-C ,  4-O ) :   0.9270 B(  0-C ,  5-H ) :   0.9330
B(  0-C , 15-O ) :   0.8573 B(  1-C ,  2-C ) :   0.9513 B(  1-C ,  6-H ) :   0.9339
B(  1-C ,  7-H ) :   0.9297 B(  2-C ,  3-C ) :   0.9501 B(  2-C ,  8-H ) :   0.9450
B(  2-C ,  9-H ) :   0.9373 B(  3-C ,  4-O ) :   0.8405 B(  3-C , 10-H ) :   0.9335
B(  3-C , 11-H ) :   0.9394 B( 12-C , 13-H ) :   0.9071 B( 12-C , 14-H ) :   0.9011
B( 12-C , 15-O ) :   0.8318 B( 12-C , 16-C ) :   0.9088 B( 16-C , 17-C ) :   0.8852
B( 16-C , 20-O ) :   0.8881 B( 16-C , 21-H ) :   0.9292 B( 17-C , 18-C ) :   0.9372
B( 17-C , 22-H ) :   0.9362 B( 17-C , 23-O ) :   0.8971 B( 18-C , 19-C ) :   0.9454
B( 18-C , 24-H ) :   0.9412 B( 18-C , 25-H ) :   0.9250 B( 19-C , 20-O ) :   0.8324
B( 19-C , 26-H ) :   0.9307 B( 19-C , 27-H ) :   0.9385 B( 23-O , 28-H ) :   0.7949

FINAL SINGLE POINT ENERGY      -652.855375428421

DIPOLE MOMENT
-------------
                                X             Y             Z
Electronic contribution:     -2.90215      -1.74656      -0.38479
Nuclear contribution   :      3.95258       2.17178       0.13974
                        -----------------------------------------
Total Dipole Moment    :      1.05044       0.42522      -0.24505
                        -----------------------------------------
Magnitude (a.u.)       :      1.15943
Magnitude (Debye)      :      2.94703

Rotational constants in cm-1:     0.048776     0.015570     0.014410
Rotational constants in MHz :  1462.254010   466.783844   431.991340

                             ****ORCA TERMINATED NORMALLY****
TOTAL RUN TIME: 0 days 0 hours 25 minutes 40 seconds 871 msec
