                         Program Version 4.2.1 -  RELEASE  -
|  1> # Test redundant internal optimization
|  2> #
|  3> ! RKS B3LYP  Opt TightSCF SmallPrint
|  4>
|  5> %basis
|  6>         Basis "6-31G"
|  7> end
|  8>
|  9> %geom
| 10> Constraints
| 11> { D 4  0  19  14  315.0   C } # D for Dihedral angle
| 12> { D 0  19  14  12  75.0   C } # D for Dihedral angle
| 13> { D 0  4  3  2   C } # D for Dihedral angle
| 14> { D 4  3  2  1   C } # D for Dihedral angle
| 15> { D 3  2  1  0   C } # D for Dihedral angle
| 16> { D 2  1  0  4   C } # D for Dihedral angle
| 17> { D 1  0  4  3   C } # D for Dihedral angle
| 18> { D 14  15  16  17   C } # D for Dihedral angle
| 19> { D 15  16  17  12   C } # D for Dihedral angle
| 20> { D 16  17  12  14   C } # D for Dihedral angle
| 21> { D 17  12  14  15   C } # D for Dihedral angle
| 22> { D 12  14  15  16   C } # D for Dihedral angle
| 23> end
| 24> end
| 25>
| 26>
| 27> #%pal
| 28> #nprocs 8
| 29> #end
| 30>
| 31> * xyz 0 1
| 32> C  -21.048   26.222   46.251
| 33> C  -20.361   27.558   45.944
| 34> C  -20.329   28.222   47.341
| 35> C  -20.110   27.022   48.296
| 36> O  -20.473   25.807   47.535
| 37> H  -20.833   25.428   45.533
| 38> H  -19.344   27.382   45.576
| 39> H  -20.898   28.157   45.201
| 40> H  -19.543   28.978   47.434
| 41> H  -21.289   28.710   47.548
| 42> H  -20.733   27.082   49.195
| 43> H  -19.064   26.913   48.597
| 44> C  -22.872   25.445   48.577
| 45> H  -23.109   24.509   49.106
| 46> C  -23.132   25.318   47.072
| 47> C  -24.667   25.486   47.003
| 48> C  -24.960   26.513   48.125
| 49> O  -23.774   26.519   49.009
| 50> H  -21.859   25.756   48.837
| 51> O  -22.472   26.381   46.366
| 52> H  -22.790   24.363   46.656
| 53> H  -25.014   25.829   46.023
| 54> H  -25.162   24.530   47.216
| 55> H  -25.845   26.252   48.714
| 56> H  -25.079   27.531   47.739
| 57> *
| 58>
| 59>                          ****END OF INPUT****
 Total Charge           Charge          ....    0
 Multiplicity           Mult            ....    1
 Number of Electrons    NEL             ....   86
FINAL SINGLE POINT ENERGY      -538.424585067962
FINAL SINGLE POINT ENERGY      -538.434817777661
FINAL SINGLE POINT ENERGY      -538.436904916736
FINAL SINGLE POINT ENERGY      -538.437429412451
FINAL SINGLE POINT ENERGY      -538.437467779536
FINAL SINGLE POINT ENERGY      -538.437482171573
                    ***********************HURRAY********************

CARTESIAN COORDINATES (ANGSTROEM)
---------------------------------
  C    -20.974329   26.185507   46.293579
  C    -20.468999   27.584879   45.940784
  C    -20.395151   28.251015   47.332543
  C    -19.967676   27.094766   48.261258
  O    -20.263720   25.840141   47.507541
  H    -20.720062   25.393414   45.579632
  H    -19.476310   27.504272   45.483434
  H    -21.140994   28.100099   45.251393
  H    -19.691263   29.088367   47.362642
  H    -21.385895   28.616764   47.616239
  H    -20.521117   27.081456   49.203753
  H    -18.893978   27.081052   48.468640
  C    -22.991321   25.296636   48.671915
  H    -23.391993   24.374482   49.121490
  C    -23.134262   25.220027   47.152098
  C    -24.624413   25.557494   46.962650
  C    -24.902116   26.594184   48.076928
  O    -23.801585   26.456311   49.055786
  H    -21.975119   25.456240   49.016514
  O    -22.411822   26.263436   46.425930
  H    -22.858738   24.232258   46.757510
  H    -24.810745   25.946927   45.959688
  H    -25.226146   24.652337   47.104691
  H    -25.857500   26.420042   48.584458
  H    -24.874743   27.620896   47.702904

 Multiplicity           Mult            ....    1
 Number of Electrons    NEL             ....   86
 Basis Dimension        Dim             ....  127

ORBITAL ENERGIES
----------------

  NO   OCC          E(Eh)            E(eV)
   0   2.0000     -19.144567      -520.9501
   1   2.0000     -19.140976      -520.8524
   2   2.0000     -19.125168      -520.4223
   3   2.0000     -10.277951      -279.6773
   4   2.0000     -10.237309      -278.5714
   5   2.0000     -10.224885      -278.2333
   6   2.0000     -10.216755      -278.0120
   7   2.0000     -10.213165      -277.9144
   8   2.0000     -10.183563      -277.1088
   9   2.0000     -10.182400      -277.0772
  10   2.0000     -10.181794      -277.0607
  11   2.0000      -1.052688       -28.6451
  12   2.0000      -1.010149       -27.4876
  13   2.0000      -0.988685       -26.9035
  14   2.0000      -0.792306       -21.5597
  15   2.0000      -0.774688       -21.0803
  16   2.0000      -0.735295       -20.0084
  17   2.0000      -0.718425       -19.5494
  18   2.0000      -0.611833       -16.6488
  19   2.0000      -0.597902       -16.2697
  20   2.0000      -0.590397       -16.0655
  21   2.0000      -0.569061       -15.4849
  22   2.0000      -0.513592       -13.9755
  23   2.0000      -0.502815       -13.6823
  24   2.0000      -0.482458       -13.1283
  25   2.0000      -0.479629       -13.0514
  26   2.0000      -0.450100       -12.2478
  27   2.0000      -0.443356       -12.0643
  28   2.0000      -0.423432       -11.5222
  29   2.0000      -0.409494       -11.1429
  30   2.0000      -0.402708       -10.9583
  31   2.0000      -0.382814       -10.4169
  32   2.0000      -0.366529        -9.9738
  33   2.0000      -0.363111        -9.8808
  34   2.0000      -0.356093        -9.6898
  35   2.0000      -0.352452        -9.5907
  36   2.0000      -0.340195        -9.2572
  37   2.0000      -0.326712        -8.8903
  38   2.0000      -0.303971        -8.2715
  39   2.0000      -0.297318        -8.0904
  40   2.0000      -0.262837        -7.1522
  41   2.0000      -0.254782        -6.9330
  42   2.0000      -0.231596        -6.3021
  43   0.0000       0.082338         2.2405
  44   0.0000       0.094572         2.5734
  45   0.0000       0.102384         2.7860
  46   0.0000       0.113403         3.0859
  47   0.0000       0.126994         3.4557

MULLIKEN ATOMIC CHARGES
-----------------------
   0 C :    0.303256
   1 C :   -0.264530
   2 C :   -0.299387
   3 C :   -0.017684
   4 O :   -0.518538
   5 H :    0.143461
   6 H :    0.143865
   7 H :    0.159700
   8 H :    0.141012
   9 H :    0.172419
  10 H :    0.154178
  11 H :    0.146670
  12 C :   -0.007584
  13 H :    0.117742
  14 C :    0.087153
  15 C :   -0.293038
  16 C :    0.007771
  17 O :   -0.529000
  18 H :    0.180758
  19 O :   -0.533443
  20 H :    0.123620
  21 H :    0.159975
  22 H :    0.141012
  23 H :    0.131478
  24 H :    0.149133
Sum of atomic charges:   -0.0000000

LOEWDIN ATOMIC CHARGES
----------------------
   0 C :    0.177001
   1 C :   -0.214736
   2 C :   -0.216177
   3 C :   -0.031379
   4 O :   -0.330652
   5 H :    0.094527
   6 H :    0.113325
   7 H :    0.125564
   8 H :    0.114134
   9 H :    0.124170
  10 H :    0.107372
  11 H :    0.104630
  12 C :   -0.047742
  13 H :    0.089742
  14 C :    0.044537
  15 C :   -0.223793
  16 C :   -0.026897
  17 O :   -0.336706
  18 H :    0.126126
  19 O :   -0.329642
  20 H :    0.096015
  21 H :    0.126893
  22 H :    0.111694
  23 H :    0.096281
  24 H :    0.105713

  Mayer bond orders larger than 0.100000
B(  0-C ,  1-C ) :   0.9468 B(  0-C ,  4-O ) :   0.8979 B(  0-C ,  5-H ) :   0.9230
B(  0-C , 19-O ) :   0.8559 B(  1-C ,  2-C ) :   0.9567 B(  1-C ,  6-H ) :   0.9391
B(  1-C ,  7-H ) :   0.9360 B(  2-C ,  3-C ) :   0.9571 B(  2-C ,  8-H ) :   0.9446
B(  2-C ,  9-H ) :   0.9408 B(  3-C ,  4-O ) :   0.8278 B(  3-C , 10-H ) :   0.9272
B(  3-C , 11-H ) :   0.9412 B( 12-C , 13-H ) :   0.9123 B( 12-C , 14-C ) :   0.9138
B( 12-C , 17-O ) :   0.8662 B( 12-C , 18-H ) :   0.9141 B( 14-C , 15-C ) :   0.9595
B( 14-C , 19-O ) :   0.8228 B( 14-C , 20-H ) :   0.9225 B( 15-C , 16-C ) :   0.9451
B( 15-C , 21-H ) :   0.9376 B( 15-C , 22-H ) :   0.9426 B( 16-C , 17-O ) :   0.8562
B( 16-C , 23-H ) :   0.9336 B( 16-C , 24-H ) :   0.9377

FINAL SINGLE POINT ENERGY      -538.437482914911

DIPOLE MOMENT
-------------
                                X             Y             Z
Electronic contribution:      0.39029      -1.93498       0.27343
Nuclear contribution   :     -0.32478       1.94042      -0.86231
                        -----------------------------------------
Total Dipole Moment    :      0.06551       0.00544      -0.58888
                        -----------------------------------------
Magnitude (a.u.)       :      0.59254
Magnitude (Debye)      :      1.50611

Rotational constants in cm-1:     0.068502     0.025445     0.023937
Rotational constants in MHz :  2053.652776   762.828487   717.626817

                             ****ORCA TERMINATED NORMALLY****
TOTAL RUN TIME: 0 days 0 hours 7 minutes 34 seconds 85 msec
