                         Program Version 4.2.0 -  RELEASE  -
|  1> # Test redundant internal optimization
|  2> #
|  3> ! RKS B3LYP  Opt TightSCF SmallPrint
|  4>
|  5> %basis
|  6>         Basis "6-31G"
|  7> end
|  8>
|  9> %geom
| 10> Constraints
| 11> { D 4  0  15  12  315.0   C } # D for Dihedral angle
| 12> { D 0  15  12  16  90.0   C } # D for Dihedral angle
| 13> { D 0  4  3  2   C } # D for Dihedral angle
| 14> { D 4  3  2  1   C } # D for Dihedral angle
| 15> { D 3  2  1  0   C } # D for Dihedral angle
| 16> { D 2  1  0  4   C } # D for Dihedral angle
| 17> { D 1  0  4  3   C } # D for Dihedral angle
| 18> { D 16  20  19  18   C } # D for Dihedral angle
| 19> { D 20  19  18  17   C } # D for Dihedral angle
| 20> { D 19  18  17  16   C } # D for Dihedral angle
| 21> { D 18  17  16  20   C } # D for Dihedral angle
| 22> { D 17  16  20  19   C } # D for Dihedral angle
| 23> { D 15  12  16  20   C } # D for Dihedral angle
| 24> end
| 25> end
| 26>
| 27>
| 28> #%pal
| 29> #nprocs 8
| 30> #end
| 31>
| 32> * xyz 0 1
| 33> C  -21.048   26.222   46.251
| 34> C  -20.361   27.558   45.944
| 35> C  -20.329   28.222   47.341
| 36> C  -20.110   27.022   48.296
| 37> O  -20.473   25.807   47.535
| 38> H  -20.833   25.428   45.533
| 39> H  -19.344   27.382   45.576
| 40> H  -20.898   28.157   45.201
| 41> H  -19.543   28.978   47.434
| 42> H  -21.289   28.710   47.548
| 43> H  -20.733   27.082   49.195
| 44> H  -19.064   26.913   48.597
| 45> C  -23.319   25.255   47.135
| 46> H  -24.334   25.146   46.733
| 47> H  -22.792   24.301   46.998
| 48> O  -22.586   26.394   46.375
| 49> C  -23.424   25.522   48.662
| 50> C  -24.047   24.329   49.394
| 51> C  -22.846   23.357   49.490
| 52> C  -21.639   24.309   49.686
| 53> O  -22.087   25.650   49.253
| 54> H  -23.938   26.471   48.825
| 55> H  -24.380   24.631   50.394
| 56> O  -25.258   23.715   48.640
| 57> H  -22.947   22.637   50.309
| 58> H  -22.744   22.791   48.557
| 59> H  -20.770   24.011   49.089
| 60> H  -21.338   24.392   50.734
| 61> H  -24.949   23.403   47.637
| 62> *
| 63>
| 64>                          ****END OF INPUT****
 Total Charge           Charge          ....    0
 Multiplicity           Mult            ....    1
 Number of Electrons    NEL             ....  102
FINAL SINGLE POINT ENERGY      -652.817415530985
FINAL SINGLE POINT ENERGY      -652.839768448113
FINAL SINGLE POINT ENERGY      -652.855545282050
FINAL SINGLE POINT ENERGY      -652.858263441791
FINAL SINGLE POINT ENERGY      -652.858763484175
FINAL SINGLE POINT ENERGY      -652.858847785878
FINAL SINGLE POINT ENERGY      -652.858861105943
                    ***********************HURRAY********************

CARTESIAN COORDINATES (ANGSTROEM)
---------------------------------
  C    -21.007521   26.237090   46.256372
  C    -20.507857   27.637172   45.909219
  C    -20.339749   28.269564   47.308485
  C    -19.870523   27.084035   48.178947
  O    -20.233787   25.858360   47.405729
  H    -20.807412   25.462525   45.506398
  H    -19.543779   27.555777   45.393662
  H    -21.209493   28.178047   45.270712
  H    -19.624591   29.098286   47.311806
  H    -21.305864   28.643919   47.659268
  H    -20.372555   27.026435   49.142738
  H    -18.783555   27.052535   48.304623
  C    -23.181787   25.305524   47.139122
  H    -24.184408   25.324510   46.700371
  H    -22.725133   24.325533   46.921392
  O    -22.450282   26.336331   46.427345
  C    -23.349100   25.487551   48.659492
  C    -24.107209   24.301215   49.277129
  C    -22.954975   23.278382   49.538663
  C    -21.775399   24.199977   49.921250
  O    -22.127632   25.559747   49.438987
  H    -23.863528   26.438686   48.830531
  H    -24.556452   24.611125   50.223134
  O    -25.219058   23.788047   48.502251
  H    -23.213174   22.563181   50.323899
  H    -22.742882   22.715366   48.620432
  H    -20.832601   23.908235   49.452358
  H    -21.638682   24.271010   51.004468
  H    -24.894012   23.276833   47.733218

 Multiplicity           Mult            ....    1
 Number of Electrons    NEL             ....  102
 Basis Dimension        Dim             ....  149

ORBITAL ENERGIES
----------------

  NO   OCC          E(Eh)            E(eV)
   0   2.0000     -19.149279      -521.0784
   1   2.0000     -19.137055      -520.7457
   2   2.0000     -19.136867      -520.7406
   3   2.0000     -19.133855      -520.6587
   4   2.0000     -10.271165      -279.4926
   5   2.0000     -10.244210      -278.7591
   6   2.0000     -10.229134      -278.3489
   7   2.0000     -10.228550      -278.3330
   8   2.0000     -10.226643      -278.2811
   9   2.0000     -10.209472      -277.8139
  10   2.0000     -10.194157      -277.3971
  11   2.0000     -10.176425      -276.9146
  12   2.0000     -10.175370      -276.8859
  13   2.0000      -1.044086       -28.4110
  14   2.0000      -1.032249       -28.0889
  15   2.0000      -1.015179       -27.6244
  16   2.0000      -0.987267       -26.8649
  17   2.0000      -0.783281       -21.3142
  18   2.0000      -0.778109       -21.1734
  19   2.0000      -0.761992       -20.7349
  20   2.0000      -0.725617       -19.7450
  21   2.0000      -0.675164       -18.3722
  22   2.0000      -0.610357       -16.6086
  23   2.0000      -0.590255       -16.0617
  24   2.0000      -0.587620       -15.9900
  25   2.0000      -0.567916       -15.4538
  26   2.0000      -0.524333       -14.2678
  27   2.0000      -0.511582       -13.9208
  28   2.0000      -0.491402       -13.3717
  29   2.0000      -0.479497       -13.0478
  30   2.0000      -0.465225       -12.6594
  31   2.0000      -0.451245       -12.2790
  32   2.0000      -0.442671       -12.0457
  33   2.0000      -0.428711       -11.6658
  34   2.0000      -0.420163       -11.4332
  35   2.0000      -0.414821       -11.2879
  36   2.0000      -0.400088       -10.8870
  37   2.0000      -0.393399       -10.7049
  38   2.0000      -0.379514       -10.3271
  39   2.0000      -0.365544        -9.9470
  40   2.0000      -0.348639        -9.4869
  41   2.0000      -0.346942        -9.4408
  42   2.0000      -0.338464        -9.2101
  43   2.0000      -0.329032        -8.9534
  44   2.0000      -0.321264        -8.7420
  45   2.0000      -0.312367        -8.4999
  46   2.0000      -0.291074        -7.9205
  47   2.0000      -0.271648        -7.3919
  48   2.0000      -0.265419        -7.2224
  49   2.0000      -0.250937        -6.8283
  50   2.0000      -0.228271        -6.2116
  51   0.0000       0.053207         1.4478
  52   0.0000       0.079414         2.1610
  53   0.0000       0.091904         2.5008
  54   0.0000       0.102855         2.7988
  55   0.0000       0.109904         2.9906

MULLIKEN ATOMIC CHARGES
-----------------------
   0 C :    0.305329
   1 C :   -0.266314
   2 C :   -0.302798
   3 C :   -0.011289
   4 O :   -0.512420
   5 H :    0.137547
   6 H :    0.141206
   7 H :    0.156938
   8 H :    0.137087
   9 H :    0.158998
  10 H :    0.178746
  11 H :    0.133281
  12 C :   -0.012801
  13 H :    0.155870
  14 H :    0.110668
  15 O :   -0.533685
  16 C :    0.110583
  17 C :    0.073702
  18 C :   -0.323832
  19 C :   -0.006475
  20 O :   -0.511131
  21 H :    0.154429
  22 H :    0.167212
  23 O :   -0.598573
  24 H :    0.157782
  25 H :    0.136906
  26 H :    0.161428
  27 H :    0.145076
  28 H :    0.356534
Sum of atomic charges:   -0.0000000

LOEWDIN ATOMIC CHARGES
----------------------
   0 C :    0.176863
   1 C :   -0.215678
   2 C :   -0.216304
   3 C :   -0.034528
   4 O :   -0.321374
   5 H :    0.091299
   6 H :    0.111681
   7 H :    0.123618
   8 H :    0.111734
   9 H :    0.117257
  10 H :    0.121028
  11 H :    0.097612
  12 C :   -0.049438
  13 H :    0.116914
  14 H :    0.085694
  15 O :   -0.332611
  16 C :    0.013454
  17 C :    0.033264
  18 C :   -0.241252
  19 C :   -0.028910
  20 O :   -0.308677
  21 H :    0.113773
  22 H :    0.118809
  23 O :   -0.407115
  24 H :    0.122610
  25 H :    0.105684
  26 H :    0.112796
  27 H :    0.103827
  28 H :    0.277968

  Mayer bond orders larger than 0.100000
B(  0-C ,  1-C ) :   0.9457 B(  0-C ,  4-O ) :   0.9278 B(  0-C ,  5-H ) :   0.9249
B(  0-C , 15-O ) :   0.8419 B(  1-C ,  2-C ) :   0.9590 B(  1-C ,  6-H ) :   0.9399
B(  1-C ,  7-H ) :   0.9366 B(  2-C ,  3-C ) :   0.9613 B(  2-C ,  8-H ) :   0.9452
B(  2-C ,  9-H ) :   0.9443 B(  3-C ,  4-O ) :   0.8178 B(  3-C , 10-H ) :   0.9142
B(  3-C , 11-H ) :   0.9411 B( 12-C , 13-H ) :   0.9192 B( 12-C , 14-H ) :   0.9224
B( 12-C , 15-O ) :   0.8565 B( 12-C , 16-C ) :   0.8837 B( 16-C , 17-C ) :   0.8656
B( 16-C , 20-O ) :   0.8683 B( 16-C , 21-H ) :   0.9328 B( 17-C , 18-C ) :   0.9263
B( 17-C , 22-H ) :   0.9335 B( 17-C , 23-O ) :   0.8976 B( 18-C , 19-C ) :   0.9432
B( 18-C , 24-H ) :   0.9414 B( 18-C , 25-H ) :   0.9391 B( 19-C , 20-O ) :   0.8335
B( 19-C , 26-H ) :   0.9248 B( 19-C , 27-H ) :   0.9382 B( 23-O , 28-H ) :   0.7968

FINAL SINGLE POINT ENERGY      -652.858863619350

DIPOLE MOMENT
-------------
                                X             Y             Z
Electronic contribution:     -2.68587      -0.91675      -0.43094
Nuclear contribution   :      3.15944       0.46951       0.44645
                        -----------------------------------------
Total Dipole Moment    :      0.47357      -0.44724       0.01552
                        -----------------------------------------
Magnitude (a.u.)       :      0.65156
Magnitude (Debye)      :      1.65613

Rotational constants in cm-1:     0.052677     0.016873     0.014514
Rotational constants in MHz :  1579.227240   505.849733   435.124901

                             ****ORCA TERMINATED NORMALLY****
TOTAL RUN TIME: 0 days 1 hours 53 minutes 48 seconds 903 msec
