                         Program Version 4.2.0 -  RELEASE  -
|  1> # Test redundant internal optimization
|  2> #
|  3> ! RKS B3LYP  Opt TightSCF SmallPrint
|  4>
|  5> %basis
|  6>         Basis "6-31G"
|  7> end
|  8>
|  9> %geom
| 10> Constraints
| 11> { D 4  0  15  12  165.0   C } # D for Dihedral angle
| 12> { D 0  15  12  16  150.0   C } # D for Dihedral angle
| 13> { D 0  4  3  2   C } # D for Dihedral angle
| 14> { D 4  3  2  1   C } # D for Dihedral angle
| 15> { D 3  2  1  0   C } # D for Dihedral angle
| 16> { D 2  1  0  4   C } # D for Dihedral angle
| 17> { D 1  0  4  3   C } # D for Dihedral angle
| 18> { D 16  20  19  18   C } # D for Dihedral angle
| 19> { D 20  19  18  17   C } # D for Dihedral angle
| 20> { D 19  18  17  16   C } # D for Dihedral angle
| 21> { D 18  17  16  20   C } # D for Dihedral angle
| 22> { D 17  16  20  19   C } # D for Dihedral angle
| 23> { D 15  12  16  20   C } # D for Dihedral angle
| 24> end
| 25> end
| 26>
| 27>
| 28> #%pal
| 29> #nprocs 8
| 30> #end
| 31>
| 32> * xyz 0 1
| 33> C  -21.048   26.222   46.251
| 34> C  -20.361   27.558   45.944
| 35> C  -20.329   28.222   47.341
| 36> C  -20.110   27.022   48.296
| 37> O  -20.473   25.807   47.535
| 38> H  -20.833   25.428   45.533
| 39> H  -19.344   27.382   45.576
| 40> H  -20.898   28.157   45.201
| 41> H  -19.543   28.978   47.434
| 42> H  -21.289   28.710   47.548
| 43> H  -20.733   27.082   49.195
| 44> H  -19.064   26.913   48.597
| 45> C  -23.260   27.170   45.210
| 46> H  -23.268   28.242   45.446
| 47> H  -22.697   27.029   44.278
| 48> O  -22.586   26.394   46.375
| 49> C  -24.723   26.715   44.953
| 50> C  -24.801   25.204   44.704
| 51> C  -24.718   24.645   46.144
| 52> C  -25.483   25.703   46.977
| 53> O  -25.544   26.927   46.149
| 54> H  -25.153   27.327   44.158
| 55> H  -25.762   24.949   44.245
| 56> O  -23.664   24.677   43.787
| 57> H  -25.154   23.645   46.237
| 58> H  -23.671   24.585   46.465
| 59> H  -24.983   25.934   47.924
| 60> H  -26.515   25.404   47.186
| 61> H  -22.692   24.923   44.227
| 62> *
| 63>
| 64>                          ****END OF INPUT****
 Total Charge           Charge          ....    0
 Multiplicity           Mult            ....    1
 Number of Electrons    NEL             ....  102
FINAL SINGLE POINT ENERGY      -652.827812859303
FINAL SINGLE POINT ENERGY      -652.850916058102
FINAL SINGLE POINT ENERGY      -652.855606166041
FINAL SINGLE POINT ENERGY      -652.857549440550
FINAL SINGLE POINT ENERGY      -652.857806464767
FINAL SINGLE POINT ENERGY      -652.857865687304
FINAL SINGLE POINT ENERGY      -652.857870202208
                    ***********************HURRAY********************

CARTESIAN COORDINATES (ANGSTROEM)
---------------------------------
  C    -21.054493   26.291666   46.199962
  C    -20.299651   27.591485   45.926874
  C    -20.325758   28.277967   47.316137
  C    -20.215053   27.084939   48.286915
  O    -20.586639   25.884646   47.490769
  H    -20.842540   25.476604   45.499164
  H    -19.272407   27.345428   45.634015
  H    -20.737955   28.205515   45.136694
  H    -19.509702   28.995823   47.441102
  H    -21.274025   28.806134   47.456339
  H    -20.892871   27.157670   49.140411
  H    -19.194853   26.916849   48.643079
  C    -23.170562   27.208679   45.239159
  H    -23.181263   28.278809   45.477992
  H    -22.650315   27.064701   44.280957
  O    -22.500886   26.478264   46.311878
  C    -24.608222   26.725815   45.066616
  C    -24.776581   25.237348   44.713054
  C    -24.745668   24.566671   46.121344
  C    -25.453803   25.613532   47.008022
  O    -25.425030   26.896329   46.258626
  H    -25.058752   27.363630   44.295461
  H    -25.741375   25.085595   44.223034
  O    -23.792496   24.729438   43.776838
  H    -25.253155   23.597481   46.125640
  H    -23.707928   24.438610   46.437386
  H    -24.948427   25.758751   47.966134
  H    -26.506941   25.374062   47.183182
  H    -22.971650   24.501558   44.259216

 Multiplicity           Mult            ....    1
 Number of Electrons    NEL             ....  102
 Basis Dimension        Dim             ....  149

ORBITAL ENERGIES
----------------

  NO   OCC          E(Eh)            E(eV)
   0   2.0000     -19.147151      -521.0205
   1   2.0000     -19.146741      -521.0093
   2   2.0000     -19.141774      -520.8742
   3   2.0000     -19.130376      -520.5640
   4   2.0000     -10.288744      -279.9710
   5   2.0000     -10.236023      -278.5364
   6   2.0000     -10.231917      -278.4246
   7   2.0000     -10.230651      -278.3902
   8   2.0000     -10.229056      -278.3468
   9   2.0000     -10.217420      -278.0301
  10   2.0000     -10.195065      -277.4218
  11   2.0000     -10.193343      -277.3750
  12   2.0000     -10.177016      -276.9307
  13   2.0000      -1.059746       -28.8372
  14   2.0000      -1.026606       -27.9354
  15   2.0000      -1.009103       -27.4591
  16   2.0000      -0.996480       -27.1156
  17   2.0000      -0.793151       -21.5827
  18   2.0000      -0.772491       -21.0205
  19   2.0000      -0.764098       -20.7922
  20   2.0000      -0.735991       -20.0273
  21   2.0000      -0.679323       -18.4853
  22   2.0000      -0.608209       -16.5502
  23   2.0000      -0.600193       -16.3321
  24   2.0000      -0.599148       -16.3037
  25   2.0000      -0.563210       -15.3257
  26   2.0000      -0.529970       -14.4212
  27   2.0000      -0.506521       -13.7831
  28   2.0000      -0.505468       -13.7545
  29   2.0000      -0.490603       -13.3500
  30   2.0000      -0.473050       -12.8724
  31   2.0000      -0.458608       -12.4793
  32   2.0000      -0.446387       -12.1468
  33   2.0000      -0.424533       -11.5521
  34   2.0000      -0.424077       -11.5397
  35   2.0000      -0.416867       -11.3435
  36   2.0000      -0.404966       -11.0197
  37   2.0000      -0.399217       -10.8632
  38   2.0000      -0.385057       -10.4779
  39   2.0000      -0.366084        -9.9616
  40   2.0000      -0.363697        -9.8967
  41   2.0000      -0.358548        -9.7566
  42   2.0000      -0.349861        -9.5202
  43   2.0000      -0.325089        -8.8461
  44   2.0000      -0.315143        -8.5755
  45   2.0000      -0.309240        -8.4149
  46   2.0000      -0.305752        -8.3199
  47   2.0000      -0.267990        -7.2924
  48   2.0000      -0.261765        -7.1230
  49   2.0000      -0.260226        -7.0811
  50   2.0000      -0.235142        -6.3985
  51   0.0000       0.050432         1.3723
  52   0.0000       0.079960         2.1758
  53   0.0000       0.092554         2.5185
  54   0.0000       0.096601         2.6286
  55   0.0000       0.107049         2.9129

MULLIKEN ATOMIC CHARGES
-----------------------
   0 C :    0.306153
   1 C :   -0.286985
   2 C :   -0.301006
   3 C :   -0.000855
   4 O :   -0.502301
   5 H :    0.132445
   6 H :    0.151702
   7 H :    0.149174
   8 H :    0.146434
   9 H :    0.163621
  10 H :    0.157437
  11 H :    0.144741
  12 C :   -0.021471
  13 H :    0.148563
  14 H :    0.135558
  15 O :   -0.522420
  16 C :    0.088713
  17 C :    0.083592
  18 C :   -0.315359
  19 C :   -0.002996
  20 O :   -0.521106
  21 H :    0.147957
  22 H :    0.160661
  23 O :   -0.611084
  24 H :    0.140943
  25 H :    0.173415
  26 H :    0.154305
  27 H :    0.139564
  28 H :    0.360604
Sum of atomic charges:    0.0000000

LOEWDIN ATOMIC CHARGES
----------------------
   0 C :    0.179023
   1 C :   -0.232966
   2 C :   -0.216317
   3 C :   -0.024126
   4 O :   -0.304587
   5 H :    0.090576
   6 H :    0.118531
   7 H :    0.116869
   8 H :    0.116628
   9 H :    0.118746
  10 H :    0.111355
  11 H :    0.104226
  12 C :   -0.050733
  13 H :    0.104888
  14 H :    0.100047
  15 O :   -0.340411
  16 C :    0.018638
  17 C :    0.037153
  18 C :   -0.242759
  19 C :   -0.023472
  20 O :   -0.323255
  21 H :    0.113135
  22 H :    0.115070
  23 O :   -0.413438
  24 H :    0.113491
  25 H :    0.125140
  26 H :    0.109447
  27 H :    0.100085
  28 H :    0.279015

  Mayer bond orders larger than 0.100000
B(  0-C ,  1-C ) :   0.9321 B(  0-C ,  4-O ) :   0.9422 B(  0-C ,  5-H ) :   0.9192
B(  0-C , 15-O ) :   0.8324 B(  1-C ,  2-C ) :   0.9507 B(  1-C ,  6-H ) :   0.9336
B(  1-C ,  7-H ) :   0.9284 B(  2-C ,  3-C ) :   0.9557 B(  2-C ,  8-H ) :   0.9448
B(  2-C ,  9-H ) :   0.9436 B(  3-C ,  4-O ) :   0.8303 B(  3-C , 10-H ) :   0.9343
B(  3-C , 11-H ) :   0.9397 B( 12-C , 13-H ) :   0.9192 B( 12-C , 14-H ) :   0.9015
B( 12-C , 15-O ) :   0.8333 B( 12-C , 16-C ) :   0.9097 B( 16-C , 17-C ) :   0.8853
B( 16-C , 20-O ) :   0.8834 B( 16-C , 21-H ) :   0.9269 B( 17-C , 18-C ) :   0.9401
B( 17-C , 22-H ) :   0.9354 B( 17-C , 23-O ) :   0.8919 B( 18-C , 19-C ) :   0.9465
B( 18-C , 24-H ) :   0.9405 B( 18-C , 25-H ) :   0.9233 B( 19-C , 20-O ) :   0.8357
B( 19-C , 26-H ) :   0.9316 B( 19-C , 27-H ) :   0.9382 B( 23-O , 28-H ) :   0.7953

FINAL SINGLE POINT ENERGY      -652.857857824303

DIPOLE MOMENT
-------------
                                X             Y             Z
Electronic contribution:     -2.56269      -2.24972      -1.10307
Nuclear contribution   :      3.49036       2.76720       1.14266
                        -----------------------------------------
Total Dipole Moment    :      0.92767       0.51748       0.03959
                        -----------------------------------------
Magnitude (a.u.)       :      1.06298
Magnitude (Debye)      :      2.70187

Rotational constants in cm-1:     0.048204     0.015336     0.014640
Rotational constants in MHz :  1445.107654   459.751207   438.883105

                             ****ORCA TERMINATED NORMALLY****
TOTAL RUN TIME: 0 days 0 hours 25 minutes 33 seconds 731 msec
