                         Program Version 4.2.0 -  RELEASE  -
|  1> # Test redundant internal optimization
|  2> #
|  3> ! RKS B3LYP  Opt TightSCF SmallPrint
|  4>
|  5> %basis
|  6>         Basis "6-31G"
|  7> end
|  8>
|  9> %geom
| 10> Constraints
| 11> { D 4  0  15  12  270.0   C } # D for Dihedral angle
| 12> { D 0  15  12  16  90.0   C } # D for Dihedral angle
| 13> { D 0  4  3  2   C } # D for Dihedral angle
| 14> { D 4  3  2  1   C } # D for Dihedral angle
| 15> { D 3  2  1  0   C } # D for Dihedral angle
| 16> { D 2  1  0  4   C } # D for Dihedral angle
| 17> { D 1  0  4  3   C } # D for Dihedral angle
| 18> { D 16  20  19  18   C } # D for Dihedral angle
| 19> { D 20  19  18  17   C } # D for Dihedral angle
| 20> { D 19  18  17  16   C } # D for Dihedral angle
| 21> { D 18  17  16  20   C } # D for Dihedral angle
| 22> { D 17  16  20  19   C } # D for Dihedral angle
| 23> { D 15  12  16  20   C } # D for Dihedral angle
| 24> end
| 25> end
| 26>
| 27>
| 28> #%pal
| 29> #nprocs 8
| 30> #end
| 31>
| 32> * xyz 0 1
| 33> C  -21.048   26.222   46.251
| 34> C  -20.361   27.558   45.944
| 35> C  -20.329   28.222   47.341
| 36> C  -20.110   27.022   48.296
| 37> O  -20.473   25.807   47.535
| 38> H  -20.833   25.428   45.533
| 39> H  -19.344   27.382   45.576
| 40> H  -20.898   28.157   45.201
| 41> H  -19.543   28.978   47.434
| 42> H  -21.289   28.710   47.548
| 43> H  -20.733   27.082   49.195
| 44> H  -19.064   26.913   48.597
| 45> C  -23.420   25.119   46.072
| 46> H  -24.391   25.412   45.655
| 47> H  -22.905   24.490   45.334
| 48> O  -22.586   26.394   46.375
| 49> C  -23.672   24.252   47.337
| 50> C  -24.537   24.999   48.359
| 51> C  -25.953   24.818   47.764
| 52> C  -25.894   23.400   47.141
| 53> O  -24.462   23.065   46.995
| 54> H  -22.716   23.899   47.726
| 55> O  -24.433   24.310   49.748
| 56> H  -24.255   26.051   48.475
| 57> H  -26.744   24.911   48.514
| 58> H  -26.135   25.573   46.990
| 59> H  -26.376   23.354   46.158
| 60> H  -26.340   22.641   47.789
| 61> H  -24.712   23.253   49.657
| 62> *
| 63>
| 64>                          ****END OF INPUT****
 Total Charge           Charge          ....    0
 Multiplicity           Mult            ....    1
 Number of Electrons    NEL             ....  102
FINAL SINGLE POINT ENERGY      -652.841730849577
FINAL SINGLE POINT ENERGY      -652.865003595445
FINAL SINGLE POINT ENERGY      -652.868651375837
FINAL SINGLE POINT ENERGY      -652.869346143118
FINAL SINGLE POINT ENERGY      -652.869453717094
FINAL SINGLE POINT ENERGY      -652.869468108261
FINAL SINGLE POINT ENERGY      -652.869471261293
                    ***********************HURRAY********************

CARTESIAN COORDINATES (ANGSTROEM)
---------------------------------
  C    -21.090021   26.117793   46.247353
  C    -20.473899   27.492050   45.981367
  C    -20.516219   28.136667   47.387210
  C    -20.255320   26.938141   48.327907
  O    -20.534522   25.721534   47.522424
  H    -20.832718   25.329367   45.533368
  H    -19.440490   27.364632   45.639068
  H    -21.032607   28.053115   45.229904
  H    -19.773223   28.930386   47.510140
  H    -21.509007   28.559739   47.566788
  H    -20.903006   26.931907   49.207777
  H    -19.211149   26.868131   48.646679
  C    -23.330664   25.107442   46.019734
  H    -24.255342   25.480416   45.570138
  H    -22.825650   24.460907   45.289750
  O    -22.523693   26.285716   46.310729
  C    -23.617114   24.305442   47.293222
  C    -24.446236   25.056177   48.345999
  C    -25.882319   24.896657   47.786138
  C    -25.859758   23.483725   47.150257
  O    -24.430641   23.129308   46.961985
  H    -22.676930   23.946496   47.720931
  O    -24.309538   24.441334   49.656986
  H    -24.136746   26.093028   48.469493
  H    -26.620604   24.991686   48.586369
  H    -26.087395   25.668602   47.036414
  H    -26.367259   23.443864   46.181446
  H    -26.296423   22.721918   47.803595
  H    -24.317504   23.465819   49.556830

 Multiplicity           Mult            ....    1
 Number of Electrons    NEL             ....  102
 Basis Dimension        Dim             ....  149

ORBITAL ENERGIES
----------------

  NO   OCC          E(Eh)            E(eV)
   0   2.0000     -19.148473      -521.0564
   1   2.0000     -19.141383      -520.8635
   2   2.0000     -19.139920      -520.8237
   3   2.0000     -19.131306      -520.5893
   4   2.0000     -10.280659      -279.7510
   5   2.0000     -10.232485      -278.4401
   6   2.0000     -10.231302      -278.4079
   7   2.0000     -10.229181      -278.3502
   8   2.0000     -10.226547      -278.2785
   9   2.0000     -10.223846      -278.2050
  10   2.0000     -10.185468      -277.1607
  11   2.0000     -10.185031      -277.1488
  12   2.0000     -10.184758      -277.1414
  13   2.0000      -1.055412       -28.7192
  14   2.0000      -1.031987       -28.0818
  15   2.0000      -1.000949       -27.2372
  16   2.0000      -0.996490       -27.1159
  17   2.0000      -0.789252       -21.4766
  18   2.0000      -0.775443       -21.1009
  19   2.0000      -0.763198       -20.7677
  20   2.0000      -0.729797       -19.8588
  21   2.0000      -0.673075       -18.3153
  22   2.0000      -0.600372       -16.3369
  23   2.0000      -0.598786       -16.2938
  24   2.0000      -0.595532       -16.2052
  25   2.0000      -0.578401       -15.7391
  26   2.0000      -0.519200       -14.1282
  27   2.0000      -0.518139       -14.0993
  28   2.0000      -0.492507       -13.4018
  29   2.0000      -0.487539       -13.2666
  30   2.0000      -0.467019       -12.7082
  31   2.0000      -0.457983       -12.4624
  32   2.0000      -0.446962       -12.1624
  33   2.0000      -0.438791       -11.9401
  34   2.0000      -0.421946       -11.4817
  35   2.0000      -0.411881       -11.2079
  36   2.0000      -0.399106       -10.8602
  37   2.0000      -0.389298       -10.5933
  38   2.0000      -0.372981       -10.1493
  39   2.0000      -0.364745        -9.9252
  40   2.0000      -0.356627        -9.7043
  41   2.0000      -0.353178        -9.6105
  42   2.0000      -0.348186        -9.4746
  43   2.0000      -0.330951        -9.0056
  44   2.0000      -0.324455        -8.8289
  45   2.0000      -0.308059        -8.3827
  46   2.0000      -0.299813        -8.1583
  47   2.0000      -0.280151        -7.6233
  48   2.0000      -0.264118        -7.1870
  49   2.0000      -0.254544        -6.9265
  50   2.0000      -0.237251        -6.4559
  51   0.0000       0.067301         1.8314
  52   0.0000       0.078299         2.1306
  53   0.0000       0.096782         2.6336
  54   0.0000       0.099996         2.7210
  55   0.0000       0.107270         2.9190

MULLIKEN ATOMIC CHARGES
-----------------------
   0 C :    0.281079
   1 C :   -0.255748
   2 C :   -0.300616
   3 C :   -0.005394
   4 O :   -0.507559
   5 H :    0.144044
   6 H :    0.145434
   7 H :    0.153759
   8 H :    0.141821
   9 H :    0.162277
  10 H :    0.156987
  11 H :    0.142641
  12 C :   -0.028428
  13 H :    0.145326
  14 H :    0.144781
  15 O :   -0.515476
  16 C :    0.053049
  17 C :    0.099278
  18 C :   -0.302807
  19 C :   -0.031422
  20 O :   -0.527927
  21 H :    0.181927
  22 O :   -0.604708
  23 H :    0.166079
  24 H :    0.161925
  25 H :    0.144912
  26 H :    0.144450
  27 H :    0.147956
  28 H :    0.362359
Sum of atomic charges:   -0.0000000

LOEWDIN ATOMIC CHARGES
----------------------
   0 C :    0.170887
   1 C :   -0.215920
   2 C :   -0.216111
   3 C :   -0.027917
   4 O :   -0.327424
   5 H :    0.098728
   6 H :    0.114157
   7 H :    0.122530
   8 H :    0.113880
   9 H :    0.118880
  10 H :    0.110078
  11 H :    0.102986
  12 C :   -0.039617
  13 H :    0.107308
  14 H :    0.104473
  15 O :   -0.325419
  16 C :    0.003930
  17 C :    0.039444
  18 C :   -0.242978
  19 C :   -0.039018
  20 O :   -0.332796
  21 H :    0.124985
  22 O :   -0.415116
  23 H :    0.122797
  24 H :    0.126625
  25 H :    0.113204
  26 H :    0.102758
  27 H :    0.103112
  28 H :    0.281554

  Mayer bond orders larger than 0.100000
B(  0-C ,  1-C ) :   0.9491 B(  0-C ,  4-O ) :   0.9143 B(  0-C ,  5-H ) :   0.9170
B(  0-C , 15-O ) :   0.8529 B(  1-C ,  2-C ) :   0.9570 B(  1-C ,  6-H ) :   0.9395
B(  1-C ,  7-H ) :   0.9372 B(  2-C ,  3-C ) :   0.9542 B(  2-C ,  8-H ) :   0.9453
B(  2-C ,  9-H ) :   0.9443 B(  3-C ,  4-O ) :   0.8335 B(  3-C , 10-H ) :   0.9338
B(  3-C , 11-H ) :   0.9402 B( 12-C , 13-H ) :   0.9397 B( 12-C , 14-H ) :   0.9199
B( 12-C , 15-O ) :   0.8435 B( 12-C , 16-C ) :   0.8815 B( 16-C , 17-C ) :   0.9162
B( 16-C , 20-O ) :   0.8334 B( 16-C , 21-H ) :   0.9174 B( 17-C , 18-C ) :   0.9109
B( 17-C , 22-O ) :   0.8907 B( 17-C , 23-H ) :   0.9262 B( 18-C , 19-C ) :   0.9438
B( 18-C , 24-H ) :   0.9377 B( 18-C , 25-H ) :   0.9345 B( 19-C , 20-O ) :   0.8440
B( 19-C , 26-H ) :   0.9355 B( 19-C , 27-H ) :   0.9379 B( 22-O , 28-H ) :   0.7966

FINAL SINGLE POINT ENERGY      -652.869471732418

DIPOLE MOMENT
-------------
                                X             Y             Z
Electronic contribution:      0.12272      -4.14509       0.84108
Nuclear contribution   :     -0.25545       4.80640      -1.54205
                        -----------------------------------------
Total Dipole Moment    :     -0.13273       0.66131      -0.70098
                        -----------------------------------------
Magnitude (a.u.)       :      0.97279
Magnitude (Debye)      :      2.47264

Rotational constants in cm-1:     0.054743     0.014052     0.012904
Rotational constants in MHz :  1641.160496   421.272450   386.863053

                             ****ORCA TERMINATED NORMALLY****
TOTAL RUN TIME: 0 days 0 hours 54 minutes 49 seconds 108 msec
