                         Program Version 4.2.0 -  RELEASE  -
|  1> # Test redundant internal optimization
|  2> #
|  3> ! RKS B3LYP  Opt TightSCF SmallPrint
|  4>
|  5> %basis
|  6>         Basis "6-31G"
|  7> end
|  8>
|  9> %geom
| 10> Constraints
| 11> { D 4  0  15  12  60.0   C } # D for Dihedral angle
| 12> { D 0  15  12  16  195.0   C } # D for Dihedral angle
| 13> { D 0  4  3  2   C } # D for Dihedral angle
| 14> { D 4  3  2  1   C } # D for Dihedral angle
| 15> { D 3  2  1  0   C } # D for Dihedral angle
| 16> { D 2  1  0  4   C } # D for Dihedral angle
| 17> { D 1  0  4  3   C } # D for Dihedral angle
| 18> { D 16  20  19  18   C } # D for Dihedral angle
| 19> { D 20  19  18  17   C } # D for Dihedral angle
| 20> { D 19  18  17  16   C } # D for Dihedral angle
| 21> { D 18  17  16  20   C } # D for Dihedral angle
| 22> { D 17  16  20  19   C } # D for Dihedral angle
| 23> { D 15  12  16  20   C } # D for Dihedral angle
| 24> end
| 25> end
| 26>
| 27>
| 28> #%pal
| 29> #nprocs 8
| 30> #end
| 31>
| 32> * xyz 0 1
| 33> C  -21.048   26.222   46.251
| 34> C  -20.361   27.558   45.944
| 35> C  -20.329   28.222   47.341
| 36> C  -20.110   27.022   48.296
| 37> O  -20.473   25.807   47.535
| 38> H  -20.833   25.428   45.533
| 39> H  -19.344   27.382   45.576
| 40> H  -20.898   28.157   45.201
| 41> H  -19.543   28.978   47.434
| 42> H  -21.289   28.710   47.548
| 43> H  -20.733   27.082   49.195
| 44> H  -19.064   26.913   48.597
| 45> C  -23.051   27.452   47.413
| 46> H  -22.470   27.332   48.337
| 47> H  -22.881   28.466   47.030
| 48> O  -22.586   26.394   46.375
| 49> C  -24.559   27.326   47.765
| 50> C  -24.858   25.995   48.466
| 51> C  -24.387   26.289   49.910
| 52> C  -24.750   27.784   50.101
| 53> O  -24.943   28.345   48.747
| 54> H  -25.152   27.507   46.867
| 55> O  -26.384   25.708   48.434
| 56> H  -24.338   25.144   48.014
| 57> H  -24.868   25.645   50.653
| 58> H  -23.304   26.141   49.990
| 59> H  -23.960   28.344   50.613
| 60> H  -25.689   27.919   50.644
| 61> H  -26.927   26.548   48.883
| 62> *
| 63>
| 64>                          ****END OF INPUT****
 Total Charge           Charge          ....    0
 Multiplicity           Mult            ....    1
 Number of Electrons    NEL             ....  102
FINAL SINGLE POINT ENERGY      -652.820196987848
FINAL SINGLE POINT ENERGY      -652.846935956280
FINAL SINGLE POINT ENERGY      -652.859114145655
FINAL SINGLE POINT ENERGY      -652.860999867520
FINAL SINGLE POINT ENERGY      -652.861329371926
FINAL SINGLE POINT ENERGY      -652.861386389799
FINAL SINGLE POINT ENERGY      -652.861391356781
                    ***********************HURRAY********************

CARTESIAN COORDINATES (ANGSTROEM)
---------------------------------
  C    -21.224296   26.343248   46.433286
  C    -20.387640   27.507387   45.883289
  C    -19.974012   28.252984   47.185595
  C    -19.789116   27.091186   48.194659
  O    -20.501263   25.924785   47.614971
  H    -21.241443   25.478269   45.769042
  H    -19.508685   27.098011   45.374569
  H    -20.943986   28.131783   45.179397
  H    -19.052137   28.829226   47.059325
  H    -20.755388   28.946370   47.506420
  H    -20.203506   27.307144   49.184180
  H    -18.740706   26.798606   48.304828
  C    -23.088984   27.586809   47.590594
  H    -22.531979   27.515592   48.532230
  H    -22.979642   28.600171   47.186708
  O    -22.630052   26.581745   46.643387
  C    -24.572193   27.310086   47.834012
  C    -24.879875   25.952182   48.482753
  C    -24.566048   26.240182   49.972315
  C    -25.010719   27.713132   50.151416
  O    -25.095595   28.295606   48.787462
  H    -25.128538   27.430180   46.900836
  O    -26.276057   25.593132   48.286205
  H    -24.298007   25.136820   48.057779
  H    -25.109841   25.550092   50.621459
  H    -23.494459   26.118082   50.163001
  H    -24.306660   28.303759   50.746147
  H    -26.004880   27.801501   50.600558
  H    -26.836292   26.381930   48.446574

 Multiplicity           Mult            ....    1
 Number of Electrons    NEL             ....  102
 Basis Dimension        Dim             ....  149

ORBITAL ENERGIES
----------------

  NO   OCC          E(Eh)            E(eV)
   0   2.0000     -19.149269      -521.0781
   1   2.0000     -19.147599      -521.0327
   2   2.0000     -19.144288      -520.9426
   3   2.0000     -19.131837      -520.6038
   4   2.0000     -10.282138      -279.7912
   5   2.0000     -10.234813      -278.5034
   6   2.0000     -10.233681      -278.4726
   7   2.0000     -10.231997      -278.4268
   8   2.0000     -10.231784      -278.4210
   9   2.0000     -10.231257      -278.4067
  10   2.0000     -10.196632      -277.4645
  11   2.0000     -10.193405      -277.3767
  12   2.0000     -10.184614      -277.1374
  13   2.0000      -1.057696       -28.7814
  14   2.0000      -1.034454       -28.1489
  15   2.0000      -1.002953       -27.2917
  16   2.0000      -0.999928       -27.2094
  17   2.0000      -0.792686       -21.5701
  18   2.0000      -0.781324       -21.2609
  19   2.0000      -0.770129       -20.9563
  20   2.0000      -0.734017       -19.9736
  21   2.0000      -0.678915       -18.4742
  22   2.0000      -0.608090       -16.5470
  23   2.0000      -0.602561       -16.3965
  24   2.0000      -0.596738       -16.2381
  25   2.0000      -0.577689       -15.7197
  26   2.0000      -0.520977       -14.1765
  27   2.0000      -0.516708       -14.0604
  28   2.0000      -0.506108       -13.7719
  29   2.0000      -0.489682       -13.3249
  30   2.0000      -0.473223       -12.8771
  31   2.0000      -0.462110       -12.5747
  32   2.0000      -0.451465       -12.2850
  33   2.0000      -0.438013       -11.9189
  34   2.0000      -0.421699       -11.4750
  35   2.0000      -0.418651       -11.3921
  36   2.0000      -0.409778       -11.1506
  37   2.0000      -0.390182       -10.6174
  38   2.0000      -0.385142       -10.4803
  39   2.0000      -0.365375        -9.9424
  40   2.0000      -0.365219        -9.9381
  41   2.0000      -0.358536        -9.7563
  42   2.0000      -0.353423        -9.6171
  43   2.0000      -0.329282        -8.9602
  44   2.0000      -0.321107        -8.7378
  45   2.0000      -0.314394        -8.5551
  46   2.0000      -0.303428        -8.2567
  47   2.0000      -0.272843        -7.4244
  48   2.0000      -0.265357        -7.2207
  49   2.0000      -0.257257        -7.0003
  50   2.0000      -0.246243        -6.7006
  51   0.0000       0.062467         1.6998
  52   0.0000       0.066015         1.7964
  53   0.0000       0.089449         2.4340
  54   0.0000       0.096373         2.6224
  55   0.0000       0.100851         2.7443

MULLIKEN ATOMIC CHARGES
-----------------------
   0 C :    0.298665
   1 C :   -0.273283
   2 C :   -0.315033
   3 C :   -0.013544
   4 O :   -0.507266
   5 H :    0.168004
   6 H :    0.155500
   7 H :    0.153313
   8 H :    0.147779
   9 H :    0.151691
  10 H :    0.140666
  11 H :    0.150350
  12 C :   -0.009024
  13 H :    0.138047
  14 H :    0.145660
  15 O :   -0.523837
  16 C :    0.053861
  17 C :    0.090917
  18 C :   -0.299231
  19 C :   -0.036035
  20 O :   -0.529077
  21 H :    0.168156
  22 O :   -0.602298
  23 H :    0.180917
  24 H :    0.162606
  25 H :    0.150265
  26 H :    0.144568
  27 H :    0.146638
  28 H :    0.361023
Sum of atomic charges:    0.0000000

LOEWDIN ATOMIC CHARGES
----------------------
   0 C :    0.174552
   1 C :   -0.228202
   2 C :   -0.224115
   3 C :   -0.034365
   4 O :   -0.322559
   5 H :    0.114666
   6 H :    0.121581
   7 H :    0.121025
   8 H :    0.117129
   9 H :    0.111567
  10 H :    0.099323
  11 H :    0.105816
  12 C :   -0.043007
  13 H :    0.097472
  14 H :    0.101672
  15 O :   -0.320376
  16 C :    0.018802
  17 C :    0.039582
  18 C :   -0.241755
  19 C :   -0.040254
  20 O :   -0.332546
  21 H :    0.119339
  22 O :   -0.414334
  23 H :    0.130146
  24 H :    0.127204
  25 H :    0.115989
  26 H :    0.102489
  27 H :    0.102769
  28 H :    0.280388

  Mayer bond orders larger than 0.100000
B(  0-C ,  1-C ) :   0.9175 B(  0-C ,  4-O ) :   0.9026 B(  0-C ,  5-H ) :   0.9358
B(  0-C , 15-O ) :   0.8930 B(  1-C ,  2-C ) :   0.9554 B(  1-C ,  6-H ) :   0.9352
B(  1-C ,  7-H ) :   0.9368 B(  2-C ,  3-C ) :   0.9482 B(  2-C ,  8-H ) :   0.9449
B(  2-C ,  9-H ) :   0.9404 B(  3-C ,  4-O ) :   0.8428 B(  3-C , 10-H ) :   0.9324
B(  3-C , 11-H ) :   0.9387 B( 12-C , 13-H ) :   0.9127 B( 12-C , 14-H ) :   0.9130
B( 12-C , 15-O ) :   0.8253 B( 12-C , 16-C ) :   0.9042 B( 16-C , 17-C ) :   0.9127
B( 16-C , 20-O ) :   0.8446 B( 16-C , 21-H ) :   0.9251 B( 17-C , 18-C ) :   0.9115
B( 17-C , 22-O ) :   0.8901 B( 17-C , 23-H ) :   0.9221 B( 18-C , 19-C ) :   0.9422
B( 18-C , 24-H ) :   0.9375 B( 18-C , 25-H ) :   0.9341 B( 19-C , 20-O ) :   0.8420
B( 19-C , 26-H ) :   0.9357 B( 19-C , 27-H ) :   0.9381 B( 22-O , 28-H ) :   0.7967

FINAL SINGLE POINT ENERGY      -652.861381028102

DIPOLE MOMENT
-------------
                                X             Y             Z
Electronic contribution:     -4.59385      -2.98087      -2.11086
Nuclear contribution   :      5.68208       4.01191       2.50771
                        -----------------------------------------
Total Dipole Moment    :      1.08823       1.03104       0.39685
                        -----------------------------------------
Magnitude (a.u.)       :      1.55073
Magnitude (Debye)      :      3.94165

Rotational constants in cm-1:     0.052637     0.013808     0.013292
Rotational constants in MHz :  1578.020664   413.967711   398.485782

                             ****ORCA TERMINATED NORMALLY****
TOTAL RUN TIME: 0 days 1 hours 7 minutes 52 seconds 648 msec
