                         Program Version 4.2.0 -  RELEASE  -
|  1> # Test redundant internal optimization
|  2> #
|  3> ! RKS B3LYP  Opt TightSCF SmallPrint
|  4>
|  5> %basis
|  6>         Basis "6-31G"
|  7> end
|  8>
|  9> %geom
| 10> Constraints
| 11> { D 4  0  15  12  30.0   C } # D for Dihedral angle
| 12> { D 0  15  12  16  135.0   C } # D for Dihedral angle
| 13> { D 0  4  3  2   C } # D for Dihedral angle
| 14> { D 4  3  2  1   C } # D for Dihedral angle
| 15> { D 3  2  1  0   C } # D for Dihedral angle
| 16> { D 2  1  0  4   C } # D for Dihedral angle
| 17> { D 1  0  4  3   C } # D for Dihedral angle
| 18> { D 16  20  19  18   C } # D for Dihedral angle
| 19> { D 20  19  18  17   C } # D for Dihedral angle
| 20> { D 19  18  17  16   C } # D for Dihedral angle
| 21> { D 18  17  16  20   C } # D for Dihedral angle
| 22> { D 17  16  20  19   C } # D for Dihedral angle
| 23> { D 15  12  16  20   C } # D for Dihedral angle
| 24> end
| 25> end
| 26>
| 27>
| 28> #%pal
| 29> #nprocs 8
| 30> #end
| 31>
| 32> * xyz 0 1
| 33> C  -21.048   26.222   46.251
| 34> C  -20.361   27.558   45.944
| 35> C  -20.329   28.222   47.341
| 36> C  -20.110   27.022   48.296
| 37> O  -20.473   25.807   47.535
| 38> H  -20.833   25.428   45.533
| 39> H  -19.344   27.382   45.576
| 40> H  -20.898   28.157   45.201
| 41> H  -19.543   28.978   47.434
| 42> H  -21.289   28.710   47.548
| 43> H  -20.733   27.082   49.195
| 44> H  -19.064   26.913   48.597
| 45> C  -23.091   26.824   47.779
| 46> H  -23.540   25.959   48.283
| 47> H  -22.256   27.184   48.394
| 48> O  -22.586   26.394   46.375
| 49> C  -24.154   27.956   47.715
| 50> C  -24.543   28.434   49.118
| 51> C  -23.355   29.359   49.476
| 52> C  -22.988   30.002   48.115
| 53> O  -23.593   29.149   47.070
| 54> H  -24.993   27.625   47.101
| 55> O  -25.868   29.243   49.057
| 56> H  -24.673   27.613   49.831
| 57> H  -23.612   30.105   50.234
| 58> H  -22.518   28.764   49.860
| 59> H  -21.905   30.053   47.954
| 60> H  -23.411   31.004   47.999
| 61> H  -25.761   30.071   48.347
| 62> *
| 63>
| 64>                          ****END OF INPUT****
 Total Charge           Charge          ....    0
 Multiplicity           Mult            ....    1
 Number of Electrons    NEL             ....  102
FINAL SINGLE POINT ENERGY      -652.811650291340
FINAL SINGLE POINT ENERGY      -652.838172686749
FINAL SINGLE POINT ENERGY      -652.852684456011
FINAL SINGLE POINT ENERGY      -652.855218976302
FINAL SINGLE POINT ENERGY      -652.855716694170
FINAL SINGLE POINT ENERGY      -652.855795140619
FINAL SINGLE POINT ENERGY      -652.855804839640
FINAL SINGLE POINT ENERGY      -652.855805458200
                    ***********************HURRAY********************

CARTESIAN COORDINATES (ANGSTROEM)
---------------------------------
  C    -21.171617   26.286160   46.335322
  C    -20.387728   27.529152   45.902746
  C    -19.953685   28.124286   47.266944
  C    -19.702289   26.864408   48.129407
  O    -20.401857   25.750342   47.436758
  H    -21.194257   25.506964   45.570753
  H    -19.519376   27.216398   45.312072
  H    -21.003461   28.213746   45.316347
  H    -19.062556   28.754801   47.191610
  H    -20.766478   28.730550   47.672205
  H    -20.087802   26.947870   49.150728
  H    -18.643807   26.590039   48.173478
  C    -23.080283   26.858161   47.923038
  H    -23.600987   25.984291   48.337397
  H    -22.273406   27.121923   48.614323
  O    -22.572772   26.518159   46.608578
  C    -24.076511   28.006286   47.766177
  C    -24.730468   28.501054   49.064594
  C    -23.676804   29.514814   49.581924
  C    -23.119049   30.140051   48.279404
  O    -23.484645   29.213624   47.176944
  H    -24.841343   27.680622   47.053630
  O    -26.005211   29.144047   48.791737
  H    -24.953449   27.709025   49.780951
  H    -24.141093   30.249847   50.244251
  H    -22.892014   28.993579   50.142657
  H    -22.032796   30.268217   48.301867
  H    -23.576229   31.107092   48.048634
  H    -25.920029   29.694489   47.984522

 Multiplicity           Mult            ....    1
 Number of Electrons    NEL             ....  102
 Basis Dimension        Dim             ....  149

ORBITAL ENERGIES
----------------

  NO   OCC          E(Eh)            E(eV)
   0   2.0000     -19.148331      -521.0526
   1   2.0000     -19.146734      -521.0091
   2   2.0000     -19.141399      -520.8639
   3   2.0000     -19.135854      -520.7131
   4   2.0000     -10.276622      -279.6411
   5   2.0000     -10.246576      -278.8235
   6   2.0000     -10.236532      -278.5502
   7   2.0000     -10.235167      -278.5131
   8   2.0000     -10.234570      -278.4968
   9   2.0000     -10.232556      -278.4420
  10   2.0000     -10.195078      -277.4222
  11   2.0000     -10.190116      -277.2871
  12   2.0000     -10.181274      -277.0466
  13   2.0000      -1.052274       -28.6338
  14   2.0000      -1.039449       -28.2848
  15   2.0000      -1.009748       -27.4766
  16   2.0000      -0.992459       -27.0062
  17   2.0000      -0.790532       -21.5115
  18   2.0000      -0.785455       -21.3733
  19   2.0000      -0.773595       -21.0506
  20   2.0000      -0.734769       -19.9941
  21   2.0000      -0.678276       -18.4568
  22   2.0000      -0.609175       -16.5765
  23   2.0000      -0.603706       -16.4277
  24   2.0000      -0.597525       -16.2595
  25   2.0000      -0.578946       -15.7539
  26   2.0000      -0.527647       -14.3580
  27   2.0000      -0.512627       -13.9493
  28   2.0000      -0.502122       -13.6634
  29   2.0000      -0.490145       -13.3375
  30   2.0000      -0.477543       -12.9946
  31   2.0000      -0.462825       -12.5941
  32   2.0000      -0.452792       -12.3211
  33   2.0000      -0.446279       -12.1439
  34   2.0000      -0.418636       -11.3917
  35   2.0000      -0.415532       -11.3072
  36   2.0000      -0.405931       -11.0460
  37   2.0000      -0.398670       -10.8484
  38   2.0000      -0.377823       -10.2811
  39   2.0000      -0.374016       -10.1775
  40   2.0000      -0.362580        -9.8663
  41   2.0000      -0.357552        -9.7295
  42   2.0000      -0.346190        -9.4203
  43   2.0000      -0.338349        -9.2069
  44   2.0000      -0.322902        -8.7866
  45   2.0000      -0.311751        -8.4832
  46   2.0000      -0.307115        -8.3570
  47   2.0000      -0.274895        -7.4803
  48   2.0000      -0.262345        -7.1388
  49   2.0000      -0.257916        -7.0183
  50   2.0000      -0.239671        -6.5218
  51   0.0000       0.050411         1.3717
  52   0.0000       0.076084         2.0704
  53   0.0000       0.088598         2.4109
  54   0.0000       0.095983         2.6118
  55   0.0000       0.099142         2.6978

MULLIKEN ATOMIC CHARGES
-----------------------
   0 C :    0.299827
   1 C :   -0.256957
   2 C :   -0.329457
   3 C :   -0.019175
   4 O :   -0.509641
   5 H :    0.162941
   6 H :    0.143525
   7 H :    0.171095
   8 H :    0.144124
   9 H :    0.167014
  10 H :    0.137585
  11 H :    0.150512
  12 C :    0.002300
  13 H :    0.143688
  14 H :    0.131412
  15 O :   -0.527759
  16 C :    0.070398
  17 C :    0.074702
  18 C :   -0.295809
  19 C :   -0.035618
  20 O :   -0.515931
  21 H :    0.172657
  22 O :   -0.600564
  23 H :    0.154804
  24 H :    0.166608
  25 H :    0.140831
  26 H :    0.140864
  27 H :    0.149324
  28 H :    0.366700
Sum of atomic charges:   -0.0000000

LOEWDIN ATOMIC CHARGES
----------------------
   0 C :    0.183395
   1 C :   -0.224218
   2 C :   -0.225380
   3 C :   -0.036366
   4 O :   -0.320810
   5 H :    0.110353
   6 H :    0.114144
   7 H :    0.131255
   8 H :    0.116320
   9 H :    0.114687
  10 H :    0.096506
  11 H :    0.106050
  12 C :   -0.033931
  13 H :    0.106145
  14 H :    0.097336
  15 O :   -0.326504
  16 C :    0.012642
  17 C :    0.035195
  18 C :   -0.241486
  19 C :   -0.041722
  20 O :   -0.325033
  21 H :    0.121256
  22 O :   -0.413044
  23 H :    0.116981
  24 H :    0.128504
  25 H :    0.111049
  26 H :    0.098359
  27 H :    0.104124
  28 H :    0.284192

  Mayer bond orders larger than 0.100000
B(  0-C ,  1-C ) :   0.9181 B(  0-C ,  4-O ) :   0.9082 B(  0-C ,  5-H ) :   0.9348
B(  0-C , 15-O ) :   0.8711 B(  1-C ,  2-C ) :   0.9569 B(  1-C ,  6-H ) :   0.9345
B(  1-C ,  7-H ) :   0.9320 B(  2-C ,  3-C ) :   0.9492 B(  2-C ,  8-H ) :   0.9456
B(  2-C ,  9-H ) :   0.9257 B(  3-C ,  4-O ) :   0.8385 B(  3-C , 10-H ) :   0.9302
B(  3-C , 11-H ) :   0.9387 B( 12-C , 13-H ) :   0.9195 B( 12-C , 14-H ) :   0.9147
B( 12-C , 15-O ) :   0.8369 B( 12-C , 16-C ) :   0.8963 B( 16-C , 17-C ) :   0.8973
B( 16-C , 20-O ) :   0.8562 B( 16-C , 21-H ) :   0.9218 B( 17-C , 18-C ) :   0.9097
B( 17-C , 22-O ) :   0.8938 B( 17-C , 23-H ) :   0.9325 B( 18-C , 19-C ) :   0.9438
B( 18-C , 24-H ) :   0.9367 B( 18-C , 25-H ) :   0.9343 B( 19-C , 20-O ) :   0.8520
B( 19-C , 26-H ) :   0.9229 B( 19-C , 27-H ) :   0.9381 B( 22-O , 28-H ) :   0.7936

FINAL SINGLE POINT ENERGY      -652.855803938790

DIPOLE MOMENT
-------------
                                X             Y             Z
Electronic contribution:     -4.39037      -3.39212      -2.66352
Nuclear contribution   :      5.32694       4.28311       3.25076
                        -----------------------------------------
Total Dipole Moment    :      0.93656       0.89099       0.58723
                        -----------------------------------------
Magnitude (a.u.)       :      1.41981
Magnitude (Debye)      :      3.60887

Rotational constants in cm-1:     0.052820     0.015413     0.014406
Rotational constants in MHz :  1583.492358   462.056993   431.880067

                             ****ORCA TERMINATED NORMALLY****
TOTAL RUN TIME: 0 days 0 hours 30 minutes 53 seconds 434 msec
