                         Program Version 4.2.0 -  RELEASE  -
|  1> # Test redundant internal optimization
|  2> #
|  3> ! RKS B3LYP  Opt TightSCF SmallPrint
|  4>
|  5> %basis
|  6>         Basis "6-31G"
|  7> end
|  8>
|  9> %geom
| 10> Constraints
| 11> { D 4  0  15  12  240.0   C } # D for Dihedral angle
| 12> { D 0  15  12  16  75.0   C } # D for Dihedral angle
| 13> { D 0  4  3  2   C } # D for Dihedral angle
| 14> { D 4  3  2  1   C } # D for Dihedral angle
| 15> { D 3  2  1  0   C } # D for Dihedral angle
| 16> { D 2  1  0  4   C } # D for Dihedral angle
| 17> { D 1  0  4  3   C } # D for Dihedral angle
| 18> { D 16  20  19  18   C } # D for Dihedral angle
| 19> { D 20  19  18  17   C } # D for Dihedral angle
| 20> { D 19  18  17  16   C } # D for Dihedral angle
| 21> { D 18  17  16  20   C } # D for Dihedral angle
| 22> { D 17  16  20  19   C } # D for Dihedral angle
| 23> { D 15  12  16  20   C } # D for Dihedral angle
| 24> end
| 25> end
| 26>
| 27>
| 28> #%pal
| 29> #nprocs 8
| 30> #end
| 31>
| 32> * xyz 0 1
| 33> C  -21.048   26.222   46.251
| 34> C  -20.361   27.558   45.944
| 35> C  -20.329   28.222   47.341
| 36> C  -20.110   27.022   48.296
| 37> O  -20.473   25.807   47.535
| 38> H  -20.833   25.428   45.533
| 39> H  -19.344   27.382   45.576
| 40> H  -20.898   28.157   45.201
| 41> H  -19.543   28.978   47.434
| 42> H  -21.289   28.710   47.548
| 43> H  -20.733   27.082   49.195
| 44> H  -19.064   26.913   48.597
| 45> C  -23.430   25.483   45.442
| 46> H  -24.458   25.863   45.398
| 47> H  -23.018   25.489   44.425
| 48> O  -22.586   26.394   46.375
| 49> C  -23.475   24.006   45.925
| 50> C  -24.193   23.884   47.274
| 51> C  -25.678   23.951   46.845
| 52> C  -25.684   23.216   45.481
| 53> O  -24.283   23.193   45.010
| 54> H  -22.464   23.595   45.912
| 55> O  -23.871   22.511   47.925
| 56> H  -23.918   24.673   47.982
| 57> H  -26.351   23.485   47.573
| 58> H  -25.988   24.996   46.724
| 59> H  -26.305   23.723   44.735
| 60> H  -26.013   22.178   45.568
| 61> H  -24.139   21.703   47.234
| 62> *
| 63>
| 64>                          ****END OF INPUT****
 Total Charge           Charge          ....    0
 Multiplicity           Mult            ....    1
 Number of Electrons    NEL             ....  102
FINAL SINGLE POINT ENERGY      -652.837872802502
FINAL SINGLE POINT ENERGY      -652.860159927801
FINAL SINGLE POINT ENERGY      -652.863457374707
FINAL SINGLE POINT ENERGY      -652.864062490963
FINAL SINGLE POINT ENERGY      -652.864159849791
FINAL SINGLE POINT ENERGY      -652.864171539158
FINAL SINGLE POINT ENERGY      -652.864173981228
                    ***********************HURRAY********************

CARTESIAN COORDINATES (ANGSTROEM)
---------------------------------
  C    -21.076428   26.139960   46.208577
  C    -20.411665   27.488500   45.935249
  C    -20.457117   28.155754   47.330670
  C    -20.252150   26.963381   48.290487
  O    -20.558107   25.747214   47.493765
  H    -20.831557   25.343887   45.499973
  H    -19.375933   27.326176   45.613654
  H    -20.935902   28.060103   45.166051
  H    -19.691889   28.927841   47.454394
  H    -21.439501   28.611545   47.486606
  H    -20.916434   26.989079   49.157679
  H    -19.216944   26.862294   48.629524
  C    -23.336860   25.494829   45.416683
  H    -24.317299   25.976941   45.400306
  H    -22.945694   25.482968   44.390239
  O    -22.516473   26.332213   46.280946
  C    -23.440568   24.052610   45.926420
  C    -24.128081   23.899246   47.290948
  C    -25.623890   23.996722   46.898617
  C    -25.675351   23.303061   45.514257
  O    -24.280149   23.276080   45.004945
  H    -22.454986   23.577860   45.937892
  O    -23.815940   22.610463   47.889561
  H    -23.806853   24.648527   48.012395
  H    -26.249904   23.501530   47.645117
  H    -25.934950   25.044865   46.832885
  H    -26.306144   23.832443   44.793289
  H    -26.013438   22.264061   45.576706
  H    -23.868792   21.913847   47.201166

 Multiplicity           Mult            ....    1
 Number of Electrons    NEL             ....  102
 Basis Dimension        Dim             ....  149

ORBITAL ENERGIES
----------------

  NO   OCC          E(Eh)            E(eV)
   0   2.0000     -19.144891      -520.9590
   1   2.0000     -19.144276      -520.9422
   2   2.0000     -19.138987      -520.7983
   3   2.0000     -19.131938      -520.6065
   4   2.0000     -10.280357      -279.7427
   5   2.0000     -10.232886      -278.4510
   6   2.0000     -10.232709      -278.4462
   7   2.0000     -10.231161      -278.4040
   8   2.0000     -10.230884      -278.3965
   9   2.0000     -10.223871      -278.2057
  10   2.0000     -10.185712      -277.1673
  11   2.0000     -10.185039      -277.1490
  12   2.0000     -10.184872      -277.1445
  13   2.0000      -1.053074       -28.6556
  14   2.0000      -1.033816       -28.1316
  15   2.0000      -1.001640       -27.2560
  16   2.0000      -0.995628       -27.0924
  17   2.0000      -0.787643       -21.4328
  18   2.0000      -0.776240       -21.1226
  19   2.0000      -0.764474       -20.8024
  20   2.0000      -0.731799       -19.9133
  21   2.0000      -0.674129       -18.3440
  22   2.0000      -0.602468       -16.3940
  23   2.0000      -0.600860       -16.3502
  24   2.0000      -0.597318       -16.2538
  25   2.0000      -0.574403       -15.6303
  26   2.0000      -0.520411       -14.1611
  27   2.0000      -0.519274       -14.1302
  28   2.0000      -0.492448       -13.4002
  29   2.0000      -0.488414       -13.2904
  30   2.0000      -0.465993       -12.6803
  31   2.0000      -0.459194       -12.4953
  32   2.0000      -0.451475       -12.2853
  33   2.0000      -0.435673       -11.8553
  34   2.0000      -0.424056       -11.5391
  35   2.0000      -0.412096       -11.2137
  36   2.0000      -0.399218       -10.8633
  37   2.0000      -0.389880       -10.6092
  38   2.0000      -0.373304       -10.1581
  39   2.0000      -0.366083        -9.9616
  40   2.0000      -0.357336        -9.7236
  41   2.0000      -0.355779        -9.6812
  42   2.0000      -0.351452        -9.5635
  43   2.0000      -0.331811        -9.0290
  44   2.0000      -0.317702        -8.6451
  45   2.0000      -0.311337        -8.4719
  46   2.0000      -0.301272        -8.1980
  47   2.0000      -0.274707        -7.4752
  48   2.0000      -0.263561        -7.1719
  49   2.0000      -0.254624        -6.9287
  50   2.0000      -0.237033        -6.4500
  51   0.0000       0.065408         1.7798
  52   0.0000       0.076228         2.0743
  53   0.0000       0.095448         2.5973
  54   0.0000       0.099712         2.7133
  55   0.0000       0.104509         2.8438

MULLIKEN ATOMIC CHARGES
-----------------------
   0 C :    0.280930
   1 C :   -0.251519
   2 C :   -0.301700
   3 C :   -0.001096
   4 O :   -0.503234
   5 H :    0.143778
   6 H :    0.143414
   7 H :    0.147537
   8 H :    0.141695
   9 H :    0.163227
  10 H :    0.152142
  11 H :    0.142278
  12 C :   -0.032941
  13 H :    0.151479
  14 H :    0.144839
  15 O :   -0.512792
  16 C :    0.050609
  17 C :    0.093725
  18 C :   -0.300429
  19 C :   -0.035493
  20 O :   -0.527570
  21 H :    0.168343
  22 O :   -0.600657
  23 H :    0.178869
  24 H :    0.163114
  25 H :    0.145767
  26 H :    0.146704
  27 H :    0.147929
  28 H :    0.361053
Sum of atomic charges:   -0.0000000

LOEWDIN ATOMIC CHARGES
----------------------
   0 C :    0.172840
   1 C :   -0.219664
   2 C :   -0.216783
   3 C :   -0.025808
   4 O :   -0.315605
   5 H :    0.099685
   6 H :    0.112650
   7 H :    0.118984
   8 H :    0.114067
   9 H :    0.119628
  10 H :    0.108150
  11 H :    0.102730
  12 C :   -0.042570
  13 H :    0.112037
  14 H :    0.102034
  15 O :   -0.331823
  16 C :    0.002824
  17 C :    0.039477
  18 C :   -0.242026
  19 C :   -0.039532
  20 O :   -0.332560
  21 H :    0.116580
  22 O :   -0.412973
  23 H :    0.129328
  24 H :    0.127065
  25 H :    0.113738
  26 H :    0.103735
  27 H :    0.103221
  28 H :    0.280572

  Mayer bond orders larger than 0.100000
B(  0-C ,  1-C ) :   0.9438 B(  0-C ,  4-O ) :   0.9287 B(  0-C ,  5-H ) :   0.9176
B(  0-C , 15-O ) :   0.8321 B(  1-C ,  2-C ) :   0.9566 B(  1-C ,  6-H ) :   0.9369
B(  1-C ,  7-H ) :   0.9384 B(  2-C ,  3-C ) :   0.9543 B(  2-C ,  8-H ) :   0.9452
B(  2-C ,  9-H ) :   0.9436 B(  3-C ,  4-O ) :   0.8362 B(  3-C , 10-H ) :   0.9348
B(  3-C , 11-H ) :   0.9399 B( 12-C , 13-H ) :   0.9397 B( 12-C , 14-H ) :   0.9205
B( 12-C , 15-O ) :   0.8517 B( 12-C , 16-C ) :   0.8770 B( 16-C , 17-C ) :   0.9115
B( 16-C , 20-O ) :   0.8350 B( 16-C , 21-H ) :   0.9233 B( 17-C , 18-C ) :   0.9103
B( 17-C , 22-O ) :   0.8925 B( 17-C , 23-H ) :   0.9228 B( 18-C , 19-C ) :   0.9436
B( 18-C , 24-H ) :   0.9373 B( 18-C , 25-H ) :   0.9346 B( 19-C , 20-O ) :   0.8422
B( 19-C , 26-H ) :   0.9353 B( 19-C , 27-H ) :   0.9378 B( 22-O , 28-H ) :   0.7968

FINAL SINGLE POINT ENERGY      -652.864174414555

DIPOLE MOMENT
-------------
                                X             Y             Z
Electronic contribution:      0.15483      -4.50743      -0.10217
Nuclear contribution   :     -0.38103       5.42554      -0.46313
                        -----------------------------------------
Total Dipole Moment    :     -0.22620       0.91810      -0.56530
                        -----------------------------------------
Magnitude (a.u.)       :      1.10165
Magnitude (Debye)      :      2.80018

Rotational constants in cm-1:     0.058245     0.013175     0.012053
Rotational constants in MHz :  1746.136239   394.966953   361.340190

                             ****ORCA TERMINATED NORMALLY****
TOTAL RUN TIME: 0 days 1 hours 7 minutes 29 seconds 779 msec
