                         Program Version 4.2.0 -  RELEASE  -
|  1> # Test redundant internal optimization
|  2> #
|  3> ! RKS B3LYP  Opt TightSCF SmallPrint
|  4>
|  5> %basis
|  6>         Basis "6-31G"
|  7> end
|  8>
|  9> %geom
| 10> Constraints
| 11> { D 4  0  15  12  90.0   C } # D for Dihedral angle
| 12> { D 0  15  12  16  120.0   C } # D for Dihedral angle
| 13> { D 0  4  3  2   C } # D for Dihedral angle
| 14> { D 4  3  2  1   C } # D for Dihedral angle
| 15> { D 3  2  1  0   C } # D for Dihedral angle
| 16> { D 2  1  0  4   C } # D for Dihedral angle
| 17> { D 1  0  4  3   C } # D for Dihedral angle
| 18> { D 16  20  19  18   C } # D for Dihedral angle
| 19> { D 20  19  18  17   C } # D for Dihedral angle
| 20> { D 19  18  17  16   C } # D for Dihedral angle
| 21> { D 18  17  16  20   C } # D for Dihedral angle
| 22> { D 17  16  20  19   C } # D for Dihedral angle
| 23> { D 15  12  16  20   C } # D for Dihedral angle
| 24> end
| 25> end
| 26>
| 27>
| 28> #%pal
| 29> #nprocs 8
| 30> #end
| 31>
| 32> * xyz 0 1
| 33> C  -21.048   26.222   46.251
| 34> C  -20.361   27.558   45.944
| 35> C  -20.329   28.222   47.341
| 36> C  -20.110   27.022   48.296
| 37> O  -20.473   25.807   47.535
| 38> H  -20.833   25.428   45.533
| 39> H  -19.344   27.382   45.576
| 40> H  -20.898   28.157   45.201
| 41> H  -19.543   28.978   47.434
| 42> H  -21.289   28.710   47.548
| 43> H  -20.733   27.082   49.195
| 44> H  -19.064   26.913   48.597
| 45> C  -23.061   27.816   46.783
| 46> H  -23.613   27.755   47.730
| 47> H  -22.200   28.481   46.930
| 48> O  -22.586   26.394   46.375
| 49> C  -23.986   28.468   45.719
| 50> C  -23.312   28.505   44.342
| 51> C  -23.519   27.051   43.854
| 52> C  -24.906   26.679   44.433
| 53> O  -25.186   27.651   45.513
| 54> H  -24.320   29.441   46.084
| 55> O  -24.053   29.505   43.414
| 56> H  -22.256   28.792   44.387
| 57> H  -23.484   26.960   42.763
| 58> H  -22.740   26.400   44.269
| 59> H  -24.930   25.665   44.848
| 60> H  -25.707   26.778   43.695
| 61> H  -25.113   29.237   43.353
| 62> *
| 63>
| 64>                          ****END OF INPUT****
 Total Charge           Charge          ....    0
 Multiplicity           Mult            ....    1
 Number of Electrons    NEL             ....  102
FINAL SINGLE POINT ENERGY      -652.785652869180
FINAL SINGLE POINT ENERGY      -652.827652699006
FINAL SINGLE POINT ENERGY      -652.846409528449
FINAL SINGLE POINT ENERGY      -652.850566988858
FINAL SINGLE POINT ENERGY      -652.851272734880
FINAL SINGLE POINT ENERGY      -652.851399231159
FINAL SINGLE POINT ENERGY      -652.851420290143
FINAL SINGLE POINT ENERGY      -652.851421156015
FINAL SINGLE POINT ENERGY      -652.851419479856
                    ***********************HURRAY********************

CARTESIAN COORDINATES (ANGSTROEM)
---------------------------------
  C    -21.206535   26.316706   46.487389
  C    -20.259177   27.423924   45.997666
  C    -19.962394   28.210142   47.313221
  C    -19.948902   27.077733   48.373100
  O    -20.640204   25.924105   47.756731
  H    -21.161974   25.417442   45.870812
  H    -19.345725   26.952096   45.623092
  H    -20.678709   28.044963   45.202686
  H    -19.002181   28.733784   47.268941
  H    -20.730706   28.956656   47.525438
  H    -20.463326   27.350389   49.299317
  H    -18.933961   26.748783   48.613673
  C    -23.260734   27.846061   46.823564
  H    -23.900324   27.684168   47.696972
  H    -22.533587   28.626306   47.066746
  O    -22.629662   26.563456   46.535421
  C    -24.147999   28.343853   45.677857
  C    -23.492282   28.591589   44.310688
  C    -23.510079   27.168924   43.687506
  C    -24.835859   26.573885   44.226417
  O    -25.227995   27.402764   45.388402
  H    -24.624137   29.268145   46.030140
  O    -24.275052   29.540606   43.533357
  H    -22.496431   29.031484   44.369646
  H    -23.479060   27.226159   42.595633
  H    -22.657020   26.590615   44.045401
  H    -24.721782   25.539479   44.559363
  H    -25.652716   26.630196   43.498533
  H    -25.218489   29.274585   43.565287

 Multiplicity           Mult            ....    1
 Number of Electrons    NEL             ....  102
 Basis Dimension        Dim             ....  149

ORBITAL ENERGIES
----------------

  NO   OCC          E(Eh)            E(eV)
   0   2.0000     -19.146933      -521.0145
   1   2.0000     -19.143422      -520.9190
   2   2.0000     -19.139068      -520.8005
   3   2.0000     -19.138429      -520.7831
   4   2.0000     -10.285554      -279.8841
   5   2.0000     -10.242530      -278.7134
   6   2.0000     -10.235790      -278.5300
   7   2.0000     -10.235650      -278.5262
   8   2.0000     -10.232463      -278.4395
   9   2.0000     -10.224552      -278.2242
  10   2.0000     -10.200790      -277.5776
  11   2.0000     -10.200184      -277.5611
  12   2.0000     -10.183347      -277.1030
  13   2.0000      -1.054284       -28.6885
  14   2.0000      -1.035555       -28.1789
  15   2.0000      -1.006915       -27.3995
  16   2.0000      -0.996975       -27.1291
  17   2.0000      -0.794828       -21.6284
  18   2.0000      -0.781943       -21.2777
  19   2.0000      -0.770504       -20.9665
  20   2.0000      -0.738832       -20.1046
  21   2.0000      -0.682085       -18.5605
  22   2.0000      -0.612800       -16.6751
  23   2.0000      -0.607559       -16.5325
  24   2.0000      -0.601343       -16.3634
  25   2.0000      -0.569554       -15.4984
  26   2.0000      -0.522991       -14.2313
  27   2.0000      -0.518553       -14.1105
  28   2.0000      -0.507828       -13.8187
  29   2.0000      -0.492995       -13.4151
  30   2.0000      -0.473003       -12.8711
  31   2.0000      -0.455579       -12.3969
  32   2.0000      -0.451557       -12.2875
  33   2.0000      -0.441364       -12.0101
  34   2.0000      -0.429304       -11.6820
  35   2.0000      -0.425016       -11.5653
  36   2.0000      -0.406041       -11.0489
  37   2.0000      -0.391253       -10.6465
  38   2.0000      -0.387561       -10.5461
  39   2.0000      -0.369400       -10.0519
  40   2.0000      -0.369129       -10.0445
  41   2.0000      -0.364843        -9.9279
  42   2.0000      -0.353920        -9.6306
  43   2.0000      -0.330157        -8.9840
  44   2.0000      -0.318841        -8.6761
  45   2.0000      -0.305898        -8.3239
  46   2.0000      -0.299400        -8.1471
  47   2.0000      -0.273796        -7.4504
  48   2.0000      -0.268344        -7.3020
  49   2.0000      -0.259927        -7.0730
  50   2.0000      -0.239112        -6.5066
  51   0.0000       0.059473         1.6183
  52   0.0000       0.070658         1.9227
  53   0.0000       0.086031         2.3410
  54   0.0000       0.093583         2.5465
  55   0.0000       0.105978         2.8838

MULLIKEN ATOMIC CHARGES
-----------------------
   0 C :    0.317065
   1 C :   -0.303748
   2 C :   -0.314829
   3 C :   -0.007051
   4 O :   -0.500705
   5 H :    0.163219
   6 H :    0.162489
   7 H :    0.150206
   8 H :    0.148531
   9 H :    0.153789
  10 H :    0.147474
  11 H :    0.148628
  12 C :   -0.006038
  13 H :    0.168865
  14 H :    0.119493
  15 O :   -0.528200
  16 C :    0.074276
  17 C :    0.068062
  18 C :   -0.292289
  19 C :   -0.021058
  20 O :   -0.522026
  21 H :    0.152260
  22 O :   -0.603270
  23 H :    0.147492
  24 H :    0.154288
  25 H :    0.159109
  26 H :    0.161605
  27 H :    0.138152
  28 H :    0.364212
Sum of atomic charges:   -0.0000000

LOEWDIN ATOMIC CHARGES
----------------------
   0 C :    0.175563
   1 C :   -0.233448
   2 C :   -0.222980
   3 C :   -0.031963
   4 O :   -0.316094
   5 H :    0.110034
   6 H :    0.126528
   7 H :    0.114431
   8 H :    0.117236
   9 H :    0.108101
  10 H :    0.104763
  11 H :    0.105454
  12 C :   -0.038758
  13 H :    0.120600
  14 H :    0.096118
  15 O :   -0.322051
  16 C :    0.009362
  17 C :    0.034949
  18 C :   -0.240884
  19 C :   -0.033429
  20 O :   -0.327153
  21 H :    0.114482
  22 O :   -0.415429
  23 H :    0.109632
  24 H :    0.120636
  25 H :    0.120914
  26 H :    0.113211
  27 H :    0.097083
  28 H :    0.283094

  Mayer bond orders larger than 0.100000
B(  0-C ,  1-C ) :   0.9183 B(  0-C ,  4-O ) :   0.9042 B(  0-C ,  5-H ) :   0.9350
B(  0-C , 15-O ) :   0.8876 B(  1-C ,  2-C ) :   0.9533 B(  1-C ,  6-H ) :   0.9336
B(  1-C ,  7-H ) :   0.9259 B(  2-C ,  3-C ) :   0.9457 B(  2-C ,  8-H ) :   0.9444
B(  2-C ,  9-H ) :   0.9348 B(  3-C ,  4-O ) :   0.8485 B(  3-C , 10-H ) :   0.9341
B(  3-C , 11-H ) :   0.9386 B( 12-C , 13-H ) :   0.9275 B( 12-C , 14-H ) :   0.8970
B( 12-C , 15-O ) :   0.8486 B( 12-C , 16-C ) :   0.8964 B( 16-C , 17-C ) :   0.9093
B( 16-C , 20-O ) :   0.8737 B( 16-C , 21-H ) :   0.9182 B( 17-C , 18-C ) :   0.9222
B( 17-C , 22-O ) :   0.8884 B( 17-C , 23-H ) :   0.9278 B( 18-C , 19-C ) :   0.9467
B( 18-C , 24-H ) :   0.9363 B( 18-C , 25-H ) :   0.9225 B( 19-C , 20-O ) :   0.8385
B( 19-C , 26-H ) :   0.9319 B( 19-C , 27-H ) :   0.9364 B( 22-O , 28-H ) :   0.7948

FINAL SINGLE POINT ENERGY      -652.851417736811

DIPOLE MOMENT
-------------
                                X             Y             Z
Electronic contribution:     -4.51035      -1.86345       0.51491
Nuclear contribution   :      5.47962       2.44921      -0.66111
                        -----------------------------------------
Total Dipole Moment    :      0.96927       0.58576      -0.14621
                        -----------------------------------------
Magnitude (a.u.)       :      1.14192
Magnitude (Debye)      :      2.90253

Rotational constants in cm-1:     0.054133     0.014919     0.014034
Rotational constants in MHz :  1622.862661   447.249840   420.727501

                             ****ORCA TERMINATED NORMALLY****
TOTAL RUN TIME: 0 days 0 hours 27 minutes 37 seconds 630 msec
