                         Program Version 4.2.1 -  RELEASE  -
|  1> # Test redundant internal optimization
|  2> #
|  3> ! RKS B3LYP  Opt TightSCF SmallPrint
|  4>
|  5> %basis
|  6>         Basis "6-31G"
|  7> end
|  8>
|  9> %geom
| 10> Constraints
| 11> { D 4  0  19  14  0.0   C } # D for Dihedral angle
| 12> { D 0  19  14  12  180.0   C } # D for Dihedral angle
| 13> { D 0  4  3  2   C } # D for Dihedral angle
| 14> { D 4  3  2  1   C } # D for Dihedral angle
| 15> { D 3  2  1  0   C } # D for Dihedral angle
| 16> { D 2  1  0  4   C } # D for Dihedral angle
| 17> { D 1  0  4  3   C } # D for Dihedral angle
| 18> { D 14  15  16  17   C } # D for Dihedral angle
| 19> { D 15  16  17  12   C } # D for Dihedral angle
| 20> { D 16  17  12  14   C } # D for Dihedral angle
| 21> { D 17  12  14  15   C } # D for Dihedral angle
| 22> { D 12  14  15  16   C } # D for Dihedral angle
| 23> end
| 24> end
| 25>
| 26>
| 27> #%pal
| 28> #nprocs 8
| 29> #end
| 30>
| 31> * xyz 0 1
| 32> C  -21.048   26.222   46.251
| 33> C  -20.361   27.558   45.944
| 34> C  -20.329   28.222   47.341
| 35> C  -20.110   27.022   48.296
| 36> O  -20.473   25.807   47.535
| 37> H  -20.833   25.428   45.533
| 38> H  -19.344   27.382   45.576
| 39> H  -20.898   28.157   45.201
| 40> H  -19.543   28.978   47.434
| 41> H  -21.289   28.710   47.548
| 42> H  -20.733   27.082   49.195
| 43> H  -19.064   26.913   48.597
| 44> C  -24.515   26.304   47.687
| 45> H  -24.901   26.386   48.715
| 46> C  -22.995   26.105   47.675
| 47> C  -22.873   24.600   48.007
| 48> C  -24.107   23.983   47.302
| 49> O  -25.042   25.098   47.038
| 50> H  -24.864   27.158   47.105
| 51> O  -22.472   26.381   46.366
| 52> H  -22.473   26.743   48.397
| 53> H  -21.931   24.163   47.659
| 54> H  -22.931   24.446   49.092
| 55> H  -24.611   23.231   47.918
| 56> H  -23.856   23.537   46.334
| 57> *
| 58>
| 59>                          ****END OF INPUT****
 Total Charge           Charge          ....    0
 Multiplicity           Mult            ....    1
 Number of Electrons    NEL             ....   86
FINAL SINGLE POINT ENERGY      -538.421330767741
FINAL SINGLE POINT ENERGY      -538.429293839112
FINAL SINGLE POINT ENERGY      -538.430409201269
FINAL SINGLE POINT ENERGY      -538.430663709427
FINAL SINGLE POINT ENERGY      -538.430681842223
FINAL SINGLE POINT ENERGY      -538.430689798124
                    ***********************HURRAY********************

CARTESIAN COORDINATES (ANGSTROEM)
---------------------------------
  C    -21.010447   26.255839   46.299249
  C    -20.422812   27.625614   45.953465
  C    -20.248341   28.258389   47.354925
  C    -19.866174   27.050529   48.240553
  O    -20.277933   25.840925   47.475600
  H    -20.837814   25.484979   45.544729
  H    -19.454323   27.490025   45.458177
  H    -21.083392   28.198017   45.299239
  H    -19.483716   29.040989   47.372502
  H    -21.193884   28.702011   47.684189
  H    -20.371770   27.043975   49.210255
  H    -18.787221   26.965133   48.399307
  C    -24.571156   26.264961   47.571197
  H    -25.070818   26.374313   48.545069
  C    -23.069518   26.051689   47.763919
  C    -23.012587   24.555982   48.128686
  C    -24.145235   23.937037   47.278619
  O    -25.024096   25.058939   46.876422
  H    -24.799715   27.119558   46.933516
  O    -22.452342   26.356294   46.477439
  H    -22.653077   26.689763   48.552857
  H    -22.029280   24.127681   47.932069
  H    -23.221420   24.445657   49.200707
  H    -24.735193   23.199842   47.834905
  H    -23.773733   23.477858   46.358404

 Multiplicity           Mult            ....    1
 Number of Electrons    NEL             ....   86
 Basis Dimension        Dim             ....  127

ORBITAL ENERGIES
----------------

  NO   OCC          E(Eh)            E(eV)
   0   2.0000     -19.152866      -521.1760
   1   2.0000     -19.136109      -520.7200
   2   2.0000     -19.121510      -520.3228
   3   2.0000     -10.280315      -279.7416
   4   2.0000     -10.237986      -278.5897
   5   2.0000     -10.235609      -278.5251
   6   2.0000     -10.216944      -278.0172
   7   2.0000     -10.213591      -277.9259
   8   2.0000     -10.193858      -277.3890
   9   2.0000     -10.187247      -277.2091
  10   2.0000     -10.175806      -276.8977
  11   2.0000      -1.056088       -28.7376
  12   2.0000      -1.010273       -27.4909
  13   2.0000      -0.986431       -26.8422
  14   2.0000      -0.794562       -21.6211
  15   2.0000      -0.776619       -21.1329
  16   2.0000      -0.740828       -20.1589
  17   2.0000      -0.719775       -19.5861
  18   2.0000      -0.615064       -16.7367
  19   2.0000      -0.604772       -16.4567
  20   2.0000      -0.591845       -16.1049
  21   2.0000      -0.562015       -15.2932
  22   2.0000      -0.525873       -14.3097
  23   2.0000      -0.499205       -13.5841
  24   2.0000      -0.487412       -13.2632
  25   2.0000      -0.480246       -13.0682
  26   2.0000      -0.451915       -12.2972
  27   2.0000      -0.444229       -12.0881
  28   2.0000      -0.420958       -11.4549
  29   2.0000      -0.411043       -11.1850
  30   2.0000      -0.408265       -11.1095
  31   2.0000      -0.385761       -10.4971
  32   2.0000      -0.371447       -10.1076
  33   2.0000      -0.362762        -9.8713
  34   2.0000      -0.361385        -9.8338
  35   2.0000      -0.358864        -9.7652
  36   2.0000      -0.345957        -9.4140
  37   2.0000      -0.329602        -8.9689
  38   2.0000      -0.309378        -8.4186
  39   2.0000      -0.291026        -7.9192
  40   2.0000      -0.264578        -7.1995
  41   2.0000      -0.250414        -6.8141
  42   2.0000      -0.227342        -6.1863
  43   0.0000       0.066507         1.8097
  44   0.0000       0.093847         2.5537
  45   0.0000       0.101728         2.7682
  46   0.0000       0.106203         2.8899
  47   0.0000       0.120453         3.2777

MULLIKEN ATOMIC CHARGES
-----------------------
   0 C :    0.303665
   1 C :   -0.255789
   2 C :   -0.309482
   3 C :   -0.017306
   4 O :   -0.515709
   5 H :    0.157189
   6 H :    0.144583
   7 H :    0.163151
   8 H :    0.148981
   9 H :    0.154062
  10 H :    0.144605
  11 H :    0.152049
  12 C :    0.007868
  13 H :    0.120716
  14 C :    0.079683
  15 C :   -0.300314
  16 C :    0.001641
  17 O :   -0.521048
  18 H :    0.162192
  19 O :   -0.535761
  20 H :    0.122908
  21 H :    0.178704
  22 H :    0.133374
  23 H :    0.132230
  24 H :    0.147808
Sum of atomic charges:   -0.0000000

LOEWDIN ATOMIC CHARGES
----------------------
   0 C :    0.182154
   1 C :   -0.218912
   2 C :   -0.219830
   3 C :   -0.033273
   4 O :   -0.321348
   5 H :    0.104997
   6 H :    0.113829
   7 H :    0.127056
   8 H :    0.118170
   9 H :    0.113741
  10 H :    0.101178
  11 H :    0.107374
  12 C :   -0.032560
  13 H :    0.089308
  14 C :    0.042750
  15 C :   -0.238013
  16 C :   -0.029236
  17 O :   -0.330616
  18 H :    0.120551
  19 O :   -0.334211
  20 H :    0.092169
  21 H :    0.132548
  22 H :    0.110202
  23 H :    0.096815
  24 H :    0.105155

  Mayer bond orders larger than 0.100000
B(  0-C ,  1-C ) :   0.9334 B(  0-C ,  4-O ) :   0.8971 B(  0-C ,  5-H ) :   0.9295
B(  0-C , 19-O ) :   0.8473 B(  1-C ,  2-C ) :   0.9521 B(  1-C ,  6-H ) :   0.9352
B(  1-C ,  7-H ) :   0.9358 B(  2-C ,  3-C ) :   0.9530 B(  2-C ,  8-H ) :   0.9443
B(  2-C ,  9-H ) :   0.9452 B(  3-C ,  4-O ) :   0.8303 B(  3-C , 10-H ) :   0.9313
B(  3-C , 11-H ) :   0.9396 B( 12-C , 13-H ) :   0.9160 B( 12-C , 14-C ) :   0.9364
B( 12-C , 17-O ) :   0.8749 B( 12-C , 18-H ) :   0.9308 B( 14-C , 15-C ) :   0.9318
B( 14-C , 19-O ) :   0.8254 B( 14-C , 20-H ) :   0.9175 B( 15-C , 16-C ) :   0.9419
B( 15-C , 21-H ) :   0.9285 B( 15-C , 22-H ) :   0.9382 B( 16-C , 17-O ) :   0.8558
B( 16-C , 23-H ) :   0.9337 B( 16-C , 24-H ) :   0.9375

FINAL SINGLE POINT ENERGY      -538.430690054411

DIPOLE MOMENT
-------------
                                X             Y             Z
Electronic contribution:     -2.03003      -1.98204      -2.26763
Nuclear contribution   :      3.08986       2.70333       3.03625
                        -----------------------------------------
Total Dipole Moment    :      1.05983       0.72129       0.76862
                        -----------------------------------------
Magnitude (a.u.)       :      1.49475
Magnitude (Debye)      :      3.79936

Rotational constants in cm-1:     0.082526     0.022175     0.020970
Rotational constants in MHz :  2474.066610   664.790727   628.652533

                             ****ORCA TERMINATED NORMALLY****
TOTAL RUN TIME: 0 days 0 hours 7 minutes 11 seconds 674 msec
