                         Program Version 4.2.0 -  RELEASE  -
|  1> # Test redundant internal optimization
|  2> #
|  3> ! RKS B3LYP  Opt TightSCF SmallPrint
|  4>
|  5> %basis
|  6>         Basis "6-31G"
|  7> end
|  8>
|  9> %geom
| 10> Constraints
| 11> { D 4  0  15  12  225.0   C } # D for Dihedral angle
| 12> { D 0  15  12  16  90.0   C } # D for Dihedral angle
| 13> { D 0  4  3  2   C } # D for Dihedral angle
| 14> { D 4  3  2  1   C } # D for Dihedral angle
| 15> { D 3  2  1  0   C } # D for Dihedral angle
| 16> { D 2  1  0  4   C } # D for Dihedral angle
| 17> { D 1  0  4  3   C } # D for Dihedral angle
| 18> { D 16  20  19  18   C } # D for Dihedral angle
| 19> { D 20  19  18  17   C } # D for Dihedral angle
| 20> { D 19  18  17  16   C } # D for Dihedral angle
| 21> { D 18  17  16  20   C } # D for Dihedral angle
| 22> { D 17  16  20  19   C } # D for Dihedral angle
| 23> { D 15  12  16  20   C } # D for Dihedral angle
| 24> end
| 25> end
| 26>
| 27>
| 28> #%pal
| 29> #nprocs 8
| 30> #end
| 31>
| 32> * xyz 0 1
| 33> C  -21.048   26.222   46.251
| 34> C  -20.361   27.558   45.944
| 35> C  -20.329   28.222   47.341
| 36> C  -20.110   27.022   48.296
| 37> O  -20.473   25.807   47.535
| 38> H  -20.833   25.428   45.533
| 39> H  -19.344   27.382   45.576
| 40> H  -20.898   28.157   45.201
| 41> H  -19.543   28.978   47.434
| 42> H  -21.289   28.710   47.548
| 43> H  -20.733   27.082   49.195
| 44> H  -19.064   26.913   48.597
| 45> C  -23.415   25.773   45.218
| 46> H  -24.332   26.358   45.075
| 47> H  -22.844   25.796   44.281
| 48> O  -22.586   26.394   46.375
| 49> C  -23.816   24.297   45.491
| 50> C  -24.762   24.190   46.693
| 51> C  -26.114   24.603   46.066
| 52> C  -26.027   24.025   44.631
| 53> O  -24.596   23.761   44.370
| 54> H  -22.913   23.690   45.571
| 55> O  -24.816   22.723   47.199
| 56> H  -24.468   24.832   47.531
| 57> H  -26.975   24.216   46.620
| 58> H  -26.198   25.696   46.038
| 59> H  -26.407   24.720   43.875
| 60> H  -26.554   23.073   44.532
| 61> H  -25.110   22.060   46.376
| 62> *
| 63>
| 64>                          ****END OF INPUT****
 Total Charge           Charge          ....    0
 Multiplicity           Mult            ....    1
 Number of Electrons    NEL             ....  102
FINAL SINGLE POINT ENERGY      -652.837275755743
FINAL SINGLE POINT ENERGY      -652.859497687509
FINAL SINGLE POINT ENERGY      -652.862569043031
FINAL SINGLE POINT ENERGY      -652.863139891952
FINAL SINGLE POINT ENERGY      -652.863235682773
FINAL SINGLE POINT ENERGY      -652.863246522798
FINAL SINGLE POINT ENERGY      -652.863248612011
                    ***********************HURRAY********************

CARTESIAN COORDINATES (ANGSTROEM)
---------------------------------
  C    -21.100616   26.157287   46.188315
  C    -20.404170   27.490850   45.925461
  C    -20.447381   28.155125   47.321956
  C    -20.277622   26.956583   48.279777
  O    -20.604083   25.750378   47.473794
  H    -20.869224   25.357380   45.478790
  H    -19.369440   27.306787   45.612010
  H    -20.905930   28.078905   45.152841
  H    -19.666505   28.909896   47.454090
  H    -21.420815   28.632006   47.470804
  H    -20.949974   26.992467   49.140260
  H    -19.248101   26.830285   48.627364
  C    -23.337218   25.799082   45.178215
  H    -24.203264   26.458062   45.069497
  H    -22.784587   25.808515   44.229167
  O    -22.542873   26.359595   46.263190
  C    -23.772672   24.365563   45.493741
  C    -24.692351   24.225970   46.715906
  C    -26.063617   24.634752   46.123321
  C    -26.004318   24.084744   44.676646
  O    -24.569632   23.840048   44.377280
  H    -22.896045   23.718312   45.595979
  O    -24.704997   22.854991   47.202006
  H    -24.371391   24.837672   47.557431
  H    -26.879596   24.204029   46.708722
  H    -26.173890   25.724811   46.132760
  H    -26.406572   24.783316   43.936453
  H    -26.522056   23.126701   44.569660
  H    -24.769060   22.243889   46.437566

 Multiplicity           Mult            ....    1
 Number of Electrons    NEL             ....  102
 Basis Dimension        Dim             ....  149

ORBITAL ENERGIES
----------------

  NO   OCC          E(Eh)            E(eV)
   0   2.0000     -19.144573      -520.9503
   1   2.0000     -19.144396      -520.9455
   2   2.0000     -19.140064      -520.8276
   3   2.0000     -19.132064      -520.6099
   4   2.0000     -10.281177      -279.7650
   5   2.0000     -10.233618      -278.4709
   6   2.0000     -10.233142      -278.4580
   7   2.0000     -10.231359      -278.4094
   8   2.0000     -10.231021      -278.4002
   9   2.0000     -10.224568      -278.2246
  10   2.0000     -10.186284      -277.1829
  11   2.0000     -10.186034      -277.1761
  12   2.0000     -10.185784      -277.1693
  13   2.0000      -1.053315       -28.6621
  14   2.0000      -1.034198       -28.1420
  15   2.0000      -1.002057       -27.2674
  16   2.0000      -0.996008       -27.1027
  17   2.0000      -0.787943       -21.4410
  18   2.0000      -0.777231       -21.1495
  19   2.0000      -0.765504       -20.8304
  20   2.0000      -0.731704       -19.9107
  21   2.0000      -0.674889       -18.3647
  22   2.0000      -0.601610       -16.3706
  23   2.0000      -0.601476       -16.3670
  24   2.0000      -0.597648       -16.2628
  25   2.0000      -0.576264       -15.6809
  26   2.0000      -0.520298       -14.1580
  27   2.0000      -0.519336       -14.1319
  28   2.0000      -0.493961       -13.4413
  29   2.0000      -0.489672       -13.3246
  30   2.0000      -0.467041       -12.7088
  31   2.0000      -0.458862       -12.4863
  32   2.0000      -0.452916       -12.3245
  33   2.0000      -0.437207       -11.8970
  34   2.0000      -0.424756       -11.5582
  35   2.0000      -0.412264       -11.2183
  36   2.0000      -0.399804       -10.8792
  37   2.0000      -0.390283       -10.6201
  38   2.0000      -0.373933       -10.1752
  39   2.0000      -0.366510        -9.9733
  40   2.0000      -0.358362        -9.7515
  41   2.0000      -0.356032        -9.6881
  42   2.0000      -0.353379        -9.6159
  43   2.0000      -0.331108        -9.0099
  44   2.0000      -0.315529        -8.5860
  45   2.0000      -0.313366        -8.5271
  46   2.0000      -0.301489        -8.2039
  47   2.0000      -0.275980        -7.5098
  48   2.0000      -0.263003        -7.1567
  49   2.0000      -0.254772        -6.9327
  50   2.0000      -0.237809        -6.4711
  51   0.0000       0.065057         1.7703
  52   0.0000       0.075282         2.0485
  53   0.0000       0.095416         2.5964
  54   0.0000       0.100044         2.7223
  55   0.0000       0.104999         2.8572

MULLIKEN ATOMIC CHARGES
-----------------------
   0 C :    0.285881
   1 C :   -0.254377
   2 C :   -0.301231
   3 C :   -0.001688
   4 O :   -0.501235
   5 H :    0.142562
   6 H :    0.143424
   7 H :    0.145353
   8 H :    0.142102
   9 H :    0.162583
  10 H :    0.153845
  11 H :    0.142238
  12 C :   -0.038383
  13 H :    0.149525
  14 H :    0.144315
  15 O :   -0.511798
  16 C :    0.059882
  17 C :    0.093456
  18 C :   -0.304152
  19 C :   -0.031406
  20 O :   -0.527663
  21 H :    0.164393
  22 O :   -0.600261
  23 H :    0.179155
  24 H :    0.162050
  25 H :    0.147692
  26 H :    0.145707
  27 H :    0.147357
  28 H :    0.360675
Sum of atomic charges:    0.0000000

LOEWDIN ATOMIC CHARGES
----------------------
   0 C :    0.176196
   1 C :   -0.223434
   2 C :   -0.216921
   3 C :   -0.025382
   4 O :   -0.309569
   5 H :    0.098957
   6 H :    0.112761
   7 H :    0.117161
   8 H :    0.114384
   9 H :    0.119413
  10 H :    0.109108
  11 H :    0.102728
  12 C :   -0.043463
  13 H :    0.109700
  14 H :    0.103038
  15 O :   -0.335276
  16 C :    0.005561
  17 C :    0.039367
  18 C :   -0.242829
  19 C :   -0.038523
  20 O :   -0.333517
  21 H :    0.116021
  22 O :   -0.412781
  23 H :    0.129438
  24 H :    0.126879
  25 H :    0.114284
  26 H :    0.103437
  27 H :    0.102963
  28 H :    0.280298

  Mayer bond orders larger than 0.100000
B(  0-C ,  1-C ) :   0.9388 B(  0-C ,  4-O ) :   0.9371 B(  0-C ,  5-H ) :   0.9180
B(  0-C , 15-O ) :   0.8267 B(  1-C ,  2-C ) :   0.9555 B(  1-C ,  6-H ) :   0.9352
B(  1-C ,  7-H ) :   0.9386 B(  2-C ,  3-C ) :   0.9548 B(  2-C ,  8-H ) :   0.9450
B(  2-C ,  9-H ) :   0.9435 B(  3-C ,  4-O ) :   0.8356 B(  3-C , 10-H ) :   0.9345
B(  3-C , 11-H ) :   0.9397 B( 12-C , 13-H ) :   0.9382 B( 12-C , 14-H ) :   0.9208
B( 12-C , 15-O ) :   0.8483 B( 12-C , 16-C ) :   0.8784 B( 16-C , 17-C ) :   0.9140
B( 16-C , 20-O ) :   0.8395 B( 16-C , 21-H ) :   0.9253 B( 17-C , 18-C ) :   0.9117
B( 17-C , 22-O ) :   0.8919 B( 17-C , 23-H ) :   0.9230 B( 18-C , 19-C ) :   0.9411
B( 18-C , 24-H ) :   0.9381 B( 18-C , 25-H ) :   0.9347 B( 19-C , 20-O ) :   0.8424
B( 19-C , 26-H ) :   0.9357 B( 19-C , 27-H ) :   0.9381 B( 22-O , 28-H ) :   0.7969

FINAL SINGLE POINT ENERGY      -652.863248725622

DIPOLE MOMENT
-------------
                                X             Y             Z
Electronic contribution:     -0.23405      -4.94557       0.12295
Nuclear contribution   :      0.15150       6.06482      -0.77587
                        -----------------------------------------
Total Dipole Moment    :     -0.08255       1.11925      -0.65293
                        -----------------------------------------
Magnitude (a.u.)       :      1.29841
Magnitude (Debye)      :      3.30028

Rotational constants in cm-1:     0.059629     0.012417     0.011499
Rotational constants in MHz :  1787.644096   372.252613   344.737348

                             ****ORCA TERMINATED NORMALLY****
TOTAL RUN TIME: 0 days 0 hours 36 minutes 16 seconds 625 msec
