                         Program Version 4.2.0 -  RELEASE  -
|  1> # Test redundant internal optimization
|  2> #
|  3> ! RKS B3LYP  Opt TightSCF SmallPrint
|  4>
|  5> %basis
|  6>         Basis "6-31G"
|  7> end
|  8>
|  9> %geom
| 10> Constraints
| 11> { D 4  0  15  12  0.0   C } # D for Dihedral angle
| 12> { D 0  15  12  16  255.0   C } # D for Dihedral angle
| 13> { D 0  4  3  2   C } # D for Dihedral angle
| 14> { D 4  3  2  1   C } # D for Dihedral angle
| 15> { D 3  2  1  0   C } # D for Dihedral angle
| 16> { D 2  1  0  4   C } # D for Dihedral angle
| 17> { D 1  0  4  3   C } # D for Dihedral angle
| 18> { D 16  20  19  18   C } # D for Dihedral angle
| 19> { D 20  19  18  17   C } # D for Dihedral angle
| 20> { D 19  18  17  16   C } # D for Dihedral angle
| 21> { D 18  17  16  20   C } # D for Dihedral angle
| 22> { D 17  16  20  19   C } # D for Dihedral angle
| 23> { D 15  12  16  20   C } # D for Dihedral angle
| 24> end
| 25> end
| 26>
| 27>
| 28> #%pal
| 29> #nprocs 8
| 30> #end
| 31>
| 32> * xyz 0 1
| 33> C  -21.048   26.222   46.251
| 34> C  -20.361   27.558   45.944
| 35> C  -20.329   28.222   47.341
| 36> C  -20.110   27.022   48.296
| 37> O  -20.473   25.807   47.535
| 38> H  -20.833   25.428   45.533
| 39> H  -19.344   27.382   45.576
| 40> H  -20.898   28.157   45.201
| 41> H  -19.543   28.978   47.434
| 42> H  -21.289   28.710   47.548
| 43> H  -20.733   27.082   49.195
| 44> H  -19.064   26.913   48.597
| 45> C  -23.172   26.101   47.783
| 46> H  -22.358   26.087   48.518
| 47> H  -23.883   26.884   48.074
| 48> O  -22.586   26.394   46.375
| 49> C  -23.915   24.738   47.853
| 50> C  -25.015   24.649   46.787
| 51> C  -24.195   24.311   45.519
| 52> C  -23.060   23.409   46.063
| 53> O  -23.003   23.639   47.523
| 54> H  -24.262   24.571   48.874
| 55> H  -25.706   23.834   47.029
| 56> O  -25.834   25.960   46.644
| 57> H  -24.791   23.813   44.748
| 58> H  -23.782   25.229   45.082
| 59> H  -22.086   23.648   45.623
| 60> H  -23.264   22.344   45.913
| 61> H  -25.161   26.790   46.402
| 62> *
| 63>
| 64>                          ****END OF INPUT****
 Total Charge           Charge          ....    0
 Multiplicity           Mult            ....    1
 Number of Electrons    NEL             ....  102
FINAL SINGLE POINT ENERGY      -652.827898674194
FINAL SINGLE POINT ENERGY      -652.851577811435
FINAL SINGLE POINT ENERGY      -652.856598722038
FINAL SINGLE POINT ENERGY      -652.859015371263
FINAL SINGLE POINT ENERGY      -652.859231486146
FINAL SINGLE POINT ENERGY      -652.859273221034
FINAL SINGLE POINT ENERGY      -652.859275612746
                    ***********************HURRAY********************

CARTESIAN COORDINATES (ANGSTROEM)
---------------------------------
  C    -21.048027   26.296643   46.350644
  C    -20.425568   27.653918   46.023097
  C    -20.259105   28.275483   47.430629
  C    -19.918011   27.056647   48.313995
  O    -20.347309   25.861232   47.529479
  H    -20.885744   25.525628   45.594474
  H    -19.452007   27.497119   45.544205
  H    -21.057969   28.248352   45.360220
  H    -19.478036   29.041222   47.462500
  H    -21.199224   28.738440   47.748293
  H    -20.440106   27.053113   49.274436
  H    -18.844689   26.940334   48.487189
  C    -23.148086   26.128201   47.774586
  H    -22.403545   26.098062   48.573645
  H    -23.860302   26.937814   47.967010
  O    -22.498556   26.427451   46.502667
  C    -23.897419   24.794529   47.773488
  C    -25.029335   24.682523   46.735317
  C    -24.256421   24.208491   45.466017
  C    -23.161309   23.296824   46.059446
  O    -23.060144   23.635750   47.501713
  H    -24.288547   24.656820   48.789523
  H    -25.757400   23.934637   47.056216
  O    -25.796805   25.896656   46.549798
  H    -24.905879   23.684259   44.758743
  H    -23.817366   25.081468   44.976363
  H    -22.182638   23.443292   45.592059
  H    -23.423698   22.235367   46.002984
  H    -25.254754   26.551726   46.062265

 Multiplicity           Mult            ....    1
 Number of Electrons    NEL             ....  102
 Basis Dimension        Dim             ....  149

ORBITAL ENERGIES
----------------

  NO   OCC          E(Eh)            E(eV)
   0   2.0000     -19.153190      -521.1848
   1   2.0000     -19.143350      -520.9170
   2   2.0000     -19.136036      -520.7180
   3   2.0000     -19.130053      -520.5552
   4   2.0000     -10.283761      -279.8354
   5   2.0000     -10.234859      -278.5047
   6   2.0000     -10.232122      -278.4302
   7   2.0000     -10.225943      -278.2620
   8   2.0000     -10.223298      -278.1901
   9   2.0000     -10.220295      -278.1084
  10   2.0000     -10.194315      -277.4014
  11   2.0000     -10.189641      -277.2742
  12   2.0000     -10.177155      -276.9345
  13   2.0000      -1.057491       -28.7758
  14   2.0000      -1.023494       -27.8507
  15   2.0000      -1.005852       -27.3706
  16   2.0000      -0.993172       -27.0256
  17   2.0000      -0.794066       -21.6076
  18   2.0000      -0.770187       -20.9579
  19   2.0000      -0.764167       -20.7940
  20   2.0000      -0.734314       -19.9817
  21   2.0000      -0.674859       -18.3638
  22   2.0000      -0.607330       -16.5263
  23   2.0000      -0.600195       -16.3321
  24   2.0000      -0.598538       -16.2870
  25   2.0000      -0.558540       -15.1986
  26   2.0000      -0.528608       -14.3842
  27   2.0000      -0.508486       -13.8366
  28   2.0000      -0.495788       -13.4911
  29   2.0000      -0.488382       -13.2896
  30   2.0000      -0.471198       -12.8220
  31   2.0000      -0.461449       -12.5567
  32   2.0000      -0.434800       -11.8315
  33   2.0000      -0.432154       -11.7595
  34   2.0000      -0.422717       -11.5027
  35   2.0000      -0.414524       -11.2798
  36   2.0000      -0.401406       -10.9228
  37   2.0000      -0.388623       -10.5750
  38   2.0000      -0.376505       -10.2452
  39   2.0000      -0.373571       -10.1654
  40   2.0000      -0.363530        -9.8922
  41   2.0000      -0.355147        -9.6640
  42   2.0000      -0.346761        -9.4359
  43   2.0000      -0.332540        -9.0489
  44   2.0000      -0.320708        -8.7269
  45   2.0000      -0.308604        -8.3975
  46   2.0000      -0.300929        -8.1887
  47   2.0000      -0.268623        -7.3096
  48   2.0000      -0.262828        -7.1519
  49   2.0000      -0.256177        -6.9709
  50   2.0000      -0.229827        -6.2539
  51   0.0000       0.067221         1.8292
  52   0.0000       0.082715         2.2508
  53   0.0000       0.091824         2.4986
  54   0.0000       0.096382         2.6227
  55   0.0000       0.106293         2.8924

MULLIKEN ATOMIC CHARGES
-----------------------
   0 C :    0.309950
   1 C :   -0.258775
   2 C :   -0.306060
   3 C :   -0.022668
   4 O :   -0.498543
   5 H :    0.154947
   6 H :    0.146552
   7 H :    0.156141
   8 H :    0.149271
   9 H :    0.154653
  10 H :    0.148158
  11 H :    0.154069
  12 C :   -0.038536
  13 H :    0.165566
  14 H :    0.144190
  15 O :   -0.557759
  16 C :    0.104919
  17 C :    0.088054
  18 C :   -0.311510
  19 C :   -0.010257
  20 O :   -0.514814
  21 H :    0.140955
  22 H :    0.159452
  23 O :   -0.609693
  24 H :    0.142589
  25 H :    0.159473
  26 H :    0.140757
  27 H :    0.143365
  28 H :    0.365554
Sum of atomic charges:   -0.0000000

LOEWDIN ATOMIC CHARGES
----------------------
   0 C :    0.185234
   1 C :   -0.221206
   2 C :   -0.219519
   3 C :   -0.033104
   4 O :   -0.307249
   5 H :    0.102294
   6 H :    0.114683
   7 H :    0.123464
   8 H :    0.118272
   9 H :    0.114541
  10 H :    0.103502
  11 H :    0.108750
  12 C :   -0.051846
  13 H :    0.116480
  14 H :    0.107531
  15 O :   -0.354508
  16 C :    0.013292
  17 C :    0.036707
  18 C :   -0.243084
  19 C :   -0.026285
  20 O :   -0.318604
  21 H :    0.111142
  22 H :    0.114964
  23 O :   -0.412948
  24 H :    0.114318
  25 H :    0.118706
  26 H :    0.099680
  27 H :    0.101694
  28 H :    0.283100

  Mayer bond orders larger than 0.100000
B(  0-C ,  1-C ) :   0.9305 B(  0-C ,  4-O ) :   0.9270 B(  0-C ,  5-H ) :   0.9252
B(  0-C , 15-O ) :   0.8241 B(  1-C ,  2-C ) :   0.9541 B(  1-C ,  6-H ) :   0.9349
B(  1-C ,  7-H ) :   0.9366 B(  2-C ,  3-C ) :   0.9511 B(  2-C ,  8-H ) :   0.9446
B(  2-C ,  9-H ) :   0.9456 B(  3-C ,  4-O ) :   0.8303 B(  3-C , 10-H ) :   0.9309
B(  3-C , 11-H ) :   0.9402 B( 12-C , 13-H ) :   0.9128 B( 12-C , 14-H ) :   0.9179
B( 12-C , 15-O ) :   0.8425 B( 12-C , 16-C ) :   0.8939 B( 16-C , 17-C ) :   0.8890
B( 16-C , 20-O ) :   0.8823 B( 16-C , 21-H ) :   0.9246 B( 17-C , 18-C ) :   0.9317
B( 17-C , 22-H ) :   0.9369 B( 17-C , 23-O ) :   0.8991 B( 18-C , 19-C ) :   0.9430
B( 18-C , 24-H ) :   0.9415 B( 18-C , 25-H ) :   0.9287 B( 19-C , 20-O ) :   0.8425
B( 19-C , 26-H ) :   0.9288 B( 19-C , 27-H ) :   0.9379 B( 23-O , 28-H ) :   0.7928

FINAL SINGLE POINT ENERGY      -652.859274335894

DIPOLE MOMENT
-------------
                                X             Y             Z
Electronic contribution:     -2.43448      -3.05016       1.05090
Nuclear contribution   :      3.20776       4.01901      -1.43222
                        -----------------------------------------
Total Dipole Moment    :      0.77328       0.96884      -0.38132
                        -----------------------------------------
Magnitude (a.u.)       :      1.29693
Magnitude (Debye)      :      3.29653

Rotational constants in cm-1:     0.050827     0.016146     0.015052
Rotational constants in MHz :  1523.754303   484.048603   451.262008

                             ****ORCA TERMINATED NORMALLY****
TOTAL RUN TIME: 0 days 0 hours 32 minutes 34 seconds 760 msec
