                         Program Version 4.2.0 -  RELEASE  -
|  1> # Test redundant internal optimization
|  2> #
|  3> ! RKS B3LYP  Opt TightSCF SmallPrint
|  4>
|  5> %basis
|  6>         Basis "6-31G"
|  7> end
|  8>
|  9> %geom
| 10> Constraints
| 11> { D 4  0  15  12  210.0   C } # D for Dihedral angle
| 12> { D 0  15  12  16  105.0   C } # D for Dihedral angle
| 13> { D 0  4  3  2   C } # D for Dihedral angle
| 14> { D 4  3  2  1   C } # D for Dihedral angle
| 15> { D 3  2  1  0   C } # D for Dihedral angle
| 16> { D 2  1  0  4   C } # D for Dihedral angle
| 17> { D 1  0  4  3   C } # D for Dihedral angle
| 18> { D 16  20  19  18   C } # D for Dihedral angle
| 19> { D 20  19  18  17   C } # D for Dihedral angle
| 20> { D 19  18  17  16   C } # D for Dihedral angle
| 21> { D 18  17  16  20   C } # D for Dihedral angle
| 22> { D 17  16  20  19   C } # D for Dihedral angle
| 23> { D 15  12  16  20   C } # D for Dihedral angle
| 24> end
| 25> end
| 26>
| 27>
| 28> #%pal
| 29> #nprocs 8
| 30> #end
| 31>
| 32> * xyz 0 1
| 33> C  -21.048   26.222   46.251
| 34> C  -20.361   27.558   45.944
| 35> C  -20.329   28.222   47.341
| 36> C  -20.110   27.022   48.296
| 37> O  -20.473   25.807   47.535
| 38> H  -20.833   25.428   45.533
| 39> H  -19.344   27.382   45.576
| 40> H  -20.898   28.157   45.201
| 41> H  -19.543   28.978   47.434
| 42> H  -21.289   28.710   47.548
| 43> H  -20.733   27.082   49.195
| 44> H  -19.064   26.913   48.597
| 45> C  -23.389   26.110   45.076
| 46> H  -24.131   26.905   44.928
| 47> H  -22.720   26.099   44.206
| 48> O  -22.586   26.394   46.375
| 49> C  -24.135   24.748   45.117
| 50> C  -23.170   23.593   45.411
| 51> C  -22.992   23.716   46.943
| 52> C  -24.389   24.184   47.423
| 53> O  -25.086   24.717   46.232
| 54> H  -24.714   24.630   44.199
| 55> H  -23.638   22.637   45.152
| 56> O  -21.827   23.707   44.638
| 57> H  -22.683   22.777   47.412
| 58> H  -22.232   24.472   47.175
| 59> H  -24.331   24.967   48.186
| 60> H  -24.996   23.359   47.808
| 61> H  -21.342   24.658   44.883
| 62> *
| 63>
| 64>                          ****END OF INPUT****
 Total Charge           Charge          ....    0
 Multiplicity           Mult            ....    1
 Number of Electrons    NEL             ....  102
FINAL SINGLE POINT ENERGY      -652.807398161990
FINAL SINGLE POINT ENERGY      -652.838117051770
FINAL SINGLE POINT ENERGY      -652.852949134267
FINAL SINGLE POINT ENERGY      -652.855673123917
FINAL SINGLE POINT ENERGY      -652.856632574887
FINAL SINGLE POINT ENERGY      -652.857188707894
FINAL SINGLE POINT ENERGY      -652.857722992424
FINAL SINGLE POINT ENERGY      -652.858433103858
FINAL SINGLE POINT ENERGY      -652.859114596673
FINAL SINGLE POINT ENERGY      -652.859661645550
FINAL SINGLE POINT ENERGY      -652.860270580619
FINAL SINGLE POINT ENERGY      -652.860908911240
FINAL SINGLE POINT ENERGY      -652.861514904702
FINAL SINGLE POINT ENERGY      -652.862012052026
FINAL SINGLE POINT ENERGY      -652.861800740461
FINAL SINGLE POINT ENERGY      -652.862465841508
FINAL SINGLE POINT ENERGY      -652.862477844176
FINAL SINGLE POINT ENERGY      -652.862480880694
                    ***********************HURRAY********************

CARTESIAN COORDINATES (ANGSTROEM)
---------------------------------
  C    -21.022866   26.331654   46.221316
  C    -20.352411   27.675299   45.937803
  C    -20.393857   28.353597   47.328645
  C    -20.193383   27.167050   48.296528
  O    -20.505642   25.946913   47.507768
  H    -20.811661   25.524664   45.518600
  H    -19.317950   27.507080   45.613718
  H    -20.870798   28.248614   45.164683
  H    -19.625343   29.123353   47.447250
  H    -21.374949   28.811836   47.482691
  H    -20.857586   27.202199   49.163572
  H    -19.158072   27.064141   48.635512
  C    -23.262535   26.228675   45.163249
  H    -24.002675   27.032537   45.100986
  H    -22.638845   26.251622   44.259928
  O    -22.467836   26.506967   46.354573
  C    -24.026630   24.903172   45.214546
  C    -23.194318   23.620656   45.373563
  C    -22.995436   23.554232   46.917737
  C    -24.331915   24.120667   47.450949
  O    -24.961043   24.851421   46.327263
  H    -24.635513   24.861678   44.302177
  H    -23.787142   22.764064   45.025454
  O    -21.972269   23.723614   44.591734
  H    -22.818668   22.530152   47.266357
  H    -22.155914   24.182538   47.218076
  H    -24.179996   24.815737   48.280607
  H    -25.034003   23.337288   47.754361
  H    -21.436741   22.912580   44.695355

 Multiplicity           Mult            ....    1
 Number of Electrons    NEL             ....  102
 Basis Dimension        Dim             ....  149

ORBITAL ENERGIES
----------------

  NO   OCC          E(Eh)            E(eV)
   0   2.0000     -19.150025      -521.0987
   1   2.0000     -19.137168      -520.7488
   2   2.0000     -19.130787      -520.5752
   3   2.0000     -19.126725      -520.4646
   4   2.0000     -10.266446      -279.3642
   5   2.0000     -10.239409      -278.6285
   6   2.0000     -10.226060      -278.2652
   7   2.0000     -10.221271      -278.1349
   8   2.0000     -10.219607      -278.0896
   9   2.0000     -10.214372      -277.9472
  10   2.0000     -10.180538      -277.0265
  11   2.0000     -10.179352      -276.9942
  12   2.0000     -10.171170      -276.7716
  13   2.0000      -1.045465       -28.4485
  14   2.0000      -1.028733       -27.9933
  15   2.0000      -1.009421       -27.4678
  16   2.0000      -0.983886       -26.7729
  17   2.0000      -0.780415       -21.2362
  18   2.0000      -0.768305       -20.9066
  19   2.0000      -0.757718       -20.6186
  20   2.0000      -0.725068       -19.7301
  21   2.0000      -0.669079       -18.2066
  22   2.0000      -0.596945       -16.2437
  23   2.0000      -0.593738       -16.1564
  24   2.0000      -0.586648       -15.9635
  25   2.0000      -0.557187       -15.1618
  26   2.0000      -0.522549       -14.2193
  27   2.0000      -0.508686       -13.8421
  28   2.0000      -0.488462       -13.2917
  29   2.0000      -0.486662       -13.2428
  30   2.0000      -0.461730       -12.5643
  31   2.0000      -0.449965       -12.2442
  32   2.0000      -0.435509       -11.8508
  33   2.0000      -0.426740       -11.6122
  34   2.0000      -0.420928       -11.4540
  35   2.0000      -0.406877       -11.0717
  36   2.0000      -0.397959       -10.8290
  37   2.0000      -0.388543       -10.5728
  38   2.0000      -0.367740       -10.0067
  39   2.0000      -0.358415        -9.7530
  40   2.0000      -0.352823        -9.6008
  41   2.0000      -0.351204        -9.5567
  42   2.0000      -0.344382        -9.3711
  43   2.0000      -0.328555        -8.9404
  44   2.0000      -0.310820        -8.4579
  45   2.0000      -0.297601        -8.0981
  46   2.0000      -0.291528        -7.9329
  47   2.0000      -0.272349        -7.4110
  48   2.0000      -0.258384        -7.0310
  49   2.0000      -0.248660        -6.7664
  50   2.0000      -0.225810        -6.1446
  51   0.0000       0.055549         1.5116
  52   0.0000       0.086623         2.3571
  53   0.0000       0.098544         2.6815
  54   0.0000       0.113820         3.0972
  55   0.0000       0.118649         3.2286

MULLIKEN ATOMIC CHARGES
-----------------------
   0 C :    0.272692
   1 C :   -0.256141
   2 C :   -0.299680
   3 C :    0.001023
   4 O :   -0.518367
   5 H :    0.175838
   6 H :    0.139204
   7 H :    0.144548
   8 H :    0.138593
   9 H :    0.163622
  10 H :    0.150507
  11 H :    0.138376
  12 C :   -0.010050
  13 H :    0.155995
  14 H :    0.137761
  15 O :   -0.519904
  16 C :    0.102989
  17 C :    0.081305
  18 C :   -0.331771
  19 C :   -0.002506
  20 O :   -0.522873
  21 H :    0.140677
  22 H :    0.137241
  23 O :   -0.614149
  24 H :    0.121865
  25 H :    0.215749
  26 H :    0.156812
  27 H :    0.134747
  28 H :    0.365895
Sum of atomic charges:    0.0000000

LOEWDIN ATOMIC CHARGES
----------------------
   0 C :    0.165712
   1 C :   -0.223898
   2 C :   -0.217133
   3 C :   -0.025587
   4 O :   -0.315167
   5 H :    0.112100
   6 H :    0.110524
   7 H :    0.116012
   8 H :    0.112597
   9 H :    0.120188
  10 H :    0.107374
  11 H :    0.100435
  12 C :   -0.039988
  13 H :    0.114990
  14 H :    0.104663
  15 O :   -0.337491
  16 C :    0.028010
  17 C :    0.033059
  18 C :   -0.250350
  19 C :   -0.022470
  20 O :   -0.322936
  21 H :    0.109897
  22 H :    0.097023
  23 O :   -0.418978
  24 H :    0.104286
  25 H :    0.142861
  26 H :    0.110448
  27 H :    0.096788
  28 H :    0.287032

  Mayer bond orders larger than 0.100000
B(  0-C ,  1-C ) :   0.9374 B(  0-C ,  4-O ) :   0.8913 B(  0-C ,  5-H ) :   0.8922
B(  0-C , 15-O ) :   0.8228 B(  1-C ,  2-C ) :   0.9518 B(  1-C ,  6-H ) :   0.9357
B(  1-C ,  7-H ) :   0.9394 B(  2-C ,  3-C ) :   0.9565 B(  2-C ,  8-H ) :   0.9454
B(  2-C ,  9-H ) :   0.9430 B(  3-C ,  4-O ) :   0.8338 B(  3-C , 10-H ) :   0.9353
B(  3-C , 11-H ) :   0.9403 B( 12-C , 13-H ) :   0.9322 B( 12-C , 14-H ) :   0.9100
B( 12-C , 15-O ) :   0.8676 B( 12-C , 16-C ) :   0.9007 B( 16-C , 17-C ) :   0.9269
B( 16-C , 20-O ) :   0.8853 B( 16-C , 21-H ) :   0.9241 B( 17-C , 18-C ) :   0.9236
B( 17-C , 22-H ) :   0.9256 B( 17-C , 23-O ) :   0.8610 B( 18-C , 19-C ) :   0.9477
B( 18-C , 24-H ) :   0.9433 B( 18-C , 25-H ) :   0.9023 B( 19-C , 20-O ) :   0.8383
B( 19-C , 26-H ) :   0.9315 B( 19-C , 27-H ) :   0.9370 B( 23-O , 28-H ) :   0.8002

FINAL SINGLE POINT ENERGY      -652.862481384071

DIPOLE MOMENT
-------------
                                X             Y             Z
Electronic contribution:     -2.66592      -2.71364      -1.49401
Nuclear contribution   :      3.51440       2.44441       1.19778
                        -----------------------------------------
Total Dipole Moment    :      0.84848      -0.26923      -0.29624
                        -----------------------------------------
Magnitude (a.u.)       :      0.93817
Magnitude (Debye)      :      2.38464

Rotational constants in cm-1:     0.046901     0.016766     0.016362
Rotational constants in MHz :  1406.063861   502.640072   490.521938

                             ****ORCA TERMINATED NORMALLY****
TOTAL RUN TIME: 0 days 1 hours 35 minutes 34 seconds 517 msec
