                         Program Version 4.2.0 -  RELEASE  -
|  1> # Test redundant internal optimization
|  2> #
|  3> ! RKS B3LYP  Opt TightSCF SmallPrint
|  4>
|  5> %basis
|  6>         Basis "6-31G"
|  7> end
|  8>
|  9> %geom
| 10> Constraints
| 11> { D 4  0  15  12  255.0   C } # D for Dihedral angle
| 12> { D 0  15  12  16  135.0   C } # D for Dihedral angle
| 13> { D 0  4  3  2   C } # D for Dihedral angle
| 14> { D 4  3  2  1   C } # D for Dihedral angle
| 15> { D 3  2  1  0   C } # D for Dihedral angle
| 16> { D 2  1  0  4   C } # D for Dihedral angle
| 17> { D 1  0  4  3   C } # D for Dihedral angle
| 18> { D 16  20  19  18   C } # D for Dihedral angle
| 19> { D 20  19  18  17   C } # D for Dihedral angle
| 20> { D 19  18  17  16   C } # D for Dihedral angle
| 21> { D 18  17  16  20   C } # D for Dihedral angle
| 22> { D 17  16  20  19   C } # D for Dihedral angle
| 23> { D 15  12  16  20   C } # D for Dihedral angle
| 24> end
| 25> end
| 26>
| 27>
| 28> #%pal
| 29> #nprocs 8
| 30> #end
| 31>
| 32> * xyz 0 1
| 33> C  -21.048   26.222   46.251
| 34> C  -20.361   27.558   45.944
| 35> C  -20.329   28.222   47.341
| 36> C  -20.110   27.022   48.296
| 37> O  -20.473   25.807   47.535
| 38> H  -20.833   25.428   45.533
| 39> H  -19.344   27.382   45.576
| 40> H  -20.898   28.157   45.201
| 41> H  -19.543   28.978   47.434
| 42> H  -21.289   28.710   47.548
| 43> H  -20.733   27.082   49.195
| 44> H  -19.064   26.913   48.597
| 45> C  -23.431   25.260   45.734
| 46> H  -23.860   25.617   44.789
| 47> H  -22.801   24.387   45.516
| 48> O  -22.586   26.394   46.375
| 49> C  -24.594   24.786   46.649
| 50> C  -25.620   25.903   46.868
| 51> C  -26.430   25.848   45.550
| 52> C  -26.447   24.336   45.212
| 53> O  -25.357   23.717   45.996
| 54> H  -24.178   24.367   47.567
| 55> O  -26.526   25.563   48.083
| 56> H  -25.161   26.882   47.044
| 57> H  -27.437   26.264   45.654
| 58> H  -25.912   26.415   44.767
| 59> H  -26.277   24.144   44.147
| 60> H  -27.379   23.851   45.514
| 61> H  -26.998   24.586   47.929
| 62> *
| 63>
| 64>                          ****END OF INPUT****
 Total Charge           Charge          ....    0
 Multiplicity           Mult            ....    1
 Number of Electrons    NEL             ....  102
FINAL SINGLE POINT ENERGY      -652.838438930639
FINAL SINGLE POINT ENERGY      -652.861249353209
FINAL SINGLE POINT ENERGY      -652.864868407530
FINAL SINGLE POINT ENERGY      -652.865488238636
FINAL SINGLE POINT ENERGY      -652.865568200907
FINAL SINGLE POINT ENERGY      -652.865579679515
FINAL SINGLE POINT ENERGY      -652.865582146334
                    ***********************HURRAY********************

CARTESIAN COORDINATES (ANGSTROEM)
---------------------------------
  C    -21.087068   26.124920   46.206742
  C    -20.494870   27.511877   45.956501
  C    -20.596714   28.159784   47.358077
  C    -20.338398   26.969686   48.308854
  O    -20.564245   25.746715   47.497431
  H    -20.787466   25.343809   45.502078
  H    -19.447543   27.409500   45.649094
  H    -21.040061   28.059989   45.185383
  H    -19.877531   28.971693   47.500851
  H    -21.604697   28.558735   47.505564
  H    -21.014699   26.951116   49.167061
  H    -19.303793   26.924182   48.661919
  C    -23.323660   25.189692   45.627799
  H    -23.708415   25.541663   44.662257
  H    -22.718730   24.291546   45.452465
  O    -22.528975   26.244870   46.240220
  C    -24.464939   24.837696   46.580738
  C    -25.454378   25.978910   46.852702
  C    -26.351439   25.923027   45.589695
  C    -26.420796   24.408603   45.271347
  O    -25.288228   23.774137   45.993177
  H    -24.046914   24.450380   47.513606
  O    -26.217181   25.726508   48.065631
  H    -24.964374   26.939075   47.004092
  H    -27.331753   26.360712   45.792651
  H    -25.889106   26.483048   44.769156
  H    -26.326450   24.192069   44.202759
  H    -27.339045   23.942839   45.641880
  H    -26.487532   24.784221   48.085269

 Multiplicity           Mult            ....    1
 Number of Electrons    NEL             ....  102
 Basis Dimension        Dim             ....  149

ORBITAL ENERGIES
----------------

  NO   OCC          E(Eh)            E(eV)
   0   2.0000     -19.145748      -520.9823
   1   2.0000     -19.143870      -520.9312
   2   2.0000     -19.137846      -520.7673
   3   2.0000     -19.133353      -520.6450
   4   2.0000     -10.281337      -279.7694
   5   2.0000     -10.234001      -278.4813
   6   2.0000     -10.232717      -278.4464
   7   2.0000     -10.230766      -278.3933
   8   2.0000     -10.230110      -278.3755
   9   2.0000     -10.223385      -278.1924
  10   2.0000     -10.186335      -277.1843
  11   2.0000     -10.185474      -277.1608
  12   2.0000     -10.184764      -277.1415
  13   2.0000      -1.053381       -28.6639
  14   2.0000      -1.034159       -28.1409
  15   2.0000      -1.002537       -27.2804
  16   2.0000      -0.995737       -27.0954
  17   2.0000      -0.789094       -21.4723
  18   2.0000      -0.777361       -21.1531
  19   2.0000      -0.766302       -20.8521
  20   2.0000      -0.729015       -19.8375
  21   2.0000      -0.674177       -18.3453
  22   2.0000      -0.602874       -16.4050
  23   2.0000      -0.597934       -16.2706
  24   2.0000      -0.591695       -16.1008
  25   2.0000      -0.582791       -15.8586
  26   2.0000      -0.520422       -14.1614
  27   2.0000      -0.519717       -14.1422
  28   2.0000      -0.496279       -13.5044
  29   2.0000      -0.486417       -13.2361
  30   2.0000      -0.468082       -12.7372
  31   2.0000      -0.456342       -12.4177
  32   2.0000      -0.449548       -12.2328
  33   2.0000      -0.440462       -11.9856
  34   2.0000      -0.425623       -11.5818
  35   2.0000      -0.412916       -11.2360
  36   2.0000      -0.399505       -10.8711
  37   2.0000      -0.391097       -10.6423
  38   2.0000      -0.373086       -10.1522
  39   2.0000      -0.365067        -9.9340
  40   2.0000      -0.358168        -9.7463
  41   2.0000      -0.354436        -9.6447
  42   2.0000      -0.349234        -9.5032
  43   2.0000      -0.329272        -8.9599
  44   2.0000      -0.321267        -8.7421
  45   2.0000      -0.308924        -8.4062
  46   2.0000      -0.301310        -8.1991
  47   2.0000      -0.278122        -7.5681
  48   2.0000      -0.263633        -7.1738
  49   2.0000      -0.250586        -6.8188
  50   2.0000      -0.242635        -6.6024
  51   0.0000       0.064301         1.7497
  52   0.0000       0.077385         2.1058
  53   0.0000       0.096826         2.6348
  54   0.0000       0.101300         2.7565
  55   0.0000       0.105346         2.8666

MULLIKEN ATOMIC CHARGES
-----------------------
   0 C :    0.284692
   1 C :   -0.253786
   2 C :   -0.299951
   3 C :   -0.002749
   4 O :   -0.504129
   5 H :    0.142358
   6 H :    0.144225
   7 H :    0.147946
   8 H :    0.141165
   9 H :    0.162965
  10 H :    0.153435
  11 H :    0.141363
  12 C :   -0.008441
  13 H :    0.130568
  14 H :    0.152377
  15 O :   -0.528376
  16 C :    0.064414
  17 C :    0.094826
  18 C :   -0.304546
  19 C :   -0.027647
  20 O :   -0.529124
  21 H :    0.169203
  22 O :   -0.605110
  23 H :    0.172591
  24 H :    0.162261
  25 H :    0.147017
  26 H :    0.144992
  27 H :    0.144696
  28 H :    0.362766
Sum of atomic charges:   -0.0000000

LOEWDIN ATOMIC CHARGES
----------------------
   0 C :    0.175643
   1 C :   -0.218478
   2 C :   -0.216084
   3 C :   -0.027169
   4 O :   -0.321791
   5 H :    0.099180
   6 H :    0.113279
   7 H :    0.119486
   8 H :    0.113729
   9 H :    0.119266
  10 H :    0.108589
  11 H :    0.102208
  12 C :   -0.035849
  13 H :    0.094546
  14 H :    0.109408
  15 O :   -0.335960
  16 C :    0.014808
  17 C :    0.038913
  18 C :   -0.242907
  19 C :   -0.037813
  20 O :   -0.332439
  21 H :    0.121222
  22 O :   -0.415530
  23 H :    0.126174
  24 H :    0.126714
  25 H :    0.113948
  26 H :    0.103095
  27 H :    0.102156
  28 H :    0.281654

  Mayer bond orders larger than 0.100000
B(  0-C ,  1-C ) :   0.9462 B(  0-C ,  4-O ) :   0.9272 B(  0-C ,  5-H ) :   0.9199
B(  0-C , 15-O ) :   0.8454 B(  1-C ,  2-C ) :   0.9580 B(  1-C ,  6-H ) :   0.9381
B(  1-C ,  7-H ) :   0.9382 B(  2-C ,  3-C ) :   0.9541 B(  2-C ,  8-H ) :   0.9453
B(  2-C ,  9-H ) :   0.9438 B(  3-C ,  4-O ) :   0.8369 B(  3-C , 10-H ) :   0.9346
B(  3-C , 11-H ) :   0.9400 B( 12-C , 13-H ) :   0.9280 B( 12-C , 14-H ) :   0.9175
B( 12-C , 15-O ) :   0.8259 B( 12-C , 16-C ) :   0.8998 B( 16-C , 17-C ) :   0.9165
B( 16-C , 20-O ) :   0.8405 B( 16-C , 21-H ) :   0.9241 B( 17-C , 18-C ) :   0.9118
B( 17-C , 22-O ) :   0.8889 B( 17-C , 23-H ) :   0.9249 B( 18-C , 19-C ) :   0.9405
B( 18-C , 24-H ) :   0.9379 B( 18-C , 25-H ) :   0.9342 B( 19-C , 20-O ) :   0.8444
B( 19-C , 26-H ) :   0.9358 B( 19-C , 27-H ) :   0.9386 B( 22-O , 28-H ) :   0.7959

FINAL SINGLE POINT ENERGY      -652.865582356654

DIPOLE MOMENT
-------------
                                X             Y             Z
Electronic contribution:     -1.21487      -4.22189       2.01282
Nuclear contribution   :      1.42985       4.86122      -3.01679
                        -----------------------------------------
Total Dipole Moment    :      0.21498       0.63933      -1.00397
                        -----------------------------------------
Magnitude (a.u.)       :      1.20951
Magnitude (Debye)      :      3.07434

Rotational constants in cm-1:     0.056527     0.012263     0.011722
Rotational constants in MHz :  1694.644726   367.646034   351.420352

                             ****ORCA TERMINATED NORMALLY****
TOTAL RUN TIME: 0 days 1 hours 19 minutes 16 seconds 362 msec
