                         Program Version 4.2.1 -  RELEASE  -
|  1> # Test redundant internal optimization
|  2> #
|  3> ! RKS B3LYP  Opt TightSCF SmallPrint
|  4>
|  5> %basis
|  6>         Basis "6-31G"
|  7> end
|  8>
|  9> %geom
| 10> Constraints
| 11> { D 4  0  19  14  60.0   C } # D for Dihedral angle
| 12> { D 0  19  14  12  165.0   C } # D for Dihedral angle
| 13> { D 0  4  3  2   C } # D for Dihedral angle
| 14> { D 4  3  2  1   C } # D for Dihedral angle
| 15> { D 3  2  1  0   C } # D for Dihedral angle
| 16> { D 2  1  0  4   C } # D for Dihedral angle
| 17> { D 1  0  4  3   C } # D for Dihedral angle
| 18> { D 14  15  16  17   C } # D for Dihedral angle
| 19> { D 15  16  17  12   C } # D for Dihedral angle
| 20> { D 16  17  12  14   C } # D for Dihedral angle
| 21> { D 17  12  14  15   C } # D for Dihedral angle
| 22> { D 12  14  15  16   C } # D for Dihedral angle
| 23> end
| 24> end
| 25>
| 26>
| 27> #%pal
| 28> #nprocs 8
| 29> #end
| 30>
| 31> * xyz 0 1
| 32> C  -21.048   26.222   46.251
| 33> C  -20.361   27.558   45.944
| 34> C  -20.329   28.222   47.341
| 35> C  -20.110   27.022   48.296
| 36> O  -20.473   25.807   47.535
| 37> H  -20.833   25.428   45.533
| 38> H  -19.344   27.382   45.576
| 39> H  -20.898   28.157   45.201
| 40> H  -19.543   28.978   47.434
| 41> H  -21.289   28.710   47.548
| 42> H  -20.733   27.082   49.195
| 43> H  -19.064   26.913   48.597
| 44> C  -24.357   27.724   47.119
| 45> H  -24.619   28.661   47.635
| 46> C  -22.882   27.363   47.331
| 47> C  -22.909   26.755   48.752
| 48> C  -24.276   26.028   48.799
| 49> O  -25.092   26.596   47.704
| 50> H  -24.660   27.794   46.074
| 51> O  -22.472   26.381   46.366
| 52> H  -22.213   28.227   47.251
| 53> H  -22.069   26.078   48.941
| 54> H  -22.870   27.552   49.505
| 55> H  -24.799   26.177   49.750
| 56> H  -24.185   24.954   48.609
| 57> *
| 58>
| 59>                          ****END OF INPUT****
 Total Charge           Charge          ....    0
 Multiplicity           Mult            ....    1
 Number of Electrons    NEL             ....   86
FINAL SINGLE POINT ENERGY      -538.368506668232
FINAL SINGLE POINT ENERGY      -538.421965296419
FINAL SINGLE POINT ENERGY      -538.426007003520
FINAL SINGLE POINT ENERGY      -538.426750435470
FINAL SINGLE POINT ENERGY      -538.426909129371
FINAL SINGLE POINT ENERGY      -538.426988646511
FINAL SINGLE POINT ENERGY      -538.426999518081
FINAL SINGLE POINT ENERGY      -538.427000108175
                    ***********************HURRAY********************

CARTESIAN COORDINATES (ANGSTROEM)
---------------------------------
  C    -21.079617   26.361960   46.385461
  C    -20.254896   27.568768   45.907591
  C    -19.884022   28.263330   47.253031
  C    -19.696478   27.057803   48.210086
  O    -20.369946   25.905155   47.564742
  H    -21.041448   25.528785   45.681453
  H    -19.355738   27.199687   45.403833
  H    -20.809015   28.211584   45.218997
  H    -18.968860   28.858903   47.173509
  H    -20.680662   28.931001   47.590402
  H    -20.135722   27.221621   49.198908
  H    -18.644650   26.782314   48.329378
  C    -24.569355   27.615586   47.090189
  H    -25.005020   28.501475   47.575836
  C    -23.103982   27.449434   47.497784
  C    -23.238318   26.799990   48.890770
  C    -24.483726   25.896423   48.741812
  O    -25.213384   26.386433   47.551504
  H    -24.703391   27.674840   46.009370
  O    -22.501928   26.532146   46.536299
  H    -22.579332   28.409593   47.518387
  H    -22.343060   26.234177   49.154991
  H    -23.403636   27.580584   49.643513
  H    -25.145322   25.944071   49.614325
  H    -24.216492   24.855337   48.544829

 Multiplicity           Mult            ....    1
 Number of Electrons    NEL             ....   86
 Basis Dimension        Dim             ....  127

ORBITAL ENERGIES
----------------

  NO   OCC          E(Eh)            E(eV)
   0   2.0000     -19.147004      -521.0165
   1   2.0000     -19.142782      -520.9016
   2   2.0000     -19.123637      -520.3806
   3   2.0000     -10.280551      -279.7480
   4   2.0000     -10.241293      -278.6798
   5   2.0000     -10.234080      -278.4835
   6   2.0000     -10.219816      -278.0953
   7   2.0000     -10.215182      -277.9692
   8   2.0000     -10.197723      -277.4941
   9   2.0000     -10.193405      -277.3767
  10   2.0000     -10.180852      -277.0351
  11   2.0000      -1.054154       -28.6850
  12   2.0000      -1.012987       -27.5648
  13   2.0000      -0.991496       -26.9800
  14   2.0000      -0.792668       -21.5696
  15   2.0000      -0.784076       -21.3358
  16   2.0000      -0.740919       -20.1614
  17   2.0000      -0.722730       -19.6665
  18   2.0000      -0.621856       -16.9216
  19   2.0000      -0.608269       -16.5518
  20   2.0000      -0.595115       -16.1939
  21   2.0000      -0.563572       -15.3356
  22   2.0000      -0.524997       -14.2859
  23   2.0000      -0.505671       -13.7600
  24   2.0000      -0.485100       -13.2003
  25   2.0000      -0.480396       -13.0722
  26   2.0000      -0.451887       -12.2965
  27   2.0000      -0.451068       -12.2742
  28   2.0000      -0.426234       -11.5984
  29   2.0000      -0.414237       -11.2720
  30   2.0000      -0.410104       -11.1595
  31   2.0000      -0.387949       -10.5566
  32   2.0000      -0.377462       -10.2713
  33   2.0000      -0.367600       -10.0029
  34   2.0000      -0.364785        -9.9263
  35   2.0000      -0.363858        -9.9011
  36   2.0000      -0.342791        -9.3278
  37   2.0000      -0.320546        -8.7225
  38   2.0000      -0.306923        -8.3518
  39   2.0000      -0.292741        -7.9659
  40   2.0000      -0.267367        -7.2754
  41   2.0000      -0.255775        -6.9600
  42   2.0000      -0.229242        -6.2380
  43   0.0000       0.065360         1.7785
  44   0.0000       0.087380         2.3777
  45   0.0000       0.096710         2.6316
  46   0.0000       0.111934         3.0459
  47   0.0000       0.119993         3.2652

MULLIKEN ATOMIC CHARGES
-----------------------
   0 C :    0.301838
   1 C :   -0.274711
   2 C :   -0.316257
   3 C :   -0.013331
   4 O :   -0.506928
   5 H :    0.169315
   6 H :    0.156247
   7 H :    0.151932
   8 H :    0.147332
   9 H :    0.148665
  10 H :    0.140746
  11 H :    0.151358
  12 C :    0.012684
  13 H :    0.119030
  14 C :    0.053559
  15 C :   -0.295881
  16 C :   -0.001841
  17 O :   -0.518590
  18 H :    0.164021
  19 O :   -0.514487
  20 H :    0.123604
  21 H :    0.177588
  22 H :    0.130884
  23 H :    0.132869
  24 H :    0.160354
Sum of atomic charges:   -0.0000000

LOEWDIN ATOMIC CHARGES
----------------------
   0 C :    0.175606
   1 C :   -0.228360
   2 C :   -0.223637
   3 C :   -0.035179
   4 O :   -0.323399
   5 H :    0.114770
   6 H :    0.122111
   7 H :    0.120354
   8 H :    0.116409
   9 H :    0.106990
  10 H :    0.100023
  11 H :    0.106403
  12 C :   -0.032834
  13 H :    0.088941
  14 C :    0.033593
  15 C :   -0.238008
  16 C :   -0.027757
  17 O :   -0.328527
  18 H :    0.121349
  19 O :   -0.311429
  20 H :    0.093492
  21 H :    0.132726
  22 H :    0.107796
  23 H :    0.097174
  24 H :    0.111390

  Mayer bond orders larger than 0.100000
B(  0-C ,  1-C ) :   0.9155 B(  0-C ,  4-O ) :   0.8886 B(  0-C ,  5-H ) :   0.9363
B(  0-C , 19-O ) :   0.9083 B(  1-C ,  2-C ) :   0.9562 B(  1-C ,  6-H ) :   0.9350
B(  1-C ,  7-H ) :   0.9372 B(  2-C ,  3-C ) :   0.9476 B(  2-C ,  8-H ) :   0.9443
B(  2-C ,  9-H ) :   0.9377 B(  3-C ,  4-O ) :   0.8451 B(  3-C , 10-H ) :   0.9303
B(  3-C , 11-H ) :   0.9393 B( 12-C , 13-H ) :   0.9155 B( 12-C , 14-C ) :   0.9369
B( 12-C , 17-O ) :   0.8783 B( 12-C , 18-H ) :   0.9308 B( 14-C , 15-C ) :   0.9376
B( 14-C , 19-O ) :   0.8279 B( 14-C , 20-H ) :   0.9072 B( 15-C , 16-C ) :   0.9451
B( 15-C , 21-H ) :   0.9251 B( 15-C , 22-H ) :   0.9372 B( 16-C , 17-O ) :   0.8562
B( 16-C , 23-H ) :   0.9335 B( 16-C , 24-H ) :   0.9347

FINAL SINGLE POINT ENERGY      -538.426998661375

DIPOLE MOMENT
-------------
                                X             Y             Z
Electronic contribution:     -2.71562      -3.85077      -2.16841
Nuclear contribution   :      3.88559       5.21490       2.55630
                        -----------------------------------------
Total Dipole Moment    :      1.16996       1.36413       0.38790
                        -----------------------------------------
Magnitude (a.u.)       :      1.83851
Magnitude (Debye)      :      4.67313

Rotational constants in cm-1:     0.077365     0.023120     0.021570
Rotational constants in MHz :  2319.352539   693.120670   646.643146

                             ****ORCA TERMINATED NORMALLY****
TOTAL RUN TIME: 0 days 0 hours 9 minutes 39 seconds 303 msec
