                         Program Version 4.2.0 -  RELEASE  -
|  1> # Test redundant internal optimization
|  2> #
|  3> ! RKS B3LYP  Opt TightSCF SmallPrint
|  4>
|  5> %basis
|  6>         Basis "6-31G"
|  7> end
|  8>
|  9> %geom
| 10> Constraints
| 11> { D 4  0  15  12  225.0   C } # D for Dihedral angle
| 12> { D 0  15  12  16  90.0   C } # D for Dihedral angle
| 13> { D 0  4  3  2   C } # D for Dihedral angle
| 14> { D 4  3  2  1   C } # D for Dihedral angle
| 15> { D 3  2  1  0   C } # D for Dihedral angle
| 16> { D 2  1  0  4   C } # D for Dihedral angle
| 17> { D 1  0  4  3   C } # D for Dihedral angle
| 18> { D 16  20  19  18   C } # D for Dihedral angle
| 19> { D 20  19  18  17   C } # D for Dihedral angle
| 20> { D 19  18  17  16   C } # D for Dihedral angle
| 21> { D 18  17  16  20   C } # D for Dihedral angle
| 22> { D 17  16  20  19   C } # D for Dihedral angle
| 23> { D 15  12  16  20   C } # D for Dihedral angle
| 24> end
| 25> end
| 26>
| 27>
| 28> #%pal
| 29> #nprocs 8
| 30> #end
| 31>
| 32> * xyz 0 1
| 33> C  -21.048   26.222   46.251
| 34> C  -20.361   27.558   45.944
| 35> C  -20.329   28.222   47.341
| 36> C  -20.110   27.022   48.296
| 37> O  -20.473   25.807   47.535
| 38> H  -20.833   25.428   45.533
| 39> H  -19.344   27.382   45.576
| 40> H  -20.898   28.157   45.201
| 41> H  -19.543   28.978   47.434
| 42> H  -21.289   28.710   47.548
| 43> H  -20.733   27.082   49.195
| 44> H  -19.064   26.913   48.597
| 45> C  -23.415   25.773   45.218
| 46> H  -24.332   26.358   45.075
| 47> H  -22.844   25.796   44.281
| 48> O  -22.586   26.394   46.375
| 49> C  -23.816   24.297   45.491
| 50> C  -22.586   23.432   45.791
| 51> C  -22.304   23.791   47.270
| 52> C  -23.721   23.997   47.858
| 53> O  -24.629   24.203   46.708
| 54> H  -24.433   23.935   44.667
| 55> O  -22.946   21.928   45.651
| 56> H  -21.737   23.647   45.133
| 57> H  -21.743   23.012   47.796
| 58> H  -21.723   24.719   47.328
| 59> H  -23.778   24.867   48.521
| 60> H  -24.082   23.117   48.399
| 61> H  -23.793   21.689   46.303
| 62> *
| 63>
| 64>                          ****END OF INPUT****
 Total Charge           Charge          ....    0
 Multiplicity           Mult            ....    1
 Number of Electrons    NEL             ....  102
FINAL SINGLE POINT ENERGY      -652.813618000164
FINAL SINGLE POINT ENERGY      -652.841875278500
FINAL SINGLE POINT ENERGY      -652.857120298011
FINAL SINGLE POINT ENERGY      -652.859991213608
FINAL SINGLE POINT ENERGY      -652.860425591313
FINAL SINGLE POINT ENERGY      -652.860461735955
FINAL SINGLE POINT ENERGY      -652.860465647612
                    ***********************HURRAY********************

CARTESIAN COORDINATES (ANGSTROEM)
---------------------------------
  C    -20.971439   26.300638   46.264175
  C    -20.321794   27.633632   45.893398
  C    -20.375275   28.400213   47.237387
  C    -20.157113   27.283304   48.281310
  O    -20.449671   26.008089   47.573104
  H    -20.713500   25.462560   45.611473
  H    -19.284264   27.462269   45.582280
  H    -20.852520   28.143201   45.085606
  H    -19.618464   29.187326   47.304417
  H    -21.362865   28.853429   47.361281
  H    -20.824168   27.361991   49.142824
  H    -19.121274   27.216404   48.626145
  C    -23.224422   25.810205   45.322696
  H    -24.113646   26.440085   45.240804
  H    -22.704625   25.824861   44.351179
  O    -22.414400   26.466697   46.341429
  C    -23.704374   24.381767   45.609634
  C    -22.678054   23.254703   45.806134
  C    -22.350239   23.381886   47.321108
  C    -23.710504   23.805764   47.930824
  O    -24.533651   24.317642   46.810498
  H    -24.358853   24.120696   44.766518
  O    -23.272573   21.968196   45.474785
  H    -21.801483   23.331829   45.160893
  H    -21.997121   22.422347   47.710089
  H    -21.588309   24.138861   47.511045
  H    -23.598666   24.600601   48.673155
  H    -24.260278   22.970636   48.377579
  H    -24.129454   21.886167   45.944227

 Multiplicity           Mult            ....    1
 Number of Electrons    NEL             ....  102
 Basis Dimension        Dim             ....  149

ORBITAL ENERGIES
----------------

  NO   OCC          E(Eh)            E(eV)
   0   2.0000     -19.150189      -521.1031
   1   2.0000     -19.145931      -520.9873
   2   2.0000     -19.133963      -520.6616
   3   2.0000     -19.133291      -520.6433
   4   2.0000     -10.286489      -279.9096
   5   2.0000     -10.235703      -278.5276
   6   2.0000     -10.234620      -278.4982
   7   2.0000     -10.231435      -278.4115
   8   2.0000     -10.230612      -278.3891
   9   2.0000     -10.217659      -278.0366
  10   2.0000     -10.190494      -277.2975
  11   2.0000     -10.190063      -277.2857
  12   2.0000     -10.169175      -276.7173
  13   2.0000      -1.059108       -28.8198
  14   2.0000      -1.030101       -28.0305
  15   2.0000      -1.003100       -27.2957
  16   2.0000      -0.995666       -27.0934
  17   2.0000      -0.791908       -21.5489
  18   2.0000      -0.771729       -20.9998
  19   2.0000      -0.762122       -20.7384
  20   2.0000      -0.736454       -20.0399
  21   2.0000      -0.675030       -18.3685
  22   2.0000      -0.605429       -16.4746
  23   2.0000      -0.600868       -16.3505
  24   2.0000      -0.593218       -16.1423
  25   2.0000      -0.576471       -15.6866
  26   2.0000      -0.525454       -14.2983
  27   2.0000      -0.503556       -13.7024
  28   2.0000      -0.501388       -13.6435
  29   2.0000      -0.487180       -13.2568
  30   2.0000      -0.472231       -12.8501
  31   2.0000      -0.452261       -12.3067
  32   2.0000      -0.449098       -12.2206
  33   2.0000      -0.437896       -11.9157
  34   2.0000      -0.431951       -11.7540
  35   2.0000      -0.407729       -11.0949
  36   2.0000      -0.402406       -10.9500
  37   2.0000      -0.383271       -10.4293
  38   2.0000      -0.378505       -10.2996
  39   2.0000      -0.363056        -9.8792
  40   2.0000      -0.362088        -9.8529
  41   2.0000      -0.352568        -9.5939
  42   2.0000      -0.351766        -9.5720
  43   2.0000      -0.328236        -8.9318
  44   2.0000      -0.320333        -8.7167
  45   2.0000      -0.310816        -8.4577
  46   2.0000      -0.299213        -8.1420
  47   2.0000      -0.274439        -7.4679
  48   2.0000      -0.262492        -7.1428
  49   2.0000      -0.260510        -7.0888
  50   2.0000      -0.232731        -6.3329
  51   0.0000       0.067420         1.8346
  52   0.0000       0.078975         2.1490
  53   0.0000       0.090896         2.4734
  54   0.0000       0.105218         2.8631
  55   0.0000       0.110642         3.0107

MULLIKEN ATOMIC CHARGES
-----------------------
   0 C :    0.283479
   1 C :   -0.250526
   2 C :   -0.302555
   3 C :    0.001943
   4 O :   -0.513787
   5 H :    0.144180
   6 H :    0.143470
   7 H :    0.148790
   8 H :    0.144045
   9 H :    0.167824
  10 H :    0.155505
  11 H :    0.144599
  12 C :   -0.025060
  13 H :    0.170016
  14 H :    0.118597
  15 O :   -0.509074
  16 C :    0.083402
  17 C :    0.065779
  18 C :   -0.324784
  19 C :   -0.023149
  20 O :   -0.525909
  21 H :    0.149991
  22 O :   -0.604541
  23 H :    0.141552
  24 H :    0.146436
  25 H :    0.214229
  26 H :    0.157225
  27 H :    0.134395
  28 H :    0.363928
Sum of atomic charges:    0.0000000

LOEWDIN ATOMIC CHARGES
----------------------
   0 C :    0.171572
   1 C :   -0.220016
   2 C :   -0.215848
   3 C :   -0.024118
   4 O :   -0.313773
   5 H :    0.097231
   6 H :    0.112643
   7 H :    0.119110
   8 H :    0.115548
   9 H :    0.122274
  10 H :    0.110064
  11 H :    0.103861
  12 C :   -0.040246
  13 H :    0.124165
  14 H :    0.091901
  15 O :   -0.331174
  16 C :    0.004709
  17 C :    0.032285
  18 C :   -0.252568
  19 C :   -0.033254
  20 O :   -0.330790
  21 H :    0.114386
  22 O :   -0.416690
  23 H :    0.109131
  24 H :    0.119042
  25 H :    0.142697
  26 H :    0.110365
  27 H :    0.094848
  28 H :    0.282646

  Mayer bond orders larger than 0.100000
B(  0-C ,  1-C ) :   0.9421 B(  0-C ,  4-O ) :   0.8994 B(  0-C ,  5-H ) :   0.9140
B(  0-C , 15-O ) :   0.8356 B(  1-C ,  2-C ) :   0.9547 B(  1-C ,  6-H ) :   0.9351
B(  1-C ,  7-H ) :   0.9393 B(  2-C ,  3-C ) :   0.9546 B(  2-C ,  8-H ) :   0.9448
B(  2-C ,  9-H ) :   0.9423 B(  3-C ,  4-O ) :   0.8239 B(  3-C , 10-H ) :   0.9350
B(  3-C , 11-H ) :   0.9400 B( 12-C , 13-H ) :   0.9319 B( 12-C , 14-H ) :   0.9139
B( 12-C , 15-O ) :   0.8749 B( 12-C , 16-C ) :   0.8831 B( 16-C , 17-C ) :   0.9071
B( 16-C , 20-O ) :   0.8751 B( 16-C , 21-H ) :   0.9135 B( 17-C , 18-C ) :   0.9208
B( 17-C , 22-O ) :   0.8866 B( 17-C , 23-H ) :   0.9336 B( 18-C , 19-C ) :   0.9436
B( 18-C , 24-H ) :   0.9391 B( 18-C , 25-H ) :   0.8868 B( 19-C , 20-O ) :   0.8371
B( 19-C , 26-H ) :   0.9334 B( 19-C , 27-H ) :   0.9378 B( 22-O , 28-H ) :   0.7953

FINAL SINGLE POINT ENERGY      -652.860459061991

DIPOLE MOMENT
-------------
                                X             Y             Z
Electronic contribution:     -3.56297      -3.59372      -0.83862
Nuclear contribution   :      4.32609       4.59871       0.72546
                        -----------------------------------------
Total Dipole Moment    :      0.76312       1.00499      -0.11316
                        -----------------------------------------
Magnitude (a.u.)       :      1.26695
Magnitude (Debye)      :      3.22033

Rotational constants in cm-1:     0.053948     0.015165     0.014441
Rotational constants in MHz :  1617.333569   454.629325   432.923246

                             ****ORCA TERMINATED NORMALLY****
TOTAL RUN TIME: 0 days 0 hours 15 minutes 47 seconds 233 msec
