                         Program Version 4.2.0 -  RELEASE  -
|  1> # Test redundant internal optimization
|  2> #
|  3> ! RKS B3LYP  Opt TightSCF SmallPrint
|  4>
|  5> %basis
|  6>         Basis "6-31G"
|  7> end
|  8>
|  9> %geom
| 10> Constraints
| 11> { D 4  0  15  12  270.0   C } # D for Dihedral angle
| 12> { D 0  15  12  16  150.0   C } # D for Dihedral angle
| 13> { D 0  4  3  2   C } # D for Dihedral angle
| 14> { D 4  3  2  1   C } # D for Dihedral angle
| 15> { D 3  2  1  0   C } # D for Dihedral angle
| 16> { D 2  1  0  4   C } # D for Dihedral angle
| 17> { D 1  0  4  3   C } # D for Dihedral angle
| 18> { D 16  20  19  18   C } # D for Dihedral angle
| 19> { D 20  19  18  17   C } # D for Dihedral angle
| 20> { D 19  18  17  16   C } # D for Dihedral angle
| 21> { D 18  17  16  20   C } # D for Dihedral angle
| 22> { D 17  16  20  19   C } # D for Dihedral angle
| 23> { D 15  12  16  20   C } # D for Dihedral angle
| 24> end
| 25> end
| 26>
| 27>
| 28> #%pal
| 29> #nprocs 8
| 30> #end
| 31>
| 32> * xyz 0 1
| 33> C  -21.048   26.222   46.251
| 34> C  -20.361   27.558   45.944
| 35> C  -20.329   28.222   47.341
| 36> C  -20.110   27.022   48.296
| 37> O  -20.473   25.807   47.535
| 38> H  -20.833   25.428   45.533
| 39> H  -19.344   27.382   45.576
| 40> H  -20.898   28.157   45.201
| 41> H  -19.543   28.978   47.434
| 42> H  -21.289   28.710   47.548
| 43> H  -20.733   27.082   49.195
| 44> H  -19.064   26.913   48.597
| 45> C  -23.420   25.119   46.072
| 46> H  -23.657   25.087   45.002
| 47> H  -22.847   24.217   46.324
| 48> O  -22.586   26.394   46.375
| 49> C  -24.753   25.070   46.869
| 50> C  -25.692   26.207   46.453
| 51> C  -26.283   25.658   45.132
| 52> C  -26.386   24.135   45.399
| 53> O  -25.498   23.848   46.546
| 54> H  -24.530   25.035   47.937
| 55> O  -26.808   26.392   47.517
| 56> H  -25.178   27.165   46.323
| 57> H  -27.250   26.104   44.882
| 58> H  -25.596   25.859   44.301
| 59> H  -26.067   23.536   44.540
| 60> H  -27.395   23.829   45.688
| 61> H  -27.339   25.444   47.664
| 62> *
| 63>
| 64>                          ****END OF INPUT****
 Total Charge           Charge          ....    0
 Multiplicity           Mult            ....    1
 Number of Electrons    NEL             ....  102
FINAL SINGLE POINT ENERGY      -652.839420618497
FINAL SINGLE POINT ENERGY      -652.863097316642
FINAL SINGLE POINT ENERGY      -652.866870572845
FINAL SINGLE POINT ENERGY      -652.867522339100
FINAL SINGLE POINT ENERGY      -652.867606961870
FINAL SINGLE POINT ENERGY      -652.867617910868
                    ***********************HURRAY********************

CARTESIAN COORDINATES (ANGSTROEM)
---------------------------------
  C    -21.096245   26.123521   46.219491
  C    -20.535434   27.520725   45.953986
  C    -20.615293   28.167069   47.357033
  C    -20.312770   26.983560   48.302781
  O    -20.535257   25.754608   47.499166
  H    -20.801302   25.345017   45.510441
  H    -19.494864   27.435670   45.620243
  H    -21.109876   28.057766   45.196639
  H    -19.906972   28.991464   47.482022
  H    -21.625979   28.548639   47.528505
  H    -20.967387   26.955446   49.177433
  H    -19.269461   26.956619   48.631056
  C    -23.296955   25.025791   45.995303
  H    -23.493724   24.958110   44.916765
  H    -22.742792   24.133806   46.309544
  O    -22.535982   26.236886   46.281659
  C    -24.594307   25.102820   46.796404
  C    -25.518000   26.269973   46.423525
  C    -26.217830   25.722021   45.153317
  C    -26.359513   24.208403   45.452170
  O    -25.403347   23.903983   46.546542
  H    -24.354750   25.117706   47.862756
  O    -26.471539   26.536456   47.490130
  H    -24.981352   27.203552   46.263531
  H    -27.179125   26.216882   44.997243
  H    -25.593393   25.897135   44.270342
  H    -26.124263   23.578165   44.588923
  H    -27.357803   23.943933   45.814648
  H    -26.814485   25.684276   47.833406

 Multiplicity           Mult            ....    1
 Number of Electrons    NEL             ....  102
 Basis Dimension        Dim             ....  149

ORBITAL ENERGIES
----------------

  NO   OCC          E(Eh)            E(eV)
   0   2.0000     -19.146844      -521.0121
   1   2.0000     -19.143948      -520.9333
   2   2.0000     -19.138492      -520.7848
   3   2.0000     -19.133696      -520.6543
   4   2.0000     -10.280475      -279.7459
   5   2.0000     -10.234449      -278.4935
   6   2.0000     -10.231316      -278.4083
   7   2.0000     -10.231037      -278.4007
   8   2.0000     -10.230943      -278.3981
   9   2.0000     -10.223884      -278.2060
  10   2.0000     -10.186730      -277.1950
  11   2.0000     -10.185531      -277.1624
  12   2.0000     -10.184452      -277.1330
  13   2.0000      -1.054436       -28.6927
  14   2.0000      -1.034549       -28.1515
  15   2.0000      -1.002832       -27.2884
  16   2.0000      -0.995582       -27.0912
  17   2.0000      -0.789802       -21.4916
  18   2.0000      -0.777548       -21.1581
  19   2.0000      -0.766459       -20.8564
  20   2.0000      -0.728681       -19.8284
  21   2.0000      -0.673421       -18.3247
  22   2.0000      -0.603148       -16.4125
  23   2.0000      -0.597826       -16.2677
  24   2.0000      -0.589799       -16.0492
  25   2.0000      -0.583774       -15.8853
  26   2.0000      -0.521388       -14.1877
  27   2.0000      -0.518488       -14.1088
  28   2.0000      -0.496339       -13.5061
  29   2.0000      -0.486600       -13.2411
  30   2.0000      -0.468636       -12.7522
  31   2.0000      -0.455935       -12.4066
  32   2.0000      -0.451436       -12.2842
  33   2.0000      -0.437359       -11.9011
  34   2.0000      -0.425765       -11.5856
  35   2.0000      -0.412159       -11.2154
  36   2.0000      -0.400267       -10.8918
  37   2.0000      -0.391286       -10.6474
  38   2.0000      -0.373903       -10.1744
  39   2.0000      -0.365360        -9.9419
  40   2.0000      -0.358882        -9.7657
  41   2.0000      -0.355278        -9.6676
  42   2.0000      -0.348203        -9.4751
  43   2.0000      -0.331082        -9.0092
  44   2.0000      -0.323038        -8.7903
  45   2.0000      -0.307328        -8.3628
  46   2.0000      -0.301150        -8.1947
  47   2.0000      -0.277343        -7.5469
  48   2.0000      -0.264077        -7.1859
  49   2.0000      -0.250059        -6.8044
  50   2.0000      -0.245755        -6.6873
  51   0.0000       0.064340         1.7508
  52   0.0000       0.079686         2.1684
  53   0.0000       0.096340         2.6215
  54   0.0000       0.101306         2.7567
  55   0.0000       0.106433         2.8962

MULLIKEN ATOMIC CHARGES
-----------------------
   0 C :    0.284460
   1 C :   -0.256825
   2 C :   -0.299208
   3 C :   -0.002443
   4 O :   -0.507781
   5 H :    0.143015
   6 H :    0.144850
   7 H :    0.151214
   8 H :    0.140980
   9 H :    0.164728
  10 H :    0.150867
  11 H :    0.141997
  12 C :   -0.007989
  13 H :    0.129396
  14 H :    0.161782
  15 O :   -0.527897
  16 C :    0.055023
  17 C :    0.090690
  18 C :   -0.298195
  19 C :   -0.031476
  20 O :   -0.526369
  21 H :    0.169156
  22 O :   -0.603337
  23 H :    0.173473
  24 H :    0.161635
  25 H :    0.143716
  26 H :    0.146848
  27 H :    0.145074
  28 H :    0.362614
Sum of atomic charges:   -0.0000000

LOEWDIN ATOMIC CHARGES
----------------------
   0 C :    0.173873
   1 C :   -0.216399
   2 C :   -0.215806
   3 C :   -0.027069
   4 O :   -0.326382
   5 H :    0.098993
   6 H :    0.113701
   7 H :    0.121220
   8 H :    0.113627
   9 H :    0.120192
  10 H :    0.107345
  11 H :    0.102519
  12 C :   -0.039676
  13 H :    0.092995
  14 H :    0.114019
  15 O :   -0.335470
  16 C :    0.016520
  17 C :    0.037976
  18 C :   -0.241340
  19 C :   -0.038445
  20 O :   -0.330920
  21 H :    0.120867
  22 O :   -0.415484
  23 H :    0.126257
  24 H :    0.126543
  25 H :    0.112976
  26 H :    0.103795
  27 H :    0.102115
  28 H :    0.281458

  Mayer bond orders larger than 0.100000
B(  0-C ,  1-C ) :   0.9485 B(  0-C ,  4-O ) :   0.9175 B(  0-C ,  5-H ) :   0.9212
B(  0-C , 15-O ) :   0.8510 B(  1-C ,  2-C ) :   0.9574 B(  1-C ,  6-H ) :   0.9397
B(  1-C ,  7-H ) :   0.9374 B(  2-C ,  3-C ) :   0.9545 B(  2-C ,  8-H ) :   0.9453
B(  2-C ,  9-H ) :   0.9436 B(  3-C ,  4-O ) :   0.8362 B(  3-C , 10-H ) :   0.9352
B(  3-C , 11-H ) :   0.9402 B( 12-C , 13-H ) :   0.9237 B( 12-C , 14-H ) :   0.9159
B( 12-C , 15-O ) :   0.8204 B( 12-C , 16-C ) :   0.9072 B( 16-C , 17-C ) :   0.9145
B( 16-C , 20-O ) :   0.8432 B( 16-C , 21-H ) :   0.9238 B( 17-C , 18-C ) :   0.9106
B( 17-C , 22-O ) :   0.8913 B( 17-C , 23-H ) :   0.9248 B( 18-C , 19-C ) :   0.9411
B( 18-C , 24-H ) :   0.9381 B( 18-C , 25-H ) :   0.9356 B( 19-C , 20-O ) :   0.8437
B( 19-C , 26-H ) :   0.9354 B( 19-C , 27-H ) :   0.9385 B( 22-O , 28-H ) :   0.7958

FINAL SINGLE POINT ENERGY      -652.867620191463

DIPOLE MOMENT
-------------
                                X             Y             Z
Electronic contribution:     -1.63287      -3.17720       2.26874
Nuclear contribution   :      1.94391       3.49779      -3.19964
                        -----------------------------------------
Total Dipole Moment    :      0.31103       0.32059      -0.93090
                        -----------------------------------------
Magnitude (a.u.)       :      1.03252
Magnitude (Debye)      :      2.62446

Rotational constants in cm-1:     0.056929     0.012227     0.011717
Rotational constants in MHz :  1706.691374   366.567773   351.263044

                             ****ORCA TERMINATED NORMALLY****
TOTAL RUN TIME: 0 days 0 hours 22 minutes 56 seconds 582 msec
