                         Program Version 4.2.0 -  RELEASE  -
|  1> # Test redundant internal optimization
|  2> #
|  3> ! RKS B3LYP  Opt TightSCF SmallPrint
|  4>
|  5> %basis
|  6>         Basis "6-31G"
|  7> end
|  8>
|  9> %geom
| 10> Constraints
| 11> { D 4  0  15  12  105.0   C } # D for Dihedral angle
| 12> { D 0  15  12  16  210.0   C } # D for Dihedral angle
| 13> { D 0  4  3  2   C } # D for Dihedral angle
| 14> { D 4  3  2  1   C } # D for Dihedral angle
| 15> { D 3  2  1  0   C } # D for Dihedral angle
| 16> { D 2  1  0  4   C } # D for Dihedral angle
| 17> { D 1  0  4  3   C } # D for Dihedral angle
| 18> { D 16  20  19  18   C } # D for Dihedral angle
| 19> { D 20  19  18  17   C } # D for Dihedral angle
| 20> { D 19  18  17  16   C } # D for Dihedral angle
| 21> { D 18  17  16  20   C } # D for Dihedral angle
| 22> { D 17  16  20  19   C } # D for Dihedral angle
| 23> { D 15  12  16  20   C } # D for Dihedral angle
| 24> end
| 25> end
| 26>
| 27>
| 28> #%pal
| 29> #nprocs 8
| 30> #end
| 31>
| 32> * xyz 0 1
| 33> C  -21.048   26.222   46.251
| 34> C  -20.361   27.558   45.944
| 35> C  -20.329   28.222   47.341
| 36> C  -20.110   27.022   48.296
| 37> O  -20.473   25.807   47.535
| 38> H  -20.833   25.428   45.533
| 39> H  -19.344   27.382   45.576
| 40> H  -20.898   28.157   45.201
| 41> H  -19.543   28.978   47.434
| 42> H  -21.289   28.710   47.548
| 43> H  -20.733   27.082   49.195
| 44> H  -19.064   26.913   48.597
| 45> C  -23.085   27.864   46.420
| 46> H  -22.309   28.496   46.872
| 47> H  -23.280   28.235   45.406
| 48> O  -22.586   26.394   46.375
| 49> C  -24.391   28.030   47.245
| 50> C  -24.163   27.695   48.723
| 51> C  -23.491   28.989   49.238
| 52> C  -24.193   30.101   48.418
| 53> O  -24.816   29.434   47.254
| 54> H  -25.190   27.458   46.769
| 55> H  -25.124   27.532   49.224
| 56> O  -23.282   26.433   48.933
| 57> H  -23.610   29.129   50.317
| 58> H  -22.416   28.968   49.020
| 59> H  -23.493   30.864   48.062
| 60> H  -24.995   30.589   48.978
| 61> H  -22.314   26.574   48.439
| 62> *
| 63>
| 64>                          ****END OF INPUT****
 Total Charge           Charge          ....    0
 Multiplicity           Mult            ....    1
 Number of Electrons    NEL             ....  102
FINAL SINGLE POINT ENERGY      -652.792001462190
FINAL SINGLE POINT ENERGY      -652.828997486469
FINAL SINGLE POINT ENERGY      -652.847418712470
FINAL SINGLE POINT ENERGY      -652.853356964778
FINAL SINGLE POINT ENERGY      -652.855672944961
FINAL SINGLE POINT ENERGY      -652.857069965783
FINAL SINGLE POINT ENERGY      -652.857860266335
FINAL SINGLE POINT ENERGY      -652.858328859433
FINAL SINGLE POINT ENERGY      -652.858495980883
FINAL SINGLE POINT ENERGY      -652.858543637370
FINAL SINGLE POINT ENERGY      -652.858551380753
                    ***********************HURRAY********************

CARTESIAN COORDINATES (ANGSTROEM)
---------------------------------
  C    -21.137034   26.346600   46.330168
  C    -20.150767   27.424430   45.860746
  C    -19.854476   28.194059   47.182038
  C    -19.891427   27.063746   48.242140
  O    -20.609735   25.930541   47.604053
  H    -21.144496   25.451703   45.707053
  H    -19.247467   26.926865   45.495131
  H    -20.543611   28.060506   45.062288
  H    -18.879213   28.690108   47.154191
  H    -20.604051   28.962340   47.383435
  H    -20.429703   27.336373   49.152747
  H    -18.894303   26.698264   48.499638
  C    -23.101665   28.047476   46.430327
  H    -22.403782   28.777710   46.845293
  H    -23.344040   28.343219   45.404337
  O    -22.545431   26.690490   46.432112
  C    -24.384782   28.015577   47.270137
  C    -24.198281   27.669459   48.759284
  C    -23.702443   29.028709   49.343835
  C    -24.482183   30.064943   48.507629
  O    -24.964905   29.356351   47.288031
  H    -25.113781   27.358524   46.788452
  H    -25.186130   27.439808   49.177603
  O    -23.312871   26.586255   49.095336
  H    -23.905042   29.105810   50.415451
  H    -22.619229   29.102946   49.199406
  H    -23.874103   30.921171   48.197845
  H    -25.372261   30.436223   49.023247
  H    -22.865789   26.235793   48.292046

 Multiplicity           Mult            ....    1
 Number of Electrons    NEL             ....  102
 Basis Dimension        Dim             ....  149

ORBITAL ENERGIES
----------------

  NO   OCC          E(Eh)            E(eV)
   0   2.0000     -19.159742      -521.3631
   1   2.0000     -19.152408      -521.1635
   2   2.0000     -19.141620      -520.8699
   3   2.0000     -19.111531      -520.0512
   4   2.0000     -10.293211      -280.0925
   5   2.0000     -10.240035      -278.6455
   6   2.0000     -10.234766      -278.5021
   7   2.0000     -10.234335      -278.4904
   8   2.0000     -10.230666      -278.3906
   9   2.0000     -10.228100      -278.3207
  10   2.0000     -10.205333      -277.7012
  11   2.0000     -10.203388      -277.6483
  12   2.0000     -10.181873      -277.0628
  13   2.0000      -1.064744       -28.9732
  14   2.0000      -1.026733       -27.9388
  15   2.0000      -1.006946       -27.4004
  16   2.0000      -0.991163       -26.9709
  17   2.0000      -0.799982       -21.7686
  18   2.0000      -0.779185       -21.2027
  19   2.0000      -0.769438       -20.9375
  20   2.0000      -0.738219       -20.0880
  21   2.0000      -0.684566       -18.6280
  22   2.0000      -0.616032       -16.7631
  23   2.0000      -0.600495       -16.3403
  24   2.0000      -0.597170       -16.2498
  25   2.0000      -0.577337       -15.7101
  26   2.0000      -0.530870       -14.4457
  27   2.0000      -0.515232       -14.0202
  28   2.0000      -0.513060       -13.9611
  29   2.0000      -0.489772       -13.3274
  30   2.0000      -0.476733       -12.9726
  31   2.0000      -0.458766       -12.4836
  32   2.0000      -0.442877       -12.0513
  33   2.0000      -0.440023       -11.9736
  34   2.0000      -0.429301       -11.6819
  35   2.0000      -0.424059       -11.5392
  36   2.0000      -0.412791       -11.2326
  37   2.0000      -0.393858       -10.7174
  38   2.0000      -0.386237       -10.5100
  39   2.0000      -0.373041       -10.1510
  40   2.0000      -0.366899        -9.9838
  41   2.0000      -0.362005        -9.8507
  42   2.0000      -0.350037        -9.5250
  43   2.0000      -0.338522        -9.2117
  44   2.0000      -0.326174        -8.8756
  45   2.0000      -0.306879        -8.3506
  46   2.0000      -0.295757        -8.0480
  47   2.0000      -0.277738        -7.5576
  48   2.0000      -0.265486        -7.2242
  49   2.0000      -0.246222        -6.7000
  50   2.0000      -0.242795        -6.6068
  51   0.0000       0.052306         1.4233
  52   0.0000       0.064683         1.7601
  53   0.0000       0.085754         2.3335
  54   0.0000       0.095683         2.6037
  55   0.0000       0.102911         2.8004

MULLIKEN ATOMIC CHARGES
-----------------------
   0 C :    0.310912
   1 C :   -0.295442
   2 C :   -0.316138
   3 C :   -0.019870
   4 O :   -0.500057
   5 H :    0.172641
   6 H :    0.164736
   7 H :    0.153671
   8 H :    0.150883
   9 H :    0.154249
  10 H :    0.170629
  11 H :    0.151843
  12 C :   -0.009013
  13 H :    0.132777
  14 H :    0.158319
  15 O :   -0.562350
  16 C :    0.052758
  17 C :    0.120088
  18 C :   -0.308919
  19 C :   -0.017400
  20 O :   -0.521013
  21 H :    0.165340
  22 H :    0.145842
  23 O :   -0.642741
  24 H :    0.156144
  25 H :    0.140386
  26 H :    0.136886
  27 H :    0.149885
  28 H :    0.404950
Sum of atomic charges:    0.0000000

LOEWDIN ATOMIC CHARGES
----------------------
   0 C :    0.177868
   1 C :   -0.228064
   2 C :   -0.222288
   3 C :   -0.034536
   4 O :   -0.314442
   5 H :    0.114596
   6 H :    0.127775
   7 H :    0.119921
   8 H :    0.118972
   9 H :    0.108467
  10 H :    0.115068
  11 H :    0.108110
  12 C :   -0.042538
  13 H :    0.096620
  14 H :    0.110615
  15 O :   -0.339643
  16 C :    0.019979
  17 C :    0.042285
  18 C :   -0.237220
  19 C :   -0.033398
  20 O :   -0.323004
  21 H :    0.117604
  22 H :    0.103775
  23 O :   -0.431917
  24 H :    0.123030
  25 H :    0.105996
  26 H :    0.099281
  27 H :    0.106683
  28 H :    0.290407

  Mayer bond orders larger than 0.100000
B(  0-C ,  1-C ) :   0.9331 B(  0-C ,  4-O ) :   0.9145 B(  0-C ,  5-H ) :   0.9309
B(  0-C , 15-O ) :   0.8477 B(  1-C ,  2-C ) :   0.9502 B(  1-C ,  6-H ) :   0.9329
B(  1-C ,  7-H ) :   0.9335 B(  2-C ,  3-C ) :   0.9463 B(  2-C ,  8-H ) :   0.9442
B(  2-C ,  9-H ) :   0.9328 B(  3-C ,  4-O ) :   0.8294 B(  3-C , 10-H ) :   0.9242
B(  3-C , 11-H ) :   0.9386 B( 12-C , 13-H ) :   0.9047 B( 12-C , 14-H ) :   0.9280
B( 12-C , 15-O ) :   0.7904 B( 12-C , 16-C ) :   0.9055 B( 16-C , 17-C ) :   0.9107
B( 16-C , 20-O ) :   0.8547 B( 16-C , 21-H ) :   0.9282 B( 17-C , 18-C ) :   0.9048
B( 17-C , 22-H ) :   0.9270 B( 17-C , 23-O ) :   0.9382 B( 18-C , 19-C ) :   0.9396
B( 18-C , 24-H ) :   0.9441 B( 18-C , 25-H ) :   0.9424 B( 19-C , 20-O ) :   0.8327
B( 19-C , 26-H ) :   0.9347 B( 19-C , 27-H ) :   0.9386 B( 23-O , 28-H ) :   0.7120

FINAL SINGLE POINT ENERGY      -652.858552946296

DIPOLE MOMENT
-------------
                                X             Y             Z
Electronic contribution:     -3.85693      -4.92812      -1.17092
Nuclear contribution   :      5.05732       6.07450       0.60072
                        -----------------------------------------
Total Dipole Moment    :      1.20039       1.14637      -0.57020
                        -----------------------------------------
Magnitude (a.u.)       :      1.75506
Magnitude (Debye)      :      4.46101

Rotational constants in cm-1:     0.045937     0.017353     0.016731
Rotational constants in MHz :  1377.155355   520.237184   501.584601

                             ****ORCA TERMINATED NORMALLY****
TOTAL RUN TIME: 0 days 1 hours 9 minutes 23 seconds 920 msec
