                         Program Version 4.2.0 -  RELEASE  -
|  1> # Test redundant internal optimization
|  2> #
|  3> ! RKS B3LYP  Opt TightSCF SmallPrint
|  4>
|  5> %basis
|  6>         Basis "6-31G"
|  7> end
|  8>
|  9> %geom
| 10> Constraints
| 11> { D 4  0  15  12  270.0   C } # D for Dihedral angle
| 12> { D 0  15  12  16  270.0   C } # D for Dihedral angle
| 13> { D 0  4  3  2   C } # D for Dihedral angle
| 14> { D 4  3  2  1   C } # D for Dihedral angle
| 15> { D 3  2  1  0   C } # D for Dihedral angle
| 16> { D 2  1  0  4   C } # D for Dihedral angle
| 17> { D 1  0  4  3   C } # D for Dihedral angle
| 18> { D 16  20  19  18   C } # D for Dihedral angle
| 19> { D 20  19  18  17   C } # D for Dihedral angle
| 20> { D 19  18  17  16   C } # D for Dihedral angle
| 21> { D 18  17  16  20   C } # D for Dihedral angle
| 22> { D 17  16  20  19   C } # D for Dihedral angle
| 23> { D 15  12  16  20   C } # D for Dihedral angle
| 24> end
| 25> end
| 26>
| 27>
| 28> #%pal
| 29> #nprocs 8
| 30> #end
| 31>
| 32> * xyz 0 1
| 33> C  -21.048   26.222   46.251
| 34> C  -20.361   27.558   45.944
| 35> C  -20.329   28.222   47.341
| 36> C  -20.110   27.022   48.296
| 37> O  -20.473   25.807   47.535
| 38> H  -20.833   25.428   45.533
| 39> H  -19.344   27.382   45.576
| 40> H  -20.898   28.157   45.201
| 41> H  -19.543   28.978   47.434
| 42> H  -21.289   28.710   47.548
| 43> H  -20.733   27.082   49.195
| 44> H  -19.064   26.913   48.597
| 45> C  -23.420   25.119   46.072
| 46> H  -22.837   24.231   46.348
| 47> H  -24.346   25.117   46.661
| 48> O  -22.586   26.394   46.375
| 49> C  -23.812   24.999   44.573
| 50> C  -24.728   23.795   44.332
| 51> C  -26.096   24.342   44.806
| 52> C  -26.042   25.833   44.388
| 53> O  -24.617   26.154   44.161
| 54> H  -22.905   25.007   43.965
| 55> H  -24.758   23.552   43.264
| 56> O  -24.286   22.526   45.111
| 57> H  -26.943   23.813   44.356
| 58> H  -26.182   24.249   45.895
| 59> H  -26.440   26.499   45.161
| 60> H  -26.570   26.023   43.449
| 61> H  -24.250   22.744   46.184
| 62> *
| 63>
| 64>                          ****END OF INPUT****
 Total Charge           Charge          ....    0
 Multiplicity           Mult            ....    1
 Number of Electrons    NEL             ....  102
FINAL SINGLE POINT ENERGY      -652.829515513562
FINAL SINGLE POINT ENERGY      -652.853724464222
FINAL SINGLE POINT ENERGY      -652.858470807834
FINAL SINGLE POINT ENERGY      -652.859354155368
FINAL SINGLE POINT ENERGY      -652.859510014699
FINAL SINGLE POINT ENERGY      -652.859534210872
FINAL SINGLE POINT ENERGY      -652.859539895952
FINAL SINGLE POINT ENERGY      -652.859540889611
                    ***********************HURRAY********************

CARTESIAN COORDINATES (ANGSTROEM)
---------------------------------
  C    -21.076088   26.158417   46.225144
  C    -20.472459   27.527174   45.909602
  C    -20.440064   28.188468   47.306598
  C    -20.132551   27.002072   48.247678
  O    -20.454644   25.775796   47.476017
  H    -20.851072   25.360559   45.511695
  H    -19.458573   27.394139   45.514648
  H    -21.072120   28.078788   45.183159
  H    -19.690548   28.982609   47.380020
  H    -21.421833   28.614849   47.531886
  H    -20.734052   27.012923   49.160227
  H    -19.073357   26.934407   48.514392
  C    -23.323826   25.158901   46.149445
  H    -22.786299   24.254506   46.465309
  H    -24.195289   25.291049   46.798721
  O    -22.501673   26.338371   46.374332
  C    -23.748501   25.029226   44.685255
  C    -24.663473   23.823913   44.411077
  C    -26.060577   24.382974   44.820657
  C    -25.971776   25.864140   44.392539
  O    -24.528982   26.175941   44.228664
  H    -22.854361   25.007749   44.053939
  H    -24.646260   23.591654   43.344029
  O    -24.280654   22.586580   45.057156
  H    -26.878503   23.845935   44.334086
  H    -26.189834   24.284309   45.907089
  H    -26.402145   26.549071   45.129723
  H    -26.449472   26.043792   43.424671
  H    -24.484014   22.619689   46.014242

 Multiplicity           Mult            ....    1
 Number of Electrons    NEL             ....  102
 Basis Dimension        Dim             ....  149

ORBITAL ENERGIES
----------------

  NO   OCC          E(Eh)            E(eV)
   0   2.0000     -19.150984      -521.1248
   1   2.0000     -19.139291      -520.8066
   2   2.0000     -19.137747      -520.7646
   3   2.0000     -19.133133      -520.6390
   4   2.0000     -10.273706      -279.5618
   5   2.0000     -10.246905      -278.8325
   6   2.0000     -10.231695      -278.4186
   7   2.0000     -10.231368      -278.4097
   8   2.0000     -10.229197      -278.3506
   9   2.0000     -10.219545      -278.0880
  10   2.0000     -10.197217      -277.4804
  11   2.0000     -10.179104      -276.9875
  12   2.0000     -10.178402      -276.9684
  13   2.0000      -1.048985       -28.5443
  14   2.0000      -1.034517       -28.1506
  15   2.0000      -1.016386       -27.6573
  16   2.0000      -0.989071       -26.9140
  17   2.0000      -0.785375       -21.3711
  18   2.0000      -0.780852       -21.2481
  19   2.0000      -0.764652       -20.8073
  20   2.0000      -0.728605       -19.8264
  21   2.0000      -0.678857       -18.4726
  22   2.0000      -0.612906       -16.6780
  23   2.0000      -0.598181       -16.2773
  24   2.0000      -0.591390       -16.0925
  25   2.0000      -0.569498       -15.4968
  26   2.0000      -0.531912       -14.4741
  27   2.0000      -0.511002       -13.9051
  28   2.0000      -0.495456       -13.4820
  29   2.0000      -0.488212       -13.2849
  30   2.0000      -0.465925       -12.6785
  31   2.0000      -0.450048       -12.2464
  32   2.0000      -0.443340       -12.0639
  33   2.0000      -0.434293       -11.8177
  34   2.0000      -0.428520       -11.6606
  35   2.0000      -0.420028       -11.4295
  36   2.0000      -0.407278       -11.0826
  37   2.0000      -0.396060       -10.7774
  38   2.0000      -0.379106       -10.3160
  39   2.0000      -0.364783        -9.9263
  40   2.0000      -0.354996        -9.6599
  41   2.0000      -0.350301        -9.5322
  42   2.0000      -0.342448        -9.3185
  43   2.0000      -0.333065        -9.0632
  44   2.0000      -0.320170        -8.7123
  45   2.0000      -0.314402        -8.5553
  46   2.0000      -0.296743        -8.0748
  47   2.0000      -0.273057        -7.4303
  48   2.0000      -0.269498        -7.3334
  49   2.0000      -0.248537        -6.7630
  50   2.0000      -0.234701        -6.3865
  51   0.0000       0.051112         1.3908
  52   0.0000       0.078872         2.1462
  53   0.0000       0.088415         2.4059
  54   0.0000       0.093099         2.5334
  55   0.0000       0.103388         2.8133

MULLIKEN ATOMIC CHARGES
-----------------------
   0 C :    0.275824
   1 C :   -0.256156
   2 C :   -0.300237
   3 C :   -0.000497
   4 O :   -0.511663
   5 H :    0.141078
   6 H :    0.141643
   7 H :    0.163512
   8 H :    0.138888
   9 H :    0.164962
  10 H :    0.145257
  11 H :    0.139645
  12 C :   -0.032896
  13 H :    0.144842
  14 H :    0.142838
  15 O :   -0.500656
  16 C :    0.091014
  17 C :    0.083709
  18 C :   -0.326515
  19 C :   -0.009543
  20 O :   -0.505787
  21 H :    0.152458
  22 H :    0.169498
  23 O :   -0.598204
  24 H :    0.158336
  25 H :    0.134566
  26 H :    0.148525
  27 H :    0.148984
  28 H :    0.356577
Sum of atomic charges:   -0.0000000

LOEWDIN ATOMIC CHARGES
----------------------
   0 C :    0.170245
   1 C :   -0.215579
   2 C :   -0.216281
   3 C :   -0.027281
   4 O :   -0.329931
   5 H :    0.096788
   6 H :    0.112180
   7 H :    0.127093
   8 H :    0.112344
   9 H :    0.120420
  10 H :    0.104578
  11 H :    0.101094
  12 C :   -0.052300
  13 H :    0.105627
  14 H :    0.107215
  15 O :   -0.314162
  16 C :    0.009873
  17 C :    0.033630
  18 C :   -0.241756
  19 C :   -0.029674
  20 O :   -0.316204
  21 H :    0.111681
  22 H :    0.119866
  23 O :   -0.406178
  24 H :    0.123311
  25 H :    0.104483
  26 H :    0.104955
  27 H :    0.105798
  28 H :    0.278166

  Mayer bond orders larger than 0.100000
B(  0-C ,  1-C ) :   0.9477 B(  0-C ,  4-O ) :   0.9097 B(  0-C ,  5-H ) :   0.9174
B(  0-C , 15-O ) :   0.8614 B(  1-C ,  2-C ) :   0.9574 B(  1-C ,  6-H ) :   0.9404
B(  1-C ,  7-H ) :   0.9349 B(  2-C ,  3-C ) :   0.9550 B(  2-C ,  8-H ) :   0.9455
B(  2-C ,  9-H ) :   0.9438 B(  3-C ,  4-O ) :   0.8396 B(  3-C , 10-H ) :   0.9359
B(  3-C , 11-H ) :   0.9403 B( 12-C , 13-H ) :   0.9051 B( 12-C , 14-H ) :   0.9388
B( 12-C , 15-O ) :   0.8621 B( 12-C , 16-C ) :   0.8866 B( 16-C , 17-C ) :   0.8726
B( 16-C , 20-O ) :   0.8707 B( 16-C , 21-H ) :   0.9305 B( 17-C , 18-C ) :   0.9229
B( 17-C , 22-H ) :   0.9319 B( 17-C , 23-O ) :   0.8978 B( 18-C , 19-C ) :   0.9386
B( 18-C , 24-H ) :   0.9419 B( 18-C , 25-H ) :   0.9417 B( 19-C , 20-O ) :   0.8480
B( 19-C , 26-H ) :   0.9311 B( 19-C , 27-H ) :   0.9379 B( 23-O , 28-H ) :   0.7977

FINAL SINGLE POINT ENERGY      -652.859541101961

DIPOLE MOMENT
-------------
                                X             Y             Z
Electronic contribution:      0.07852      -2.76033      -1.16838
Nuclear contribution   :     -0.66794       2.95636       1.38946
                        -----------------------------------------
Total Dipole Moment    :     -0.58942       0.19602       0.22108
                        -----------------------------------------
Magnitude (a.u.)       :      0.65933
Magnitude (Debye)      :      1.67588

Rotational constants in cm-1:     0.058570     0.012317     0.011107
Rotational constants in MHz :  1755.872709   369.242632   332.990651

                             ****ORCA TERMINATED NORMALLY****
TOTAL RUN TIME: 0 days 2 hours 17 minutes 48 seconds 791 msec
