                         Program Version 4.2.0 -  RELEASE  -
|  1> # Test redundant internal optimization
|  2> #
|  3> ! RKS B3LYP  Opt TightSCF SmallPrint
|  4>
|  5> %basis
|  6>         Basis "6-31G"
|  7> end
|  8>
|  9> %geom
| 10> Constraints
| 11> { D 4  0  15  12  135.0   C } # D for Dihedral angle
| 12> { D 0  15  12  16  195.0   C } # D for Dihedral angle
| 13> { D 0  4  3  2   C } # D for Dihedral angle
| 14> { D 4  3  2  1   C } # D for Dihedral angle
| 15> { D 3  2  1  0   C } # D for Dihedral angle
| 16> { D 2  1  0  4   C } # D for Dihedral angle
| 17> { D 1  0  4  3   C } # D for Dihedral angle
| 18> { D 16  20  19  18   C } # D for Dihedral angle
| 19> { D 20  19  18  17   C } # D for Dihedral angle
| 20> { D 19  18  17  16   C } # D for Dihedral angle
| 21> { D 18  17  16  20   C } # D for Dihedral angle
| 22> { D 17  16  20  19   C } # D for Dihedral angle
| 23> { D 15  12  16  20   C } # D for Dihedral angle
| 24> end
| 25> end
| 26>
| 27>
| 28> #%pal
| 29> #nprocs 8
| 30> #end
| 31>
| 32> * xyz 0 1
| 33> C  -21.048   26.222   46.251
| 34> C  -20.361   27.558   45.944
| 35> C  -20.329   28.222   47.341
| 36> C  -20.110   27.022   48.296
| 37> O  -20.473   25.807   47.535
| 38> H  -20.833   25.428   45.533
| 39> H  -19.344   27.382   45.576
| 40> H  -20.898   28.157   45.201
| 41> H  -19.543   28.978   47.434
| 42> H  -21.289   28.710   47.548
| 43> H  -20.733   27.082   49.195
| 44> H  -19.064   26.913   48.597
| 45> C  -23.162   27.680   45.721
| 46> H  -22.525   28.535   45.981
| 47> H  -23.173   27.582   44.627
| 48> O  -22.586   26.394   46.375
| 49> C  -24.612   27.991   46.183
| 50> C  -24.662   28.311   47.681
| 51> C  -24.175   29.779   47.705
| 52> C  -24.760   30.365   46.395
| 53> O  -25.105   29.212   45.536
| 54> H  -25.269   27.177   45.872
| 55> O  -26.123   28.210   48.199
| 56> H  -24.036   27.645   48.285
| 57> H  -24.511   30.324   48.592
| 58> H  -23.079   29.812   47.687
| 59> H  -24.046   31.005   45.866
| 60> H  -25.681   30.928   46.565
| 61> H  -26.770   28.869   47.608
| 62> *
| 63>
| 64>                          ****END OF INPUT****
 Total Charge           Charge          ....    0
 Multiplicity           Mult            ....    1
 Number of Electrons    NEL             ....  102
FINAL SINGLE POINT ENERGY      -652.824991922446
FINAL SINGLE POINT ENERGY      -652.848868263149
FINAL SINGLE POINT ENERGY      -652.853367109004
FINAL SINGLE POINT ENERGY      -652.855743600143
FINAL SINGLE POINT ENERGY      -652.855990848805
FINAL SINGLE POINT ENERGY      -652.856043091340
                    ***********************HURRAY********************

CARTESIAN COORDINATES (ANGSTROEM)
---------------------------------
  C    -21.187242   26.300436   46.282666
  C    -20.219248   27.430304   45.924478
  C    -20.120007   28.209111   47.263677
  C    -20.212796   27.080883   48.316077
  O    -20.787223   25.911418   47.607973
  H    -21.087592   25.406306   45.663278
  H    -19.252715   26.982673   45.669933
  H    -20.535162   28.047876   45.080120
  H    -19.189724   28.779025   47.345370
  H    -20.954032   28.911388   47.365749
  H    -20.855475   27.333310   49.163627
  H    -19.232044   26.771827   48.688424
  C    -23.133711   27.824174   45.640577
  H    -22.524691   28.714482   45.841289
  H    -23.187623   27.687353   44.552930
  O    -22.605028   26.641013   46.297350
  C    -24.545868   28.028965   46.192008
  C    -24.627698   28.311526   47.698557
  C    -24.272155   29.818606   47.754878
  C    -24.902968   30.379792   46.455651
  O    -25.143778   29.215127   45.567185
  H    -25.169361   27.171272   45.925894
  O    -25.971364   28.063826   48.197252
  H    -23.970268   27.673091   48.285610
  H    -24.678355   30.279037   48.658537
  H    -23.184502   29.956376   47.760923
  H    -24.253076   31.093455   45.939215
  H    -25.872384   30.856386   46.631191
  H    -26.623911   28.420961   47.558582

 Multiplicity           Mult            ....    1
 Number of Electrons    NEL             ....  102
 Basis Dimension        Dim             ....  149

ORBITAL ENERGIES
----------------

  NO   OCC          E(Eh)            E(eV)
   0   2.0000     -19.146429      -521.0008
   1   2.0000     -19.143807      -520.9295
   2   2.0000     -19.143180      -520.9124
   3   2.0000     -19.133961      -520.6615
   4   2.0000     -10.284168      -279.8464
   5   2.0000     -10.235732      -278.5284
   6   2.0000     -10.235070      -278.5104
   7   2.0000     -10.234133      -278.4849
   8   2.0000     -10.233296      -278.4621
   9   2.0000     -10.231561      -278.4149
  10   2.0000     -10.199239      -277.5354
  11   2.0000     -10.198449      -277.5139
  12   2.0000     -10.190190      -277.2892
  13   2.0000      -1.054862       -28.7043
  14   2.0000      -1.036776       -28.2121
  15   2.0000      -1.004087       -27.3226
  16   2.0000      -0.997298       -27.1379
  17   2.0000      -0.795713       -21.6525
  18   2.0000      -0.782368       -21.2893
  19   2.0000      -0.771692       -20.9988
  20   2.0000      -0.735423       -20.0119
  21   2.0000      -0.681276       -18.5385
  22   2.0000      -0.610144       -16.6029
  23   2.0000      -0.604922       -16.4608
  24   2.0000      -0.596471       -16.2308
  25   2.0000      -0.577916       -15.7259
  26   2.0000      -0.527554       -14.3555
  27   2.0000      -0.514298       -13.9948
  28   2.0000      -0.506704       -13.7881
  29   2.0000      -0.496337       -13.5060
  30   2.0000      -0.476628       -12.9697
  31   2.0000      -0.456904       -12.4330
  32   2.0000      -0.452533       -12.3140
  33   2.0000      -0.444233       -12.0882
  34   2.0000      -0.429523       -11.6879
  35   2.0000      -0.415255       -11.2997
  36   2.0000      -0.408863       -11.1257
  37   2.0000      -0.393258       -10.7011
  38   2.0000      -0.387195       -10.5361
  39   2.0000      -0.372080       -10.1248
  40   2.0000      -0.366586        -9.9753
  41   2.0000      -0.360137        -9.7998
  42   2.0000      -0.357535        -9.7290
  43   2.0000      -0.333583        -9.0773
  44   2.0000      -0.318751        -8.6737
  45   2.0000      -0.306778        -8.3478
  46   2.0000      -0.297561        -8.0970
  47   2.0000      -0.274525        -7.4702
  48   2.0000      -0.265872        -7.2348
  49   2.0000      -0.253930        -6.9098
  50   2.0000      -0.247802        -6.7430
  51   0.0000       0.050082         1.3628
  52   0.0000       0.065347         1.7782
  53   0.0000       0.088461         2.4072
  54   0.0000       0.095312         2.5936
  55   0.0000       0.101819         2.7706

MULLIKEN ATOMIC CHARGES
-----------------------
   0 C :    0.324807
   1 C :   -0.304331
   2 C :   -0.312011
   3 C :   -0.003473
   4 O :   -0.494050
   5 H :    0.157013
   6 H :    0.157753
   7 H :    0.150352
   8 H :    0.147885
   9 H :    0.152944
  10 H :    0.150856
  11 H :    0.147526
  12 C :   -0.003611
  13 H :    0.120198
  14 H :    0.148534
  15 O :   -0.533610
  16 C :    0.057619
  17 C :    0.089458
  18 C :   -0.301696
  19 C :   -0.036205
  20 O :   -0.527132
  21 H :    0.172390
  22 O :   -0.602238
  23 H :    0.180486
  24 H :    0.161353
  25 H :    0.141082
  26 H :    0.144973
  27 H :    0.150467
  28 H :    0.362660
Sum of atomic charges:   -0.0000000

LOEWDIN ATOMIC CHARGES
----------------------
   0 C :    0.185053
   1 C :   -0.232932
   2 C :   -0.220206
   3 C :   -0.028846
   4 O :   -0.307090
   5 H :    0.105233
   6 H :    0.123420
   7 H :    0.116976
   8 H :    0.117478
   9 H :    0.107227
  10 H :    0.106763
  11 H :    0.105483
  12 C :   -0.038475
  13 H :    0.088353
  14 H :    0.103199
  15 O :   -0.337202
  16 C :    0.019048
  17 C :    0.038657
  18 C :   -0.242275
  19 C :   -0.039959
  20 O :   -0.330841
  21 H :    0.121325
  22 O :   -0.413263
  23 H :    0.129637
  24 H :    0.126878
  25 H :    0.108159
  26 H :    0.102652
  27 H :    0.104245
  28 H :    0.281305

  Mayer bond orders larger than 0.100000
B(  0-C ,  1-C ) :   0.9319 B(  0-C ,  4-O ) :   0.9269 B(  0-C ,  5-H ) :   0.9282
B(  0-C , 15-O ) :   0.8450 B(  1-C ,  2-C ) :   0.9500 B(  1-C ,  6-H ) :   0.9336
B(  1-C ,  7-H ) :   0.9288 B(  2-C ,  3-C ) :   0.9501 B(  2-C ,  8-H ) :   0.9454
B(  2-C ,  9-H ) :   0.9356 B(  3-C ,  4-O ) :   0.8427 B(  3-C , 10-H ) :   0.9336
B(  3-C , 11-H ) :   0.9388 B( 12-C , 13-H ) :   0.9069 B( 12-C , 14-H ) :   0.9175
B( 12-C , 15-O ) :   0.8302 B( 12-C , 16-C ) :   0.9022 B( 16-C , 17-C ) :   0.9109
B( 16-C , 20-O ) :   0.8427 B( 16-C , 21-H ) :   0.9240 B( 17-C , 18-C ) :   0.9115
B( 17-C , 22-O ) :   0.8905 B( 17-C , 23-H ) :   0.9211 B( 18-C , 19-C ) :   0.9408
B( 18-C , 24-H ) :   0.9381 B( 18-C , 25-H ) :   0.9306 B( 19-C , 20-O ) :   0.8455
B( 19-C , 26-H ) :   0.9353 B( 19-C , 27-H ) :   0.9373 B( 22-O , 28-H ) :   0.7954

FINAL SINGLE POINT ENERGY      -652.856048702882

DIPOLE MOMENT
-------------
                                X             Y             Z
Electronic contribution:     -4.71978      -5.18384      -0.66595
Nuclear contribution   :      5.91157       6.63264       0.23025
                        -----------------------------------------
Total Dipole Moment    :      1.19179       1.44881      -0.43570
                        -----------------------------------------
Magnitude (a.u.)       :      1.92594
Magnitude (Debye)      :      4.89534

Rotational constants in cm-1:     0.047907     0.014582     0.014317
Rotational constants in MHz :  1436.218859   437.172255   429.199424

                             ****ORCA TERMINATED NORMALLY****
TOTAL RUN TIME: 0 days 0 hours 22 minutes 19 seconds 651 msec
