                         Program Version 4.2.0 -  RELEASE  -
|  1> # Test redundant internal optimization
|  2> #
|  3> ! RKS B3LYP  Opt TightSCF SmallPrint
|  4>
|  5> %basis
|  6>         Basis "6-31G"
|  7> end
|  8>
|  9> %geom
| 10> Constraints
| 11> { D 4  0  15  12  75.0   C } # D for Dihedral angle
| 12> { D 0  15  12  16  150.0   C } # D for Dihedral angle
| 13> { D 0  4  3  2   C } # D for Dihedral angle
| 14> { D 4  3  2  1   C } # D for Dihedral angle
| 15> { D 3  2  1  0   C } # D for Dihedral angle
| 16> { D 2  1  0  4   C } # D for Dihedral angle
| 17> { D 1  0  4  3   C } # D for Dihedral angle
| 18> { D 16  20  19  18   C } # D for Dihedral angle
| 19> { D 20  19  18  17   C } # D for Dihedral angle
| 20> { D 19  18  17  16   C } # D for Dihedral angle
| 21> { D 18  17  16  20   C } # D for Dihedral angle
| 22> { D 17  16  20  19   C } # D for Dihedral angle
| 23> { D 15  12  16  20   C } # D for Dihedral angle
| 24> end
| 25> end
| 26>
| 27>
| 28> #%pal
| 29> #nprocs 8
| 30> #end
| 31>
| 32> * xyz 0 1
| 33> C  -21.048   26.222   46.251
| 34> C  -20.361   27.558   45.944
| 35> C  -20.329   28.222   47.341
| 36> C  -20.110   27.022   48.296
| 37> O  -20.473   25.807   47.535
| 38> H  -20.833   25.428   45.533
| 39> H  -19.344   27.382   45.576
| 40> H  -20.898   28.157   45.201
| 41> H  -19.543   28.978   47.434
| 42> H  -21.289   28.710   47.548
| 43> H  -20.733   27.082   49.195
| 44> H  -19.064   26.913   48.597
| 45> C  -23.049   27.675   47.122
| 46> H  -23.134   27.458   48.194
| 47> H  -22.316   28.481   46.992
| 48> O  -22.586   26.394   46.375
| 49> C  -24.423   28.199   46.619
| 50> C  -24.407   28.440   45.105
| 51> C  -24.582   27.003   44.558
| 52> C  -25.523   26.343   45.596
| 53> O  -25.462   27.183   46.813
| 54> H  -24.712   29.069   47.212
| 55> O  -25.609   29.333   44.695
| 56> H  -23.486   28.919   44.755
| 57> H  -24.998   26.982   43.545
| 58> H  -23.613   26.489   44.533
| 59> H  -25.219   25.322   45.849
| 60> H  -26.566   26.331   45.266
| 61> H  -26.543   28.872   45.036
| 62> *
| 63>
| 64>                          ****END OF INPUT****
 Total Charge           Charge          ....    0
 Multiplicity           Mult            ....    1
 Number of Electrons    NEL             ....  102
FINAL SINGLE POINT ENERGY      -652.796801469239
FINAL SINGLE POINT ENERGY      -652.832556461019
FINAL SINGLE POINT ENERGY      -652.850797776835
FINAL SINGLE POINT ENERGY      -652.854719197471
FINAL SINGLE POINT ENERGY      -652.855273944927
FINAL SINGLE POINT ENERGY      -652.855377914196
FINAL SINGLE POINT ENERGY      -652.855397973055
FINAL SINGLE POINT ENERGY      -652.855400461443
                    ***********************HURRAY********************

CARTESIAN COORDINATES (ANGSTROEM)
---------------------------------
  C    -21.214423   26.349169   46.473275
  C    -20.322529   27.502567   45.985632
  C    -19.978563   28.238633   47.318027
  C    -19.880557   27.063485   48.325921
  O    -20.573633   25.917044   47.694248
  H    -21.183656   25.482705   45.810723
  H    -19.419429   27.077266   45.537633
  H    -20.812527   28.142798   45.246336
  H    -19.034670   28.789065   47.250094
  H    -20.753263   28.953660   47.600695
  H    -20.353619   27.280563   49.288215
  H    -18.846501   26.752427   48.499904
  C    -23.228560   27.728844   47.229767
  H    -23.392108   27.493194   48.287663
  H    -22.584138   28.611898   47.158302
  O    -22.636487   26.570026   46.576355
  C    -24.569333   28.081730   46.584770
  C    -24.550346   28.443294   45.091691
  C    -24.619416   27.041831   44.424653
  C    -25.527373   26.243367   45.393231
  O    -25.536035   26.989921   46.674002
  H    -24.987458   28.916889   47.161377
  O    -25.695590   29.275131   44.753626
  H    -23.677670   29.024504   44.789546
  H    -25.032797   27.115657   43.414879
  H    -23.622153   26.603109   44.385296
  H    -25.149132   25.235748   45.581495
  H    -26.565544   26.181333   45.050685
  H    -26.505489   28.868142   45.127959

 Multiplicity           Mult            ....    1
 Number of Electrons    NEL             ....  102
 Basis Dimension        Dim             ....  149

ORBITAL ENERGIES
----------------

  NO   OCC          E(Eh)            E(eV)
   0   2.0000     -19.149750      -521.0912
   1   2.0000     -19.144777      -520.9559
   2   2.0000     -19.136962      -520.7432
   3   2.0000     -19.136217      -520.7229
   4   2.0000     -10.284949      -279.8677
   5   2.0000     -10.238807      -278.6121
   6   2.0000     -10.235769      -278.5294
   7   2.0000     -10.234791      -278.5028
   8   2.0000     -10.233177      -278.4589
   9   2.0000     -10.220756      -278.1209
  10   2.0000     -10.199174      -277.5336
  11   2.0000     -10.198686      -277.5203
  12   2.0000     -10.176997      -276.9302
  13   2.0000      -1.056170       -28.7398
  14   2.0000      -1.032776       -28.1033
  15   2.0000      -1.005715       -27.3669
  16   2.0000      -0.997411       -27.1409
  17   2.0000      -0.793895       -21.6030
  18   2.0000      -0.782122       -21.2826
  19   2.0000      -0.766002       -20.8440
  20   2.0000      -0.737043       -20.0560
  21   2.0000      -0.680176       -18.5085
  22   2.0000      -0.610729       -16.6188
  23   2.0000      -0.606062       -16.4918
  24   2.0000      -0.597530       -16.2596
  25   2.0000      -0.569557       -15.4984
  26   2.0000      -0.523289       -14.2394
  27   2.0000      -0.516293       -14.0491
  28   2.0000      -0.504595       -13.7307
  29   2.0000      -0.490255       -13.3405
  30   2.0000      -0.473766       -12.8918
  31   2.0000      -0.454666       -12.3721
  32   2.0000      -0.452303       -12.3078
  33   2.0000      -0.439317       -11.9544
  34   2.0000      -0.424646       -11.5552
  35   2.0000      -0.421843       -11.4789
  36   2.0000      -0.405799       -11.0424
  37   2.0000      -0.388086       -10.5604
  38   2.0000      -0.386161       -10.5080
  39   2.0000      -0.367613       -10.0033
  40   2.0000      -0.367114        -9.9897
  41   2.0000      -0.362812        -9.8726
  42   2.0000      -0.351667        -9.5694
  43   2.0000      -0.328055        -8.9268
  44   2.0000      -0.320036        -8.7086
  45   2.0000      -0.307453        -8.3662
  46   2.0000      -0.301006        -8.1908
  47   2.0000      -0.272312        -7.4100
  48   2.0000      -0.265291        -7.2189
  49   2.0000      -0.258760        -7.0412
  50   2.0000      -0.239864        -6.5270
  51   0.0000       0.059650         1.6232
  52   0.0000       0.073638         2.0038
  53   0.0000       0.084961         2.3119
  54   0.0000       0.098294         2.6747
  55   0.0000       0.109110         2.9690

MULLIKEN ATOMIC CHARGES
-----------------------
   0 C :    0.308847
   1 C :   -0.287781
   2 C :   -0.316501
   3 C :   -0.008553
   4 O :   -0.501932
   5 H :    0.164660
   6 H :    0.160533
   7 H :    0.147586
   8 H :    0.148247
   9 H :    0.151260
  10 H :    0.147342
  11 H :    0.149420
  12 C :   -0.000721
  13 H :    0.161161
  14 H :    0.122798
  15 O :   -0.525004
  16 C :    0.068214
  17 C :    0.072155
  18 C :   -0.278392
  19 C :   -0.020904
  20 O :   -0.522725
  21 H :    0.154150
  22 O :   -0.604017
  23 H :    0.141655
  24 H :    0.147315
  25 H :    0.162189
  26 H :    0.158981
  27 H :    0.135308
  28 H :    0.364709
Sum of atomic charges:   -0.0000000

LOEWDIN ATOMIC CHARGES
----------------------
   0 C :    0.174775
   1 C :   -0.231038
   2 C :   -0.224172
   3 C :   -0.032463
   4 O :   -0.318318
   5 H :    0.112213
   6 H :    0.125232
   7 H :    0.116165
   8 H :    0.116788
   9 H :    0.108228
  10 H :    0.104336
  11 H :    0.105682
  12 C :   -0.040269
  13 H :    0.113733
  14 H :    0.095188
  15 O :   -0.317886
  16 C :    0.012895
  17 C :    0.037987
  18 C :   -0.240011
  19 C :   -0.032894
  20 O :   -0.327612
  21 H :    0.114779
  22 O :   -0.417330
  23 H :    0.110326
  24 H :    0.117716
  25 H :    0.124447
  26 H :    0.112209
  27 H :    0.096040
  28 H :    0.283253

  Mayer bond orders larger than 0.100000
B(  0-C ,  1-C ) :   0.9185 B(  0-C ,  4-O ) :   0.9057 B(  0-C ,  5-H ) :   0.9366
B(  0-C , 15-O ) :   0.8914 B(  1-C ,  2-C ) :   0.9542 B(  1-C ,  6-H ) :   0.9343
B(  1-C ,  7-H ) :   0.9353 B(  2-C ,  3-C ) :   0.9460 B(  2-C ,  8-H ) :   0.9448
B(  2-C ,  9-H ) :   0.9368 B(  3-C ,  4-O ) :   0.8467 B(  3-C , 10-H ) :   0.9338
B(  3-C , 11-H ) :   0.9386 B( 12-C , 13-H ) :   0.9205 B( 12-C , 14-H ) :   0.8958
B( 12-C , 15-O ) :   0.8372 B( 12-C , 16-C ) :   0.9053 B( 16-C , 17-C ) :   0.9070
B( 16-C , 20-O ) :   0.8775 B( 16-C , 21-H ) :   0.9213 B( 17-C , 18-C ) :   0.9253
B( 17-C , 22-O ) :   0.8927 B( 17-C , 23-H ) :   0.9360 B( 18-C , 19-C ) :   0.9457
B( 18-C , 24-H ) :   0.9369 B( 18-C , 25-H ) :   0.9210 B( 19-C , 20-O ) :   0.8377
B( 19-C , 26-H ) :   0.9328 B( 19-C , 27-H ) :   0.9372 B( 22-O , 28-H ) :   0.7946

FINAL SINGLE POINT ENERGY      -652.855399259945

DIPOLE MOMENT
-------------
                                X             Y             Z
Electronic contribution:     -4.28635      -2.20535       1.06565
Nuclear contribution   :      5.31525       2.80972      -1.27531
                        -----------------------------------------
Total Dipole Moment    :      1.02891       0.60437      -0.20966
                        -----------------------------------------
Magnitude (a.u.)       :      1.21156
Magnitude (Debye)      :      3.07953

Rotational constants in cm-1:     0.056534     0.013944     0.013289
Rotational constants in MHz :  1694.857626   418.043317   398.399877

                             ****ORCA TERMINATED NORMALLY****
TOTAL RUN TIME: 0 days 0 hours 22 minutes 59 seconds 523 msec
