                         Program Version 4.2.0 -  RELEASE  -
|  1> # Test redundant internal optimization
|  2> #
|  3> ! RKS B3LYP  Opt TightSCF SmallPrint
|  4>
|  5> %basis
|  6>         Basis "6-31G"
|  7> end
|  8>
|  9> %geom
| 10> Constraints
| 11> { D 4  0  15  12  270.0   C } # D for Dihedral angle
| 12> { D 0  15  12  16  330.0   C } # D for Dihedral angle
| 13> { D 0  4  3  2   C } # D for Dihedral angle
| 14> { D 4  3  2  1   C } # D for Dihedral angle
| 15> { D 3  2  1  0   C } # D for Dihedral angle
| 16> { D 2  1  0  4   C } # D for Dihedral angle
| 17> { D 1  0  4  3   C } # D for Dihedral angle
| 18> { D 16  20  19  18   C } # D for Dihedral angle
| 19> { D 20  19  18  17   C } # D for Dihedral angle
| 20> { D 19  18  17  16   C } # D for Dihedral angle
| 21> { D 18  17  16  20   C } # D for Dihedral angle
| 22> { D 17  16  20  19   C } # D for Dihedral angle
| 23> { D 15  12  16  20   C } # D for Dihedral angle
| 24> end
| 25> end
| 26>
| 27>
| 28> #%pal
| 29> #nprocs 8
| 30> #end
| 31>
| 32> * xyz 0 1
| 33> C  -21.048   26.222   46.251
| 34> C  -20.361   27.558   45.944
| 35> C  -20.329   28.222   47.341
| 36> C  -20.110   27.022   48.296
| 37> O  -20.473   25.807   47.535
| 38> H  -20.833   25.428   45.533
| 39> H  -19.344   27.382   45.576
| 40> H  -20.898   28.157   45.201
| 41> H  -19.543   28.978   47.434
| 42> H  -21.289   28.710   47.548
| 43> H  -20.733   27.082   49.195
| 44> H  -19.064   26.913   48.597
| 45> C  -23.420   25.119   46.072
| 46> H  -23.571   24.556   47.002
| 47> H  -24.405   25.390   45.671
| 48> O  -22.586   26.394   46.375
| 49> C  -22.731   24.182   45.041
| 50> C  -23.631   22.995   44.680
| 51> C  -24.611   23.640   43.671
| 52> C  -23.721   24.664   42.922
| 53> O  -22.529   24.882   43.768
| 54> H  -21.744   23.903   45.414
| 55> O  -22.795   21.880   43.995
| 56> H  -24.140   22.561   45.548
| 57> H  -25.067   22.910   42.995
| 58> H  -25.421   24.151   44.206
| 59> H  -24.228   25.622   42.763
| 60> H  -23.369   24.284   41.959
| 61> H  -22.276   22.293   43.122
| 62> *
| 63>
| 64>                          ****END OF INPUT****
 Total Charge           Charge          ....    0
 Multiplicity           Mult            ....    1
 Number of Electrons    NEL             ....  102
FINAL SINGLE POINT ENERGY      -652.830770385890
FINAL SINGLE POINT ENERGY      -652.854957517483
FINAL SINGLE POINT ENERGY      -652.859262526536
FINAL SINGLE POINT ENERGY      -652.861078783445
FINAL SINGLE POINT ENERGY      -652.861252959163
FINAL SINGLE POINT ENERGY      -652.861285795532
                    ***********************HURRAY********************

CARTESIAN COORDINATES (ANGSTROEM)
---------------------------------
  C    -20.931911   26.204545   46.191777
  C    -20.413296   27.628292   45.980283
  C    -20.474144   28.205492   47.415222
  C    -20.117387   26.984818   48.294224
  O    -20.327480   25.790598   47.441629
  H    -20.626936   25.486749   45.432306
  H    -19.379600   27.585870   45.617880
  H    -21.021698   28.180204   45.261975
  H    -19.783596   29.041033   47.564518
  H    -21.489928   28.550564   47.628256
  H    -20.747478   26.900298   49.183668
  H    -19.065506   26.973450   48.596436
  C    -23.218823   25.155149   46.010934
  H    -23.404079   24.606312   46.946565
  H    -24.161515   25.597850   45.678577
  O    -22.366340   26.300954   46.299564
  C    -22.698004   24.157159   44.976277
  C    -23.696967   23.024796   44.690917
  C    -24.658118   23.699219   43.673681
  C    -23.711725   24.618156   42.858428
  O    -22.481376   24.781326   43.667586
  H    -21.740638   23.734106   45.290911
  O    -23.024759   21.872595   44.115136
  H    -24.203287   22.646224   45.579462
  H    -25.157523   22.947093   43.058107
  H    -25.424484   24.278686   44.198706
  H    -24.142342   25.604594   42.663543
  H    -23.413364   24.173467   41.904030
  H    -22.387695   22.177402   43.434401

 Multiplicity           Mult            ....    1
 Number of Electrons    NEL             ....  102
 Basis Dimension        Dim             ....  149

ORBITAL ENERGIES
----------------

  NO   OCC          E(Eh)            E(eV)
   0   2.0000     -19.148375      -521.0538
   1   2.0000     -19.143496      -520.9210
   2   2.0000     -19.137259      -520.7513
   3   2.0000     -19.129990      -520.5535
   4   2.0000     -10.269595      -279.4499
   5   2.0000     -10.248489      -278.8756
   6   2.0000     -10.239886      -278.6415
   7   2.0000     -10.236451      -278.5480
   8   2.0000     -10.232512      -278.4408
   9   2.0000     -10.217569      -278.0342
  10   2.0000     -10.194881      -277.4168
  11   2.0000     -10.177289      -276.9381
  12   2.0000     -10.175748      -276.8962
  13   2.0000      -1.047978       -28.5169
  14   2.0000      -1.039429       -28.2843
  15   2.0000      -1.011573       -27.5263
  16   2.0000      -0.986203       -26.8360
  17   2.0000      -0.791128       -21.5277
  18   2.0000      -0.778902       -21.1950
  19   2.0000      -0.767200       -20.8766
  20   2.0000      -0.730142       -19.8682
  21   2.0000      -0.674080       -18.3427
  22   2.0000      -0.610069       -16.6008
  23   2.0000      -0.608801       -16.5663
  24   2.0000      -0.589982       -16.0542
  25   2.0000      -0.565887       -15.3986
  26   2.0000      -0.532244       -14.4831
  27   2.0000      -0.511664       -13.9231
  28   2.0000      -0.493102       -13.4180
  29   2.0000      -0.483493       -13.1565
  30   2.0000      -0.475434       -12.9372
  31   2.0000      -0.456910       -12.4332
  32   2.0000      -0.450731       -12.2650
  33   2.0000      -0.436436       -11.8760
  34   2.0000      -0.428537       -11.6611
  35   2.0000      -0.407985       -11.1018
  36   2.0000      -0.399281       -10.8650
  37   2.0000      -0.395231       -10.7548
  38   2.0000      -0.379649       -10.3308
  39   2.0000      -0.368028       -10.0145
  40   2.0000      -0.362165        -9.8550
  41   2.0000      -0.348024        -9.4702
  42   2.0000      -0.341799        -9.3008
  43   2.0000      -0.335437        -9.1277
  44   2.0000      -0.319754        -8.7010
  45   2.0000      -0.311747        -8.4831
  46   2.0000      -0.296852        -8.0778
  47   2.0000      -0.277736        -7.5576
  48   2.0000      -0.264503        -7.1975
  49   2.0000      -0.247064        -6.7230
  50   2.0000      -0.240242        -6.5373
  51   0.0000       0.061206         1.6655
  52   0.0000       0.084296         2.2938
  53   0.0000       0.088924         2.4198
  54   0.0000       0.095734         2.6050
  55   0.0000       0.100820         2.7434

MULLIKEN ATOMIC CHARGES
-----------------------
   0 C :    0.274240
   1 C :   -0.251908
   2 C :   -0.297422
   3 C :    0.000153
   4 O :   -0.513778
   5 H :    0.164767
   6 H :    0.141160
   7 H :    0.155304
   8 H :    0.136240
   9 H :    0.160359
  10 H :    0.144217
  11 H :    0.138666
  12 C :    0.035941
  13 H :    0.137431
  14 H :    0.144591
  15 O :   -0.528772
  16 C :    0.017312
  17 C :    0.077924
  18 C :   -0.290950
  19 C :   -0.028864
  20 O :   -0.525492
  21 H :    0.177550
  22 O :   -0.599257
  23 H :    0.156071
  24 H :    0.164363
  25 H :    0.144329
  26 H :    0.152474
  27 H :    0.148254
  28 H :    0.365097
Sum of atomic charges:    0.0000000

LOEWDIN ATOMIC CHARGES
----------------------
   0 C :    0.171031
   1 C :   -0.213262
   2 C :   -0.216607
   3 C :   -0.027308
   4 O :   -0.332746
   5 H :    0.106869
   6 H :    0.111683
   7 H :    0.123508
   8 H :    0.111059
   9 H :    0.118206
  10 H :    0.103639
  11 H :    0.100434
  12 C :   -0.034606
  13 H :    0.101772
  14 H :    0.109455
  15 O :   -0.322567
  16 C :   -0.002545
  17 C :    0.039407
  18 C :   -0.239232
  19 C :   -0.036726
  20 O :   -0.333269
  21 H :    0.120118
  22 O :   -0.412036
  23 H :    0.117838
  24 H :    0.127663
  25 H :    0.113510
  26 H :    0.107386
  27 H :    0.103687
  28 H :    0.283639

  Mayer bond orders larger than 0.100000
B(  0-C ,  1-C ) :   0.9473 B(  0-C ,  4-O ) :   0.9041 B(  0-C ,  5-H ) :   0.9055
B(  0-C , 15-O ) :   0.8568 B(  1-C ,  2-C ) :   0.9571 B(  1-C ,  6-H ) :   0.9413
B(  1-C ,  7-H ) :   0.9373 B(  2-C ,  3-C ) :   0.9548 B(  2-C ,  8-H ) :   0.9459
B(  2-C ,  9-H ) :   0.9444 B(  3-C ,  4-O ) :   0.8414 B(  3-C , 10-H ) :   0.9360
B(  3-C , 11-H ) :   0.9405 B( 12-C , 13-H ) :   0.9113 B( 12-C , 14-H ) :   0.9350
B( 12-C , 15-O ) :   0.8506 B( 12-C , 16-C ) :   0.8946 B( 16-C , 17-C ) :   0.8974
B( 16-C , 20-O ) :   0.8399 B( 16-C , 21-H ) :   0.9157 B( 17-C , 18-C ) :   0.9107
B( 17-C , 22-O ) :   0.8953 B( 17-C , 23-H ) :   0.9322 B( 18-C , 19-C ) :   0.9417
B( 18-C , 24-H ) :   0.9373 B( 18-C , 25-H ) :   0.9342 B( 19-C , 20-O ) :   0.8421
B( 19-C , 26-H ) :   0.9339 B( 19-C , 27-H ) :   0.9377 B( 22-O , 28-H ) :   0.7940

FINAL SINGLE POINT ENERGY      -652.861288526259

DIPOLE MOMENT
-------------
                                X             Y             Z
Electronic contribution:      0.90335      -3.77695      -0.50631
Nuclear contribution   :     -1.45831       4.36488       0.06748
                        -----------------------------------------
Total Dipole Moment    :     -0.55496       0.58792      -0.43883
                        -----------------------------------------
Magnitude (a.u.)       :      0.91990
Magnitude (Debye)      :      2.33819

Rotational constants in cm-1:     0.065248     0.012338     0.011646
Rotational constants in MHz :  1956.079756   369.882508   349.146576

                             ****ORCA TERMINATED NORMALLY****
TOTAL RUN TIME: 0 days 0 hours 22 minutes 44 seconds 395 msec
