                         Program Version 4.2.0 -  RELEASE  -
|  1> # Test redundant internal optimization
|  2> #
|  3> ! RKS B3LYP  Opt TightSCF SmallPrint
|  4>
|  5> %basis
|  6>         Basis "6-31G"
|  7> end
|  8>
|  9> %geom
| 10> Constraints
| 11> { D 4  0  15  12  225.0   C } # D for Dihedral angle
| 12> { D 0  15  12  16  105.0   C } # D for Dihedral angle
| 13> { D 0  4  3  2   C } # D for Dihedral angle
| 14> { D 4  3  2  1   C } # D for Dihedral angle
| 15> { D 3  2  1  0   C } # D for Dihedral angle
| 16> { D 2  1  0  4   C } # D for Dihedral angle
| 17> { D 1  0  4  3   C } # D for Dihedral angle
| 18> { D 16  20  19  18   C } # D for Dihedral angle
| 19> { D 20  19  18  17   C } # D for Dihedral angle
| 20> { D 19  18  17  16   C } # D for Dihedral angle
| 21> { D 18  17  16  20   C } # D for Dihedral angle
| 22> { D 17  16  20  19   C } # D for Dihedral angle
| 23> { D 15  12  16  20   C } # D for Dihedral angle
| 24> end
| 25> end
| 26>
| 27>
| 28> #%pal
| 29> #nprocs 8
| 30> #end
| 31>
| 32> * xyz 0 1
| 33> C  -21.048   26.222   46.251
| 34> C  -20.361   27.558   45.944
| 35> C  -20.329   28.222   47.341
| 36> C  -20.110   27.022   48.296
| 37> O  -20.473   25.807   47.535
| 38> H  -20.833   25.428   45.533
| 39> H  -19.344   27.382   45.576
| 40> H  -20.898   28.157   45.201
| 41> H  -19.543   28.978   47.434
| 42> H  -21.289   28.710   47.548
| 43> H  -20.733   27.082   49.195
| 44> H  -19.064   26.913   48.597
| 45> C  -23.415   25.773   45.218
| 46> H  -24.180   26.490   44.895
| 47> H  -22.769   25.550   44.359
| 48> O  -22.586   26.394   46.375
| 49> C  -24.126   24.454   45.629
| 50> C  -25.178   24.704   46.716
| 51> C  -26.359   25.263   45.887
| 52> C  -26.260   24.473   44.558
| 53> O  -24.893   23.912   44.502
| 54> H  -23.374   23.709   45.892
| 55> O  -25.571   23.364   47.396
| 56> H  -24.839   25.398   47.493
| 57> H  -27.326   25.129   46.381
| 58> H  -26.219   26.336   45.710
| 59> H  -26.424   25.106   43.680
| 60> H  -26.956   23.630   44.520
| 61> H  -25.916   22.652   46.636
| 62> *
| 63>
| 64>                          ****END OF INPUT****
 Total Charge           Charge          ....    0
 Multiplicity           Mult            ....    1
 Number of Electrons    NEL             ....  102
FINAL SINGLE POINT ENERGY      -652.837052017823
FINAL SINGLE POINT ENERGY      -652.859280901436
FINAL SINGLE POINT ENERGY      -652.862452165798
FINAL SINGLE POINT ENERGY      -652.863018664367
FINAL SINGLE POINT ENERGY      -652.863107950060
FINAL SINGLE POINT ENERGY      -652.863121145689
FINAL SINGLE POINT ENERGY      -652.863123824100
                    ***********************HURRAY********************

CARTESIAN COORDINATES (ANGSTROEM)
---------------------------------
  C    -21.102254   26.157555   46.182668
  C    -20.406465   27.493873   45.931562
  C    -20.471022   28.156167   47.328571
  C    -20.310608   26.956200   48.286425
  O    -20.622083   25.750642   47.474079
  H    -20.858599   25.359015   45.475036
  H    -19.366764   27.313216   45.632866
  H    -20.898779   28.081549   45.152723
  H    -19.694452   28.913116   47.472767
  H    -21.447912   28.629746   47.464870
  H    -20.994779   26.988271   49.137750
  H    -19.285482   26.832892   48.647893
  C    -23.335997   25.793899   45.146765
  H    -24.045823   26.567559   44.837122
  H    -22.707929   25.545401   44.281402
  O    -22.544997   26.349659   46.236087
  C    -24.065166   24.532203   45.614095
  C    -25.086853   24.756135   46.738337
  C    -26.304375   25.301405   45.950319
  C    -26.237632   24.524708   44.611241
  O    -24.857791   23.984761   44.505587
  H    -23.336390   23.768079   45.899746
  O    -25.399796   23.506289   47.413151
  H    -24.722348   25.428984   47.512664
  H    -27.230891   25.120536   46.501588
  H    -26.206058   26.380841   45.792065
  H    -26.438356   25.157289   43.741016
  H    -26.919779   23.669395   44.585305
  H    -25.516619   22.798614   46.744300

 Multiplicity           Mult            ....    1
 Number of Electrons    NEL             ....  102
 Basis Dimension        Dim             ....  149

ORBITAL ENERGIES
----------------

  NO   OCC          E(Eh)            E(eV)
   0   2.0000     -19.144156      -520.9390
   1   2.0000     -19.144012      -520.9351
   2   2.0000     -19.140180      -520.8308
   3   2.0000     -19.132025      -520.6089
   4   2.0000     -10.281851      -279.7834
   5   2.0000     -10.233847      -278.4771
   6   2.0000     -10.232982      -278.4536
   7   2.0000     -10.231071      -278.4016
   8   2.0000     -10.230077      -278.3745
   9   2.0000     -10.224710      -278.2285
  10   2.0000     -10.186247      -277.1819
  11   2.0000     -10.186198      -277.1805
  12   2.0000     -10.186053      -277.1766
  13   2.0000      -1.053458       -28.6661
  14   2.0000      -1.033872       -28.1331
  15   2.0000      -1.001925       -27.2638
  16   2.0000      -0.996107       -27.1055
  17   2.0000      -0.788191       -21.4478
  18   2.0000      -0.777187       -21.1483
  19   2.0000      -0.765827       -20.8392
  20   2.0000      -0.731024       -19.8922
  21   2.0000      -0.674920       -18.3655
  22   2.0000      -0.601814       -16.3762
  23   2.0000      -0.600596       -16.3431
  24   2.0000      -0.596057       -16.2195
  25   2.0000      -0.578466       -15.7409
  26   2.0000      -0.520156       -14.1542
  27   2.0000      -0.519266       -14.1300
  28   2.0000      -0.495002       -13.4697
  29   2.0000      -0.489236       -13.3128
  30   2.0000      -0.467610       -12.7243
  31   2.0000      -0.457748       -12.4560
  32   2.0000      -0.452399       -12.3104
  33   2.0000      -0.439013       -11.9461
  34   2.0000      -0.424925       -11.5628
  35   2.0000      -0.412597       -11.2273
  36   2.0000      -0.399409       -10.8685
  37   2.0000      -0.390219       -10.6184
  38   2.0000      -0.374038       -10.1781
  39   2.0000      -0.365795        -9.9538
  40   2.0000      -0.358330        -9.7507
  41   2.0000      -0.354378        -9.6431
  42   2.0000      -0.353491        -9.6190
  43   2.0000      -0.330795        -9.0014
  44   2.0000      -0.315558        -8.5868
  45   2.0000      -0.313331        -8.5262
  46   2.0000      -0.300918        -8.1884
  47   2.0000      -0.276721        -7.5300
  48   2.0000      -0.262562        -7.1447
  49   2.0000      -0.254191        -6.9169
  50   2.0000      -0.238303        -6.4846
  51   0.0000       0.065355         1.7784
  52   0.0000       0.074828         2.0362
  53   0.0000       0.095619         2.6019
  54   0.0000       0.100495         2.7346
  55   0.0000       0.105428         2.8688

MULLIKEN ATOMIC CHARGES
-----------------------
   0 C :    0.287680
   1 C :   -0.254434
   2 C :   -0.301137
   3 C :   -0.001996
   4 O :   -0.500701
   5 H :    0.141983
   6 H :    0.143386
   7 H :    0.144739
   8 H :    0.142155
   9 H :    0.162102
  10 H :    0.154569
  11 H :    0.142105
  12 C :   -0.031198
  13 H :    0.143538
  14 H :    0.144679
  15 O :   -0.516311
  16 C :    0.061084
  17 C :    0.096751
  18 C :   -0.308025
  19 C :   -0.028622
  20 O :   -0.528103
  21 H :    0.166510
  22 O :   -0.602470
  23 H :    0.178168
  24 H :    0.162035
  25 H :    0.149030
  26 H :    0.142945
  27 H :    0.148241
  28 H :    0.361297
Sum of atomic charges:   -0.0000000

LOEWDIN ATOMIC CHARGES
----------------------
   0 C :    0.177658
   1 C :   -0.224144
   2 C :   -0.216928
   3 C :   -0.025562
   4 O :   -0.309685
   5 H :    0.098668
   6 H :    0.112852
   7 H :    0.116832
   8 H :    0.114393
   9 H :    0.119144
  10 H :    0.109404
  11 H :    0.102647
  12 C :   -0.040889
  13 H :    0.104740
  14 H :    0.104660
  15 O :   -0.336912
  16 C :    0.008059
  17 C :    0.039575
  18 C :   -0.243804
  19 C :   -0.038356
  20 O :   -0.333769
  21 H :    0.118093
  22 O :   -0.413599
  23 H :    0.128996
  24 H :    0.126556
  25 H :    0.114721
  26 H :    0.102481
  27 H :    0.103400
  28 H :    0.280768

  Mayer bond orders larger than 0.100000
B(  0-C ,  1-C ) :   0.9384 B(  0-C ,  4-O ) :   0.9388 B(  0-C ,  5-H ) :   0.9181
B(  0-C , 15-O ) :   0.8286 B(  1-C ,  2-C ) :   0.9558 B(  1-C ,  6-H ) :   0.9350
B(  1-C ,  7-H ) :   0.9389 B(  2-C ,  3-C ) :   0.9547 B(  2-C ,  8-H ) :   0.9451
B(  2-C ,  9-H ) :   0.9437 B(  3-C ,  4-O ) :   0.8355 B(  3-C , 10-H ) :   0.9344
B(  3-C , 11-H ) :   0.9397 B( 12-C , 13-H ) :   0.9353 B( 12-C , 14-H ) :   0.9195
B( 12-C , 15-O ) :   0.8420 B( 12-C , 16-C ) :   0.8839 B( 16-C , 17-C ) :   0.9157
B( 16-C , 20-O ) :   0.8394 B( 16-C , 21-H ) :   0.9262 B( 17-C , 18-C ) :   0.9106
B( 17-C , 22-O ) :   0.8902 B( 17-C , 23-H ) :   0.9235 B( 18-C , 19-C ) :   0.9427
B( 18-C , 24-H ) :   0.9379 B( 18-C , 25-H ) :   0.9341 B( 19-C , 20-O ) :   0.8435
B( 19-C , 26-H ) :   0.9362 B( 19-C , 27-H ) :   0.9378 B( 22-O , 28-H ) :   0.7966

FINAL SINGLE POINT ENERGY      -652.863123988637

DIPOLE MOMENT
-------------
                                X             Y             Z
Electronic contribution:     -0.61542      -5.22057       0.54935
Nuclear contribution   :      0.67915       6.37282      -1.31504
                        -----------------------------------------
Total Dipole Moment    :      0.06372       1.15226      -0.76570
                        -----------------------------------------
Magnitude (a.u.)       :      1.38494
Magnitude (Debye)      :      3.52023

Rotational constants in cm-1:     0.059025     0.012164     0.011367
Rotational constants in MHz :  1769.521869   364.681384   340.759897

                             ****ORCA TERMINATED NORMALLY****
TOTAL RUN TIME: 0 days 0 hours 40 minutes 16 seconds 432 msec
