                         Program Version 4.2.0 -  RELEASE  -
|  1> # Test redundant internal optimization
|  2> #
|  3> ! RKS B3LYP  Opt TightSCF SmallPrint
|  4>
|  5> %basis
|  6>         Basis "6-31G"
|  7> end
|  8>
|  9> %geom
| 10> Constraints
| 11> { D 4  0  15  12  165.0   C } # D for Dihedral angle
| 12> { D 0  15  12  16  345.0   C } # D for Dihedral angle
| 13> { D 0  4  3  2   C } # D for Dihedral angle
| 14> { D 4  3  2  1   C } # D for Dihedral angle
| 15> { D 3  2  1  0   C } # D for Dihedral angle
| 16> { D 2  1  0  4   C } # D for Dihedral angle
| 17> { D 1  0  4  3   C } # D for Dihedral angle
| 18> { D 16  20  19  18   C } # D for Dihedral angle
| 19> { D 20  19  18  17   C } # D for Dihedral angle
| 20> { D 19  18  17  16   C } # D for Dihedral angle
| 21> { D 18  17  16  20   C } # D for Dihedral angle
| 22> { D 17  16  20  19   C } # D for Dihedral angle
| 23> { D 15  12  16  20   C } # D for Dihedral angle
| 24> end
| 25> end
| 26>
| 27>
| 28> #%pal
| 29> #nprocs 8
| 30> #end
| 31>
| 32> * xyz 0 1
| 33> C  -21.048   26.222   46.251
| 34> C  -20.361   27.558   45.944
| 35> C  -20.329   28.222   47.341
| 36> C  -20.110   27.022   48.296
| 37> O  -20.473   25.807   47.535
| 38> H  -20.833   25.428   45.533
| 39> H  -19.344   27.382   45.576
| 40> H  -20.898   28.157   45.201
| 41> H  -19.543   28.978   47.434
| 42> H  -21.289   28.710   47.548
| 43> H  -20.733   27.082   49.195
| 44> H  -19.064   26.913   48.597
| 45> C  -23.260   27.170   45.210
| 46> H  -23.799   26.463   44.568
| 47> H  -23.983   27.898   45.601
| 48> O  -22.586   26.394   46.375
| 49> C  -22.237   27.944   44.333
| 50> C  -21.287   26.984   43.608
| 51> C  -22.166   26.503   42.430
| 52> C  -23.002   27.760   42.079
| 53> O  -22.925   28.657   43.252
| 54> H  -21.738   28.697   44.946
| 55> O  -20.045   27.758   43.086
| 56> H  -20.938   26.162   44.242
| 57> H  -21.578   26.143   41.580
| 58> H  -22.818   25.684   42.757
| 59> H  -24.052   27.522   41.877
| 60> H  -22.594   28.308   41.226
| 61> H  -20.370   28.588   42.447
| 62> *
| 63>
| 64>                          ****END OF INPUT****
 Total Charge           Charge          ....    0
 Multiplicity           Mult            ....    1
 Number of Electrons    NEL             ....  102
FINAL SINGLE POINT ENERGY      -652.728277198281
FINAL SINGLE POINT ENERGY      -652.817551301084
FINAL SINGLE POINT ENERGY      -652.838910758224
FINAL SINGLE POINT ENERGY      -652.842910986417
FINAL SINGLE POINT ENERGY      -652.843578723081
FINAL SINGLE POINT ENERGY      -652.843739323030
FINAL SINGLE POINT ENERGY      -652.843759065501
FINAL SINGLE POINT ENERGY      -652.843765410860
FINAL SINGLE POINT ENERGY      -652.843766575199
                    ***********************HURRAY********************

CARTESIAN COORDINATES (ANGSTROEM)
---------------------------------
  C    -20.911017   26.184069   46.424407
  C    -19.930412   27.345335   46.246045
  C    -20.150725   28.164049   47.549835
  C    -20.426808   27.056578   48.589054
  O    -20.790900   25.850096   47.813011
  H    -20.671962   25.281213   45.853996
  H    -18.916945   26.924662   46.236707
  H    -20.044418   27.938321   45.342501
  H    -19.281885   28.776724   47.807082
  H    -21.018624   28.822539   47.441159
  H    -21.250327   27.296952   49.266312
  H    -19.539922   26.796270   49.175361
  C    -22.996991   27.213593   45.153651
  H    -23.598313   26.459575   44.627217
  H    -23.695108   27.904859   45.635200
  O    -22.321680   26.523700   46.250367
  C    -22.223168   28.013751   44.092824
  C    -21.272275   27.205093   43.193337
  C    -22.265145   26.538132   42.198700
  C    -23.355897   27.625880   42.021060
  O    -23.214811   28.561035   43.162016
  H    -21.716588   28.875001   44.534318
  O    -20.323522   28.083775   42.529772
  H    -20.663260   26.473336   43.719357
  H    -21.760199   26.284172   41.263695
  H    -22.676319   25.620762   42.630302
  H    -24.370017   27.216168   42.021630
  H    -23.217478   28.212388   41.107434
  H    -20.798284   28.867973   42.181649

 Multiplicity           Mult            ....    1
 Number of Electrons    NEL             ....  102
 Basis Dimension        Dim             ....  149

ORBITAL ENERGIES
----------------

  NO   OCC          E(Eh)            E(eV)
   0   2.0000     -19.154846      -521.2299
   1   2.0000     -19.149767      -521.0917
   2   2.0000     -19.137707      -520.7635
   3   2.0000     -19.133270      -520.6428
   4   2.0000     -10.283569      -279.8301
   5   2.0000     -10.250605      -278.9331
   6   2.0000     -10.244505      -278.7672
   7   2.0000     -10.239526      -278.6317
   8   2.0000     -10.233944      -278.4798
   9   2.0000     -10.223730      -278.2018
  10   2.0000     -10.197090      -277.4769
  11   2.0000     -10.187959      -277.2285
  12   2.0000     -10.186688      -277.1939
  13   2.0000      -1.050691       -28.5908
  14   2.0000      -1.046427       -28.4747
  15   2.0000      -1.017479       -27.6870
  16   2.0000      -0.984679       -26.7945
  17   2.0000      -0.788799       -21.4643
  18   2.0000      -0.785377       -21.3712
  19   2.0000      -0.774027       -21.0623
  20   2.0000      -0.739556       -20.1244
  21   2.0000      -0.680231       -18.5100
  22   2.0000      -0.615619       -16.7518
  23   2.0000      -0.607834       -16.5400
  24   2.0000      -0.598499       -16.2860
  25   2.0000      -0.578602       -15.7446
  26   2.0000      -0.532496       -14.4899
  27   2.0000      -0.513758       -13.9801
  28   2.0000      -0.504613       -13.7312
  29   2.0000      -0.483349       -13.1526
  30   2.0000      -0.481899       -13.1131
  31   2.0000      -0.463470       -12.6117
  32   2.0000      -0.448902       -12.2153
  33   2.0000      -0.440758       -11.9936
  34   2.0000      -0.428071       -11.6484
  35   2.0000      -0.420592       -11.4449
  36   2.0000      -0.405871       -11.0443
  37   2.0000      -0.401329       -10.9207
  38   2.0000      -0.382161       -10.3991
  39   2.0000      -0.379072       -10.3151
  40   2.0000      -0.366284        -9.9671
  41   2.0000      -0.355230        -9.6663
  42   2.0000      -0.351808        -9.5732
  43   2.0000      -0.340885        -9.2759
  44   2.0000      -0.318346        -8.6626
  45   2.0000      -0.311779        -8.4839
  46   2.0000      -0.296903        -8.0791
  47   2.0000      -0.281503        -7.6601
  48   2.0000      -0.257493        -7.0068
  49   2.0000      -0.253294        -6.8925
  50   2.0000      -0.245818        -6.6890
  51   0.0000       0.056166         1.5284
  52   0.0000       0.070157         1.9091
  53   0.0000       0.079404         2.1607
  54   0.0000       0.088507         2.4084
  55   0.0000       0.096691         2.6311

MULLIKEN ATOMIC CHARGES
-----------------------
   0 C :    0.309615
   1 C :   -0.295697
   2 C :   -0.303407
   3 C :   -0.000586
   4 O :   -0.496702
   5 H :    0.141458
   6 H :    0.149181
   7 H :    0.167296
   8 H :    0.143781
   9 H :    0.153571
  10 H :    0.153410
  11 H :    0.144499
  12 C :    0.017411
  13 H :    0.133982
  14 H :    0.165077
  15 O :   -0.538371
  16 C :    0.019293
  17 C :    0.087030
  18 C :   -0.304023
  19 C :   -0.025118
  20 O :   -0.527655
  21 H :    0.164326
  22 O :   -0.607720
  23 H :    0.163827
  24 H :    0.165314
  25 H :    0.154187
  26 H :    0.151352
  27 H :    0.147830
  28 H :    0.366841
Sum of atomic charges:   -0.0000000

LOEWDIN ATOMIC CHARGES
----------------------
   0 C :    0.187319
   1 C :   -0.237273
   2 C :   -0.217226
   3 C :   -0.026366
   4 O :   -0.300185
   5 H :    0.095229
   6 H :    0.118624
   7 H :    0.122764
   8 H :    0.115464
   9 H :    0.112974
  10 H :    0.108992
  11 H :    0.103097
  12 C :   -0.037146
  13 H :    0.098277
  14 H :    0.119125
  15 O :   -0.349911
  16 C :   -0.000296
  17 C :    0.029017
  18 C :   -0.239723
  19 C :   -0.036658
  20 O :   -0.324466
  21 H :    0.112357
  22 O :   -0.414030
  23 H :    0.117730
  24 H :    0.128516
  25 H :    0.118563
  26 H :    0.106792
  27 H :    0.103669
  28 H :    0.284768

  Mayer bond orders larger than 0.100000
B(  0-C ,  1-C ) :   0.9215 B(  0-C ,  4-O ) :   0.9318 B(  0-C ,  5-H ) :   0.9202
B(  0-C , 15-O ) :   0.8339 B(  1-C ,  2-C ) :   0.9481 B(  1-C ,  6-H ) :   0.9315
B(  1-C ,  7-H ) :   0.9129 B(  2-C ,  3-C ) :   0.9544 B(  2-C ,  8-H ) :   0.9447
B(  2-C ,  9-H ) :   0.9455 B(  3-C ,  4-O ) :   0.8341 B(  3-C , 10-H ) :   0.9346
B(  3-C , 11-H ) :   0.9391 B( 12-C , 13-H ) :   0.9245 B( 12-C , 14-H ) :   0.9252
B( 12-C , 15-O ) :   0.8434 B( 12-C , 16-C ) :   0.8808 B( 16-C , 17-C ) :   0.8988
B( 16-C , 20-O ) :   0.8224 B( 16-C , 21-H ) :   0.9210 B( 17-C , 18-C ) :   0.9130
B( 17-C , 22-O ) :   0.8758 B( 17-C , 23-H ) :   0.9231 B( 18-C , 19-C ) :   0.9411
B( 18-C , 24-H ) :   0.9369 B( 18-C , 25-H ) :   0.9331 B( 19-C , 20-O ) :   0.8384
B( 19-C , 26-H ) :   0.9350 B( 19-C , 27-H ) :   0.9380 B( 22-O , 28-H ) :   0.7934

FINAL SINGLE POINT ENERGY      -652.843767016201

DIPOLE MOMENT
-------------
                                X             Y             Z
Electronic contribution:     -1.36713      -0.94071       0.35755
Nuclear contribution   :      1.52448       1.38502      -1.13224
                        -----------------------------------------
Total Dipole Moment    :      0.15735       0.44431      -0.77469
                        -----------------------------------------
Magnitude (a.u.)       :      0.90682
Magnitude (Debye)      :      2.30494

Rotational constants in cm-1:     0.055844     0.014481     0.013538
Rotational constants in MHz :  1674.169218   434.117902   405.865124

                             ****ORCA TERMINATED NORMALLY****
TOTAL RUN TIME: 0 days 2 hours 5 minutes 51 seconds 732 msec
