                         Program Version 4.2.0 -  RELEASE  -
|  1> # Test redundant internal optimization
|  2> #
|  3> ! RKS B3LYP  Opt TightSCF SmallPrint
|  4>
|  5> %basis
|  6>         Basis "6-31G"
|  7> end
|  8>
|  9> %geom
| 10> Constraints
| 11> { D 4  0  15  12  120.0   C } # D for Dihedral angle
| 12> { D 0  15  12  16  135.0   C } # D for Dihedral angle
| 13> { D 0  4  3  2   C } # D for Dihedral angle
| 14> { D 4  3  2  1   C } # D for Dihedral angle
| 15> { D 3  2  1  0   C } # D for Dihedral angle
| 16> { D 2  1  0  4   C } # D for Dihedral angle
| 17> { D 1  0  4  3   C } # D for Dihedral angle
| 18> { D 16  20  19  18   C } # D for Dihedral angle
| 19> { D 20  19  18  17   C } # D for Dihedral angle
| 20> { D 19  18  17  16   C } # D for Dihedral angle
| 21> { D 18  17  16  20   C } # D for Dihedral angle
| 22> { D 17  16  20  19   C } # D for Dihedral angle
| 23> { D 15  12  16  20   C } # D for Dihedral angle
| 24> end
| 25> end
| 26>
| 27>
| 28> #%pal
| 29> #nprocs 8
| 30> #end
| 31>
| 32> * xyz 0 1
| 33> C  -21.048   26.222   46.251
| 34> C  -20.361   27.558   45.944
| 35> C  -20.329   28.222   47.341
| 36> C  -20.110   27.022   48.296
| 37> O  -20.473   25.807   47.535
| 38> H  -20.833   25.428   45.533
| 39> H  -19.344   27.382   45.576
| 40> H  -20.898   28.157   45.201
| 41> H  -19.543   28.978   47.434
| 42> H  -21.289   28.710   47.548
| 43> H  -20.733   27.082   49.195
| 44> H  -19.064   26.913   48.597
| 45> C  -23.119   27.818   46.058
| 46> H  -23.379   28.324   46.996
| 47> H  -22.348   28.412   45.549
| 48> O  -22.586   26.394   46.375
| 49> C  -24.378   27.799   45.147
| 50> C  -25.565   27.133   45.853
| 51> C  -26.060   28.271   46.777
| 52> C  -25.806   29.545   45.932
| 53> O  -24.838   29.166   44.881
| 54> H  -24.117   27.356   44.185
| 55> H  -26.335   26.866   45.121
| 56> O  -25.168   25.851   46.635
| 57> H  -27.111   28.160   47.060
| 58> H  -25.466   28.293   47.698
| 59> H  -25.389   30.365   46.525
| 60> H  -26.710   29.897   45.427
| 61> H  -24.397   26.095   47.374
| 62> *
| 63>
| 64>                          ****END OF INPUT****
 Total Charge           Charge          ....    0
 Multiplicity           Mult            ....    1
 Number of Electrons    NEL             ....  102
FINAL SINGLE POINT ENERGY      -652.815087525738
FINAL SINGLE POINT ENERGY      -652.840762315404
FINAL SINGLE POINT ENERGY      -652.852403436868
FINAL SINGLE POINT ENERGY      -652.855769590178
FINAL SINGLE POINT ENERGY      -652.857564995869
FINAL SINGLE POINT ENERGY      -652.858602145107
FINAL SINGLE POINT ENERGY      -652.859108624713
FINAL SINGLE POINT ENERGY      -652.859239469891
FINAL SINGLE POINT ENERGY      -652.859256910826
                    ***********************HURRAY********************

CARTESIAN COORDINATES (ANGSTROEM)
---------------------------------
  C    -21.191146   26.350636   46.319412
  C    -20.209238   27.463765   45.949628
  C    -20.018432   28.190701   47.306741
  C    -20.091246   27.030706   48.325579
  O    -20.737387   25.902828   47.607404
  H    -21.164583   25.475947   45.668991
  H    -19.273447   26.990250   45.633946
  H    -20.538279   28.118902   45.139912
  H    -19.067435   28.728801   47.357383
  H    -20.822035   28.915698   47.474792
  H    -20.684521   27.270676   49.211720
  H    -19.103858   26.679428   48.636938
  C    -23.144974   28.052569   46.102367
  H    -23.389837   28.551346   47.047825
  H    -22.435402   28.677104   45.554359
  O    -22.601316   26.725590   46.395656
  C    -24.393114   27.857201   45.234030
  C    -25.542786   27.091903   45.911864
  C    -26.183413   28.201631   46.794694
  C    -26.019107   29.472119   45.935852
  O    -24.966622   29.163877   44.919990
  H    -24.097598   27.400405   44.285132
  H    -26.258449   26.788124   45.139194
  O    -25.175445   25.911425   46.647361
  H    -27.227286   27.979575   47.030191
  H    -25.633754   28.265103   47.739739
  H    -25.703595   30.348922   46.510118
  H    -26.924575   29.724720   45.376894
  H    -24.198123   25.896049   46.786289

 Multiplicity           Mult            ....    1
 Number of Electrons    NEL             ....  102
 Basis Dimension        Dim             ....  149

ORBITAL ENERGIES
----------------

  NO   OCC          E(Eh)            E(eV)
   0   2.0000     -19.160706      -521.3893
   1   2.0000     -19.149677      -521.0892
   2   2.0000     -19.140459      -520.8384
   3   2.0000     -19.108232      -519.9614
   4   2.0000     -10.294731      -280.1339
   5   2.0000     -10.242009      -278.6992
   6   2.0000     -10.236085      -278.5380
   7   2.0000     -10.233420      -278.4655
   8   2.0000     -10.228042      -278.3192
   9   2.0000     -10.226462      -278.2762
  10   2.0000     -10.204967      -277.6913
  11   2.0000     -10.202663      -277.6286
  12   2.0000     -10.177354      -276.9399
  13   2.0000      -1.063399       -28.9366
  14   2.0000      -1.025338       -27.9009
  15   2.0000      -1.006839       -27.3975
  16   2.0000      -0.988203       -26.8904
  17   2.0000      -0.801182       -21.8013
  18   2.0000      -0.777717       -21.1628
  19   2.0000      -0.767451       -20.8834
  20   2.0000      -0.739605       -20.1257
  21   2.0000      -0.685036       -18.6408
  22   2.0000      -0.614434       -16.7196
  23   2.0000      -0.601435       -16.3659
  24   2.0000      -0.595740       -16.2109
  25   2.0000      -0.576230       -15.6800
  26   2.0000      -0.533661       -14.5217
  27   2.0000      -0.516750       -14.0615
  28   2.0000      -0.511585       -13.9209
  29   2.0000      -0.487436       -13.2638
  30   2.0000      -0.477046       -12.9811
  31   2.0000      -0.463744       -12.6191
  32   2.0000      -0.441635       -12.0175
  33   2.0000      -0.436081       -11.8664
  34   2.0000      -0.428094       -11.6490
  35   2.0000      -0.423662       -11.5284
  36   2.0000      -0.410595       -11.1729
  37   2.0000      -0.392056       -10.6684
  38   2.0000      -0.386676       -10.5220
  39   2.0000      -0.373486       -10.1631
  40   2.0000      -0.366541        -9.9741
  41   2.0000      -0.363918        -9.9027
  42   2.0000      -0.346928        -9.4404
  43   2.0000      -0.341530        -9.2935
  44   2.0000      -0.322468        -8.7748
  45   2.0000      -0.311908        -8.4875
  46   2.0000      -0.287481        -7.8228
  47   2.0000      -0.276790        -7.5318
  48   2.0000      -0.269253        -7.3267
  49   2.0000      -0.246276        -6.7015
  50   2.0000      -0.238142        -6.4802
  51   0.0000       0.056388         1.5344
  52   0.0000       0.070528         1.9192
  53   0.0000       0.090182         2.4540
  54   0.0000       0.097572         2.6551
  55   0.0000       0.101910         2.7731

MULLIKEN ATOMIC CHARGES
-----------------------
   0 C :    0.328745
   1 C :   -0.308303
   2 C :   -0.309626
   3 C :   -0.006238
   4 O :   -0.492507
   5 H :    0.168015
   6 H :    0.163734
   7 H :    0.155137
   8 H :    0.151048
   9 H :    0.155225
  10 H :    0.153525
  11 H :    0.150486
  12 C :   -0.020975
  13 H :    0.147873
  14 H :    0.155744
  15 O :   -0.574655
  16 C :    0.064141
  17 C :    0.122191
  18 C :   -0.302626
  19 C :   -0.018793
  20 O :   -0.525670
  21 H :    0.151309
  22 H :    0.146562
  23 O :   -0.640180
  24 H :    0.151891
  25 H :    0.145345
  26 H :    0.138778
  27 H :    0.149172
  28 H :    0.400652
Sum of atomic charges:   -0.0000000

LOEWDIN ATOMIC CHARGES
----------------------
   0 C :    0.185251
   1 C :   -0.231016
   2 C :   -0.220126
   3 C :   -0.028753
   4 O :   -0.309262
   5 H :    0.112589
   6 H :    0.126666
   7 H :    0.118942
   8 H :    0.119323
   9 H :    0.112577
  10 H :    0.108560
  11 H :    0.107052
  12 C :   -0.044197
  13 H :    0.101602
  14 H :    0.109907
  15 O :   -0.343528
  16 C :    0.016128
  17 C :    0.042219
  18 C :   -0.237227
  19 C :   -0.032260
  20 O :   -0.327592
  21 H :    0.112225
  22 H :    0.104586
  23 O :   -0.434161
  24 H :    0.121863
  25 H :    0.111182
  26 H :    0.100273
  27 H :    0.106077
  28 H :    0.291097

  Mayer bond orders larger than 0.100000
B(  0-C ,  1-C ) :   0.9396 B(  0-C ,  4-O ) :   0.9338 B(  0-C ,  5-H ) :   0.9303
B(  0-C , 15-O ) :   0.8162 B(  1-C ,  2-C ) :   0.9486 B(  1-C ,  6-H ) :   0.9319
B(  1-C ,  7-H ) :   0.9258 B(  2-C ,  3-C ) :   0.9495 B(  2-C ,  8-H ) :   0.9448
B(  2-C ,  9-H ) :   0.9419 B(  3-C ,  4-O ) :   0.8381 B(  3-C , 10-H ) :   0.9343
B(  3-C , 11-H ) :   0.9390 B( 12-C , 13-H ) :   0.9250 B( 12-C , 14-H ) :   0.9131
B( 12-C , 15-O ) :   0.7872 B( 12-C , 16-C ) :   0.8929 B( 16-C , 17-C ) :   0.9154
B( 16-C , 20-O ) :   0.8527 B( 16-C , 21-H ) :   0.9304 B( 17-C , 18-C ) :   0.9002
B( 17-C , 22-H ) :   0.9297 B( 17-C , 23-O ) :   0.9412 B( 18-C , 19-C ) :   0.9393
B( 18-C , 24-H ) :   0.9445 B( 18-C , 25-H ) :   0.9430 B( 19-C , 20-O ) :   0.8301
B( 19-C , 26-H ) :   0.9351 B( 19-C , 27-H ) :   0.9387 B( 23-O , 28-H ) :   0.7198

FINAL SINGLE POINT ENERGY      -652.859259745275

DIPOLE MOMENT
-------------
                                X             Y             Z
Electronic contribution:     -1.72427      -4.47301      -1.62192
Nuclear contribution   :      2.94295       5.76383       1.64884
                        -----------------------------------------
Total Dipole Moment    :      1.21868       1.29083       0.02691
                        -----------------------------------------
Magnitude (a.u.)       :      1.77542
Magnitude (Debye)      :      4.51277

Rotational constants in cm-1:     0.053186     0.013830     0.012597
Rotational constants in MHz :  1594.462322   414.606356   377.655231

                             ****ORCA TERMINATED NORMALLY****
TOTAL RUN TIME: 0 days 0 hours 34 minutes 9 seconds 843 msec
