                         Program Version 4.2.0 -  RELEASE  -
|  1> # Test redundant internal optimization
|  2> #
|  3> ! RKS B3LYP  Opt TightSCF SmallPrint
|  4>
|  5> %basis
|  6>         Basis "6-31G"
|  7> end
|  8>
|  9> %geom
| 10> Constraints
| 11> { D 4  0  15  12  165.0   C } # D for Dihedral angle
| 12> { D 0  15  12  16  270.0   C } # D for Dihedral angle
| 13> { D 0  4  3  2   C } # D for Dihedral angle
| 14> { D 4  3  2  1   C } # D for Dihedral angle
| 15> { D 3  2  1  0   C } # D for Dihedral angle
| 16> { D 2  1  0  4   C } # D for Dihedral angle
| 17> { D 1  0  4  3   C } # D for Dihedral angle
| 18> { D 16  20  19  18   C } # D for Dihedral angle
| 19> { D 20  19  18  17   C } # D for Dihedral angle
| 20> { D 19  18  17  16   C } # D for Dihedral angle
| 21> { D 18  17  16  20   C } # D for Dihedral angle
| 22> { D 17  16  20  19   C } # D for Dihedral angle
| 23> { D 15  12  16  20   C } # D for Dihedral angle
| 24> end
| 25> end
| 26>
| 27>
| 28> #%pal
| 29> #nprocs 8
| 30> #end
| 31>
| 32> * xyz 0 1
| 33> C  -21.048   26.222   46.251
| 34> C  -20.361   27.558   45.944
| 35> C  -20.329   28.222   47.341
| 36> C  -20.110   27.022   48.296
| 37> O  -20.473   25.807   47.535
| 38> H  -20.833   25.428   45.533
| 39> H  -19.344   27.382   45.576
| 40> H  -20.898   28.157   45.201
| 41> H  -19.543   28.978   47.434
| 42> H  -21.289   28.710   47.548
| 43> H  -20.733   27.082   49.195
| 44> H  -19.064   26.913   48.597
| 45> C  -23.260   27.170   45.210
| 46> H  -22.693   27.000   44.286
| 47> H  -24.286   26.813   45.054
| 48> O  -22.586   26.394   46.375
| 49> C  -23.326   28.701   45.468
| 50> C  -24.097   29.420   44.356
| 51> C  -25.564   29.133   44.756
| 52> C  -25.516   29.154   46.304
| 53> O  -24.097   28.984   46.683
| 54> H  -22.315   29.080   45.634
| 55> O  -23.804   30.944   44.402
| 56> H  -23.851   29.051   43.354
| 57> H  -26.266   29.869   44.351
| 58> H  -25.868   28.145   44.392
| 59> H  -26.106   28.346   46.753
| 60> H  -25.849   30.109   46.720
| 61> H  -24.044   31.335   45.397
| 62> *
| 63>
| 64>                          ****END OF INPUT****
 Total Charge           Charge          ....    0
 Multiplicity           Mult            ....    1
 Number of Electrons    NEL             ....  102
FINAL SINGLE POINT ENERGY      -652.823093680156
FINAL SINGLE POINT ENERGY      -652.846422472443
FINAL SINGLE POINT ENERGY      -652.850616682967
FINAL SINGLE POINT ENERGY      -652.852398501374
FINAL SINGLE POINT ENERGY      -652.852583175666
FINAL SINGLE POINT ENERGY      -652.852614433839
FINAL SINGLE POINT ENERGY      -652.852617781406
                    ***********************HURRAY********************

CARTESIAN COORDINATES (ANGSTROEM)
---------------------------------
  C    -21.043551   26.289385   46.174854
  C    -20.239033   27.568637   45.944381
  C    -20.291558   28.242634   47.341732
  C    -20.251747   27.032261   48.297763
  O    -20.632133   25.856632   47.475536
  H    -20.820520   25.478630   45.473633
  H    -19.209711   27.282426   45.697493
  H    -20.607523   28.199734   45.132299
  H    -19.455639   28.930011   47.502627
  H    -21.226538   28.796712   47.466809
  H    -20.957158   27.118615   49.127479
  H    -19.250192   26.829070   48.688067
  C    -23.201273   27.198069   45.207275
  H    -22.727909   27.044522   44.222746
  H    -24.191351   26.733295   45.177223
  O    -22.494436   26.464890   46.240218
  C    -23.345246   28.705161   45.457485
  C    -24.163143   29.413930   44.367244
  C    -25.619478   29.115327   44.819113
  C    -25.514507   29.144684   46.365287
  O    -24.077546   28.987956   46.693796
  H    -22.369556   29.179517   45.565999
  O    -23.882544   30.840871   44.357312
  H    -23.946325   29.072421   43.354125
  H    -26.307412   29.865636   44.421878
  H    -25.935765   28.130899   44.457805
  H    -26.077581   28.338412   46.844294
  H    -25.841000   30.098979   46.790263
  H    -23.872624   31.169684   45.281262

 Multiplicity           Mult            ....    1
 Number of Electrons    NEL             ....  102
 Basis Dimension        Dim             ....  149

ORBITAL ENERGIES
----------------

  NO   OCC          E(Eh)            E(eV)
   0   2.0000     -19.145423      -520.9734
   1   2.0000     -19.144687      -520.9534
   2   2.0000     -19.136794      -520.7386
   3   2.0000     -19.135643      -520.7073
   4   2.0000     -10.278352      -279.6882
   5   2.0000     -10.248267      -278.8695
   6   2.0000     -10.237601      -278.5793
   7   2.0000     -10.236101      -278.5385
   8   2.0000     -10.234009      -278.4816
   9   2.0000     -10.221555      -278.1427
  10   2.0000     -10.194360      -277.4026
  11   2.0000     -10.189629      -277.2739
  12   2.0000     -10.185168      -277.1525
  13   2.0000      -1.050354       -28.5816
  14   2.0000      -1.040765       -28.3207
  15   2.0000      -1.011097       -27.5133
  16   2.0000      -0.989309       -26.9205
  17   2.0000      -0.789040       -21.4709
  18   2.0000      -0.785484       -21.3741
  19   2.0000      -0.770416       -20.9641
  20   2.0000      -0.734266       -19.9804
  21   2.0000      -0.678543       -18.4641
  22   2.0000      -0.609458       -16.5842
  23   2.0000      -0.603961       -16.4346
  24   2.0000      -0.596815       -16.2401
  25   2.0000      -0.579193       -15.7606
  26   2.0000      -0.525578       -14.3017
  27   2.0000      -0.511369       -13.9151
  28   2.0000      -0.500309       -13.6141
  29   2.0000      -0.494844       -13.4654
  30   2.0000      -0.472901       -12.8683
  31   2.0000      -0.458341       -12.4721
  32   2.0000      -0.454655       -12.3718
  33   2.0000      -0.444714       -12.1013
  34   2.0000      -0.429572       -11.6892
  35   2.0000      -0.411017       -11.1844
  36   2.0000      -0.404949       -11.0192
  37   2.0000      -0.398191       -10.8353
  38   2.0000      -0.379399       -10.3240
  39   2.0000      -0.375863       -10.2278
  40   2.0000      -0.361208        -9.8290
  41   2.0000      -0.358079        -9.7438
  42   2.0000      -0.352246        -9.5851
  43   2.0000      -0.336910        -9.1678
  44   2.0000      -0.313805        -8.5391
  45   2.0000      -0.307618        -8.3707
  46   2.0000      -0.294064        -8.0019
  47   2.0000      -0.275727        -7.5029
  48   2.0000      -0.267467        -7.2781
  49   2.0000      -0.254317        -6.9203
  50   2.0000      -0.237862        -6.4725
  51   0.0000       0.061133         1.6635
  52   0.0000       0.083020         2.2591
  53   0.0000       0.085837         2.3357
  54   0.0000       0.088069         2.3965
  55   0.0000       0.095645         2.6026

MULLIKEN ATOMIC CHARGES
-----------------------
   0 C :    0.312979
   1 C :   -0.295660
   2 C :   -0.312479
   3 C :    0.000062
   4 O :   -0.497714
   5 H :    0.142836
   6 H :    0.150663
   7 H :    0.139071
   8 H :    0.141796
   9 H :    0.180478
  10 H :    0.159781
  11 H :    0.140319
  12 C :   -0.013174
  13 H :    0.116865
  14 H :    0.156476
  15 O :   -0.501765
  16 C :    0.056379
  17 C :    0.076624
  18 C :   -0.295699
  19 C :   -0.027198
  20 O :   -0.516715
  21 H :    0.163059
  22 O :   -0.601995
  23 H :    0.151167
  24 H :    0.164790
  25 H :    0.143867
  26 H :    0.155785
  27 H :    0.144380
  28 H :    0.365023
Sum of atomic charges:   -0.0000000

LOEWDIN ATOMIC CHARGES
----------------------
   0 C :    0.185059
   1 C :   -0.235992
   2 C :   -0.221259
   3 C :   -0.023858
   4 O :   -0.301077
   5 H :    0.097266
   6 H :    0.118582
   7 H :    0.109998
   8 H :    0.114318
   9 H :    0.123704
  10 H :    0.112310
  11 H :    0.101536
  12 C :   -0.042874
  13 H :    0.090805
  14 H :    0.114898
  15 O :   -0.326222
  16 C :    0.001264
  17 C :    0.035262
  18 C :   -0.240229
  19 C :   -0.037000
  20 O :   -0.325188
  21 H :    0.113044
  22 O :   -0.414368
  23 H :    0.114680
  24 H :    0.127530
  25 H :    0.113266
  26 H :    0.109024
  27 H :    0.102119
  28 H :    0.283403

  Mayer bond orders larger than 0.100000
B(  0-C ,  1-C ) :   0.9275 B(  0-C ,  4-O ) :   0.9417 B(  0-C ,  5-H ) :   0.9228
B(  0-C , 15-O ) :   0.8403 B(  1-C ,  2-C ) :   0.9496 B(  1-C ,  6-H ) :   0.9320
B(  1-C ,  7-H ) :   0.9268 B(  2-C ,  3-C ) :   0.9528 B(  2-C ,  8-H ) :   0.9449
B(  2-C ,  9-H ) :   0.9312 B(  3-C ,  4-O ) :   0.8333 B(  3-C , 10-H ) :   0.9337
B(  3-C , 11-H ) :   0.9401 B( 12-C , 13-H ) :   0.9131 B( 12-C , 14-H ) :   0.9350
B( 12-C , 15-O ) :   0.8734 B( 12-C , 16-C ) :   0.8703 B( 16-C , 17-C ) :   0.8949
B( 16-C , 20-O ) :   0.8559 B( 16-C , 21-H ) :   0.9140 B( 17-C , 18-C ) :   0.9124
B( 17-C , 22-O ) :   0.8915 B( 17-C , 23-H ) :   0.9332 B( 18-C , 19-C ) :   0.9391
B( 18-C , 24-H ) :   0.9372 B( 18-C , 25-H ) :   0.9337 B( 19-C , 20-O ) :   0.8458
B( 19-C , 26-H ) :   0.9333 B( 19-C , 27-H ) :   0.9380 B( 22-O , 28-H ) :   0.7941

FINAL SINGLE POINT ENERGY      -652.852618616624

DIPOLE MOMENT
-------------
                                X             Y             Z
Electronic contribution:     -0.24184      -2.15952       1.02043
Nuclear contribution   :      0.10240       2.78695      -1.62960
                        -----------------------------------------
Total Dipole Moment    :     -0.13944       0.62743      -0.60917
                        -----------------------------------------
Magnitude (a.u.)       :      0.88555
Magnitude (Debye)      :      2.25089

Rotational constants in cm-1:     0.054118     0.014009     0.013565
Rotational constants in MHz :  1622.430667   419.989820   406.674772

                             ****ORCA TERMINATED NORMALLY****
TOTAL RUN TIME: 0 days 0 hours 33 minutes 44 seconds 125 msec
