                         Program Version 4.2.0 -  RELEASE  -
|  1> # Test redundant internal optimization
|  2> #
|  3> ! RKS B3LYP  Opt TightSCF SmallPrint
|  4>
|  5> %basis
|  6>         Basis "6-31G"
|  7> end
|  8>
|  9> %geom
| 10> Constraints
| 11> { D 4  0  15  12  225.0   C } # D for Dihedral angle
| 12> { D 0  15  12  16  240.0   C } # D for Dihedral angle
| 13> { D 0  4  3  2   C } # D for Dihedral angle
| 14> { D 4  3  2  1   C } # D for Dihedral angle
| 15> { D 3  2  1  0   C } # D for Dihedral angle
| 16> { D 2  1  0  4   C } # D for Dihedral angle
| 17> { D 1  0  4  3   C } # D for Dihedral angle
| 18> { D 16  20  19  18   C } # D for Dihedral angle
| 19> { D 20  19  18  17   C } # D for Dihedral angle
| 20> { D 19  18  17  16   C } # D for Dihedral angle
| 21> { D 18  17  16  20   C } # D for Dihedral angle
| 22> { D 17  16  20  19   C } # D for Dihedral angle
| 23> { D 15  12  16  20   C } # D for Dihedral angle
| 24> end
| 25> end
| 26>
| 27>
| 28> #%pal
| 29> #nprocs 8
| 30> #end
| 31>
| 32> * xyz 0 1
| 33> C  -21.048   26.222   46.251
| 34> C  -20.361   27.558   45.944
| 35> C  -20.329   28.222   47.341
| 36> C  -20.110   27.022   48.296
| 37> O  -20.473   25.807   47.535
| 38> H  -20.833   25.428   45.533
| 39> H  -19.344   27.382   45.576
| 40> H  -20.898   28.157   45.201
| 41> H  -19.543   28.978   47.434
| 42> H  -21.289   28.710   47.548
| 43> H  -20.733   27.082   49.195
| 44> H  -19.064   26.913   48.597
| 45> C  -23.415   25.773   45.218
| 46> H  -22.735   25.299   44.499
| 47> H  -24.097   25.004   45.604
| 48> O  -22.586   26.394   46.375
| 49> C  -24.271   26.825   44.460
| 50> C  -23.386   27.850   43.742
| 51> C  -22.956   27.064   42.481
| 52> C  -24.209   26.214   42.153
| 53> O  -25.032   26.186   43.381
| 54> H  -24.998   27.259   45.150
| 55> H  -23.978   28.731   43.467
| 56> O  -22.179   28.321   44.600
| 57> H  -22.667   27.718   41.652
| 58> H  -22.100   26.419   42.713
| 59> H  -23.956   25.187   41.868
| 60> H  -24.821   26.659   41.364
| 61> H  -21.572   27.455   44.887
| 62> *
| 63>
| 64>                          ****END OF INPUT****
 Total Charge           Charge          ....    0
 Multiplicity           Mult            ....    1
 Number of Electrons    NEL             ....  102
FINAL SINGLE POINT ENERGY      -652.743119958894
FINAL SINGLE POINT ENERGY      -652.817149167013
FINAL SINGLE POINT ENERGY      -652.838262151843
FINAL SINGLE POINT ENERGY      -652.843387250391
FINAL SINGLE POINT ENERGY      -652.845377987034
FINAL SINGLE POINT ENERGY      -652.847090882314
FINAL SINGLE POINT ENERGY      -652.848674895508
FINAL SINGLE POINT ENERGY      -652.850302590075
FINAL SINGLE POINT ENERGY      -652.851749589678
FINAL SINGLE POINT ENERGY      -652.852756186795
FINAL SINGLE POINT ENERGY      -652.853120893050
FINAL SINGLE POINT ENERGY      -652.853348834532
FINAL SINGLE POINT ENERGY      -652.853497259612
FINAL SINGLE POINT ENERGY      -652.853663968917
FINAL SINGLE POINT ENERGY      -652.853734358808
FINAL SINGLE POINT ENERGY      -652.853761625863
FINAL SINGLE POINT ENERGY      -652.853769824714
FINAL SINGLE POINT ENERGY      -652.853774858966
                    ***********************HURRAY********************

CARTESIAN COORDINATES (ANGSTROEM)
---------------------------------
  C    -21.011662   26.141111   46.268468
  C    -20.202685   27.404614   45.980465
  C    -20.221673   28.119902   47.353640
  C    -20.171438   26.940577   48.350226
  O    -20.575789   25.742822   47.579882
  H    -20.815494   25.306372   45.587321
  H    -19.177913   27.099842   45.732241
  H    -20.605924   27.988023   45.155665
  H    -19.383961   28.812012   47.480771
  H    -21.153600   28.683573   47.474188
  H    -20.854859   27.059449   49.195191
  H    -19.161612   26.749495   48.726371
  C    -23.297242   25.824964   45.276455
  H    -22.678514   25.233577   44.585303
  H    -24.014020   25.140820   45.742477
  O    -22.456648   26.366315   46.337518
  C    -24.132049   26.831420   44.455750
  C    -23.455115   27.916851   43.605950
  C    -23.003327   27.107100   42.357639
  C    -24.141154   26.075634   42.189255
  O    -24.863653   26.022338   43.482118
  H    -24.886360   27.275709   45.115912
  H    -24.235617   28.632209   43.308711
  O    -22.348460   28.629100   44.191550
  H    -22.872905   27.742366   41.477704
  H    -22.041813   26.631637   42.578128
  H    -23.775178   25.074162   41.942910
  H    -24.869691   26.379052   41.431300
  H    -22.574641   28.907953   45.101892

 Multiplicity           Mult            ....    1
 Number of Electrons    NEL             ....  102
 Basis Dimension        Dim             ....  149

ORBITAL ENERGIES
----------------

  NO   OCC          E(Eh)            E(eV)
   0   2.0000     -19.155251      -521.2409
   1   2.0000     -19.147221      -521.0224
   2   2.0000     -19.138316      -520.7801
   3   2.0000     -19.133572      -520.6510
   4   2.0000     -10.275672      -279.6152
   5   2.0000     -10.249529      -278.9039
   6   2.0000     -10.238483      -278.6033
   7   2.0000     -10.234766      -278.5021
   8   2.0000     -10.230261      -278.3796
   9   2.0000     -10.220219      -278.1063
  10   2.0000     -10.193722      -277.3853
  11   2.0000     -10.182847      -277.0894
  12   2.0000     -10.172308      -276.8026
  13   2.0000      -1.047291       -28.4982
  14   2.0000      -1.039875       -28.2964
  15   2.0000      -1.025020       -27.8922
  16   2.0000      -0.988001       -26.8849
  17   2.0000      -0.785608       -21.3775
  18   2.0000      -0.779589       -21.2137
  19   2.0000      -0.766985       -20.8707
  20   2.0000      -0.728911       -19.8347
  21   2.0000      -0.679087       -18.4789
  22   2.0000      -0.606354       -16.4997
  23   2.0000      -0.594228       -16.1698
  24   2.0000      -0.592058       -16.1107
  25   2.0000      -0.582243       -15.8436
  26   2.0000      -0.525099       -14.2887
  27   2.0000      -0.522277       -14.2119
  28   2.0000      -0.502145       -13.6641
  29   2.0000      -0.484737       -13.1904
  30   2.0000      -0.465617       -12.6701
  31   2.0000      -0.456045       -12.4096
  32   2.0000      -0.452303       -12.3078
  33   2.0000      -0.437936       -11.9169
  34   2.0000      -0.424526       -11.5519
  35   2.0000      -0.419201       -11.4070
  36   2.0000      -0.398962       -10.8563
  37   2.0000      -0.390903       -10.6370
  38   2.0000      -0.384436       -10.4610
  39   2.0000      -0.370566       -10.0836
  40   2.0000      -0.358912        -9.7665
  41   2.0000      -0.349962        -9.5229
  42   2.0000      -0.348461        -9.4821
  43   2.0000      -0.340798        -9.2736
  44   2.0000      -0.308694        -8.4000
  45   2.0000      -0.307348        -8.3634
  46   2.0000      -0.300299        -8.1715
  47   2.0000      -0.279577        -7.6077
  48   2.0000      -0.265100        -7.2137
  49   2.0000      -0.256495        -6.9796
  50   2.0000      -0.234923        -6.3926
  51   0.0000       0.041462         1.1283
  52   0.0000       0.072418         1.9706
  53   0.0000       0.080524         2.1912
  54   0.0000       0.102198         2.7809
  55   0.0000       0.104860         2.8534

MULLIKEN ATOMIC CHARGES
-----------------------
   0 C :    0.298586
   1 C :   -0.298666
   2 C :   -0.300806
   3 C :    0.002033
   4 O :   -0.501189
   5 H :    0.135926
   6 H :    0.138009
   7 H :    0.192432
   8 H :    0.141147
   9 H :    0.141055
  10 H :    0.149384
  11 H :    0.139116
  12 C :    0.009197
  13 H :    0.121512
  14 H :    0.166949
  15 O :   -0.533205
  16 C :    0.047539
  17 C :    0.106982
  18 C :   -0.301233
  19 C :   -0.016092
  20 O :   -0.515843
  21 H :    0.151736
  22 H :    0.144227
  23 O :   -0.602037
  24 H :    0.155853
  25 H :    0.156770
  26 H :    0.146270
  27 H :    0.151737
  28 H :    0.372610
Sum of atomic charges:   -0.0000000

LOEWDIN ATOMIC CHARGES
----------------------
   0 C :    0.183789
   1 C :   -0.242246
   2 C :   -0.217405
   3 C :   -0.026730
   4 O :   -0.310183
   5 H :    0.094935
   6 H :    0.111833
   7 H :    0.135595
   8 H :    0.113742
   9 H :    0.106779
  10 H :    0.106335
  11 H :    0.100839
  12 C :   -0.038527
  13 H :    0.093370
  14 H :    0.117399
  15 O :   -0.347020
  16 C :    0.008702
  17 C :    0.035093
  18 C :   -0.223850
  19 C :   -0.030573
  20 O :   -0.317554
  21 H :    0.108818
  22 H :    0.099015
  23 O :   -0.401943
  24 H :    0.122842
  25 H :    0.117392
  26 H :    0.103994
  27 H :    0.106728
  28 H :    0.288830

  Mayer bond orders larger than 0.100000
B(  0-C ,  1-C ) :   0.9342 B(  0-C ,  4-O ) :   0.9329 B(  0-C ,  5-H ) :   0.9189
B(  0-C , 15-O ) :   0.8307 B(  1-C ,  2-C ) :   0.9557 B(  1-C ,  6-H ) :   0.9343
B(  1-C ,  7-H ) :   0.8936 B(  2-C ,  3-C ) :   0.9527 B(  2-C ,  8-H ) :   0.9454
B(  2-C ,  9-H ) :   0.9466 B(  3-C ,  4-O ) :   0.8408 B(  3-C , 10-H ) :   0.9351
B(  3-C , 11-H ) :   0.9397 B( 12-C , 13-H ) :   0.9229 B( 12-C , 14-H ) :   0.9271
B( 12-C , 15-O ) :   0.8411 B( 12-C , 16-C ) :   0.8953 B( 16-C , 17-C ) :   0.8969
B( 16-C , 20-O ) :   0.8406 B( 16-C , 21-H ) :   0.9305 B( 17-C , 18-C ) :   0.9380
B( 17-C , 22-H ) :   0.9183 B( 17-C , 23-O ) :   0.8833 B( 18-C , 19-C ) :   0.9422
B( 18-C , 24-H ) :   0.9429 B( 18-C , 25-H ) :   0.9397 B( 19-C , 20-O ) :   0.8361
B( 19-C , 26-H ) :   0.9332 B( 19-C , 27-H ) :   0.9370 B( 23-O , 28-H ) :   0.7860

FINAL SINGLE POINT ENERGY      -652.853777721268

DIPOLE MOMENT
-------------
                                X             Y             Z
Electronic contribution:     -3.20566      -1.98677       1.59142
Nuclear contribution   :      3.47055       2.79685      -2.27484
                        -----------------------------------------
Total Dipole Moment    :      0.26488       0.81007      -0.68342
                        -----------------------------------------
Magnitude (a.u.)       :      1.09245
Magnitude (Debye)      :      2.77679

Rotational constants in cm-1:     0.057920     0.014343     0.012880
Rotational constants in MHz :  1736.404427   430.006580   386.125916

                             ****ORCA TERMINATED NORMALLY****
TOTAL RUN TIME: 0 days 1 hours 4 minutes 38 seconds 22 msec
