                         Program Version 4.2.0 -  RELEASE  -
|  1> # Test redundant internal optimization
|  2> #
|  3> ! RKS B3LYP  Opt TightSCF SmallPrint
|  4>
|  5> %basis
|  6>         Basis "6-31G"
|  7> end
|  8>
|  9> %geom
| 10> Constraints
| 11> { D 4  0  15  12  285.0   C } # D for Dihedral angle
| 12> { D 0  15  12  16  165.0   C } # D for Dihedral angle
| 13> { D 0  4  3  2   C } # D for Dihedral angle
| 14> { D 4  3  2  1   C } # D for Dihedral angle
| 15> { D 3  2  1  0   C } # D for Dihedral angle
| 16> { D 2  1  0  4   C } # D for Dihedral angle
| 17> { D 1  0  4  3   C } # D for Dihedral angle
| 18> { D 16  20  19  18   C } # D for Dihedral angle
| 19> { D 20  19  18  17   C } # D for Dihedral angle
| 20> { D 19  18  17  16   C } # D for Dihedral angle
| 21> { D 18  17  16  20   C } # D for Dihedral angle
| 22> { D 17  16  20  19   C } # D for Dihedral angle
| 23> { D 15  12  16  20   C } # D for Dihedral angle
| 24> end
| 25> end
| 26>
| 27>
| 28> #%pal
| 29> #nprocs 8
| 30> #end
| 31>
| 32> * xyz 0 1
| 33> C  -21.048   26.222   46.251
| 34> C  -20.361   27.558   45.944
| 35> C  -20.329   28.222   47.341
| 36> C  -20.110   27.022   48.296
| 37> O  -20.473   25.807   47.535
| 38> H  -20.833   25.428   45.533
| 39> H  -19.344   27.382   45.576
| 40> H  -20.898   28.157   45.201
| 41> H  -19.543   28.978   47.434
| 42> H  -21.289   28.710   47.548
| 43> H  -20.733   27.082   49.195
| 44> H  -19.064   26.913   48.597
| 45> C  -23.396   25.070   46.435
| 46> H  -23.429   24.620   45.435
| 47> H  -22.915   24.356   47.116
| 48> O  -22.586   26.394   46.375
| 49> C  -24.855   25.280   46.925
| 50> C  -24.890   25.990   48.284
| 51> C  -24.652   27.463   47.874
| 52> C  -25.384   27.572   46.513
| 53> O  -25.572   26.189   46.025
| 54> H  -25.382   24.325   46.901
| 55> O  -26.289   25.822   48.937
| 56> H  -24.135   25.617   48.984
| 57> H  -25.034   28.176   48.611
| 58> H  -23.578   27.651   47.751
| 59> H  -24.810   28.140   45.772
| 60> H  -26.378   28.018   46.608
| 61> H  -27.061   26.190   48.253
| 62> *
| 63>
| 64>                          ****END OF INPUT****
 Total Charge           Charge          ....    0
 Multiplicity           Mult            ....    1
 Number of Electrons    NEL             ....  102
FINAL SINGLE POINT ENERGY      -652.839704541068
FINAL SINGLE POINT ENERGY      -652.863487341496
FINAL SINGLE POINT ENERGY      -652.867647560151
FINAL SINGLE POINT ENERGY      -652.868789964949
FINAL SINGLE POINT ENERGY      -652.868925794664
FINAL SINGLE POINT ENERGY      -652.868943966821
                    ***********************HURRAY********************

CARTESIAN COORDINATES (ANGSTROEM)
---------------------------------
  C    -21.092310   26.142934   46.254755
  C    -20.435062   27.484018   45.927200
  C    -20.405778   28.168737   47.312963
  C    -20.157910   26.989932   48.281192
  O    -20.508836   25.761064   47.523591
  H    -20.877258   25.325715   45.559076
  H    -19.420301   27.305538   45.554906
  H    -20.996817   28.044581   45.177401
  H    -19.626693   28.933969   47.386996
  H    -21.370521   28.644145   47.513950
  H    -20.773113   27.037367   49.183418
  H    -19.106952   26.889874   48.567297
  C    -23.289966   25.117042   46.448024
  H    -23.323893   24.643765   45.457721
  H    -22.804178   24.432066   47.156224
  O    -22.516216   26.353274   46.352259
  C    -24.715560   25.392052   46.912468
  C    -24.881675   26.056142   48.287866
  C    -24.719003   27.558232   47.935763
  C    -25.373131   27.660322   46.534862
  O    -25.435556   26.280690   45.998515
  H    -25.247730   24.433134   46.898860
  O    -26.192684   25.757962   48.846269
  H    -24.166472   25.705839   49.032326
  H    -25.210475   28.187448   48.683171
  H    -23.658535   27.806186   47.881577
  H    -24.787887   28.276548   45.846972
  H    -26.400235   28.038649   46.570567
  H    -26.876252   25.926774   48.163811

 Multiplicity           Mult            ....    1
 Number of Electrons    NEL             ....  102
 Basis Dimension        Dim             ....  149

ORBITAL ENERGIES
----------------

  NO   OCC          E(Eh)            E(eV)
   0   2.0000     -19.150293      -521.1060
   1   2.0000     -19.144840      -520.9576
   2   2.0000     -19.136092      -520.7195
   3   2.0000     -19.133819      -520.6577
   4   2.0000     -10.282692      -279.8063
   5   2.0000     -10.235059      -278.5101
   6   2.0000     -10.232934      -278.4523
   7   2.0000     -10.230586      -278.3884
   8   2.0000     -10.230060      -278.3741
   9   2.0000     -10.221886      -278.1517
  10   2.0000     -10.190707      -277.3032
  11   2.0000     -10.189518      -277.2709
  12   2.0000     -10.176230      -276.9093
  13   2.0000      -1.059761       -28.8376
  14   2.0000      -1.030928       -28.0530
  15   2.0000      -1.003157       -27.2973
  16   2.0000      -0.995597       -27.0916
  17   2.0000      -0.793550       -21.5936
  18   2.0000      -0.775402       -21.0998
  19   2.0000      -0.763323       -20.7711
  20   2.0000      -0.733108       -19.9489
  21   2.0000      -0.672792       -18.3076
  22   2.0000      -0.603888       -16.4326
  23   2.0000      -0.597184       -16.2502
  24   2.0000      -0.594765       -16.1844
  25   2.0000      -0.579079       -15.7576
  26   2.0000      -0.525300       -14.2941
  27   2.0000      -0.506801       -13.7908
  28   2.0000      -0.499066       -13.5803
  29   2.0000      -0.486461       -13.2373
  30   2.0000      -0.472691       -12.8626
  31   2.0000      -0.461835       -12.5672
  32   2.0000      -0.447393       -12.1742
  33   2.0000      -0.433063       -11.7842
  34   2.0000      -0.422801       -11.5050
  35   2.0000      -0.409948       -11.1552
  36   2.0000      -0.406892       -11.0721
  37   2.0000      -0.386077       -10.5057
  38   2.0000      -0.378046       -10.2872
  39   2.0000      -0.365650        -9.9499
  40   2.0000      -0.361286        -9.8311
  41   2.0000      -0.355526        -9.6744
  42   2.0000      -0.349640        -9.5142
  43   2.0000      -0.336835        -9.1657
  44   2.0000      -0.322773        -8.7831
  45   2.0000      -0.305947        -8.3252
  46   2.0000      -0.300451        -8.1757
  47   2.0000      -0.273584        -7.4446
  48   2.0000      -0.264827        -7.2063
  49   2.0000      -0.256273        -6.9735
  50   2.0000      -0.241343        -6.5673
  51   0.0000       0.064016         1.7420
  52   0.0000       0.081459         2.2166
  53   0.0000       0.091530         2.4907
  54   0.0000       0.103004         2.8029
  55   0.0000       0.105474         2.8701

MULLIKEN ATOMIC CHARGES
-----------------------
   0 C :    0.288466
   1 C :   -0.261720
   2 C :   -0.305542
   3 C :   -0.003465
   4 O :   -0.511987
   5 H :    0.145112
   6 H :    0.148086
   7 H :    0.158224
   8 H :    0.144681
   9 H :    0.160933
  10 H :    0.146395
  11 H :    0.145616
  12 C :    0.001093
  13 H :    0.143941
  14 H :    0.152630
  15 O :   -0.524434
  16 C :    0.058426
  17 C :    0.075470
  18 C :   -0.295445
  19 C :   -0.020859
  20 O :   -0.525471
  21 H :    0.157147
  22 O :   -0.602847
  23 H :    0.155001
  24 H :    0.147252
  25 H :    0.174266
  26 H :    0.150491
  27 H :    0.135889
  28 H :    0.362647
Sum of atomic charges:   -0.0000000

LOEWDIN ATOMIC CHARGES
----------------------
   0 C :    0.171957
   1 C :   -0.214018
   2 C :   -0.216760
   3 C :   -0.027941
   4 O :   -0.330253
   5 H :    0.098415
   6 H :    0.116021
   7 H :    0.124884
   8 H :    0.115126
   9 H :    0.115113
  10 H :    0.104803
  11 H :    0.104511
  12 C :   -0.041348
  13 H :    0.104191
  14 H :    0.109242
  15 O :   -0.327581
  16 C :    0.014438
  17 C :    0.039722
  18 C :   -0.242640
  19 C :   -0.033863
  20 O :   -0.330457
  21 H :    0.116932
  22 O :   -0.416991
  23 H :    0.117457
  24 H :    0.117890
  25 H :    0.125566
  26 H :    0.107542
  27 H :    0.096173
  28 H :    0.281869

  Mayer bond orders larger than 0.100000
B(  0-C ,  1-C ) :   0.9480 B(  0-C ,  4-O ) :   0.9051 B(  0-C ,  5-H ) :   0.9186
B(  0-C , 15-O ) :   0.8601 B(  1-C ,  2-C ) :   0.9560 B(  1-C ,  6-H ) :   0.9398
B(  1-C ,  7-H ) :   0.9360 B(  2-C ,  3-C ) :   0.9546 B(  2-C ,  8-H ) :   0.9447
B(  2-C ,  9-H ) :   0.9409 B(  3-C ,  4-O ) :   0.8368 B(  3-C , 10-H ) :   0.9354
B(  3-C , 11-H ) :   0.9399 B( 12-C , 13-H ) :   0.9185 B( 12-C , 14-H ) :   0.9045
B( 12-C , 15-O ) :   0.8307 B( 12-C , 16-C ) :   0.9154 B( 16-C , 17-C ) :   0.9085
B( 16-C , 20-O ) :   0.8702 B( 16-C , 21-H ) :   0.9216 B( 17-C , 18-C ) :   0.9222
B( 17-C , 22-O ) :   0.8925 B( 17-C , 23-H ) :   0.9347 B( 18-C , 19-C ) :   0.9488
B( 18-C , 24-H ) :   0.9371 B( 18-C , 25-H ) :   0.9146 B( 19-C , 20-O ) :   0.8409
B( 19-C , 26-H ) :   0.9339 B( 19-C , 27-H ) :   0.9372 B( 22-O , 28-H ) :   0.7959

FINAL SINGLE POINT ENERGY      -652.868943347150

DIPOLE MOMENT
-------------
                                X             Y             Z
Electronic contribution:     -3.54348      -4.42731      -0.75241
Nuclear contribution   :      4.37872       5.17749       0.48560
                        -----------------------------------------
Total Dipole Moment    :      0.83524       0.75018      -0.26681
                        -----------------------------------------
Magnitude (a.u.)       :      1.15394
Magnitude (Debye)      :      2.93307

Rotational constants in cm-1:     0.049381     0.015013     0.014799
Rotational constants in MHz :  1480.397479   450.072404   443.660997

                             ****ORCA TERMINATED NORMALLY****
TOTAL RUN TIME: 0 days 0 hours 41 minutes 17 seconds 372 msec
