                         Program Version 4.2.0 -  RELEASE  -
|  1> # Test redundant internal optimization
|  2> #
|  3> ! RKS B3LYP  Opt TightSCF SmallPrint
|  4>
|  5> %basis
|  6>         Basis "6-31G"
|  7> end
|  8>
|  9> %geom
| 10> Constraints
| 11> { D 4  0  15  12  0.0   C } # D for Dihedral angle
| 12> { D 0  15  12  16  195.0   C } # D for Dihedral angle
| 13> { D 0  4  3  2   C } # D for Dihedral angle
| 14> { D 4  3  2  1   C } # D for Dihedral angle
| 15> { D 3  2  1  0   C } # D for Dihedral angle
| 16> { D 2  1  0  4   C } # D for Dihedral angle
| 17> { D 1  0  4  3   C } # D for Dihedral angle
| 18> { D 16  20  19  18   C } # D for Dihedral angle
| 19> { D 20  19  18  17   C } # D for Dihedral angle
| 20> { D 19  18  17  16   C } # D for Dihedral angle
| 21> { D 18  17  16  20   C } # D for Dihedral angle
| 22> { D 17  16  20  19   C } # D for Dihedral angle
| 23> { D 15  12  16  20   C } # D for Dihedral angle
| 24> end
| 25> end
| 26>
| 27>
| 28> #%pal
| 29> #nprocs 8
| 30> #end
| 31>
| 32> * xyz 0 1
| 33> C  -21.048   26.222   46.251
| 34> C  -20.361   27.558   45.944
| 35> C  -20.329   28.222   47.341
| 36> C  -20.110   27.022   48.296
| 37> O  -20.473   25.807   47.535
| 38> H  -20.833   25.428   45.533
| 39> H  -19.344   27.382   45.576
| 40> H  -20.898   28.157   45.201
| 41> H  -19.543   28.978   47.434
| 42> H  -21.289   28.710   47.548
| 43> H  -20.733   27.082   49.195
| 44> H  -19.064   26.913   48.597
| 45> C  -23.172   26.101   47.783
| 46> H  -22.724   25.180   48.177
| 47> H  -22.937   26.920   48.475
| 48> O  -22.586   26.394   46.375
| 49> C  -24.716   25.924   47.767
| 50> C  -25.271   25.752   49.184
| 51> C  -25.290   27.213   49.694
| 52> C  -25.645   28.023   48.423
| 53> O  -25.366   27.141   47.270
| 54> H  -24.976   25.117   47.078
| 55> H  -26.288   25.344   49.144
| 56> O  -24.404   24.816   50.071
| 57> H  -26.009   27.371   50.504
| 58> H  -24.298   27.494   50.067
| 59> H  -25.048   28.937   48.328
| 60> H  -26.706   28.287   48.378
| 61> H  -23.381   25.205   50.127
| 62> *
| 63>
| 64>                          ****END OF INPUT****
 Total Charge           Charge          ....    0
 Multiplicity           Mult            ....    1
 Number of Electrons    NEL             ....  102
FINAL SINGLE POINT ENERGY      -652.825382049811
FINAL SINGLE POINT ENERGY      -652.848830443987
FINAL SINGLE POINT ENERGY      -652.853486503402
FINAL SINGLE POINT ENERGY      -652.854188467724
FINAL SINGLE POINT ENERGY      -652.854297934141
FINAL SINGLE POINT ENERGY      -652.854323137409
FINAL SINGLE POINT ENERGY      -652.854325387819
                    ***********************HURRAY********************

CARTESIAN COORDINATES (ANGSTROEM)
---------------------------------
  C    -21.113217   26.227754   46.331920
  C    -20.495374   27.568910   45.934207
  C    -20.251837   28.225583   47.312764
  C    -19.877249   27.027449   48.213029
  O    -20.353705   25.814594   47.491505
  H    -21.000934   25.432124   45.592011
  H    -19.550203   27.392012   45.407440
  H    -21.162147   28.148198   45.292385
  H    -19.463718   28.984386   47.286238
  H    -21.172270   28.705077   47.662253
  H    -20.350633   27.059420   49.198780
  H    -18.797020   26.909498   48.338725
  C    -23.058299   26.117787   47.902095
  H    -22.640497   25.187354   48.304370
  H    -22.793031   26.941006   48.583853
  O    -22.542817   26.381887   46.572775
  C    -24.573764   25.984068   47.782559
  C    -25.283072   25.741406   49.125120
  C    -25.422487   27.191630   49.681645
  C    -25.661295   28.023303   48.402342
  O    -25.212629   27.188264   47.259039
  H    -24.785443   25.195932   47.054519
  H    -26.269496   25.311428   48.938778
  O    -24.641923   24.798414   50.016358
  H    -26.236260   27.278731   50.406777
  H    -24.489986   27.482025   50.183722
  H    -25.105286   28.965778   48.395938
  H    -26.721679   28.240583   48.243060
  H    -23.815730   25.175397   50.381793

 Multiplicity           Mult            ....    1
 Number of Electrons    NEL             ....  102
 Basis Dimension        Dim             ....  149

ORBITAL ENERGIES
----------------

  NO   OCC          E(Eh)            E(eV)
   0   2.0000     -19.150955      -521.1240
   1   2.0000     -19.148431      -521.0553
   2   2.0000     -19.134771      -520.6836
   3   2.0000     -19.133585      -520.6513
   4   2.0000     -10.277490      -279.6647
   5   2.0000     -10.243247      -278.7329
   6   2.0000     -10.234553      -278.4963
   7   2.0000     -10.228034      -278.3190
   8   2.0000     -10.227490      -278.3042
   9   2.0000     -10.227336      -278.2999
  10   2.0000     -10.193911      -277.3904
  11   2.0000     -10.191957      -277.3372
  12   2.0000     -10.184412      -277.1319
  13   2.0000      -1.054819       -28.7031
  14   2.0000      -1.031744       -28.0752
  15   2.0000      -1.013275       -27.5726
  16   2.0000      -0.990564       -26.9546
  17   2.0000      -0.791362       -21.5341
  18   2.0000      -0.780506       -21.2386
  19   2.0000      -0.768338       -20.9075
  20   2.0000      -0.733021       -19.9465
  21   2.0000      -0.677936       -18.4476
  22   2.0000      -0.609267       -16.5790
  23   2.0000      -0.604769       -16.4566
  24   2.0000      -0.593121       -16.1397
  25   2.0000      -0.570349       -15.5200
  26   2.0000      -0.528729       -14.3874
  27   2.0000      -0.507651       -13.8139
  28   2.0000      -0.498883       -13.5753
  29   2.0000      -0.497161       -13.5285
  30   2.0000      -0.470987       -12.8162
  31   2.0000      -0.455650       -12.3989
  32   2.0000      -0.449547       -12.2328
  33   2.0000      -0.429341       -11.6830
  34   2.0000      -0.424795       -11.5593
  35   2.0000      -0.415051       -11.2941
  36   2.0000      -0.408498       -11.1158
  37   2.0000      -0.399785       -10.8787
  38   2.0000      -0.377194       -10.2640
  39   2.0000      -0.370325       -10.0771
  40   2.0000      -0.361149        -9.8274
  41   2.0000      -0.352914        -9.6033
  42   2.0000      -0.349485        -9.5100
  43   2.0000      -0.340442        -9.2639
  44   2.0000      -0.324223        -8.8226
  45   2.0000      -0.311427        -8.4743
  46   2.0000      -0.305344        -8.3088
  47   2.0000      -0.269586        -7.3358
  48   2.0000      -0.263476        -7.1696
  49   2.0000      -0.247017        -6.7217
  50   2.0000      -0.237658        -6.4670
  51   0.0000       0.048959         1.3323
  52   0.0000       0.067543         1.8379
  53   0.0000       0.089046         2.4231
  54   0.0000       0.094013         2.5582
  55   0.0000       0.105568         2.8727

MULLIKEN ATOMIC CHARGES
-----------------------
   0 C :    0.296498
   1 C :   -0.253799
   2 C :   -0.310734
   3 C :   -0.015319
   4 O :   -0.512436
   5 H :    0.158315
   6 H :    0.143034
   7 H :    0.167064
   8 H :    0.147682
   9 H :    0.156563
  10 H :    0.136028
  11 H :    0.152546
  12 C :    0.002250
  13 H :    0.152518
  14 H :    0.107425
  15 O :   -0.530102
  16 C :    0.087648
  17 C :    0.079481
  18 C :   -0.321420
  19 C :   -0.008483
  20 O :   -0.503831
  21 H :    0.165656
  22 H :    0.169549
  23 O :   -0.598201
  24 H :    0.158245
  25 H :    0.129213
  26 H :    0.141057
  27 H :    0.147733
  28 H :    0.355819
Sum of atomic charges:   -0.0000000

LOEWDIN ATOMIC CHARGES
----------------------
   0 C :    0.181972
   1 C :   -0.219816
   2 C :   -0.219984
   3 C :   -0.033174
   4 O :   -0.320199
   5 H :    0.106426
   6 H :    0.112981
   7 H :    0.129033
   8 H :    0.117535
   9 H :    0.114629
  10 H :    0.097778
  11 H :    0.107644
  12 C :   -0.047561
  13 H :    0.108943
  14 H :    0.079752
  15 O :   -0.329090
  16 C :    0.021088
  17 C :    0.034240
  18 C :   -0.242280
  19 C :   -0.030304
  20 O :   -0.313437
  21 H :    0.121054
  22 H :    0.120462
  23 O :   -0.406044
  24 H :    0.122329
  25 H :    0.101825
  26 H :    0.101333
  27 H :    0.105233
  28 H :    0.277629

  Mayer bond orders larger than 0.100000
B(  0-C ,  1-C ) :   0.9307 B(  0-C ,  4-O ) :   0.9051 B(  0-C ,  5-H ) :   0.9291
B(  0-C , 15-O ) :   0.8495 B(  1-C ,  2-C ) :   0.9516 B(  1-C ,  6-H ) :   0.9355
B(  1-C ,  7-H ) :   0.9347 B(  2-C ,  3-C ) :   0.9532 B(  2-C ,  8-H ) :   0.9445
B(  2-C ,  9-H ) :   0.9447 B(  3-C ,  4-O ) :   0.8326 B(  3-C , 10-H ) :   0.9335
B(  3-C , 11-H ) :   0.9398 B( 12-C , 13-H ) :   0.8999 B( 12-C , 14-H ) :   0.9141
B( 12-C , 15-O ) :   0.8352 B( 12-C , 16-C ) :   0.9079 B( 16-C , 17-C ) :   0.8758
B( 16-C , 20-O ) :   0.8672 B( 16-C , 21-H ) :   0.9281 B( 17-C , 18-C ) :   0.9197
B( 17-C , 22-H ) :   0.9332 B( 17-C , 23-O ) :   0.8985 B( 18-C , 19-C ) :   0.9392
B( 18-C , 24-H ) :   0.9421 B( 18-C , 25-H ) :   0.9420 B( 19-C , 20-O ) :   0.8539
B( 19-C , 26-H ) :   0.9317 B( 19-C , 27-H ) :   0.9378 B( 23-O , 28-H ) :   0.7974

FINAL SINGLE POINT ENERGY      -652.854325636963

DIPOLE MOMENT
-------------
                                X             Y             Z
Electronic contribution:     -2.20123      -4.88432      -2.35904
Nuclear contribution   :      2.86208       6.04130       3.18953
                        -----------------------------------------
Total Dipole Moment    :      0.66085       1.15699       0.83049
                        -----------------------------------------
Magnitude (a.u.)       :      1.57005
Magnitude (Debye)      :      3.99075

Rotational constants in cm-1:     0.047238     0.014354     0.013293
Rotational constants in MHz :  1416.157414   430.316499   398.505935

                             ****ORCA TERMINATED NORMALLY****
TOTAL RUN TIME: 0 days 2 hours 13 minutes 38 seconds 891 msec
