                         Program Version 4.2.0 -  RELEASE  -
|  1> # Test redundant internal optimization
|  2> #
|  3> ! RKS B3LYP  Opt TightSCF SmallPrint
|  4>
|  5> %basis
|  6>         Basis "6-31G"
|  7> end
|  8>
|  9> %geom
| 10> Constraints
| 11> { D 4  0  15  12  270.0   C } # D for Dihedral angle
| 12> { D 0  15  12  16  60.0   C } # D for Dihedral angle
| 13> { D 0  4  3  2   C } # D for Dihedral angle
| 14> { D 4  3  2  1   C } # D for Dihedral angle
| 15> { D 3  2  1  0   C } # D for Dihedral angle
| 16> { D 2  1  0  4   C } # D for Dihedral angle
| 17> { D 1  0  4  3   C } # D for Dihedral angle
| 18> { D 16  20  19  18   C } # D for Dihedral angle
| 19> { D 20  19  18  17   C } # D for Dihedral angle
| 20> { D 19  18  17  16   C } # D for Dihedral angle
| 21> { D 18  17  16  20   C } # D for Dihedral angle
| 22> { D 17  16  20  19   C } # D for Dihedral angle
| 23> { D 15  12  16  20   C } # D for Dihedral angle
| 24> end
| 25> end
| 26>
| 27>
| 28> #%pal
| 29> #nprocs 8
| 30> #end
| 31>
| 32> * xyz 0 1
| 33> C  -21.048   26.222   46.251
| 34> C  -20.361   27.558   45.944
| 35> C  -20.329   28.222   47.341
| 36> C  -20.110   27.022   48.296
| 37> O  -20.473   25.807   47.535
| 38> H  -20.833   25.428   45.533
| 39> H  -19.344   27.382   45.576
| 40> H  -20.898   28.157   45.201
| 41> H  -19.543   28.978   47.434
| 42> H  -21.289   28.710   47.548
| 43> H  -20.733   27.082   49.195
| 44> H  -19.064   26.913   48.597
| 45> C  -23.420   25.119   46.072
| 46> H  -24.487   25.350   46.179
| 47> H  -23.244   24.780   45.043
| 48> O  -22.586   26.394   46.375
| 49> C  -23.078   23.938   47.023
| 50> C  -23.455   24.264   48.473
| 51> C  -24.982   24.017   48.463
| 52> C  -25.139   22.824   47.486
| 53> O  -23.892   22.763   46.694
| 54> H  -22.034   23.654   46.880
| 55> H  -22.955   23.569   49.156
| 56> O  -23.082   25.713   48.889
| 57> H  -25.383   23.797   49.458
| 58> H  -25.504   24.902   48.080
| 59> H  -25.989   22.947   46.808
| 60> H  -25.237   21.868   48.007
| 61> H  -23.572   26.427   48.218
| 62> *
| 63>
| 64>                          ****END OF INPUT****
 Total Charge           Charge          ....    0
 Multiplicity           Mult            ....    1
 Number of Electrons    NEL             ....  102
FINAL SINGLE POINT ENERGY      -652.833586025232
FINAL SINGLE POINT ENERGY      -652.858876615321
FINAL SINGLE POINT ENERGY      -652.864730932374
FINAL SINGLE POINT ENERGY      -652.866804185747
FINAL SINGLE POINT ENERGY      -652.867793049112
FINAL SINGLE POINT ENERGY      -652.868242186197
FINAL SINGLE POINT ENERGY      -652.868345191672
FINAL SINGLE POINT ENERGY      -652.868359678556
FINAL SINGLE POINT ENERGY      -652.868361497262
                    ***********************HURRAY********************

CARTESIAN COORDINATES (ANGSTROEM)
---------------------------------
  C    -21.065989   26.153450   46.252319
  C    -20.461403   27.524591   45.951317
  C    -20.479383   28.196299   47.346436
  C    -20.195354   27.015470   48.303024
  O    -20.488580   25.785540   47.514539
  H    -20.828545   25.360163   45.538944
  H    -19.433551   27.393103   45.594323
  H    -21.032841   28.071920   45.199278
  H    -19.733888   28.991699   47.438552
  H    -21.466192   28.628408   47.538998
  H    -20.830435   26.999214   49.190466
  H    -19.144584   26.949231   48.597476
  C    -23.323897   25.122650   46.053174
  H    -24.359758   25.462748   46.118806
  H    -23.135277   24.776806   45.028602
  O    -22.518909   26.329613   46.320192
  C    -23.042446   23.973141   47.036286
  C    -23.434412   24.296810   48.491906
  C    -24.983106   24.094529   48.458392
  C    -25.152663   22.921862   47.469955
  O    -23.884840   22.831271   46.688695
  H    -22.006576   23.639302   46.954285
  H    -22.971360   23.567603   49.162903
  O    -23.082678   25.609056   48.986053
  H    -25.383388   23.876990   49.451631
  H    -25.453858   25.015580   48.099346
  H    -25.984622   23.057359   46.771724
  H    -25.273266   21.960065   47.976717
  H    -22.912196   26.202527   48.220663

 Multiplicity           Mult            ....    1
 Number of Electrons    NEL             ....  102
 Basis Dimension        Dim             ....  149

ORBITAL ENERGIES
----------------

  NO   OCC          E(Eh)            E(eV)
   0   2.0000     -19.163925      -521.4769
   1   2.0000     -19.148399      -521.0544
   2   2.0000     -19.139267      -520.8059
   3   2.0000     -19.116444      -520.1849
   4   2.0000     -10.288667      -279.9689
   5   2.0000     -10.237211      -278.5687
   6   2.0000     -10.231220      -278.4057
   7   2.0000     -10.229150      -278.3493
   8   2.0000     -10.226657      -278.2815
   9   2.0000     -10.224956      -278.2352
  10   2.0000     -10.190937      -277.3095
  11   2.0000     -10.190056      -277.2855
  12   2.0000     -10.178051      -276.9588
  13   2.0000      -1.063951       -28.9516
  14   2.0000      -1.023775       -27.8583
  15   2.0000      -1.005185       -27.3525
  16   2.0000      -0.994234       -27.0545
  17   2.0000      -0.793156       -21.5829
  18   2.0000      -0.768783       -20.9197
  19   2.0000      -0.763264       -20.7695
  20   2.0000      -0.736481       -20.0407
  21   2.0000      -0.676530       -18.4093
  22   2.0000      -0.605502       -16.4765
  23   2.0000      -0.601339       -16.3633
  24   2.0000      -0.593839       -16.1592
  25   2.0000      -0.577035       -15.7019
  26   2.0000      -0.525921       -14.3110
  27   2.0000      -0.519918       -14.1477
  28   2.0000      -0.493349       -13.4247
  29   2.0000      -0.487065       -13.2537
  30   2.0000      -0.465719       -12.6729
  31   2.0000      -0.454658       -12.3719
  32   2.0000      -0.445933       -12.1345
  33   2.0000      -0.435410       -11.8481
  34   2.0000      -0.423143       -11.5143
  35   2.0000      -0.409815       -11.1516
  36   2.0000      -0.405311       -11.0291
  37   2.0000      -0.387867       -10.5544
  38   2.0000      -0.380895       -10.3647
  39   2.0000      -0.366116        -9.9625
  40   2.0000      -0.360800        -9.8179
  41   2.0000      -0.355238        -9.6665
  42   2.0000      -0.349857        -9.5201
  43   2.0000      -0.338906        -9.2221
  44   2.0000      -0.333068        -9.0632
  45   2.0000      -0.315981        -8.5983
  46   2.0000      -0.295464        -8.0400
  47   2.0000      -0.276357        -7.5201
  48   2.0000      -0.266244        -7.2449
  49   2.0000      -0.244561        -6.6548
  50   2.0000      -0.238813        -6.4984
  51   0.0000       0.059766         1.6263
  52   0.0000       0.084150         2.2898
  53   0.0000       0.095721         2.6047
  54   0.0000       0.099959         2.7200
  55   0.0000       0.105465         2.8698

MULLIKEN ATOMIC CHARGES
-----------------------
   0 C :    0.273901
   1 C :   -0.254989
   2 C :   -0.305152
   3 C :   -0.024507
   4 O :   -0.506984
   5 H :    0.154224
   6 H :    0.149271
   7 H :    0.157161
   8 H :    0.146461
   9 H :    0.161112
  10 H :    0.177134
  11 H :    0.146297
  12 C :   -0.049727
  13 H :    0.160808
  14 H :    0.154408
  15 O :   -0.533381
  16 C :    0.056800
  17 C :    0.116356
  18 C :   -0.301967
  19 C :   -0.017498
  20 O :   -0.525225
  21 H :    0.175119
  22 H :    0.152474
  23 O :   -0.634725
  24 H :    0.151371
  25 H :    0.144339
  26 H :    0.140232
  27 H :    0.147238
  28 H :    0.389448
Sum of atomic charges:   -0.0000000

LOEWDIN ATOMIC CHARGES
----------------------
   0 C :    0.166431
   1 C :   -0.214154
   2 C :   -0.217146
   3 C :   -0.033016
   4 O :   -0.319271
   5 H :    0.103848
   6 H :    0.116132
   7 H :    0.123851
   8 H :    0.116556
   9 H :    0.117728
  10 H :    0.119092
  11 H :    0.105813
  12 C :   -0.051581
  13 H :    0.115700
  14 H :    0.107738
  15 O :   -0.334880
  16 C :    0.006320
  17 C :    0.043855
  18 C :   -0.237038
  19 C :   -0.032852
  20 O :   -0.324368
  21 H :    0.121188
  22 H :    0.110319
  23 O :   -0.427875
  24 H :    0.121474
  25 H :    0.110130
  26 H :    0.100798
  27 H :    0.105407
  28 H :    0.279802

  Mayer bond orders larger than 0.100000
B(  0-C ,  1-C ) :   0.9491 B(  0-C ,  4-O ) :   0.9239 B(  0-C ,  5-H ) :   0.9184
B(  0-C , 15-O ) :   0.8140 B(  1-C ,  2-C ) :   0.9539 B(  1-C ,  6-H ) :   0.9389
B(  1-C ,  7-H ) :   0.9367 B(  2-C ,  3-C ) :   0.9521 B(  2-C ,  8-H ) :   0.9450
B(  2-C ,  9-H ) :   0.9447 B(  3-C ,  4-O ) :   0.8191 B(  3-C , 10-H ) :   0.9219
B(  3-C , 11-H ) :   0.9408 B( 12-C , 13-H ) :   0.9382 B( 12-C , 14-H ) :   0.9273
B( 12-C , 15-O ) :   0.8123 B( 12-C , 16-C ) :   0.8816 B( 16-C , 17-C ) :   0.9094
B( 16-C , 20-O ) :   0.8395 B( 16-C , 21-H ) :   0.9228 B( 17-C , 18-C ) :   0.9027
B( 17-C , 22-H ) :   0.9326 B( 17-C , 23-O ) :   0.9225 B( 18-C , 19-C ) :   0.9382
B( 18-C , 24-H ) :   0.9450 B( 18-C , 25-H ) :   0.9433 B( 19-C , 20-O ) :   0.8335
B( 19-C , 26-H ) :   0.9345 B( 19-C , 27-H ) :   0.9393 B( 23-O , 28-H ) :   0.7232

FINAL SINGLE POINT ENERGY      -652.868361954960

DIPOLE MOMENT
-------------
                                X             Y             Z
Electronic contribution:      0.43071      -3.00370      -0.55045
Nuclear contribution   :     -0.33655       3.69688       0.00334
                        -----------------------------------------
Total Dipole Moment    :      0.09416       0.69318      -0.54711
                        -----------------------------------------
Magnitude (a.u.)       :      0.88808
Magnitude (Debye)      :      2.25733

Rotational constants in cm-1:     0.060257     0.015842     0.014361
Rotational constants in MHz :  1806.445209   474.925940   430.530886

                             ****ORCA TERMINATED NORMALLY****
TOTAL RUN TIME: 0 days 0 hours 30 minutes 36 seconds 127 msec
