                         Program Version 4.2.0 -  RELEASE  -
|  1> # Test redundant internal optimization
|  2> #
|  3> ! RKS B3LYP  Opt TightSCF SmallPrint
|  4>
|  5> %basis
|  6>         Basis "6-31G"
|  7> end
|  8>
|  9> %geom
| 10> Constraints
| 11> { D 4  0  15  12  345.0   C } # D for Dihedral angle
| 12> { D 0  15  12  16  150.0   C } # D for Dihedral angle
| 13> { D 0  4  3  2   C } # D for Dihedral angle
| 14> { D 4  3  2  1   C } # D for Dihedral angle
| 15> { D 3  2  1  0   C } # D for Dihedral angle
| 16> { D 2  1  0  4   C } # D for Dihedral angle
| 17> { D 1  0  4  3   C } # D for Dihedral angle
| 18> { D 16  20  19  18   C } # D for Dihedral angle
| 19> { D 20  19  18  17   C } # D for Dihedral angle
| 20> { D 19  18  17  16   C } # D for Dihedral angle
| 21> { D 18  17  16  20   C } # D for Dihedral angle
| 22> { D 17  16  20  19   C } # D for Dihedral angle
| 23> { D 15  12  16  20   C } # D for Dihedral angle
| 24> end
| 25> end
| 26>
| 27>
| 28> #%pal
| 29> #nprocs 8
| 30> #end
| 31>
| 32> * xyz 0 1
| 33> C  -21.048   26.222   46.251
| 34> C  -20.361   27.558   45.944
| 35> C  -20.329   28.222   47.341
| 36> C  -20.110   27.022   48.296
| 37> O  -20.473   25.807   47.535
| 38> H  -20.833   25.428   45.533
| 39> H  -19.344   27.382   45.576
| 40> H  -20.898   28.157   45.201
| 41> H  -19.543   28.978   47.434
| 42> H  -21.289   28.710   47.548
| 43> H  -20.733   27.082   49.195
| 44> H  -19.064   26.913   48.597
| 45> C  -23.221   25.764   47.645
| 46> H  -23.501   24.725   47.432
| 47> H  -22.501   25.762   48.474
| 48> O  -22.586   26.394   46.375
| 49> C  -24.489   26.524   48.123
| 50> C  -24.193   28.011   48.354
| 51> C  -24.218   28.564   46.909
| 52> C  -25.319   27.715   46.226
| 53> O  -25.515   26.519   47.075
| 54> H  -24.911   26.008   48.987
| 55> H  -24.989   28.463   48.955
| 56> O  -22.837   28.259   49.070
| 57> H  -24.433   29.637   46.869
| 58> H  -23.247   28.399   46.426
| 59> H  -25.038   27.397   45.217
| 60> H  -26.279   28.236   46.179
| 61> H  -22.025   27.814   48.486
| 62> *
| 63>
| 64>                          ****END OF INPUT****
 Total Charge           Charge          ....    0
 Multiplicity           Mult            ....    1
 Number of Electrons    NEL             ....  102
FINAL SINGLE POINT ENERGY      -652.817491672452
FINAL SINGLE POINT ENERGY      -652.843740096529
FINAL SINGLE POINT ENERGY      -652.854235360405
FINAL SINGLE POINT ENERGY      -652.856684434444
FINAL SINGLE POINT ENERGY      -652.857074152658
FINAL SINGLE POINT ENERGY      -652.857153405641
FINAL SINGLE POINT ENERGY      -652.857157723961
                    ***********************HURRAY********************

CARTESIAN COORDINATES (ANGSTROEM)
---------------------------------
  C    -21.053279   26.163630   46.359239
  C    -20.384534   27.471659   45.930641
  C    -20.202674   28.195459   47.287183
  C    -19.904400   27.035032   48.266765
  O    -20.369102   25.797823   47.576547
  H    -20.865471   25.334862   45.669120
  H    -19.414683   27.237162   45.479663
  H    -20.985095   28.034304   45.212762
  H    -19.386436   28.924348   47.265013
  H    -21.110496   28.745520   47.554088
  H    -20.418971   27.118846   49.229593
  H    -18.834880   26.905413   48.450054
  C    -23.184137   25.734949   47.641321
  H    -23.476045   24.701451   47.417344
  H    -22.502897   25.710797   48.498703
  O    -22.502881   26.289314   46.467845
  C    -24.450649   26.510453   47.999897
  C    -24.307792   27.999108   48.362376
  C    -24.332329   28.676624   46.958773
  C    -25.319124   27.786356   46.173106
  O    -25.426221   26.507943   46.917932
  H    -24.911745   25.955680   48.827150
  H    -25.174614   28.309301   48.950469
  O    -23.172899   28.322297   49.199203
  H    -24.652275   29.721103   47.012948
  H    -23.334927   28.626099   46.516164
  H    -24.974140   27.570996   45.158242
  H    -26.325872   28.213928   46.130233
  H    -22.348432   28.071543   48.740624

 Multiplicity           Mult            ....    1
 Number of Electrons    NEL             ....  102
 Basis Dimension        Dim             ....  149

ORBITAL ENERGIES
----------------

  NO   OCC          E(Eh)            E(eV)
   0   2.0000     -19.161295      -521.4053
   1   2.0000     -19.147255      -521.0233
   2   2.0000     -19.145569      -520.9774
   3   2.0000     -19.130285      -520.5615
   4   2.0000     -10.288131      -279.9543
   5   2.0000     -10.244965      -278.7797
   6   2.0000     -10.237923      -278.5880
   7   2.0000     -10.229846      -278.3683
   8   2.0000     -10.227492      -278.3042
   9   2.0000     -10.219290      -278.0810
  10   2.0000     -10.205666      -277.7103
  11   2.0000     -10.198821      -277.5240
  12   2.0000     -10.179177      -276.9895
  13   2.0000      -1.063376       -28.9359
  14   2.0000      -1.029839       -28.0233
  15   2.0000      -1.011900       -27.5352
  16   2.0000      -0.997663       -27.1478
  17   2.0000      -0.803660       -21.8687
  18   2.0000      -0.773489       -21.0477
  19   2.0000      -0.767783       -20.8924
  20   2.0000      -0.741216       -20.1695
  21   2.0000      -0.678281       -18.4570
  22   2.0000      -0.617480       -16.8025
  23   2.0000      -0.603802       -16.4303
  24   2.0000      -0.600068       -16.3287
  25   2.0000      -0.567527       -15.4432
  26   2.0000      -0.524649       -14.2764
  27   2.0000      -0.521104       -14.1800
  28   2.0000      -0.509996       -13.8777
  29   2.0000      -0.493244       -13.4218
  30   2.0000      -0.475221       -12.9314
  31   2.0000      -0.462647       -12.5893
  32   2.0000      -0.442927       -12.0527
  33   2.0000      -0.429593       -11.6898
  34   2.0000      -0.423650       -11.5281
  35   2.0000      -0.414768       -11.2864
  36   2.0000      -0.409858       -11.1528
  37   2.0000      -0.399665       -10.8754
  38   2.0000      -0.384800       -10.4709
  39   2.0000      -0.374245       -10.1837
  40   2.0000      -0.372058       -10.1242
  41   2.0000      -0.360185        -9.8011
  42   2.0000      -0.352026        -9.5791
  43   2.0000      -0.344619        -9.3776
  44   2.0000      -0.327498        -8.9117
  45   2.0000      -0.310328        -8.4445
  46   2.0000      -0.304930        -8.2976
  47   2.0000      -0.276849        -7.5334
  48   2.0000      -0.263967        -7.1829
  49   2.0000      -0.257375        -7.0035
  50   2.0000      -0.235527        -6.4090
  51   0.0000       0.046067         1.2535
  52   0.0000       0.081022         2.2047
  53   0.0000       0.088297         2.4027
  54   0.0000       0.092560         2.5187
  55   0.0000       0.097539         2.6542

MULLIKEN ATOMIC CHARGES
-----------------------
   0 C :    0.307723
   1 C :   -0.264402
   2 C :   -0.328390
   3 C :   -0.034930
   4 O :   -0.508262
   5 H :    0.158104
   6 H :    0.154882
   7 H :    0.162900
   8 H :    0.158637
   9 H :    0.149403
  10 H :    0.156051
  11 H :    0.161033
  12 C :   -0.017850
  13 H :    0.154500
  14 H :    0.152596
  15 O :   -0.545309
  16 C :    0.084665
  17 C :    0.069257
  18 C :   -0.307390
  19 C :   -0.002446
  20 O :   -0.518874
  21 H :    0.150476
  22 H :    0.162653
  23 O :   -0.617406
  24 H :    0.142038
  25 H :    0.158434
  26 H :    0.150082
  27 H :    0.139558
  28 H :    0.372267
Sum of atomic charges:    0.0000000

LOEWDIN ATOMIC CHARGES
----------------------
   0 C :    0.181712
   1 C :   -0.217449
   2 C :   -0.225056
   3 C :   -0.039362
   4 O :   -0.316738
   5 H :    0.101573
   6 H :    0.120165
   7 H :    0.126062
   8 H :    0.123266
   9 H :    0.106292
  10 H :    0.104468
  11 H :    0.113281
  12 C :   -0.046504
  13 H :    0.110641
  14 H :    0.108741
  15 O :   -0.345976
  16 C :    0.015704
  17 C :    0.037714
  18 C :   -0.242091
  19 C :   -0.024468
  20 O :   -0.322292
  21 H :    0.115045
  22 H :    0.116551
  23 O :   -0.409551
  24 H :    0.114420
  25 H :    0.115509
  26 H :    0.107129
  27 H :    0.099874
  28 H :    0.271339

  Mayer bond orders larger than 0.100000
B(  0-C ,  1-C ) :   0.9323 B(  0-C ,  4-O ) :   0.9023 B(  0-C ,  5-H ) :   0.9261
B(  0-C , 15-O ) :   0.8521 B(  1-C ,  2-C ) :   0.9498 B(  1-C ,  6-H ) :   0.9353
B(  1-C ,  7-H ) :   0.9340 B(  2-C ,  3-C ) :   0.9473 B(  2-C ,  8-H ) :   0.9420
B(  2-C ,  9-H ) :   0.9176 B(  3-C ,  4-O ) :   0.8316 B(  3-C , 10-H ) :   0.9229
B(  3-C , 11-H ) :   0.9372 B( 12-C , 13-H ) :   0.9245 B( 12-C , 14-H ) :   0.8971
B( 12-C , 15-O ) :   0.8241 B( 12-C , 16-C ) :   0.9144 B( 16-C , 17-C ) :   0.8897
B( 16-C , 20-O ) :   0.8738 B( 16-C , 21-H ) :   0.9250 B( 17-C , 18-C ) :   0.9283
B( 17-C , 22-H ) :   0.9354 B( 17-C , 23-O ) :   0.9074 B( 18-C , 19-C ) :   0.9427
B( 18-C , 24-H ) :   0.9418 B( 18-C , 25-H ) :   0.9264 B( 19-C , 20-O ) :   0.8379
B( 19-C , 26-H ) :   0.9316 B( 19-C , 27-H ) :   0.9377 B( 23-O , 28-H ) :   0.7508

FINAL SINGLE POINT ENERGY      -652.857156354781

DIPOLE MOMENT
-------------
                                X             Y             Z
Electronic contribution:     -2.53050      -4.29148       0.76864
Nuclear contribution   :      3.57723       5.05399      -1.11418
                        -----------------------------------------
Total Dipole Moment    :      1.04673       0.76250      -0.34555
                        -----------------------------------------
Magnitude (a.u.)       :      1.34032
Magnitude (Debye)      :      3.40681

Rotational constants in cm-1:     0.044945     0.018481     0.017359
Rotational constants in MHz :  1347.421756   554.036161   520.409279

                             ****ORCA TERMINATED NORMALLY****
TOTAL RUN TIME: 0 days 0 hours 38 minutes 20 seconds 869 msec
