                         Program Version 4.2.0 -  RELEASE  -
|  1> # Test redundant internal optimization
|  2> #
|  3> ! RKS B3LYP  Opt TightSCF SmallPrint
|  4>
|  5> %basis
|  6>         Basis "6-31G"
|  7> end
|  8>
|  9> %geom
| 10> Constraints
| 11> { D 4  0  15  12  195.0   C } # D for Dihedral angle
| 12> { D 0  15  12  16  195.0   C } # D for Dihedral angle
| 13> { D 0  4  3  2   C } # D for Dihedral angle
| 14> { D 4  3  2  1   C } # D for Dihedral angle
| 15> { D 3  2  1  0   C } # D for Dihedral angle
| 16> { D 2  1  0  4   C } # D for Dihedral angle
| 17> { D 1  0  4  3   C } # D for Dihedral angle
| 18> { D 16  20  19  18   C } # D for Dihedral angle
| 19> { D 20  19  18  17   C } # D for Dihedral angle
| 20> { D 19  18  17  16   C } # D for Dihedral angle
| 21> { D 18  17  16  20   C } # D for Dihedral angle
| 22> { D 17  16  20  19   C } # D for Dihedral angle
| 23> { D 15  12  16  20   C } # D for Dihedral angle
| 24> end
| 25> end
| 26>
| 27>
| 28> #%pal
| 29> #nprocs 8
| 30> #end
| 31>
| 32> * xyz 0 1
| 33> C  -21.048   26.222   46.251
| 34> C  -20.361   27.558   45.944
| 35> C  -20.329   28.222   47.341
| 36> C  -20.110   27.022   48.296
| 37> O  -20.473   25.807   47.535
| 38> H  -20.833   25.428   45.533
| 39> H  -19.344   27.382   45.576
| 40> H  -20.898   28.157   45.201
| 41> H  -19.543   28.978   47.434
| 42> H  -21.289   28.710   47.548
| 43> H  -20.733   27.082   49.195
| 44> H  -19.064   26.913   48.597
| 45> C  -23.353   26.472   45.026
| 46> H  -22.814   27.139   44.342
| 47> H  -23.414   25.480   44.561
| 48> O  -22.586   26.394   46.375
| 49> C  -24.802   27.008   45.190
| 50> C  -24.807   28.461   45.677
| 51> C  -24.505   29.231   44.370
| 52> C  -25.231   28.390   43.290
| 53> O  -25.478   27.061   43.889
| 54> H  -25.370   26.318   45.817
| 55> O  -26.212   28.835   46.222
| 56> H  -24.070   28.654   46.464
| 57> H  -24.856   30.268   44.397
| 58> H  -23.424   29.249   44.185
| 59> H  -24.633   28.268   42.381
| 60> H  -26.204   28.808   43.020
| 61> H  -26.968   28.651   45.450
| 62> *
| 63>
| 64>                          ****END OF INPUT****
 Total Charge           Charge          ....    0
 Multiplicity           Mult            ....    1
 Number of Electrons    NEL             ....  102
FINAL SINGLE POINT ENERGY      -652.834637723514
FINAL SINGLE POINT ENERGY      -652.857823932420
FINAL SINGLE POINT ENERGY      -652.861276992883
FINAL SINGLE POINT ENERGY      -652.861902234626
FINAL SINGLE POINT ENERGY      -652.862001365837
FINAL SINGLE POINT ENERGY      -652.862012677252
                    ***********************HURRAY********************

CARTESIAN COORDINATES (ANGSTROEM)
---------------------------------
  C    -21.135620   26.218219   46.198357
  C    -20.397564   27.518974   45.888347
  C    -20.452400   28.253119   47.251022
  C    -20.335990   27.097471   48.266526
  O    -20.678629   25.863946   47.509155
  H    -20.908687   25.379512   45.531442
  H    -19.363043   27.288288   45.608873
  H    -20.849972   28.093802   45.075195
  H    -19.650636   28.989323   47.362222
  H    -21.410990   28.768668   47.359448
  H    -21.025246   27.190319   49.109031
  H    -19.317603   26.960244   48.641209
  C    -23.262540   26.443471   44.978261
  H    -22.714417   27.061982   44.252480
  H    -23.349211   25.431272   44.561792
  O    -22.579098   26.413881   46.262129
  C    -24.657970   27.021516   45.210274
  C    -24.692344   28.470259   45.717328
  C    -24.460696   29.267083   44.407805
  C    -25.196662   28.416759   43.342251
  O    -25.380679   27.067901   43.934105
  H    -25.219189   26.363799   45.879145
  O    -25.984257   28.779894   46.309333
  H    -23.956178   28.667277   46.494132
  H    -24.861572   30.279712   44.495510
  H    -23.389276   29.340597   44.189068
  H    -24.633508   28.321350   42.408681
  H    -26.192983   28.804518   43.109827
  H    -26.695040   28.394844   45.754050

 Multiplicity           Mult            ....    1
 Number of Electrons    NEL             ....  102
 Basis Dimension        Dim             ....  149

ORBITAL ENERGIES
----------------

  NO   OCC          E(Eh)            E(eV)
   0   2.0000     -19.147221      -521.0224
   1   2.0000     -19.145749      -520.9823
   2   2.0000     -19.143461      -520.9201
   3   2.0000     -19.137210      -520.7500
   4   2.0000     -10.283458      -279.8271
   5   2.0000     -10.238690      -278.6089
   6   2.0000     -10.235360      -278.5183
   7   2.0000     -10.234682      -278.4998
   8   2.0000     -10.234579      -278.4971
   9   2.0000     -10.227580      -278.3066
  10   2.0000     -10.192459      -277.3509
  11   2.0000     -10.191244      -277.3178
  12   2.0000     -10.190940      -277.3096
  13   2.0000      -1.057307       -28.7708
  14   2.0000      -1.038439       -28.2574
  15   2.0000      -1.006427       -27.3863
  16   2.0000      -0.999062       -27.1859
  17   2.0000      -0.791222       -21.5302
  18   2.0000      -0.782436       -21.2912
  19   2.0000      -0.770792       -20.9743
  20   2.0000      -0.733396       -19.9567
  21   2.0000      -0.678344       -18.4587
  22   2.0000      -0.606588       -16.5061
  23   2.0000      -0.605002       -16.4630
  24   2.0000      -0.591966       -16.1082
  25   2.0000      -0.585148       -15.9227
  26   2.0000      -0.527140       -14.3442
  27   2.0000      -0.518309       -14.1039
  28   2.0000      -0.500238       -13.6122
  29   2.0000      -0.494089       -13.4448
  30   2.0000      -0.475141       -12.9292
  31   2.0000      -0.457316       -12.4442
  32   2.0000      -0.454333       -12.3630
  33   2.0000      -0.445064       -12.1108
  34   2.0000      -0.426124       -11.5954
  35   2.0000      -0.417868       -11.3708
  36   2.0000      -0.405897       -11.0450
  37   2.0000      -0.395053       -10.7499
  38   2.0000      -0.378336       -10.2950
  39   2.0000      -0.371050       -10.0968
  40   2.0000      -0.364913        -9.9298
  41   2.0000      -0.359666        -9.7870
  42   2.0000      -0.356524        -9.7015
  43   2.0000      -0.333595        -9.0776
  44   2.0000      -0.317719        -8.6456
  45   2.0000      -0.312406        -8.5010
  46   2.0000      -0.305954        -8.3254
  47   2.0000      -0.273041        -7.4298
  48   2.0000      -0.262866        -7.1529
  49   2.0000      -0.258368        -7.0306
  50   2.0000      -0.247556        -6.7363
  51   0.0000       0.054751         1.4898
  52   0.0000       0.064994         1.7686
  53   0.0000       0.088645         2.4121
  54   0.0000       0.096948         2.6381
  55   0.0000       0.101388         2.7589

MULLIKEN ATOMIC CHARGES
-----------------------
   0 C :    0.307073
   1 C :   -0.275354
   2 C :   -0.302432
   3 C :   -0.002468
   4 O :   -0.501892
   5 H :    0.141442
   6 H :    0.149142
   7 H :    0.139135
   8 H :    0.144333
   9 H :    0.161525
  10 H :    0.157806
  11 H :    0.143632
  12 C :   -0.009296
  13 H :    0.121149
  14 H :    0.151540
  15 O :   -0.515712
  16 C :    0.054080
  17 C :    0.083368
  18 C :   -0.299599
  19 C :   -0.032870
  20 O :   -0.525870
  21 H :    0.174911
  22 O :   -0.602045
  23 H :    0.175077
  24 H :    0.163685
  25 H :    0.140584
  26 H :    0.145961
  27 H :    0.148951
  28 H :    0.364145
Sum of atomic charges:   -0.0000000

LOEWDIN ATOMIC CHARGES
----------------------
   0 C :    0.180892
   1 C :   -0.230556
   2 C :   -0.216990
   3 C :   -0.024696
   4 O :   -0.301902
   5 H :    0.097584
   6 H :    0.116278
   7 H :    0.111100
   8 H :    0.115506
   9 H :    0.115931
  10 H :    0.111306
  11 H :    0.103519
  12 C :   -0.042016
  13 H :    0.087191
  14 H :    0.106420
  15 O :   -0.335332
  16 C :    0.018922
  17 C :    0.037778
  18 C :   -0.242369
  19 C :   -0.039034
  20 O :   -0.329826
  21 H :    0.122447
  22 O :   -0.413830
  23 H :    0.123919
  24 H :    0.127546
  25 H :    0.110181
  26 H :    0.103542
  27 H :    0.104050
  28 H :    0.282439

  Mayer bond orders larger than 0.100000
B(  0-C ,  1-C ) :   0.9292 B(  0-C ,  4-O ) :   0.9401 B(  0-C ,  5-H ) :   0.9207
B(  0-C , 15-O ) :   0.8256 B(  1-C ,  2-C ) :   0.9519 B(  1-C ,  6-H ) :   0.9336
B(  1-C ,  7-H ) :   0.9335 B(  2-C ,  3-C ) :   0.9552 B(  2-C ,  8-H ) :   0.9446
B(  2-C ,  9-H ) :   0.9416 B(  3-C ,  4-O ) :   0.8347 B(  3-C , 10-H ) :   0.9339
B(  3-C , 11-H ) :   0.9395 B( 12-C , 13-H ) :   0.9123 B( 12-C , 14-H ) :   0.9151
B( 12-C , 15-O ) :   0.8308 B( 12-C , 16-C ) :   0.9089 B( 16-C , 17-C ) :   0.9127
B( 16-C , 20-O ) :   0.8422 B( 16-C , 21-H ) :   0.9230 B( 17-C , 18-C ) :   0.9109
B( 17-C , 22-O ) :   0.8925 B( 17-C , 23-H ) :   0.9214 B( 18-C , 19-C ) :   0.9416
B( 18-C , 24-H ) :   0.9373 B( 18-C , 25-H ) :   0.9349 B( 19-C , 20-O ) :   0.8440
B( 19-C , 26-H ) :   0.9354 B( 19-C , 27-H ) :   0.9378 B( 22-O , 28-H ) :   0.7946

FINAL SINGLE POINT ENERGY      -652.862014656231

DIPOLE MOMENT
-------------
                                X             Y             Z
Electronic contribution:     -3.96419      -4.79800       1.68251
Nuclear contribution   :      4.83127       5.78772      -2.67266
                        -----------------------------------------
Total Dipole Moment    :      0.86708       0.98972      -0.99016
                        -----------------------------------------
Magnitude (a.u.)       :      1.64675
Magnitude (Debye)      :      4.18570

Rotational constants in cm-1:     0.052466     0.013400     0.012844
Rotational constants in MHz :  1572.891504   401.725681   385.059443

                             ****ORCA TERMINATED NORMALLY****
TOTAL RUN TIME: 0 days 0 hours 22 minutes 12 seconds 383 msec
