                         Program Version 4.2.0 -  RELEASE  -
|  1> # Test redundant internal optimization
|  2> #
|  3> ! RKS B3LYP  Opt TightSCF SmallPrint
|  4>
|  5> %basis
|  6>         Basis "6-31G"
|  7> end
|  8>
|  9> %geom
| 10> Constraints
| 11> { D 4  0  15  12  0.0   C } # D for Dihedral angle
| 12> { D 0  15  12  16  255.0   C } # D for Dihedral angle
| 13> { D 0  4  3  2   C } # D for Dihedral angle
| 14> { D 4  3  2  1   C } # D for Dihedral angle
| 15> { D 3  2  1  0   C } # D for Dihedral angle
| 16> { D 2  1  0  4   C } # D for Dihedral angle
| 17> { D 1  0  4  3   C } # D for Dihedral angle
| 18> { D 16  20  19  18   C } # D for Dihedral angle
| 19> { D 20  19  18  17   C } # D for Dihedral angle
| 20> { D 19  18  17  16   C } # D for Dihedral angle
| 21> { D 18  17  16  20   C } # D for Dihedral angle
| 22> { D 17  16  20  19   C } # D for Dihedral angle
| 23> { D 15  12  16  20   C } # D for Dihedral angle
| 24> end
| 25> end
| 26>
| 27>
| 28> #%pal
| 29> #nprocs 8
| 30> #end
| 31>
| 32> * xyz 0 1
| 33> C  -21.048   26.222   46.251
| 34> C  -20.361   27.558   45.944
| 35> C  -20.329   28.222   47.341
| 36> C  -20.110   27.022   48.296
| 37> O  -20.473   25.807   47.535
| 38> H  -20.833   25.428   45.533
| 39> H  -19.344   27.382   45.576
| 40> H  -20.898   28.157   45.201
| 41> H  -19.543   28.978   47.434
| 42> H  -21.289   28.710   47.548
| 43> H  -20.733   27.082   49.195
| 44> H  -19.064   26.913   48.597
| 45> C  -23.172   26.101   47.783
| 46> H  -22.358   26.087   48.518
| 47> H  -23.883   26.884   48.074
| 48> O  -22.586   26.394   46.375
| 49> C  -23.915   24.738   47.853
| 50> C  -22.953   23.567   47.625
| 51> C  -22.276   23.443   49.012
| 52> C  -23.419   23.805   49.994
| 53> O  -24.447   24.512   49.201
| 54> H  -24.769   24.761   47.172
| 55> H  -23.517   22.658   47.388
| 56> O  -21.937   23.825   46.479
| 57> H  -21.867   22.445   49.196
| 58> H  -21.454   24.164   49.094
| 59> H  -23.082   24.455   50.807
| 60> H  -23.895   22.919   50.423
| 61> H  -21.361   24.732   46.696
| 62> *
| 63>
| 64>                          ****END OF INPUT****
 Total Charge           Charge          ....    0
 Multiplicity           Mult            ....    1
 Number of Electrons    NEL             ....  102
FINAL SINGLE POINT ENERGY      -652.793827143381
FINAL SINGLE POINT ENERGY      -652.838810775534
FINAL SINGLE POINT ENERGY      -652.854888928993
FINAL SINGLE POINT ENERGY      -652.858656097082
FINAL SINGLE POINT ENERGY      -652.859541885364
FINAL SINGLE POINT ENERGY      -652.859639880922
FINAL SINGLE POINT ENERGY      -652.859671638723
FINAL SINGLE POINT ENERGY      -652.859676109965
FINAL SINGLE POINT ENERGY      -652.859677992243
                    ***********************HURRAY********************

CARTESIAN COORDINATES (ANGSTROEM)
---------------------------------
  C    -21.052019   26.325426   46.300092
  C    -20.480185   27.703098   45.954168
  C    -20.302622   28.333685   47.357262
  C    -19.901939   27.126425   48.237917
  O    -20.306962   25.913712   47.471350
  H    -20.885585   25.562858   45.536972
  H    -19.514945   27.579411   45.449664
  H    -21.154545   28.268047   45.308016
  H    -19.543735   29.121644   47.373833
  H    -21.249694   28.765535   47.695203
  H    -20.403182   27.112183   49.209342
  H    -18.821452   27.049041   48.387705
  C    -23.126828   26.105791   47.773577
  H    -22.403125   26.134486   48.595465
  H    -23.866498   26.894371   47.935791
  O    -22.477483   26.407175   46.506070
  C    -23.855127   24.750576   47.784820
  C    -22.975570   23.493177   47.620951
  C    -22.361455   23.336289   49.055755
  C    -23.521271   23.809855   49.960478
  O    -24.453948   24.583656   49.108065
  H    -24.673066   24.766062   47.060151
  H    -23.626045   22.645545   47.389459
  O    -21.964433   23.493784   46.591268
  H    -22.054618   22.307622   49.259728
  H    -21.483379   23.986948   49.138552
  H    -23.188472   24.444696   50.788660
  H    -24.091181   22.971628   50.372694
  H    -21.176636   23.978275   46.917992

 Multiplicity           Mult            ....    1
 Number of Electrons    NEL             ....  102
 Basis Dimension        Dim             ....  149

ORBITAL ENERGIES
----------------

  NO   OCC          E(Eh)            E(eV)
   0   2.0000     -19.165858      -521.5295
   1   2.0000     -19.136651      -520.7347
   2   2.0000     -19.136628      -520.7341
   3   2.0000     -19.128654      -520.5171
   4   2.0000     -10.284696      -279.8608
   5   2.0000     -10.243633      -278.7434
   6   2.0000     -10.232882      -278.4509
   7   2.0000     -10.226735      -278.2836
   8   2.0000     -10.226201      -278.2691
   9   2.0000     -10.223313      -278.1905
  10   2.0000     -10.197525      -277.4888
  11   2.0000     -10.190243      -277.2906
  12   2.0000     -10.184216      -277.1266
  13   2.0000      -1.064655       -28.9707
  14   2.0000      -1.024595       -27.8806
  15   2.0000      -1.004876       -27.3441
  16   2.0000      -0.996697       -27.1215
  17   2.0000      -0.796896       -21.6847
  18   2.0000      -0.771854       -21.0032
  19   2.0000      -0.766339       -20.8531
  20   2.0000      -0.734747       -19.9935
  21   2.0000      -0.676394       -18.4056
  22   2.0000      -0.611269       -16.6335
  23   2.0000      -0.606505       -16.5039
  24   2.0000      -0.596686       -16.2367
  25   2.0000      -0.563788       -15.3415
  26   2.0000      -0.524882       -14.2828
  27   2.0000      -0.518658       -14.1134
  28   2.0000      -0.501111       -13.6359
  29   2.0000      -0.490213       -13.3394
  30   2.0000      -0.472379       -12.8541
  31   2.0000      -0.458068       -12.4647
  32   2.0000      -0.444229       -12.0881
  33   2.0000      -0.429416       -11.6850
  34   2.0000      -0.423167       -11.5150
  35   2.0000      -0.413645       -11.2559
  36   2.0000      -0.407891       -11.0993
  37   2.0000      -0.402816       -10.9612
  38   2.0000      -0.379081       -10.3153
  39   2.0000      -0.367758       -10.0072
  40   2.0000      -0.363368        -9.8878
  41   2.0000      -0.356974        -9.7137
  42   2.0000      -0.351459        -9.5637
  43   2.0000      -0.339263        -9.2318
  44   2.0000      -0.321267        -8.7421
  45   2.0000      -0.310044        -8.4367
  46   2.0000      -0.301712        -8.2100
  47   2.0000      -0.276120        -7.5136
  48   2.0000      -0.263829        -7.1791
  49   2.0000      -0.254530        -6.9261
  50   2.0000      -0.228352        -6.2138
  51   0.0000       0.060775         1.6538
  52   0.0000       0.077421         2.1067
  53   0.0000       0.088086         2.3969
  54   0.0000       0.096429         2.6240
  55   0.0000       0.102165         2.7800

MULLIKEN ATOMIC CHARGES
-----------------------
   0 C :    0.289168
   1 C :   -0.255801
   2 C :   -0.307895
   3 C :   -0.016484
   4 O :   -0.545743
   5 H :    0.173096
   6 H :    0.145385
   7 H :    0.166925
   8 H :    0.150684
   9 H :    0.159934
  10 H :    0.148715
  11 H :    0.156245
  12 C :   -0.019081
  13 H :    0.135492
  14 H :    0.159225
  15 O :   -0.534824
  16 C :    0.081869
  17 C :    0.109778
  18 C :   -0.339921
  19 C :   -0.011586
  20 O :   -0.522876
  21 H :    0.159630
  22 H :    0.156396
  23 O :   -0.617026
  24 H :    0.151201
  25 H :    0.156158
  26 H :    0.136752
  27 H :    0.148399
  28 H :    0.386184
Sum of atomic charges:   -0.0000000

LOEWDIN ATOMIC CHARGES
----------------------
   0 C :    0.174761
   1 C :   -0.218372
   2 C :   -0.218013
   3 C :   -0.030629
   4 O :   -0.338594
   5 H :    0.109988
   6 H :    0.114110
   7 H :    0.129343
   8 H :    0.119139
   9 H :    0.117467
  10 H :    0.103430
  11 H :    0.109391
  12 C :   -0.042075
  13 H :    0.098218
  14 H :    0.114806
  15 O :   -0.336159
  16 C :    0.015793
  17 C :    0.040676
  18 C :   -0.246604
  19 C :   -0.032199
  20 O :   -0.323652
  21 H :    0.115642
  22 H :    0.112728
  23 O :   -0.411209
  24 H :    0.120551
  25 H :    0.114138
  26 H :    0.098350
  27 H :    0.104969
  28 H :    0.284008

  Mayer bond orders larger than 0.100000
B(  0-C ,  1-C ) :   0.9311 B(  0-C ,  4-O ) :   0.8657 B(  0-C ,  5-H ) :   0.9155
B(  0-C , 15-O ) :   0.8563 B(  1-C ,  2-C ) :   0.9504 B(  1-C ,  6-H ) :   0.9351
B(  1-C ,  7-H ) :   0.9361 B(  2-C ,  3-C ) :   0.9548 B(  2-C ,  8-H ) :   0.9441
B(  2-C ,  9-H ) :   0.9444 B(  3-C ,  4-O ) :   0.8122 B(  3-C , 10-H ) :   0.9314
B(  3-C , 11-H ) :   0.9403 B( 12-C , 13-H ) :   0.9177 B( 12-C , 14-H ) :   0.9348
B( 12-C , 15-O ) :   0.8307 B( 12-C , 16-C ) :   0.8928 B( 16-C , 17-C ) :   0.8840
B( 16-C , 20-O ) :   0.8334 B( 16-C , 21-H ) :   0.9328 B( 17-C , 18-C ) :   0.9259
B( 17-C , 22-H ) :   0.9346 B( 17-C , 23-O ) :   0.9155 B( 18-C , 19-C ) :   0.9420
B( 18-C , 24-H ) :   0.9427 B( 18-C , 25-H ) :   0.9316 B( 19-C , 20-O ) :   0.8396
B( 19-C , 26-H ) :   0.9338 B( 19-C , 27-H ) :   0.9386 B( 23-O , 28-H ) :   0.7547

FINAL SINGLE POINT ENERGY      -652.859678295521

DIPOLE MOMENT
-------------
                                X             Y             Z
Electronic contribution:     -3.28460      -2.84932      -2.70281
Nuclear contribution   :      4.42934       3.67748       3.46616
                        -----------------------------------------
Total Dipole Moment    :      1.14474       0.82816       0.76335
                        -----------------------------------------
Magnitude (a.u.)       :      1.60592
Magnitude (Debye)      :      4.08194

Rotational constants in cm-1:     0.049345     0.016650     0.016270
Rotational constants in MHz :  1479.312540   499.141369   487.766280

                             ****ORCA TERMINATED NORMALLY****
TOTAL RUN TIME: 0 days 0 hours 32 minutes 18 seconds 940 msec
