                         Program Version 4.2.0 -  RELEASE  -
|  1> # Test redundant internal optimization
|  2> #
|  3> ! RKS B3LYP  Opt TightSCF SmallPrint
|  4>
|  5> %basis
|  6>         Basis "6-31G"
|  7> end
|  8>
|  9> %geom
| 10> Constraints
| 11> { D 4  0  15  12  300.0   C } # D for Dihedral angle
| 12> { D 0  15  12  16  255.0   C } # D for Dihedral angle
| 13> { D 0  4  3  2   C } # D for Dihedral angle
| 14> { D 4  3  2  1   C } # D for Dihedral angle
| 15> { D 3  2  1  0   C } # D for Dihedral angle
| 16> { D 2  1  0  4   C } # D for Dihedral angle
| 17> { D 1  0  4  3   C } # D for Dihedral angle
| 18> { D 16  20  19  18   C } # D for Dihedral angle
| 19> { D 20  19  18  17   C } # D for Dihedral angle
| 20> { D 19  18  17  16   C } # D for Dihedral angle
| 21> { D 18  17  16  20   C } # D for Dihedral angle
| 22> { D 17  16  20  19   C } # D for Dihedral angle
| 23> { D 15  12  16  20   C } # D for Dihedral angle
| 24> end
| 25> end
| 26>
| 27>
| 28> #%pal
| 29> #nprocs 8
| 30> #end
| 31>
| 32> * xyz 0 1
| 33> C  -21.048   26.222   46.251
| 34> C  -20.361   27.558   45.944
| 35> C  -20.329   28.222   47.341
| 36> C  -20.110   27.022   48.296
| 37> O  -20.473   25.807   47.535
| 38> H  -20.833   25.428   45.533
| 39> H  -19.344   27.382   45.576
| 40> H  -20.898   28.157   45.201
| 41> H  -19.543   28.978   47.434
| 42> H  -21.289   28.710   47.548
| 43> H  -20.733   27.082   49.195
| 44> H  -19.064   26.913   48.597
| 45> C  -23.362   25.116   46.798
| 46> H  -22.655   24.381   47.202
| 47> H  -24.095   25.353   47.580
| 48> O  -22.586   26.394   46.375
| 49> C  -24.127   24.460   45.616
| 50> C  -23.159   23.941   44.546
| 51> C  -22.679   22.612   45.175
| 52> C  -23.939   22.098   45.916
| 53> O  -24.839   23.261   46.070
| 54> H  -24.880   25.158   45.245
| 55> H  -23.699   23.754   43.610
| 56> O  -21.994   24.924   44.249
| 57> H  -22.312   21.898   44.430
| 58> H  -21.864   22.804   45.883
| 59> H  -23.706   21.691   46.906
| 60> H  -24.481   21.343   45.342
| 61> H  -21.439   25.127   45.172
| 62> *
| 63>
| 64>                          ****END OF INPUT****
 Total Charge           Charge          ....    0
 Multiplicity           Mult            ....    1
 Number of Electrons    NEL             ....  102
FINAL SINGLE POINT ENERGY      -652.749535355964
FINAL SINGLE POINT ENERGY      -652.795041417928
FINAL SINGLE POINT ENERGY      -652.822476689859
FINAL SINGLE POINT ENERGY      -652.837881961852
FINAL SINGLE POINT ENERGY      -652.846763039136
FINAL SINGLE POINT ENERGY      -652.851759214701
FINAL SINGLE POINT ENERGY      -652.854393831045
FINAL SINGLE POINT ENERGY      -652.855528264952
FINAL SINGLE POINT ENERGY      -652.855733254623
FINAL SINGLE POINT ENERGY      -652.855927658030
FINAL SINGLE POINT ENERGY      -652.857102726277
FINAL SINGLE POINT ENERGY      -652.857104019051
FINAL SINGLE POINT ENERGY      -652.857105391323
FINAL SINGLE POINT ENERGY      -652.857106832562
FINAL SINGLE POINT ENERGY      -652.857108036793
FINAL SINGLE POINT ENERGY      -652.857108890366
FINAL SINGLE POINT ENERGY      -652.857109548160
FINAL SINGLE POINT ENERGY      -652.857110229649
FINAL SINGLE POINT ENERGY      -652.857111054935
                    ***********************HURRAY********************

CARTESIAN COORDINATES (ANGSTROEM)
---------------------------------
  C    -20.981598   26.219027   46.324341
  C    -20.360352   27.591948   46.069596
  C    -20.414999   28.226873   47.476364
  C    -20.166410   27.028085   48.417849
  O    -20.440451   25.810918   47.604048
  H    -20.676397   25.422678   45.634993
  H    -19.325439   27.463037   45.733273
  H    -20.912688   28.160229   45.318615
  H    -19.671152   29.018336   47.608176
  H    -21.408268   28.651383   47.646620
  H    -20.824650   27.022609   49.290129
  H    -19.126689   26.951099   48.747942
  C    -23.216888   25.224726   46.722832
  H    -22.583002   24.509108   47.260121
  H    -23.974061   25.585520   47.422318
  O    -22.409240   26.394771   46.360781
  C    -23.974176   24.516643   45.575250
  C    -23.212959   23.830294   44.422444
  C    -22.711227   22.517385   45.105757
  C    -23.870247   22.176373   46.068795
  O    -24.669018   23.415731   46.241119
  H    -24.739858   25.190009   45.179380
  H    -23.959602   23.560728   43.669646
  O    -22.245292   24.585474   43.675912
  H    -22.517586   21.728242   44.374919
  H    -21.777728   22.710194   45.649659
  H    -23.525446   21.839096   47.050837
  H    -24.545427   21.421185   45.654900
  H    -21.600150   25.024296   44.259386

 Multiplicity           Mult            ....    1
 Number of Electrons    NEL             ....  102
 Basis Dimension        Dim             ....  149

ORBITAL ENERGIES
----------------

  NO   OCC          E(Eh)            E(eV)
   0   2.0000     -19.151462      -521.1378
   1   2.0000     -19.149481      -521.0839
   2   2.0000     -19.143628      -520.9246
   3   2.0000     -19.141625      -520.8701
   4   2.0000     -10.291224      -280.0384
   5   2.0000     -10.241678      -278.6902
   6   2.0000     -10.232657      -278.4447
   7   2.0000     -10.231703      -278.4188
   8   2.0000     -10.229742      -278.3654
   9   2.0000     -10.227623      -278.3078
  10   2.0000     -10.192059      -277.3400
  11   2.0000     -10.190419      -277.2954
  12   2.0000     -10.187932      -277.2277
  13   2.0000      -1.062046       -28.8997
  14   2.0000      -1.032459       -28.0946
  15   2.0000      -1.016985       -27.6736
  16   2.0000      -0.999314       -27.1927
  17   2.0000      -0.795118       -21.6363
  18   2.0000      -0.776867       -21.1396
  19   2.0000      -0.766352       -20.8535
  20   2.0000      -0.736221       -20.0336
  21   2.0000      -0.679572       -18.4921
  22   2.0000      -0.612914       -16.6782
  23   2.0000      -0.605041       -16.4640
  24   2.0000      -0.598766       -16.2933
  25   2.0000      -0.575016       -15.6470
  26   2.0000      -0.532382       -14.4869
  27   2.0000      -0.522200       -14.2098
  28   2.0000      -0.499065       -13.5802
  29   2.0000      -0.491753       -13.3813
  30   2.0000      -0.469912       -12.7870
  31   2.0000      -0.457733       -12.4555
  32   2.0000      -0.445254       -12.1160
  33   2.0000      -0.430633       -11.7181
  34   2.0000      -0.430089       -11.7033
  35   2.0000      -0.412117       -11.2143
  36   2.0000      -0.407866       -11.0986
  37   2.0000      -0.403793       -10.9878
  38   2.0000      -0.382570       -10.4103
  39   2.0000      -0.367967       -10.0129
  40   2.0000      -0.363384        -9.8882
  41   2.0000      -0.355285        -9.6678
  42   2.0000      -0.353371        -9.6157
  43   2.0000      -0.335304        -9.1241
  44   2.0000      -0.333663        -9.0794
  45   2.0000      -0.307349        -8.3634
  46   2.0000      -0.301066        -8.1924
  47   2.0000      -0.281067        -7.6482
  48   2.0000      -0.265712        -7.2304
  49   2.0000      -0.263332        -7.1656
  50   2.0000      -0.240847        -6.5538
  51   0.0000       0.046285         1.2595
  52   0.0000       0.076958         2.0941
  53   0.0000       0.087293         2.3754
  54   0.0000       0.094312         2.5664
  55   0.0000       0.101139         2.7521

MULLIKEN ATOMIC CHARGES
-----------------------
   0 C :    0.281976
   1 C :   -0.260127
   2 C :   -0.297582
   3 C :   -0.007484
   4 O :   -0.518756
   5 H :    0.114787
   6 H :    0.147157
   7 H :    0.165204
   8 H :    0.144683
   9 H :    0.167316
  10 H :    0.152153
  11 H :    0.146069
  12 C :   -0.032764
  13 H :    0.156647
  14 H :    0.170299
  15 O :   -0.522621
  16 C :    0.066510
  17 C :    0.089750
  18 C :   -0.316844
  19 C :   -0.014774
  20 O :   -0.519206
  21 H :    0.159874
  22 H :    0.167546
  23 O :   -0.608147
  24 H :    0.156223
  25 H :    0.143232
  26 H :    0.146178
  27 H :    0.151118
  28 H :    0.371583
Sum of atomic charges:   -0.0000000

LOEWDIN ATOMIC CHARGES
----------------------
   0 C :    0.164291
   1 C :   -0.213883
   2 C :   -0.214535
   3 C :   -0.026949
   4 O :   -0.329405
   5 H :    0.078053
   6 H :    0.115378
   7 H :    0.128238
   8 H :    0.115472
   9 H :    0.121705
  10 H :    0.107983
  11 H :    0.104810
  12 C :   -0.053035
  13 H :    0.109833
  14 H :    0.123105
  15 O :   -0.330842
  16 C :    0.013844
  17 C :    0.036110
  18 C :   -0.243363
  19 C :   -0.030938
  20 O :   -0.320951
  21 H :    0.114775
  22 H :    0.117902
  23 O :   -0.401415
  24 H :    0.122652
  25 H :    0.108916
  26 H :    0.103684
  27 H :    0.106425
  28 H :    0.272140

  Mayer bond orders larger than 0.100000
B(  0-C ,  1-C ) :   0.9497 B(  0-C ,  4-O ) :   0.8932 B(  0-C ,  5-H ) :   0.8841
B(  0-C , 15-O ) :   0.8711 B(  1-C ,  2-C ) :   0.9572 B(  1-C ,  6-H ) :   0.9385
B(  1-C ,  7-H ) :   0.9335 B(  2-C ,  3-C ) :   0.9555 B(  2-C ,  8-H ) :   0.9446
B(  2-C ,  9-H ) :   0.9432 B(  3-C ,  4-O ) :   0.8301 B(  3-C , 10-H ) :   0.9354
B(  3-C , 11-H ) :   0.9402 B( 12-C , 13-H ) :   0.9189 B( 12-C , 14-H ) :   0.9341
B( 12-C , 15-O ) :   0.8125 B( 12-C , 16-C ) :   0.8947 B( 16-C , 17-C ) :   0.8943
B( 16-C , 20-O ) :   0.8330 B( 16-C , 21-H ) :   0.9302 B( 17-C , 18-C ) :   0.9111
B( 17-C , 22-H ) :   0.9308 B( 17-C , 23-O ) :   0.9224 B( 18-C , 19-C ) :   0.9376
B( 18-C , 24-H ) :   0.9426 B( 18-C , 25-H ) :   0.9429 B( 19-C , 20-O ) :   0.8330
B( 19-C , 26-H ) :   0.9328 B( 19-C , 27-H ) :   0.9381 B( 23-O , 28-H ) :   0.7583

FINAL SINGLE POINT ENERGY      -652.857111966385

DIPOLE MOMENT
-------------
                                X             Y             Z
Electronic contribution:     -2.99841      -0.92237      -1.47177
Nuclear contribution   :      3.82081       1.14698       1.90948
                        -----------------------------------------
Total Dipole Moment    :      0.82241       0.22461       0.43770
                        -----------------------------------------
Magnitude (a.u.)       :      0.95832
Magnitude (Debye)      :      2.43587

Rotational constants in cm-1:     0.053624     0.014134     0.013146
Rotational constants in MHz :  1607.614271   423.731954   394.095051

                             ****ORCA TERMINATED NORMALLY****
TOTAL RUN TIME: 0 days 2 hours 9 minutes 53 seconds 299 msec
