                         Program Version 4.2.0 -  RELEASE  -
|  1> # Test redundant internal optimization
|  2> #
|  3> ! RKS B3LYP  Opt TightSCF SmallPrint
|  4>
|  5> %basis
|  6>         Basis "6-31G"
|  7> end
|  8>
|  9> %geom
| 10> Constraints
| 11> { D 4  0  15  12  300.0   C } # D for Dihedral angle
| 12> { D 0  15  12  16  135.0   C } # D for Dihedral angle
| 13> { D 0  4  3  2   C } # D for Dihedral angle
| 14> { D 4  3  2  1   C } # D for Dihedral angle
| 15> { D 3  2  1  0   C } # D for Dihedral angle
| 16> { D 2  1  0  4   C } # D for Dihedral angle
| 17> { D 1  0  4  3   C } # D for Dihedral angle
| 18> { D 16  20  19  18   C } # D for Dihedral angle
| 19> { D 20  19  18  17   C } # D for Dihedral angle
| 20> { D 19  18  17  16   C } # D for Dihedral angle
| 21> { D 18  17  16  20   C } # D for Dihedral angle
| 22> { D 17  16  20  19   C } # D for Dihedral angle
| 23> { D 15  12  16  20   C } # D for Dihedral angle
| 24> end
| 25> end
| 26>
| 27>
| 28> #%pal
| 29> #nprocs 8
| 30> #end
| 31>
| 32> * xyz 0 1
| 33> C  -21.048   26.222   46.251
| 34> C  -20.361   27.558   45.944
| 35> C  -20.329   28.222   47.341
| 36> C  -20.110   27.022   48.296
| 37> O  -20.473   25.807   47.535
| 38> H  -20.833   25.428   45.533
| 39> H  -19.344   27.382   45.576
| 40> H  -20.898   28.157   45.201
| 41> H  -19.543   28.978   47.434
| 42> H  -21.289   28.710   47.548
| 43> H  -20.733   27.082   49.195
| 44> H  -19.064   26.913   48.597
| 45> C  -23.362   25.116   46.798
| 46> H  -23.871   24.696   45.922
| 47> H  -22.670   24.359   47.188
| 48> O  -22.586   26.394   46.375
| 49> C  -24.425   25.395   47.895
| 50> C  -23.798   26.069   49.121
| 51> C  -23.680   27.537   48.645
| 52> C  -24.940   27.723   47.763
| 53> O  -25.414   26.366   47.416
| 54> H  -24.964   24.471   48.114
| 55> H  -24.475   25.994   49.979
| 56> O  -22.429   25.455   49.522
| 57> H  -23.642   28.250   49.475
| 58> H  -22.769   27.668   48.049
| 59> H  -24.729   28.277   46.842
| 60> H  -25.754   28.221   48.298
| 61> H  -21.735   25.519   48.676
| 62> *
| 63>
| 64>                          ****END OF INPUT****
 Total Charge           Charge          ....    0
 Multiplicity           Mult            ....    1
 Number of Electrons    NEL             ....  102
FINAL SINGLE POINT ENERGY      -652.839464700031
FINAL SINGLE POINT ENERGY      -652.860566961132
FINAL SINGLE POINT ENERGY      -652.866716798645
FINAL SINGLE POINT ENERGY      -652.869742896648
FINAL SINGLE POINT ENERGY      -652.870048840092
FINAL SINGLE POINT ENERGY      -652.870329232544
FINAL SINGLE POINT ENERGY      -652.870347493956
FINAL SINGLE POINT ENERGY      -652.870350176484
                    ***********************HURRAY********************

CARTESIAN COORDINATES (ANGSTROEM)
---------------------------------
  C    -21.064791   26.185775   46.263851
  C    -20.344127   27.481145   45.872714
  C    -20.257814   28.209537   47.233926
  C    -20.053412   27.065268   48.250971
  O    -20.480490   25.810822   47.546344
  H    -20.843791   25.338673   45.604221
  H    -19.349987   27.229989   45.490091
  H    -20.893738   28.041375   45.113859
  H    -19.436803   28.932776   47.269679
  H    -21.188926   28.749724   47.427752
  H    -20.648906   27.170905   49.160343
  H    -19.004166   26.918578   48.518339
  C    -23.236013   25.181611   46.751462
  H    -23.718979   24.774011   45.855985
  H    -22.546276   24.428588   47.150146
  O    -22.486378   26.377681   46.324605
  C    -24.317359   25.462755   47.788616
  C    -23.837242   26.054846   49.124379
  C    -23.810473   27.579744   48.806320
  C    -25.012511   27.751986   47.854624
  O    -25.341401   26.394964   47.337925
  H    -24.829032   24.505119   47.949036
  H    -24.577638   25.845737   49.900365
  O    -22.602470   25.499121   49.625834
  H    -23.897665   28.185402   49.712690
  H    -22.878063   27.824712   48.299572
  H    -24.791604   28.402977   47.004397
  H    -25.907962   28.117643   48.366904
  H    -21.909982   25.469536   48.924048

 Multiplicity           Mult            ....    1
 Number of Electrons    NEL             ....  102
 Basis Dimension        Dim             ....  149

ORBITAL ENERGIES
----------------

  NO   OCC          E(Eh)            E(eV)
   0   2.0000     -19.165877      -521.5300
   1   2.0000     -19.157359      -521.2982
   2   2.0000     -19.131263      -520.5881
   3   2.0000     -19.125221      -520.4237
   4   2.0000     -10.291847      -280.0554
   5   2.0000     -10.238604      -278.6066
   6   2.0000     -10.232530      -278.4413
   7   2.0000     -10.230957      -278.3985
   8   2.0000     -10.229949      -278.3711
   9   2.0000     -10.218830      -278.0685
  10   2.0000     -10.198690      -277.5205
  11   2.0000     -10.198338      -277.5109
  12   2.0000     -10.174461      -276.8612
  13   2.0000      -1.069116       -29.0921
  14   2.0000      -1.020831       -27.7782
  15   2.0000      -1.007142       -27.4057
  16   2.0000      -0.998099       -27.1597
  17   2.0000      -0.801956       -21.8223
  18   2.0000      -0.771995       -21.0070
  19   2.0000      -0.764317       -20.7981
  20   2.0000      -0.739542       -20.1240
  21   2.0000      -0.678623       -18.4663
  22   2.0000      -0.612763       -16.6741
  23   2.0000      -0.602043       -16.3824
  24   2.0000      -0.594655       -16.1814
  25   2.0000      -0.575549       -15.6615
  26   2.0000      -0.523518       -14.2457
  27   2.0000      -0.514230       -13.9929
  28   2.0000      -0.512780       -13.9534
  29   2.0000      -0.487154       -13.2561
  30   2.0000      -0.475213       -12.9312
  31   2.0000      -0.465535       -12.6679
  32   2.0000      -0.435622       -11.8539
  33   2.0000      -0.434899       -11.8342
  34   2.0000      -0.420861       -11.4522
  35   2.0000      -0.415886       -11.3168
  36   2.0000      -0.405570       -11.0361
  37   2.0000      -0.396284       -10.7834
  38   2.0000      -0.379369       -10.3232
  39   2.0000      -0.371582       -10.1113
  40   2.0000      -0.367923       -10.0117
  41   2.0000      -0.359311        -9.7774
  42   2.0000      -0.350135        -9.5277
  43   2.0000      -0.344692        -9.3795
  44   2.0000      -0.325252        -8.8506
  45   2.0000      -0.316489        -8.6121
  46   2.0000      -0.296896        -8.0790
  47   2.0000      -0.278559        -7.5800
  48   2.0000      -0.270491        -7.3604
  49   2.0000      -0.254234        -6.9181
  50   2.0000      -0.235724        -6.4144
  51   0.0000       0.069053         1.8790
  52   0.0000       0.085391         2.3236
  53   0.0000       0.090833         2.4717
  54   0.0000       0.096301         2.6205
  55   0.0000       0.098555         2.6818

MULLIKEN ATOMIC CHARGES
-----------------------
   0 C :    0.279978
   1 C :   -0.263194
   2 C :   -0.306689
   3 C :   -0.036529
   4 O :   -0.526060
   5 H :    0.152703
   6 H :    0.153748
   7 H :    0.166626
   8 H :    0.150023
   9 H :    0.167671
  10 H :    0.163056
  11 H :    0.156231
  12 C :   -0.040799
  13 H :    0.159586
  14 H :    0.155483
  15 O :   -0.517011
  16 C :    0.086697
  17 C :    0.084632
  18 C :   -0.309456
  19 C :   -0.006221
  20 O :   -0.520613
  21 H :    0.149829
  22 H :    0.156975
  23 O :   -0.638144
  24 H :    0.139812
  25 H :    0.159514
  26 H :    0.148264
  27 H :    0.139149
  28 H :    0.394736
Sum of atomic charges:    0.0000000

LOEWDIN ATOMIC CHARGES
----------------------
   0 C :    0.169160
   1 C :   -0.210571
   2 C :   -0.216461
   3 C :   -0.038895
   4 O :   -0.337037
   5 H :    0.096778
   6 H :    0.119616
   7 H :    0.129901
   8 H :    0.118344
   9 H :    0.117689
  10 H :    0.111011
  11 H :    0.110859
  12 C :   -0.053550
  13 H :    0.114874
  14 H :    0.113020
  15 O :   -0.326146
  16 C :    0.015575
  17 C :    0.040459
  18 C :   -0.242946
  19 C :   -0.025541
  20 O :   -0.324076
  21 H :    0.115596
  22 H :    0.112968
  23 O :   -0.426623
  24 H :    0.113959
  25 H :    0.114691
  26 H :    0.105978
  27 H :    0.100241
  28 H :    0.281125

  Mayer bond orders larger than 0.100000
B(  0-C ,  1-C ) :   0.9444 B(  0-C ,  4-O ) :   0.8626 B(  0-C ,  5-H ) :   0.9194
B(  0-C , 15-O ) :   0.8883 B(  1-C ,  2-C ) :   0.9543 B(  1-C ,  6-H ) :   0.9385
B(  1-C ,  7-H ) :   0.9352 B(  2-C ,  3-C ) :   0.9544 B(  2-C ,  8-H ) :   0.9441
B(  2-C ,  9-H ) :   0.9351 B(  3-C ,  4-O ) :   0.8109 B(  3-C , 10-H ) :   0.9184
B(  3-C , 11-H ) :   0.9403 B( 12-C , 13-H ) :   0.9271 B( 12-C , 14-H ) :   0.9011
B( 12-C , 15-O ) :   0.8208 B( 12-C , 16-C ) :   0.9167 B( 16-C , 17-C ) :   0.8938
B( 16-C , 20-O ) :   0.8790 B( 16-C , 21-H ) :   0.9221 B( 17-C , 18-C ) :   0.9172
B( 17-C , 22-H ) :   0.9363 B( 17-C , 23-O ) :   0.9261 B( 18-C , 19-C ) :   0.9442
B( 18-C , 24-H ) :   0.9432 B( 18-C , 25-H ) :   0.9204 B( 19-C , 20-O ) :   0.8356
B( 19-C , 26-H ) :   0.9326 B( 19-C , 27-H ) :   0.9383 B( 23-O , 28-H ) :   0.7128

FINAL SINGLE POINT ENERGY      -652.870349441614

DIPOLE MOMENT
-------------
                                X             Y             Z
Electronic contribution:     -2.69917      -4.37532      -0.51787
Nuclear contribution   :      3.67533       5.13963       0.01176
                        -----------------------------------------
Total Dipole Moment    :      0.97616       0.76432      -0.50610
                        -----------------------------------------
Magnitude (a.u.)       :      1.33910
Magnitude (Debye)      :      3.40373

Rotational constants in cm-1:     0.043182     0.019611     0.018707
Rotational constants in MHz :  1294.559376   587.913729   560.827273

                             ****ORCA TERMINATED NORMALLY****
TOTAL RUN TIME: 0 days 0 hours 44 minutes 39 seconds 637 msec
