                         Program Version 4.2.0 -  RELEASE  -
|  1> # Test redundant internal optimization
|  2> #
|  3> ! RKS B3LYP  Opt TightSCF SmallPrint
|  4>
|  5> %basis
|  6>         Basis "6-31G"
|  7> end
|  8>
|  9> %geom
| 10> Constraints
| 11> { D 4  0  15  12  75.0   C } # D for Dihedral angle
| 12> { D 0  15  12  16  150.0   C } # D for Dihedral angle
| 13> { D 0  4  3  2   C } # D for Dihedral angle
| 14> { D 4  3  2  1   C } # D for Dihedral angle
| 15> { D 3  2  1  0   C } # D for Dihedral angle
| 16> { D 2  1  0  4   C } # D for Dihedral angle
| 17> { D 1  0  4  3   C } # D for Dihedral angle
| 18> { D 16  20  19  18   C } # D for Dihedral angle
| 19> { D 20  19  18  17   C } # D for Dihedral angle
| 20> { D 19  18  17  16   C } # D for Dihedral angle
| 21> { D 18  17  16  20   C } # D for Dihedral angle
| 22> { D 17  16  20  19   C } # D for Dihedral angle
| 23> { D 15  12  16  20   C } # D for Dihedral angle
| 24> end
| 25> end
| 26>
| 27>
| 28> #%pal
| 29> #nprocs 8
| 30> #end
| 31>
| 32> * xyz 0 1
| 33> C  -21.048   26.222   46.251
| 34> C  -20.361   27.558   45.944
| 35> C  -20.329   28.222   47.341
| 36> C  -20.110   27.022   48.296
| 37> O  -20.473   25.807   47.535
| 38> H  -20.833   25.428   45.533
| 39> H  -19.344   27.382   45.576
| 40> H  -20.898   28.157   45.201
| 41> H  -19.543   28.978   47.434
| 42> H  -21.289   28.710   47.548
| 43> H  -20.733   27.082   49.195
| 44> H  -19.064   26.913   48.597
| 45> C  -23.049   27.675   47.122
| 46> H  -23.134   27.458   48.194
| 47> H  -22.316   28.481   46.992
| 48> O  -22.586   26.394   46.375
| 49> C  -24.423   28.199   46.619
| 50> C  -25.544   27.198   46.918
| 51> C  -25.815   27.468   48.417
| 52> C  -25.589   28.996   48.545
| 53> O  -24.811   29.406   47.357
| 54> H  -24.335   28.481   45.568
| 55> O  -26.798   27.532   46.064
| 56> H  -25.259   26.159   46.718
| 57> H  -26.821   27.168   48.727
| 58> H  -25.096   26.917   49.035
| 59> H  -25.031   29.262   49.449
| 60> H  -26.525   29.559   48.529
| 61> H  -27.103   28.569   46.248
| 62> *
| 63>
| 64>                          ****END OF INPUT****
 Total Charge           Charge          ....    0
 Multiplicity           Mult            ....    1
 Number of Electrons    NEL             ....  102
FINAL SINGLE POINT ENERGY      -652.799993669698
FINAL SINGLE POINT ENERGY      -652.836341856543
FINAL SINGLE POINT ENERGY      -652.854761397854
FINAL SINGLE POINT ENERGY      -652.857773158210
FINAL SINGLE POINT ENERGY      -652.858194559358
FINAL SINGLE POINT ENERGY      -652.858283361132
FINAL SINGLE POINT ENERGY      -652.858294741035
FINAL SINGLE POINT ENERGY      -652.858295180318
                    ***********************HURRAY********************

CARTESIAN COORDINATES (ANGSTROEM)
---------------------------------
  C    -21.259869   26.404732   46.420263
  C    -20.337664   27.523329   45.909384
  C    -19.861928   28.188632   47.237295
  C    -19.763844   26.974609   48.197532
  O    -20.563704   25.891757   47.579606
  H    -21.329794   25.563664   45.728890
  H    -19.493758   27.064681   45.384476
  H    -20.840809   28.215328   45.228311
  H    -18.895181   28.689383   47.123061
  H    -20.575104   28.933377   47.595875
  H    -20.156698   27.183770   49.197235
  H    -18.739954   26.600357   48.288913
  C    -23.128881   27.873122   47.363233
  H    -23.213008   27.638521   48.431726
  H    -22.471312   28.738732   47.247728
  O    -22.651673   26.707340   46.634647
  C    -24.482952   28.240634   46.755502
  C    -25.575228   27.172833   46.904132
  C    -26.045970   27.407187   48.361511
  C    -25.926371   28.941909   48.531301
  O    -25.026300   29.415479   47.447581
  H    -24.345249   28.513971   45.706082
  O    -26.648259   27.396008   45.947289
  H    -25.211110   26.164761   46.714499
  H    -27.066426   27.041960   48.500063
  H    -25.393480   26.875277   49.061996
  H    -25.501264   29.233207   49.496837
  H    -26.882985   29.457638   48.402331
  H    -26.871226   28.350802   45.930702

 Multiplicity           Mult            ....    1
 Number of Electrons    NEL             ....  102
 Basis Dimension        Dim             ....  149

ORBITAL ENERGIES
----------------

  NO   OCC          E(Eh)            E(eV)
   0   2.0000     -19.147771      -521.0373
   1   2.0000     -19.145222      -520.9680
   2   2.0000     -19.142528      -520.8947
   3   2.0000     -19.133300      -520.6436
   4   2.0000     -10.281546      -279.7751
   5   2.0000     -10.233913      -278.4789
   6   2.0000     -10.233427      -278.4657
   7   2.0000     -10.232733      -278.4468
   8   2.0000     -10.231805      -278.4216
   9   2.0000     -10.231274      -278.4071
  10   2.0000     -10.195842      -277.4430
  11   2.0000     -10.194598      -277.4091
  12   2.0000     -10.185981      -277.1746
  13   2.0000      -1.053816       -28.6758
  14   2.0000      -1.035208       -28.1694
  15   2.0000      -1.003361       -27.3028
  16   2.0000      -0.999260       -27.1912
  17   2.0000      -0.791038       -21.5252
  18   2.0000      -0.782108       -21.2822
  19   2.0000      -0.770981       -20.9795
  20   2.0000      -0.733387       -19.9565
  21   2.0000      -0.680358       -18.5135
  22   2.0000      -0.607460       -16.5298
  23   2.0000      -0.603466       -16.4212
  24   2.0000      -0.598010       -16.2727
  25   2.0000      -0.575317       -15.6552
  26   2.0000      -0.524520       -14.2729
  27   2.0000      -0.514515       -14.0007
  28   2.0000      -0.504922       -13.7396
  29   2.0000      -0.489683       -13.3250
  30   2.0000      -0.473331       -12.8800
  31   2.0000      -0.461339       -12.5537
  32   2.0000      -0.448865       -12.2142
  33   2.0000      -0.439086       -11.9481
  34   2.0000      -0.426633       -11.6093
  35   2.0000      -0.416169       -11.3245
  36   2.0000      -0.409009       -11.1297
  37   2.0000      -0.391186       -10.6447
  38   2.0000      -0.385703       -10.4955
  39   2.0000      -0.366939        -9.9849
  40   2.0000      -0.363032        -9.8786
  41   2.0000      -0.358840        -9.7645
  42   2.0000      -0.353583        -9.6215
  43   2.0000      -0.329606        -8.9690
  44   2.0000      -0.317504        -8.6397
  45   2.0000      -0.310565        -8.4509
  46   2.0000      -0.300954        -8.1894
  47   2.0000      -0.272047        -7.4028
  48   2.0000      -0.268095        -7.2952
  49   2.0000      -0.256587        -6.9821
  50   2.0000      -0.245103        -6.6696
  51   0.0000       0.063738         1.7344
  52   0.0000       0.067750         1.8436
  53   0.0000       0.090343         2.4584
  54   0.0000       0.096601         2.6286
  55   0.0000       0.102955         2.8015

MULLIKEN ATOMIC CHARGES
-----------------------
   0 C :    0.306791
   1 C :   -0.283717
   2 C :   -0.317727
   3 C :   -0.009578
   4 O :   -0.503929
   5 H :    0.168542
   6 H :    0.159395
   7 H :    0.150517
   8 H :    0.147089
   9 H :    0.152504
  10 H :    0.144633
  11 H :    0.148948
  12 C :   -0.016097
  13 H :    0.140533
  14 H :    0.147392
  15 O :   -0.529276
  16 C :    0.063286
  17 C :    0.091406
  18 C :   -0.298666
  19 C :   -0.031287
  20 O :   -0.530612
  21 H :    0.160816
  22 O :   -0.603374
  23 H :    0.180132
  24 H :    0.159792
  25 H :    0.151426
  26 H :    0.142871
  27 H :    0.147235
  28 H :    0.360955
Sum of atomic charges:   -0.0000000

LOEWDIN ATOMIC CHARGES
----------------------
   0 C :    0.175733
   1 C :   -0.229880
   2 C :   -0.224420
   3 C :   -0.033118
   4 O :   -0.321338
   5 H :    0.114434
   6 H :    0.124381
   7 H :    0.119018
   8 H :    0.116348
   9 H :    0.109719
  10 H :    0.102736
  11 H :    0.105116
  12 C :   -0.043468
  13 H :    0.099777
  14 H :    0.104158
  15 O :   -0.322487
  16 C :    0.017248
  17 C :    0.039177
  18 C :   -0.241210
  19 C :   -0.038344
  20 O :   -0.334028
  21 H :    0.116383
  22 O :   -0.414749
  23 H :    0.130077
  24 H :    0.126308
  25 H :    0.116616
  26 H :    0.102588
  27 H :    0.102767
  28 H :    0.280459

  Mayer bond orders larger than 0.100000
B(  0-C ,  1-C ) :   0.9205 B(  0-C ,  4-O ) :   0.9036 B(  0-C ,  5-H ) :   0.9359
B(  0-C , 15-O ) :   0.8931 B(  1-C ,  2-C ) :   0.9548 B(  1-C ,  6-H ) :   0.9345
B(  1-C ,  7-H ) :   0.9358 B(  2-C ,  3-C ) :   0.9465 B(  2-C ,  8-H ) :   0.9449
B(  2-C ,  9-H ) :   0.9367 B(  3-C ,  4-O ) :   0.8470 B(  3-C , 10-H ) :   0.9341
B(  3-C , 11-H ) :   0.9386 B( 12-C , 13-H ) :   0.9243 B( 12-C , 14-H ) :   0.9028
B( 12-C , 15-O ) :   0.8202 B( 12-C , 16-C ) :   0.9001 B( 16-C , 17-C ) :   0.9140
B( 16-C , 20-O ) :   0.8440 B( 16-C , 21-H ) :   0.9260 B( 17-C , 18-C ) :   0.9128
B( 17-C , 22-O ) :   0.8893 B( 17-C , 23-H ) :   0.9232 B( 18-C , 19-C ) :   0.9401
B( 18-C , 24-H ) :   0.9386 B( 18-C , 25-H ) :   0.9339 B( 19-C , 20-O ) :   0.8418
B( 19-C , 26-H ) :   0.9366 B( 19-C , 27-H ) :   0.9380 B( 22-O , 28-H ) :   0.7967

FINAL SINGLE POINT ENERGY      -652.858293570133

DIPOLE MOMENT
-------------
                                X             Y             Z
Electronic contribution:     -3.17424      -2.32306      -2.53551
Nuclear contribution   :      3.93382       3.22384       3.09557
                        -----------------------------------------
Total Dipole Moment    :      0.75958       0.90079       0.56005
                        -----------------------------------------
Magnitude (a.u.)       :      1.30462
Magnitude (Debye)      :      3.31609

Rotational constants in cm-1:     0.056811     0.012509     0.011991
Rotational constants in MHz :  1703.143088   374.999955   359.482963

                             ****ORCA TERMINATED NORMALLY****
TOTAL RUN TIME: 0 days 0 hours 41 minutes 33 seconds 136 msec
