                         Program Version 4.2.0 -  RELEASE  -
|  1> # Test redundant internal optimization
|  2> #
|  3> ! RKS B3LYP  Opt TightSCF SmallPrint
|  4>
|  5> %basis
|  6>         Basis "6-31G"
|  7> end
|  8>
|  9> %geom
| 10> Constraints
| 11> { D 4  0  15  12  45.0   C } # D for Dihedral angle
| 12> { D 0  15  12  16  210.0   C } # D for Dihedral angle
| 13> { D 0  4  3  2   C } # D for Dihedral angle
| 14> { D 4  3  2  1   C } # D for Dihedral angle
| 15> { D 3  2  1  0   C } # D for Dihedral angle
| 16> { D 2  1  0  4   C } # D for Dihedral angle
| 17> { D 1  0  4  3   C } # D for Dihedral angle
| 18> { D 16  20  19  18   C } # D for Dihedral angle
| 19> { D 20  19  18  17   C } # D for Dihedral angle
| 20> { D 19  18  17  16   C } # D for Dihedral angle
| 21> { D 18  17  16  20   C } # D for Dihedral angle
| 22> { D 17  16  20  19   C } # D for Dihedral angle
| 23> { D 15  12  16  20   C } # D for Dihedral angle
| 24> end
| 25> end
| 26>
| 27>
| 28> #%pal
| 29> #nprocs 8
| 30> #end
| 31>
| 32> * xyz 0 1
| 33> C  -21.048   26.222   46.251
| 34> C  -20.361   27.558   45.944
| 35> C  -20.329   28.222   47.341
| 36> C  -20.110   27.022   48.296
| 37> O  -20.473   25.807   47.535
| 38> H  -20.833   25.428   45.533
| 39> H  -19.344   27.382   45.576
| 40> H  -20.898   28.157   45.201
| 41> H  -19.543   28.978   47.434
| 42> H  -21.289   28.710   47.548
| 43> H  -20.733   27.082   49.195
| 44> H  -19.064   26.913   48.597
| 45> C  -23.065   27.161   47.638
| 46> H  -22.349   26.999   48.453
| 47> H  -23.116   28.239   47.436
| 48> O  -22.586   26.394   46.375
| 49> C  -24.469   26.704   48.122
| 50> C  -25.509   26.818   47.001
| 51> C  -25.212   25.547   46.169
| 52> C  -24.805   24.509   47.244
| 53> O  -24.455   25.277   48.459
| 54> H  -24.727   27.246   49.034
| 55> H  -26.520   26.777   47.421
| 56> O  -25.374   28.124   46.173
| 57> H  -26.071   25.218   45.575
| 58> H  -24.381   25.734   45.479
| 59> H  -23.944   23.905   46.940
| 60> H  -25.629   23.841   47.512
| 61> H  -24.368   28.186   45.743
| 62> *
| 63>
| 64>                          ****END OF INPUT****
 Total Charge           Charge          ....    0
 Multiplicity           Mult            ....    1
 Number of Electrons    NEL             ....  102
FINAL SINGLE POINT ENERGY      -652.821293535437
FINAL SINGLE POINT ENERGY      -652.846907161350
FINAL SINGLE POINT ENERGY      -652.856583547276
FINAL SINGLE POINT ENERGY      -652.858843961259
FINAL SINGLE POINT ENERGY      -652.859195431096
FINAL SINGLE POINT ENERGY      -652.859252830272
FINAL SINGLE POINT ENERGY      -652.859255252646
                    ***********************HURRAY********************

CARTESIAN COORDINATES (ANGSTROEM)
---------------------------------
  C    -21.132160   26.331769   46.434314
  C    -20.358094   27.578003   45.987973
  C    -20.071223   28.283929   47.342986
  C    -19.853201   27.092222   48.306601
  O    -20.446688   25.908093   47.629843
  H    -21.062542   25.503774   45.727482
  H    -19.424578   27.262396   45.509525
  H    -20.923974   28.195131   45.285544
  H    -19.194544   28.937054   47.296727
  H    -20.925743   28.895202   47.649173
  H    -20.332961   27.223098   49.280640
  H    -18.793952   26.865801   48.458900
  C    -23.129898   27.196244   47.724300
  H    -22.491842   27.030098   48.597042
  H    -23.212018   28.274026   47.528351
  O    -22.566179   26.501315   46.572295
  C    -24.517350   26.646413   48.053954
  C    -25.556988   26.776464   46.927211
  C    -25.277400   25.495318   46.081571
  C    -24.889370   24.459485   47.158314
  O    -24.529381   25.229518   48.377396
  H    -24.851367   27.172102   48.957146
  H    -26.565373   26.765174   47.345750
  O    -25.472689   28.015534   46.179788
  H    -26.150992   25.191162   45.497006
  H    -24.438636   25.691506   45.410639
  H    -24.031589   23.846904   46.867821
  H    -25.723960   23.806699   47.433292
  H    -24.680307   27.985566   45.603419

 Multiplicity           Mult            ....    1
 Number of Electrons    NEL             ....  102
 Basis Dimension        Dim             ....  149

ORBITAL ENERGIES
----------------

  NO   OCC          E(Eh)            E(eV)
   0   2.0000     -19.151099      -521.1279
   1   2.0000     -19.150198      -521.1034
   2   2.0000     -19.137307      -520.7526
   3   2.0000     -19.128949      -520.5252
   4   2.0000     -10.285214      -279.8749
   5   2.0000     -10.235800      -278.5303
   6   2.0000     -10.233024      -278.4547
   7   2.0000     -10.230804      -278.3943
   8   2.0000     -10.227627      -278.3079
   9   2.0000     -10.217122      -278.0220
  10   2.0000     -10.198055      -277.5032
  11   2.0000     -10.194331      -277.4018
  12   2.0000     -10.175407      -276.8869
  13   2.0000      -1.059299       -28.8250
  14   2.0000      -1.024471       -27.8773
  15   2.0000      -1.006866       -27.3982
  16   2.0000      -0.998168       -27.1615
  17   2.0000      -0.794428       -21.6175
  18   2.0000      -0.774939       -21.0872
  19   2.0000      -0.763474       -20.7752
  20   2.0000      -0.735302       -20.0086
  21   2.0000      -0.678199       -18.4547
  22   2.0000      -0.609421       -16.5832
  23   2.0000      -0.602986       -16.4081
  24   2.0000      -0.597765       -16.2660
  25   2.0000      -0.562424       -15.3043
  26   2.0000      -0.526728       -14.3330
  27   2.0000      -0.511492       -13.9184
  28   2.0000      -0.499964       -13.6047
  29   2.0000      -0.486975       -13.2513
  30   2.0000      -0.476756       -12.9732
  31   2.0000      -0.459458       -12.5025
  32   2.0000      -0.438402       -11.9295
  33   2.0000      -0.431770       -11.7491
  34   2.0000      -0.425061       -11.5665
  35   2.0000      -0.416457       -11.3324
  36   2.0000      -0.401238       -10.9182
  37   2.0000      -0.392648       -10.6845
  38   2.0000      -0.384541       -10.4639
  39   2.0000      -0.371729       -10.1153
  40   2.0000      -0.366262        -9.9665
  41   2.0000      -0.358402        -9.7526
  42   2.0000      -0.344746        -9.3810
  43   2.0000      -0.326130        -8.8745
  44   2.0000      -0.322654        -8.7799
  45   2.0000      -0.311291        -8.4707
  46   2.0000      -0.302894        -8.2422
  47   2.0000      -0.270641        -7.3645
  48   2.0000      -0.261393        -7.1129
  49   2.0000      -0.257612        -7.0100
  50   2.0000      -0.234026        -6.3682
  51   0.0000       0.061510         1.6738
  52   0.0000       0.084115         2.2889
  53   0.0000       0.091627         2.4933
  54   0.0000       0.093454         2.5430
  55   0.0000       0.101553         2.7634

MULLIKEN ATOMIC CHARGES
-----------------------
   0 C :    0.304376
   1 C :   -0.267540
   2 C :   -0.312854
   3 C :   -0.019761
   4 O :   -0.500634
   5 H :    0.163307
   6 H :    0.153356
   7 H :    0.148187
   8 H :    0.149827
   9 H :    0.150990
  10 H :    0.149496
  11 H :    0.152350
  12 C :   -0.031568
  13 H :    0.164471
  14 H :    0.135877
  15 O :   -0.541326
  16 C :    0.093074
  17 C :    0.086658
  18 C :   -0.308209
  19 C :   -0.004568
  20 O :   -0.516665
  21 H :    0.146314
  22 H :    0.158296
  23 O :   -0.608841
  24 H :    0.140372
  25 H :    0.164460
  26 H :    0.149501
  27 H :    0.139875
  28 H :    0.361181
Sum of atomic charges:   -0.0000000

LOEWDIN ATOMIC CHARGES
----------------------
   0 C :    0.178437
   1 C :   -0.227741
   2 C :   -0.223332
   3 C :   -0.034196
   4 O :   -0.312923
   5 H :    0.112099
   6 H :    0.119614
   7 H :    0.118562
   8 H :    0.118386
   9 H :    0.111383
  10 H :    0.103663
  11 H :    0.107260
  12 C :   -0.054004
  13 H :    0.115000
  14 H :    0.096732
  15 O :   -0.335443
  16 C :    0.019358
  17 C :    0.037208
  18 C :   -0.242620
  19 C :   -0.024724
  20 O :   -0.319229
  21 H :    0.112799
  22 H :    0.114862
  23 O :   -0.413422
  24 H :    0.113221
  25 H :    0.121751
  26 H :    0.106945
  27 H :    0.099933
  28 H :    0.280420

  Mayer bond orders larger than 0.100000
B(  0-C ,  1-C ) :   0.9174 B(  0-C ,  4-O ) :   0.9167 B(  0-C ,  5-H ) :   0.9362
B(  0-C , 15-O ) :   0.8694 B(  1-C ,  2-C ) :   0.9556 B(  1-C ,  6-H ) :   0.9347
B(  1-C ,  7-H ) :   0.9381 B(  2-C ,  3-C ) :   0.9487 B(  2-C ,  8-H ) :   0.9446
B(  2-C ,  9-H ) :   0.9415 B(  3-C ,  4-O ) :   0.8360 B(  3-C , 10-H ) :   0.9300
B(  3-C , 11-H ) :   0.9391 B( 12-C , 13-H ) :   0.9118 B( 12-C , 14-H ) :   0.9024
B( 12-C , 15-O ) :   0.8281 B( 12-C , 16-C ) :   0.9039 B( 16-C , 17-C ) :   0.8880
B( 16-C , 20-O ) :   0.8873 B( 16-C , 21-H ) :   0.9284 B( 17-C , 18-C ) :   0.9342
B( 17-C , 22-H ) :   0.9372 B( 17-C , 23-O ) :   0.8970 B( 18-C , 19-C ) :   0.9474
B( 18-C , 24-H ) :   0.9413 B( 18-C , 25-H ) :   0.9265 B( 19-C , 20-O ) :   0.8373
B( 19-C , 26-H ) :   0.9320 B( 19-C , 27-H ) :   0.9376 B( 23-O , 28-H ) :   0.7938

FINAL SINGLE POINT ENERGY      -652.859253782764

DIPOLE MOMENT
-------------
                                X             Y             Z
Electronic contribution:     -2.66404      -2.42075       1.02651
Nuclear contribution   :      3.61076       3.11336      -1.55511
                        -----------------------------------------
Total Dipole Moment    :      0.94672       0.69261      -0.52860
                        -----------------------------------------
Magnitude (a.u.)       :      1.28663
Magnitude (Debye)      :      3.27035

Rotational constants in cm-1:     0.049528     0.015864     0.014517
Rotational constants in MHz :  1484.803199   475.594255   435.211606

                             ****ORCA TERMINATED NORMALLY****
TOTAL RUN TIME: 0 days 0 hours 37 minutes 24 seconds 358 msec
