                         Program Version 4.2.0 -  RELEASE  -
|  1> # Test redundant internal optimization
|  2> #
|  3> ! RKS B3LYP  Opt TightSCF SmallPrint
|  4>
|  5> %basis
|  6>         Basis "6-31G"
|  7> end
|  8>
|  9> %geom
| 10> Constraints
| 11> { D 4  0  15  12  180.0   C } # D for Dihedral angle
| 12> { D 0  15  12  16  165.0   C } # D for Dihedral angle
| 13> { D 0  4  3  2   C } # D for Dihedral angle
| 14> { D 4  3  2  1   C } # D for Dihedral angle
| 15> { D 3  2  1  0   C } # D for Dihedral angle
| 16> { D 2  1  0  4   C } # D for Dihedral angle
| 17> { D 1  0  4  3   C } # D for Dihedral angle
| 18> { D 16  20  19  18   C } # D for Dihedral angle
| 19> { D 20  19  18  17   C } # D for Dihedral angle
| 20> { D 19  18  17  16   C } # D for Dihedral angle
| 21> { D 18  17  16  20   C } # D for Dihedral angle
| 22> { D 17  16  20  19   C } # D for Dihedral angle
| 23> { D 15  12  16  20   C } # D for Dihedral angle
| 24> end
| 25> end
| 26>
| 27>
| 28> #%pal
| 29> #nprocs 8
| 30> #end
| 31>
| 32> * xyz 0 1
| 33> C  -21.048   26.222   46.251
| 34> C  -20.361   27.558   45.944
| 35> C  -20.329   28.222   47.341
| 36> C  -20.110   27.022   48.296
| 37> O  -20.473   25.807   47.535
| 38> H  -20.833   25.428   45.533
| 39> H  -19.344   27.382   45.576
| 40> H  -20.898   28.157   45.201
| 41> H  -19.543   28.978   47.434
| 42> H  -21.289   28.710   47.548
| 43> H  -20.733   27.082   49.195
| 44> H  -19.064   26.913   48.597
| 45> C  -23.309   26.834   45.072
| 46> H  -23.107   27.896   44.887
| 47> H  -22.936   26.260   44.214
| 48> O  -22.586   26.394   46.375
| 49> C  -24.848   26.633   45.142
| 50> C  -25.514   26.967   43.803
| 51> C  -25.230   25.686   42.983
| 52> C  -25.312   24.563   44.047
| 53> O  -25.171   25.220   45.364
| 54> H  -25.243   27.190   45.995
| 55> O  -27.042   27.163   44.002
| 56> H  -25.108   27.870   43.334
| 57> H  -25.942   25.539   42.165
| 58> H  -24.224   25.733   42.548
| 59> H  -24.517   23.817   43.931
| 60> H  -26.280   24.053   44.042
| 61> H  -27.470   26.270   44.470
| 62> *
| 63>
| 64>                          ****END OF INPUT****
 Total Charge           Charge          ....    0
 Multiplicity           Mult            ....    1
 Number of Electrons    NEL             ....  102
FINAL SINGLE POINT ENERGY      -652.828352242677
FINAL SINGLE POINT ENERGY      -652.851940791783
FINAL SINGLE POINT ENERGY      -652.855960004856
FINAL SINGLE POINT ENERGY      -652.856694174142
FINAL SINGLE POINT ENERGY      -652.856805439824
FINAL SINGLE POINT ENERGY      -652.856817063376
                    ***********************HURRAY********************

CARTESIAN COORDINATES (ANGSTROEM)
---------------------------------
  C    -21.081567   26.245831   46.157803
  C    -20.349859   27.567777   45.933041
  C    -20.446351   28.232290   47.329820
  C    -20.342820   27.026620   48.286482
  O    -20.653115   25.831263   47.459756
  H    -20.832693   25.446488   45.450749
  H    -19.305760   27.355826   45.674071
  H    -20.776415   28.183109   45.136104
  H    -19.656302   28.970046   47.498348
  H    -21.414522   28.730256   47.438993
  H    -21.053827   27.069538   49.114963
  H    -19.332572   26.880280   48.679798
  C    -23.164406   26.827905   44.981329
  H    -22.993821   27.898041   44.788953
  H    -22.755145   26.259276   44.130620
  O    -22.529914   26.407814   46.212511
  C    -24.665037   26.579662   45.119928
  C    -25.476299   26.941910   43.868344
  C    -25.306245   25.666520   43.000973
  C    -25.282212   24.530475   44.053544
  O    -24.980753   25.170768   45.357003
  H    -25.024709   27.123709   45.998524
  O    -26.869545   27.180537   44.207055
  H    -25.141553   27.852331   43.368534
  H    -26.129142   25.573254   42.287616
  H    -24.366426   25.711771   42.439682
  H    -24.520729   23.773160   43.843643
  H    -26.250876   24.031157   44.154873
  H    -27.161385   26.501387   44.851940

 Multiplicity           Mult            ....    1
 Number of Electrons    NEL             ....  102
 Basis Dimension        Dim             ....  149

ORBITAL ENERGIES
----------------

  NO   OCC          E(Eh)            E(eV)
   0   2.0000     -19.140216      -520.8318
   1   2.0000     -19.139927      -520.8239
   2   2.0000     -19.139702      -520.8178
   3   2.0000     -19.139340      -520.8079
   4   2.0000     -10.279440      -279.7178
   5   2.0000     -10.244835      -278.7761
   6   2.0000     -10.236211      -278.5415
   7   2.0000     -10.235297      -278.5166
   8   2.0000     -10.230039      -278.3735
   9   2.0000     -10.224421      -278.2206
  10   2.0000     -10.191159      -277.3155
  11   2.0000     -10.189219      -277.2627
  12   2.0000     -10.188061      -277.2312
  13   2.0000      -1.054283       -28.6885
  14   2.0000      -1.036828       -28.2135
  15   2.0000      -1.007270       -27.4092
  16   2.0000      -0.993724       -27.0406
  17   2.0000      -0.788595       -21.4588
  18   2.0000      -0.784861       -21.3572
  19   2.0000      -0.769244       -20.9322
  20   2.0000      -0.731780       -19.9128
  21   2.0000      -0.677250       -18.4289
  22   2.0000      -0.605462       -16.4755
  23   2.0000      -0.602882       -16.4053
  24   2.0000      -0.591316       -16.0905
  25   2.0000      -0.583559       -15.8795
  26   2.0000      -0.526727       -14.3330
  27   2.0000      -0.511593       -13.9212
  28   2.0000      -0.495614       -13.4864
  29   2.0000      -0.493129       -13.4187
  30   2.0000      -0.477141       -12.9837
  31   2.0000      -0.461867       -12.5680
  32   2.0000      -0.453166       -12.3313
  33   2.0000      -0.446636       -12.1536
  34   2.0000      -0.423391       -11.5210
  35   2.0000      -0.413091       -11.2408
  36   2.0000      -0.399459       -10.8698
  37   2.0000      -0.394669       -10.7395
  38   2.0000      -0.375900       -10.2288
  39   2.0000      -0.373061       -10.1515
  40   2.0000      -0.364631        -9.9221
  41   2.0000      -0.358415        -9.7530
  42   2.0000      -0.353183        -9.6106
  43   2.0000      -0.333957        -9.0874
  44   2.0000      -0.313335        -8.5263
  45   2.0000      -0.306660        -8.3446
  46   2.0000      -0.302079        -8.2200
  47   2.0000      -0.272439        -7.4134
  48   2.0000      -0.258435        -7.0324
  49   2.0000      -0.252983        -6.8840
  50   2.0000      -0.244446        -6.6517
  51   0.0000       0.063096         1.7169
  52   0.0000       0.079120         2.1530
  53   0.0000       0.085538         2.3276
  54   0.0000       0.096928         2.6375
  55   0.0000       0.107005         2.9117

MULLIKEN ATOMIC CHARGES
-----------------------
   0 C :    0.310185
   1 C :   -0.285564
   2 C :   -0.297375
   3 C :   -0.000583
   4 O :   -0.499924
   5 H :    0.140690
   6 H :    0.148642
   7 H :    0.140337
   8 H :    0.142913
   9 H :    0.157862
  10 H :    0.157213
  11 H :    0.141837
  12 C :   -0.002008
  13 H :    0.124236
  14 H :    0.119284
  15 O :   -0.497935
  16 C :    0.066338
  17 C :    0.077021
  18 C :   -0.294417
  19 C :   -0.030778
  20 O :   -0.503839
  21 H :    0.172810
  22 O :   -0.601879
  23 H :    0.148087
  24 H :    0.164300
  25 H :    0.140140
  26 H :    0.149211
  27 H :    0.146704
  28 H :    0.366491
Sum of atomic charges:   -0.0000000

LOEWDIN ATOMIC CHARGES
----------------------
   0 C :    0.181606
   1 C :   -0.234288
   2 C :   -0.216717
   3 C :   -0.024572
   4 O :   -0.299806
   5 H :    0.096559
   6 H :    0.116287
   7 H :    0.111763
   8 H :    0.114675
   9 H :    0.116557
  10 H :    0.111001
  11 H :    0.102573
  12 C :   -0.044815
  13 H :    0.090788
  14 H :    0.089085
  15 O :   -0.321359
  16 C :    0.018494
  17 C :    0.035396
  18 C :   -0.241440
  19 C :   -0.038832
  20 O :   -0.315802
  21 H :    0.122371
  22 O :   -0.413730
  23 H :    0.113296
  24 H :    0.127185
  25 H :    0.110748
  26 H :    0.105582
  27 H :    0.102969
  28 H :    0.284426

  Mayer bond orders larger than 0.100000
B(  0-C ,  1-C ) :   0.9252 B(  0-C ,  4-O ) :   0.9418 B(  0-C ,  5-H ) :   0.9194
B(  0-C , 15-O ) :   0.8334 B(  1-C ,  2-C ) :   0.9518 B(  1-C ,  6-H ) :   0.9340
B(  1-C ,  7-H ) :   0.9322 B(  2-C ,  3-C ) :   0.9555 B(  2-C ,  8-H ) :   0.9451
B(  2-C ,  9-H ) :   0.9451 B(  3-C ,  4-O ) :   0.8353 B(  3-C , 10-H ) :   0.9340
B(  3-C , 11-H ) :   0.9397 B( 12-C , 13-H ) :   0.9041 B( 12-C , 14-H ) :   0.9127
B( 12-C , 15-O ) :   0.8520 B( 12-C , 16-C ) :   0.8977 B( 16-C , 17-C ) :   0.8995
B( 16-C , 20-O ) :   0.8715 B( 16-C , 21-H ) :   0.9227 B( 17-C , 18-C ) :   0.9103
B( 17-C , 22-O ) :   0.8942 B( 17-C , 23-H ) :   0.9338 B( 18-C , 19-C ) :   0.9396
B( 18-C , 24-H ) :   0.9372 B( 18-C , 25-H ) :   0.9348 B( 19-C , 20-O ) :   0.8529
B( 19-C , 26-H ) :   0.9338 B( 19-C , 27-H ) :   0.9376 B( 22-O , 28-H ) :   0.7932

FINAL SINGLE POINT ENERGY      -652.856819672448

DIPOLE MOMENT
-------------
                                X             Y             Z
Electronic contribution:     -3.33606      -2.91578       2.51168
Nuclear contribution   :      4.09052       3.58951      -3.52081
                        -----------------------------------------
Total Dipole Moment    :      0.75446       0.67373      -1.00913
                        -----------------------------------------
Magnitude (a.u.)       :      1.42880
Magnitude (Debye)      :      3.63172

Rotational constants in cm-1:     0.065491     0.011345     0.010874
Rotational constants in MHz :  1963.358310   340.119242   326.003790

                             ****ORCA TERMINATED NORMALLY****
TOTAL RUN TIME: 0 days 0 hours 23 minutes 3 seconds 404 msec
