                         Program Version 4.2.0 -  RELEASE  -
|  1> # Test redundant internal optimization
|  2> #
|  3> ! RKS B3LYP  Opt TightSCF SmallPrint
|  4>
|  5> %basis
|  6>         Basis "6-31G"
|  7> end
|  8>
|  9> %geom
| 10> Constraints
| 11> { D 4  0  15  12  315.0   C } # D for Dihedral angle
| 12> { D 0  15  12  16  120.0   C } # D for Dihedral angle
| 13> { D 0  4  3  2   C } # D for Dihedral angle
| 14> { D 4  3  2  1   C } # D for Dihedral angle
| 15> { D 3  2  1  0   C } # D for Dihedral angle
| 16> { D 2  1  0  4   C } # D for Dihedral angle
| 17> { D 1  0  4  3   C } # D for Dihedral angle
| 18> { D 16  20  19  18   C } # D for Dihedral angle
| 19> { D 20  19  18  17   C } # D for Dihedral angle
| 20> { D 19  18  17  16   C } # D for Dihedral angle
| 21> { D 18  17  16  20   C } # D for Dihedral angle
| 22> { D 17  16  20  19   C } # D for Dihedral angle
| 23> { D 15  12  16  20   C } # D for Dihedral angle
| 24> end
| 25> end
| 26>
| 27>
| 28> #%pal
| 29> #nprocs 8
| 30> #end
| 31>
| 32> * xyz 0 1
| 33> C  -21.048   26.222   46.251
| 34> C  -20.361   27.558   45.944
| 35> C  -20.329   28.222   47.341
| 36> C  -20.110   27.022   48.296
| 37> O  -20.473   25.807   47.535
| 38> H  -20.833   25.428   45.533
| 39> H  -19.344   27.382   45.576
| 40> H  -20.898   28.157   45.201
| 41> H  -19.543   28.978   47.434
| 42> H  -21.289   28.710   47.548
| 43> H  -20.733   27.082   49.195
| 44> H  -19.064   26.913   48.597
| 45> C  -23.319   25.255   47.135
| 46> H  -24.047   24.782   46.464
| 47> H  -22.604   24.488   47.460
| 48> O  -22.586   26.394   46.375
| 49> C  -24.073   25.762   48.395
| 50> C  -24.686   24.598   49.183
| 51> C  -23.456   24.055   49.948
| 52> C  -22.641   25.335   50.258
| 53> O  -23.136   26.382   49.338
| 54> H  -24.787   26.533   48.099
| 55> O  -25.757   25.131   50.174
| 56> H  -25.154   23.844   48.541
| 57> H  -23.729   23.504   50.854
| 58> H  -22.881   23.378   49.305
| 59> H  -21.566   25.197   50.099
| 60> H  -22.805   25.697   51.277
| 61> H  -25.310   25.888   50.827
| 62> *
| 63>
| 64>                          ****END OF INPUT****
 Total Charge           Charge          ....    0
 Multiplicity           Mult            ....    1
 Number of Electrons    NEL             ....  102
FINAL SINGLE POINT ENERGY      -652.839748007054
FINAL SINGLE POINT ENERGY      -652.862586403290
FINAL SINGLE POINT ENERGY      -652.866285823143
FINAL SINGLE POINT ENERGY      -652.867579915437
FINAL SINGLE POINT ENERGY      -652.867725577871
FINAL SINGLE POINT ENERGY      -652.867746666969
                    ***********************HURRAY********************

CARTESIAN COORDINATES (ANGSTROEM)
---------------------------------
  C    -21.089030   26.196782   46.270072
  C    -20.532345   27.591003   45.987615
  C    -20.430189   28.180378   47.410202
  C    -20.045156   26.965133   48.277200
  O    -20.391270   25.762323   47.459226
  H    -20.870339   25.437289   45.511307
  H    -19.544880   27.495091   45.521794
  H    -21.185064   28.166388   45.327505
  H    -19.696795   28.990078   47.478783
  H    -21.406908   28.562532   47.718648
  H    -20.605793   26.926655   49.209063
  H    -18.970426   26.899374   48.472450
  C    -23.212623   25.236559   47.118767
  H    -23.962684   24.827496   46.429413
  H    -22.498971   24.448465   47.382549
  O    -22.522520   26.316664   46.432331
  C    -23.920128   25.756406   48.370760
  C    -24.641770   24.660982   49.169669
  C    -23.484143   24.079445   50.020449
  C    -22.611240   25.319919   50.325253
  O    -22.997057   26.360329   49.337122
  H    -24.610719   26.553905   48.079052
  O    -25.692138   25.226077   50.001450
  H    -25.138710   23.913757   48.548906
  H    -23.871744   23.597247   50.920912
  H    -22.924313   23.334423   49.444034
  H    -21.542515   25.113411   50.221001
  H    -22.800343   25.735323   51.320189
  H    -25.362186   26.050566   50.417278

 Multiplicity           Mult            ....    1
 Number of Electrons    NEL             ....  102
 Basis Dimension        Dim             ....  149

ORBITAL ENERGIES
----------------

  NO   OCC          E(Eh)            E(eV)
   0   2.0000     -19.144729      -520.9545
   1   2.0000     -19.139932      -520.8240
   2   2.0000     -19.139191      -520.8039
   3   2.0000     -19.138080      -520.7736
   4   2.0000     -10.274090      -279.5722
   5   2.0000     -10.243144      -278.7301
   6   2.0000     -10.232765      -278.4477
   7   2.0000     -10.230446      -278.3846
   8   2.0000     -10.227973      -278.3173
   9   2.0000     -10.216361      -278.0013
  10   2.0000     -10.189218      -277.2627
  11   2.0000     -10.179339      -276.9939
  12   2.0000     -10.176385      -276.9135
  13   2.0000      -1.049812       -28.5668
  14   2.0000      -1.035636       -28.1811
  15   2.0000      -1.006483       -27.3878
  16   2.0000      -0.988516       -26.8989
  17   2.0000      -0.788598       -21.4588
  18   2.0000      -0.779487       -21.2109
  19   2.0000      -0.764725       -20.8092
  20   2.0000      -0.727679       -19.8011
  21   2.0000      -0.670666       -18.2498
  22   2.0000      -0.604874       -16.4594
  23   2.0000      -0.594660       -16.1815
  24   2.0000      -0.588668       -16.0185
  25   2.0000      -0.576956       -15.6998
  26   2.0000      -0.523525       -14.2458
  27   2.0000      -0.512274       -13.9397
  28   2.0000      -0.490027       -13.3343
  29   2.0000      -0.481489       -13.1020
  30   2.0000      -0.478322       -13.0158
  31   2.0000      -0.455861       -12.4046
  32   2.0000      -0.449967       -12.2442
  33   2.0000      -0.437361       -11.9012
  34   2.0000      -0.420320       -11.4375
  35   2.0000      -0.402554       -10.9540
  36   2.0000      -0.397138       -10.8067
  37   2.0000      -0.392358       -10.6766
  38   2.0000      -0.372955       -10.1486
  39   2.0000      -0.371651       -10.1131
  40   2.0000      -0.355733        -9.6800
  41   2.0000      -0.348720        -9.4891
  42   2.0000      -0.341759        -9.2997
  43   2.0000      -0.332533        -9.0487
  44   2.0000      -0.326335        -8.8800
  45   2.0000      -0.309678        -8.4268
  46   2.0000      -0.292505        -7.9595
  47   2.0000      -0.272368        -7.4115
  48   2.0000      -0.266146        -7.2422
  49   2.0000      -0.254202        -6.9172
  50   2.0000      -0.240462        -6.5433
  51   0.0000       0.066314         1.8045
  52   0.0000       0.089968         2.4481
  53   0.0000       0.092300         2.5116
  54   0.0000       0.099533         2.7084
  55   0.0000       0.106506         2.8982

MULLIKEN ATOMIC CHARGES
-----------------------
   0 C :    0.297768
   1 C :   -0.264922
   2 C :   -0.300849
   3 C :   -0.010140
   4 O :   -0.522333
   5 H :    0.141898
   6 H :    0.141831
   7 H :    0.158271
   8 H :    0.136486
   9 H :    0.172650
  10 H :    0.165910
  11 H :    0.135348
  12 C :   -0.011688
  13 H :    0.137572
  14 H :    0.151587
  15 O :   -0.523355
  16 C :    0.072873
  17 C :    0.077079
  18 C :   -0.298043
  19 C :   -0.030314
  20 O :   -0.521132
  21 H :    0.166481
  22 O :   -0.603925
  23 H :    0.152770
  24 H :    0.162751
  25 H :    0.149527
  26 H :    0.158535
  27 H :    0.142078
  28 H :    0.365286
Sum of atomic charges:    0.0000000

LOEWDIN ATOMIC CHARGES
----------------------
   0 C :    0.177100
   1 C :   -0.214977
   2 C :   -0.215326
   3 C :   -0.030947
   4 O :   -0.332140
   5 H :    0.093184
   6 H :    0.112410
   7 H :    0.124916
   8 H :    0.111598
   9 H :    0.124527
  10 H :    0.113938
  11 H :    0.098473
  12 C :   -0.044754
  13 H :    0.104243
  14 H :    0.108734
  15 O :   -0.328544
  16 C :    0.013389
  17 C :    0.035303
  18 C :   -0.239434
  19 C :   -0.039966
  20 O :   -0.326410
  21 H :    0.118292
  22 O :   -0.415115
  23 H :    0.115827
  24 H :    0.126840
  25 H :    0.115502
  26 H :    0.109373
  27 H :    0.100514
  28 H :    0.283450

  Mayer bond orders larger than 0.100000
B(  0-C ,  1-C ) :   0.9493 B(  0-C ,  4-O ) :   0.9051 B(  0-C ,  5-H ) :   0.9234
B(  0-C , 15-O ) :   0.8552 B(  1-C ,  2-C ) :   0.9569 B(  1-C ,  6-H ) :   0.9394
B(  1-C ,  7-H ) :   0.9361 B(  2-C ,  3-C ) :   0.9620 B(  2-C ,  8-H ) :   0.9448
B(  2-C ,  9-H ) :   0.9396 B(  3-C ,  4-O ) :   0.8256 B(  3-C , 10-H ) :   0.9189
B(  3-C , 11-H ) :   0.9399 B( 12-C , 13-H ) :   0.9220 B( 12-C , 14-H ) :   0.9157
B( 12-C , 15-O ) :   0.8434 B( 12-C , 16-C ) :   0.8954 B( 16-C , 17-C ) :   0.8963
B( 16-C , 20-O ) :   0.8587 B( 16-C , 21-H ) :   0.9258 B( 17-C , 18-C ) :   0.9101
B( 17-C , 22-O ) :   0.8915 B( 17-C , 23-H ) :   0.9334 B( 18-C , 19-C ) :   0.9440
B( 18-C , 24-H ) :   0.9375 B( 18-C , 25-H ) :   0.9333 B( 19-C , 20-O ) :   0.8400
B( 19-C , 26-H ) :   0.9261 B( 19-C , 27-H ) :   0.9382 B( 22-O , 28-H ) :   0.7946

FINAL SINGLE POINT ENERGY      -652.867738208521

DIPOLE MOMENT
-------------
                                X             Y             Z
Electronic contribution:     -3.25980      -0.58613      -0.82858
Nuclear contribution   :      3.88729       0.48113       0.96126
                        -----------------------------------------
Total Dipole Moment    :      0.62749      -0.10500       0.13268
                        -----------------------------------------
Magnitude (a.u.)       :      0.64990
Magnitude (Debye)      :      1.65191

Rotational constants in cm-1:     0.055423     0.016046     0.014704
Rotational constants in MHz :  1661.553085   481.060278   440.805835

                             ****ORCA TERMINATED NORMALLY****
TOTAL RUN TIME: 0 days 0 hours 23 minutes 5 seconds 803 msec
