                         Program Version 4.2.0 -  RELEASE  -
|  1> # Test redundant internal optimization
|  2> #
|  3> ! RKS B3LYP  Opt TightSCF SmallPrint
|  4>
|  5> %basis
|  6>         Basis "6-31G"
|  7> end
|  8>
|  9> %geom
| 10> Constraints
| 11> { D 4  0  15  12  270.0   C } # D for Dihedral angle
| 12> { D 0  15  12  16  0.0   C } # D for Dihedral angle
| 13> { D 0  4  3  2   C } # D for Dihedral angle
| 14> { D 4  3  2  1   C } # D for Dihedral angle
| 15> { D 3  2  1  0   C } # D for Dihedral angle
| 16> { D 2  1  0  4   C } # D for Dihedral angle
| 17> { D 1  0  4  3   C } # D for Dihedral angle
| 18> { D 16  20  19  18   C } # D for Dihedral angle
| 19> { D 20  19  18  17   C } # D for Dihedral angle
| 20> { D 19  18  17  16   C } # D for Dihedral angle
| 21> { D 18  17  16  20   C } # D for Dihedral angle
| 22> { D 17  16  20  19   C } # D for Dihedral angle
| 23> { D 15  12  16  20   C } # D for Dihedral angle
| 24> end
| 25> end
| 26>
| 27>
| 28> #%pal
| 29> #nprocs 8
| 30> #end
| 31>
| 32> * xyz 0 1
| 33> C  -21.048   26.222   46.251
| 34> C  -20.361   27.558   45.944
| 35> C  -20.329   28.222   47.341
| 36> C  -20.110   27.022   48.296
| 37> O  -20.473   25.807   47.535
| 38> H  -20.833   25.428   45.533
| 39> H  -19.344   27.382   45.576
| 40> H  -20.898   28.157   45.201
| 41> H  -19.543   28.978   47.434
| 42> H  -21.289   28.710   47.548
| 43> H  -20.733   27.082   49.195
| 44> H  -19.064   26.913   48.597
| 45> C  -23.420   25.119   46.072
| 46> H  -24.013   24.856   46.957
| 47> H  -24.109   25.300   45.238
| 48> O  -22.586   26.394   46.375
| 49> C  -22.535   23.898   45.698
| 50> C  -23.391   22.693   45.294
| 51> C  -23.777   23.055   43.840
| 52> C  -22.515   23.782   43.312
| 53> O  -21.737   24.190   44.502
| 54> H  -21.833   23.701   46.511
| 55> H  -22.790   21.777   45.318
| 56> O  -24.628   22.489   46.211
| 57> H  -24.035   22.178   43.238
| 58> H  -24.641   23.730   43.836
| 59> H  -22.760   24.672   42.722
| 60> H  -21.873   23.127   42.717
| 61> H  -25.247   23.392   46.203
| 62> *
| 63>
| 64>                          ****END OF INPUT****
 Total Charge           Charge          ....    0
 Multiplicity           Mult            ....    1
 Number of Electrons    NEL             ....  102
FINAL SINGLE POINT ENERGY      -652.826184934733
FINAL SINGLE POINT ENERGY      -652.849727077831
FINAL SINGLE POINT ENERGY      -652.855356647570
FINAL SINGLE POINT ENERGY      -652.857700569890
FINAL SINGLE POINT ENERGY      -652.857976541185
FINAL SINGLE POINT ENERGY      -652.858052811176
FINAL SINGLE POINT ENERGY      -652.858059871284
FINAL SINGLE POINT ENERGY      -652.858062168605
                    ***********************HURRAY********************

CARTESIAN COORDINATES (ANGSTROEM)
---------------------------------
  C    -20.894878   26.229796   46.214644
  C    -20.383359   27.655982   46.000436
  C    -20.464578   28.242189   47.431292
  C    -20.109497   27.028148   48.321190
  O    -20.301753   25.828497   47.474022
  H    -20.597437   25.498013   45.467393
  H    -19.345121   27.617028   45.650756
  H    -20.985570   28.203118   45.272759
  H    -19.781191   29.083126   47.583843
  H    -21.485231   28.580905   47.630498
  H    -20.748649   26.946140   49.204677
  H    -19.061043   27.027197   48.635835
  C    -23.198543   25.183284   46.043027
  H    -23.776655   24.988259   46.955375
  H    -23.892915   25.511878   45.257419
  O    -22.337027   26.326342   46.319412
  C    -22.517877   23.875153   45.637150
  C    -23.508809   22.740152   45.318829
  C    -23.888912   23.052304   43.837867
  C    -22.567278   23.605167   43.256927
  O    -21.723048   24.002413   44.414559
  H    -21.811591   23.586212   46.420923
  H    -22.987476   21.782837   45.383289
  O    -24.627142   22.605268   46.224216
  H    -24.247598   22.165967   43.308886
  H    -24.684888   23.808074   43.814631
  H    -22.715771   24.475841   42.610693
  H    -22.008120   22.845257   42.703183
  H    -25.263043   23.339454   46.101270

 Multiplicity           Mult            ....    1
 Number of Electrons    NEL             ....  102
 Basis Dimension        Dim             ....  149

ORBITAL ENERGIES
----------------

  NO   OCC          E(Eh)            E(eV)
   0   2.0000     -19.153461      -521.1922
   1   2.0000     -19.148353      -521.0532
   2   2.0000     -19.132329      -520.6171
   3   2.0000     -19.125488      -520.4310
   4   2.0000     -10.260470      -279.2016
   5   2.0000     -10.250752      -278.9371
   6   2.0000     -10.237972      -278.5894
   7   2.0000     -10.235701      -278.5276
   8   2.0000     -10.230295      -278.3805
   9   2.0000     -10.213735      -277.9299
  10   2.0000     -10.200475      -277.5690
  11   2.0000     -10.174202      -276.8541
  12   2.0000     -10.172754      -276.8147
  13   2.0000      -1.043559       -28.3967
  14   2.0000      -1.035163       -28.1682
  15   2.0000      -1.021967       -27.8091
  16   2.0000      -0.980794       -26.6887
  17   2.0000      -0.788760       -21.4632
  18   2.0000      -0.777881       -21.1672
  19   2.0000      -0.764074       -20.7915
  20   2.0000      -0.726496       -19.7689
  21   2.0000      -0.678485       -18.4625
  22   2.0000      -0.617952       -16.8153
  23   2.0000      -0.600367       -16.3368
  24   2.0000      -0.586405       -15.9569
  25   2.0000      -0.559279       -15.2188
  26   2.0000      -0.535402       -14.5690
  27   2.0000      -0.510328       -13.8867
  28   2.0000      -0.495045       -13.4709
  29   2.0000      -0.474227       -12.9044
  30   2.0000      -0.470201       -12.7948
  31   2.0000      -0.453120       -12.3300
  32   2.0000      -0.438331       -11.9276
  33   2.0000      -0.433341       -11.7918
  34   2.0000      -0.431676       -11.7465
  35   2.0000      -0.417068       -11.3490
  36   2.0000      -0.406331       -11.0568
  37   2.0000      -0.392448       -10.6790
  38   2.0000      -0.385971       -10.5028
  39   2.0000      -0.366514        -9.9733
  40   2.0000      -0.357229        -9.7207
  41   2.0000      -0.344779        -9.3819
  42   2.0000      -0.337069        -9.1721
  43   2.0000      -0.331239        -9.0135
  44   2.0000      -0.325266        -8.8509
  45   2.0000      -0.311699        -8.4818
  46   2.0000      -0.292621        -7.9626
  47   2.0000      -0.276760        -7.5310
  48   2.0000      -0.260574        -7.0906
  49   2.0000      -0.246073        -6.6960
  50   2.0000      -0.234190        -6.3726
  51   0.0000       0.047484         1.2921
  52   0.0000       0.074200         2.0191
  53   0.0000       0.088700         2.4136
  54   0.0000       0.096213         2.6181
  55   0.0000       0.105177         2.8620

MULLIKEN ATOMIC CHARGES
-----------------------
   0 C :    0.257074
   1 C :   -0.252826
   2 C :   -0.295994
   3 C :    0.000729
   4 O :   -0.515342
   5 H :    0.200469
   6 H :    0.141073
   7 H :    0.147811
   8 H :    0.134037
   9 H :    0.159101
  10 H :    0.142380
  11 H :    0.136964
  12 C :    0.019837
  13 H :    0.144366
  14 H :    0.124956
  15 O :   -0.543447
  16 C :    0.044283
  17 C :    0.087566
  18 C :   -0.326037
  19 C :   -0.010607
  20 O :   -0.523073
  21 H :    0.189578
  22 H :    0.170760
  23 O :   -0.594540
  24 H :    0.160557
  25 H :    0.137878
  26 H :    0.149827
  27 H :    0.155162
  28 H :    0.357459
Sum of atomic charges:    0.0000000

LOEWDIN ATOMIC CHARGES
----------------------
   0 C :    0.161803
   1 C :   -0.213710
   2 C :   -0.216517
   3 C :   -0.028338
   4 O :   -0.332493
   5 H :    0.123389
   6 H :    0.111475
   7 H :    0.119642
   8 H :    0.109809
   9 H :    0.117561
  10 H :    0.102659
  11 H :    0.099536
  12 C :   -0.043561
  13 H :    0.108041
  14 H :    0.093596
  15 O :   -0.329972
  16 C :    0.001276
  17 C :    0.041210
  18 C :   -0.241724
  19 C :   -0.029779
  20 O :   -0.325674
  21 H :    0.128957
  22 H :    0.121063
  23 O :   -0.402013
  24 H :    0.124353
  25 H :    0.106064
  26 H :    0.105520
  27 H :    0.108656
  28 H :    0.279173

  Mayer bond orders larger than 0.100000
B(  0-C ,  1-C ) :   0.9451 B(  0-C ,  4-O ) :   0.8968 B(  0-C ,  5-H ) :   0.8869
B(  0-C , 15-O ) :   0.8394 B(  1-C ,  2-C ) :   0.9567 B(  1-C ,  6-H ) :   0.9417
B(  1-C ,  7-H ) :   0.9390 B(  2-C ,  3-C ) :   0.9554 B(  2-C ,  8-H ) :   0.9463
B(  2-C ,  9-H ) :   0.9445 B(  3-C ,  4-O ) :   0.8435 B(  3-C , 10-H ) :   0.9360
B(  3-C , 11-H ) :   0.9406 B( 12-C , 13-H ) :   0.9091 B( 12-C , 14-H ) :   0.9288
B( 12-C , 15-O ) :   0.8529 B( 12-C , 16-C ) :   0.9086 B( 16-C , 17-C ) :   0.8679
B( 16-C , 20-O ) :   0.8341 B( 16-C , 21-H ) :   0.9167 B( 17-C , 18-C ) :   0.9210
B( 17-C , 22-H ) :   0.9335 B( 17-C , 23-O ) :   0.9062 B( 18-C , 19-C ) :   0.9400
B( 18-C , 24-H ) :   0.9414 B( 18-C , 25-H ) :   0.9399 B( 19-C , 20-O ) :   0.8345
B( 19-C , 26-H ) :   0.9319 B( 19-C , 27-H ) :   0.9380 B( 23-O , 28-H ) :   0.7970

FINAL SINGLE POINT ENERGY      -652.858062302576

DIPOLE MOMENT
-------------
                                X             Y             Z
Electronic contribution:     -0.24048      -3.39975       1.17107
Nuclear contribution   :     -0.39005       3.73604      -2.11161
                        -----------------------------------------
Total Dipole Moment    :     -0.63052       0.33629      -0.94054
                        -----------------------------------------
Magnitude (a.u.)       :      1.18121
Magnitude (Debye)      :      3.00240

Rotational constants in cm-1:     0.058769     0.013356     0.012267
Rotational constants in MHz :  1761.855730   400.417445   367.748183

                             ****ORCA TERMINATED NORMALLY****
TOTAL RUN TIME: 0 days 2 hours 6 minutes 50 seconds 730 msec
