                         Program Version 4.2.0 -  RELEASE  -
|  1> # Test redundant internal optimization
|  2> #
|  3> ! RKS B3LYP  Opt TightSCF SmallPrint
|  4>
|  5> %basis
|  6>         Basis "6-31G"
|  7> end
|  8>
|  9> %geom
| 10> Constraints
| 11> { D 4  0  15  12  255.0   C } # D for Dihedral angle
| 12> { D 0  15  12  16  225.0   C } # D for Dihedral angle
| 13> { D 0  4  3  2   C } # D for Dihedral angle
| 14> { D 4  3  2  1   C } # D for Dihedral angle
| 15> { D 3  2  1  0   C } # D for Dihedral angle
| 16> { D 2  1  0  4   C } # D for Dihedral angle
| 17> { D 1  0  4  3   C } # D for Dihedral angle
| 18> { D 16  20  19  18   C } # D for Dihedral angle
| 19> { D 20  19  18  17   C } # D for Dihedral angle
| 20> { D 19  18  17  16   C } # D for Dihedral angle
| 21> { D 18  17  16  20   C } # D for Dihedral angle
| 22> { D 17  16  20  19   C } # D for Dihedral angle
| 23> { D 15  12  16  20   C } # D for Dihedral angle
| 24> end
| 25> end
| 26>
| 27>
| 28> #%pal
| 29> #nprocs 8
| 30> #end
| 31>
| 32> * xyz 0 1
| 33> C  -21.048   26.222   46.251
| 34> C  -20.361   27.558   45.944
| 35> C  -20.329   28.222   47.341
| 36> C  -20.110   27.022   48.296
| 37> O  -20.473   25.807   47.535
| 38> H  -20.833   25.428   45.533
| 39> H  -19.344   27.382   45.576
| 40> H  -20.898   28.157   45.201
| 41> H  -19.543   28.978   47.434
| 42> H  -21.289   28.710   47.548
| 43> H  -20.733   27.082   49.195
| 44> H  -19.064   26.913   48.597
| 45> C  -23.431   25.260   45.734
| 46> H  -22.791   24.658   45.077
| 47> H  -23.841   24.601   46.510
| 48> O  -22.586   26.394   46.375
| 49> C  -24.622   25.799   44.894
| 50> C  -25.500   24.656   44.373
| 51> C  -26.339   24.309   45.626
| 52> C  -26.548   25.687   46.301
| 53> O  -25.525   26.592   45.736
| 54> H  -24.240   26.466   44.118
| 55> H  -26.144   25.014   43.563
| 56> O  -24.678   23.448   43.846
| 57> H  -27.286   23.817   45.380
| 58> H  -25.774   23.638   46.284
| 59> H  -26.426   25.644   47.389
| 60> H  -27.526   26.121   46.071
| 61> H  -24.025   23.070   44.641
| 62> *
| 63>
| 64>                          ****END OF INPUT****
 Total Charge           Charge          ....    0
 Multiplicity           Mult            ....    1
 Number of Electrons    NEL             ....  102
FINAL SINGLE POINT ENERGY      -652.827953253392
FINAL SINGLE POINT ENERGY      -652.851522807825
FINAL SINGLE POINT ENERGY      -652.856158601186
FINAL SINGLE POINT ENERGY      -652.857014889407
FINAL SINGLE POINT ENERGY      -652.857168756643
FINAL SINGLE POINT ENERGY      -652.857211009454
FINAL SINGLE POINT ENERGY      -652.857219246394
FINAL SINGLE POINT ENERGY      -652.857221063445
                    ***********************HURRAY********************

CARTESIAN COORDINATES (ANGSTROEM)
---------------------------------
  C    -21.036282   26.151428   46.219389
  C    -20.495972   27.549627   45.917273
  C    -20.528979   28.213054   47.315173
  C    -20.182864   27.041818   48.261514
  O    -20.425391   25.803108   47.481708
  H    -20.758643   25.369172   45.505684
  H    -19.466978   27.469175   45.546933
  H    -21.103500   28.072896   45.176448
  H    -19.823608   29.044650   47.404814
  H    -21.536973   28.586432   47.517281
  H    -20.805867   27.019149   49.159124
  H    -19.127990   27.027702   48.552693
  C    -23.276497   25.167667   45.788970
  H    -22.675592   24.545534   45.109573
  H    -23.629625   24.536429   46.615938
  O    -22.473416   26.244014   46.336382
  C    -24.445720   25.758694   45.003236
  C    -25.392706   24.698726   44.415976
  C    -26.315583   24.384915   45.632097
  C    -26.438048   25.757946   46.328141
  O    -25.317475   26.592613   45.824713
  H    -24.039414   26.420948   44.232963
  H    -25.971044   25.142875   43.602728
  O    -24.744434   23.547981   43.819720
  H    -27.280768   23.974267   45.325246
  H    -25.824954   23.648076   46.282705
  H    -26.371295   25.691398   47.418759
  H    -27.365387   26.274657   46.062412
  H    -24.451994   22.920050   44.511409

 Multiplicity           Mult            ....    1
 Number of Electrons    NEL             ....  102
 Basis Dimension        Dim             ....  149

ORBITAL ENERGIES
----------------

  NO   OCC          E(Eh)            E(eV)
   0   2.0000     -19.151548      -521.1401
   1   2.0000     -19.138188      -520.7766
   2   2.0000     -19.136509      -520.7309
   3   2.0000     -19.132726      -520.6279
   4   2.0000     -10.275534      -279.6115
   5   2.0000     -10.246324      -278.8167
   6   2.0000     -10.231008      -278.3999
   7   2.0000     -10.230448      -278.3846
   8   2.0000     -10.230281      -278.3801
   9   2.0000     -10.218743      -278.0661
  10   2.0000     -10.196954      -277.4732
  11   2.0000     -10.179182      -276.9896
  12   2.0000     -10.178464      -276.9701
  13   2.0000      -1.048501       -28.5312
  14   2.0000      -1.034231       -28.1429
  15   2.0000      -1.015637       -27.6369
  16   2.0000      -0.990102       -26.9420
  17   2.0000      -0.785159       -21.3653
  18   2.0000      -0.780477       -21.2379
  19   2.0000      -0.765773       -20.8377
  20   2.0000      -0.727247       -19.7894
  21   2.0000      -0.678890       -18.4735
  22   2.0000      -0.612848       -16.6764
  23   2.0000      -0.592770       -16.1301
  24   2.0000      -0.589061       -16.0292
  25   2.0000      -0.577254       -15.7079
  26   2.0000      -0.530309       -14.4304
  27   2.0000      -0.511400       -13.9159
  28   2.0000      -0.495970       -13.4960
  29   2.0000      -0.487239       -13.2584
  30   2.0000      -0.465850       -12.6764
  31   2.0000      -0.454384       -12.3644
  32   2.0000      -0.441217       -12.0061
  33   2.0000      -0.437668       -11.9095
  34   2.0000      -0.428175       -11.6512
  35   2.0000      -0.416204       -11.3255
  36   2.0000      -0.406555       -11.0629
  37   2.0000      -0.395473       -10.7614
  38   2.0000      -0.377577       -10.2744
  39   2.0000      -0.364968        -9.9313
  40   2.0000      -0.356472        -9.7001
  41   2.0000      -0.350285        -9.5317
  42   2.0000      -0.343314        -9.3421
  43   2.0000      -0.329547        -8.9674
  44   2.0000      -0.317640        -8.6434
  45   2.0000      -0.313699        -8.5362
  46   2.0000      -0.298687        -8.1277
  47   2.0000      -0.272718        -7.4210
  48   2.0000      -0.263757        -7.1772
  49   2.0000      -0.249865        -6.7992
  50   2.0000      -0.234542        -6.3822
  51   0.0000       0.049301         1.3415
  52   0.0000       0.077250         2.1021
  53   0.0000       0.087604         2.3838
  54   0.0000       0.093695         2.5496
  55   0.0000       0.103538         2.8174

MULLIKEN ATOMIC CHARGES
-----------------------
   0 C :    0.276858
   1 C :   -0.252226
   2 C :   -0.299868
   3 C :   -0.000193
   4 O :   -0.507217
   5 H :    0.137749
   6 H :    0.140590
   7 H :    0.151887
   8 H :    0.137841
   9 H :    0.170218
  10 H :    0.148639
  11 H :    0.138402
  12 C :   -0.003588
  13 H :    0.128367
  14 H :    0.132212
  15 O :   -0.507518
  16 C :    0.096097
  17 C :    0.082767
  18 C :   -0.324103
  19 C :   -0.013555
  20 O :   -0.503233
  21 H :    0.155664
  22 H :    0.166984
  23 O :   -0.601112
  24 H :    0.157020
  25 H :    0.134791
  26 H :    0.150725
  27 H :    0.148658
  28 H :    0.357147
Sum of atomic charges:   -0.0000000

LOEWDIN ATOMIC CHARGES
----------------------
   0 C :    0.172979
   1 C :   -0.218342
   2 C :   -0.216303
   3 C :   -0.026881
   4 O :   -0.325143
   5 H :    0.095658
   6 H :    0.111438
   7 H :    0.121234
   8 H :    0.112182
   9 H :    0.123161
  10 H :    0.106299
  11 H :    0.100370
  12 C :   -0.044061
  13 H :    0.098241
  14 H :    0.095745
  15 O :   -0.316129
  16 C :    0.017570
  17 C :    0.033897
  18 C :   -0.240923
  19 C :   -0.030490
  20 O :   -0.313308
  21 H :    0.115766
  22 H :    0.119075
  23 O :   -0.408655
  24 H :    0.122387
  25 H :    0.104180
  26 H :    0.105698
  27 H :    0.105617
  28 H :    0.278737

  Mayer bond orders larger than 0.100000
B(  0-C ,  1-C ) :   0.9455 B(  0-C ,  4-O ) :   0.9224 B(  0-C ,  5-H ) :   0.9167
B(  0-C , 15-O ) :   0.8590 B(  1-C ,  2-C ) :   0.9588 B(  1-C ,  6-H ) :   0.9388
B(  1-C ,  7-H ) :   0.9372 B(  2-C ,  3-C ) :   0.9545 B(  2-C ,  8-H ) :   0.9454
B(  2-C ,  9-H ) :   0.9422 B(  3-C ,  4-O ) :   0.8390 B(  3-C , 10-H ) :   0.9354
B(  3-C , 11-H ) :   0.9402 B( 12-C , 13-H ) :   0.9037 B( 12-C , 14-H ) :   0.9253
B( 12-C , 15-O ) :   0.8485 B( 12-C , 16-C ) :   0.9013 B( 16-C , 17-C ) :   0.8693
B( 16-C , 20-O ) :   0.8725 B( 16-C , 21-H ) :   0.9313 B( 17-C , 18-C ) :   0.9248
B( 17-C , 22-H ) :   0.9336 B( 17-C , 23-O ) :   0.8947 B( 18-C , 19-C ) :   0.9382
B( 18-C , 24-H ) :   0.9418 B( 18-C , 25-H ) :   0.9400 B( 19-C , 20-O ) :   0.8511
B( 19-C , 26-H ) :   0.9305 B( 19-C , 27-H ) :   0.9378 B( 23-O , 28-H ) :   0.7984

FINAL SINGLE POINT ENERGY      -652.857221451095

DIPOLE MOMENT
-------------
                                X             Y             Z
Electronic contribution:     -0.59785      -1.65831      -1.45796
Nuclear contribution   :      0.37113       1.37851       1.56871
                        -----------------------------------------
Total Dipole Moment    :     -0.22671      -0.27980       0.11075
                        -----------------------------------------
Magnitude (a.u.)       :      0.37677
Magnitude (Debye)      :      0.95766

Rotational constants in cm-1:     0.056956     0.011907     0.011110
Rotational constants in MHz :  1707.489878   356.977366   333.074224

                             ****ORCA TERMINATED NORMALLY****
TOTAL RUN TIME: 0 days 0 hours 25 minutes 39 seconds 975 msec
