                         Program Version 4.2.0 -  RELEASE  -
|  1> # Test redundant internal optimization
|  2> #
|  3> ! RKS B3LYP  Opt TightSCF SmallPrint
|  4>
|  5> %basis
|  6>         Basis "6-31G"
|  7> end
|  8>
|  9> %geom
| 10> Constraints
| 11> { D 4  0  15  12  285.0   C } # D for Dihedral angle
| 12> { D 0  15  12  16  150.0   C } # D for Dihedral angle
| 13> { D 0  4  3  2   C } # D for Dihedral angle
| 14> { D 4  3  2  1   C } # D for Dihedral angle
| 15> { D 3  2  1  0   C } # D for Dihedral angle
| 16> { D 2  1  0  4   C } # D for Dihedral angle
| 17> { D 1  0  4  3   C } # D for Dihedral angle
| 18> { D 16  20  19  18   C } # D for Dihedral angle
| 19> { D 20  19  18  17   C } # D for Dihedral angle
| 20> { D 19  18  17  16   C } # D for Dihedral angle
| 21> { D 18  17  16  20   C } # D for Dihedral angle
| 22> { D 17  16  20  19   C } # D for Dihedral angle
| 23> { D 15  12  16  20   C } # D for Dihedral angle
| 24> end
| 25> end
| 26>
| 27>
| 28> #%pal
| 29> #nprocs 8
| 30> #end
| 31>
| 32> * xyz 0 1
| 33> C  -21.048   26.222   46.251
| 34> C  -20.361   27.558   45.944
| 35> C  -20.329   28.222   47.341
| 36> C  -20.110   27.022   48.296
| 37> O  -20.473   25.807   47.535
| 38> H  -20.833   25.428   45.533
| 39> H  -19.344   27.382   45.576
| 40> H  -20.898   28.157   45.201
| 41> H  -19.543   28.978   47.434
| 42> H  -21.289   28.710   47.548
| 43> H  -20.733   27.082   49.195
| 44> H  -19.064   26.913   48.597
| 45> C  -23.396   25.070   46.435
| 46> H  -23.660   24.760   45.416
| 47> H  -22.795   24.273   46.891
| 48> O  -22.586   26.394   46.375
| 49> C  -24.706   25.204   47.260
| 50> C  -25.684   26.180   46.596
| 51> C  -26.295   25.301   45.479
| 52> C  -26.354   23.896   46.130
| 53> O  -25.430   23.929   47.284
| 54> H  -24.455   25.449   48.293
| 55> O  -26.776   26.614   47.612
| 56> H  -25.197   27.082   46.209
| 57> H  -27.279   25.652   45.153
| 58> H  -25.635   25.294   44.603
| 59> H  -26.042   23.102   45.443
| 60> H  -27.347   23.658   46.519
| 61> H  -27.279   25.726   48.013
| 62> *
| 63>
| 64>                          ****END OF INPUT****
 Total Charge           Charge          ....    0
 Multiplicity           Mult            ....    1
 Number of Electrons    NEL             ....  102
FINAL SINGLE POINT ENERGY      -652.840778163572
FINAL SINGLE POINT ENERGY      -652.864922777120
FINAL SINGLE POINT ENERGY      -652.868755472870
FINAL SINGLE POINT ENERGY      -652.869437300154
FINAL SINGLE POINT ENERGY      -652.869535273119
FINAL SINGLE POINT ENERGY      -652.869546413990
                    ***********************HURRAY********************

CARTESIAN COORDINATES (ANGSTROEM)
---------------------------------
  C    -21.106485   26.125935   46.237072
  C    -20.554411   27.525250   45.965217
  C    -20.610097   28.165813   47.370971
  C    -20.287225   26.981751   48.308937
  O    -20.520981   25.752745   47.506168
  H    -20.821664   25.347194   45.523327
  H    -19.521088   27.442565   45.609775
  H    -21.145583   28.063072   45.221361
  H    -19.901249   28.991385   47.485607
  H    -21.618109   28.544921   47.561502
  H    -20.924741   26.950222   49.195953
  H    -19.237954   26.956011   48.617277
  C    -23.271458   24.976339   46.377493
  H    -23.493571   24.630297   45.359070
  H    -22.675645   24.213751   46.890195
  O    -22.543084   26.240588   46.319452
  C    -24.546908   25.222639   47.178549
  C    -25.521239   26.233065   46.556563
  C    -26.237976   25.363468   45.492999
  C    -26.319671   23.972152   46.169493
  O    -25.322817   23.980194   47.269714
  H    -24.279220   25.514502   48.197329
  O    -26.450967   26.736529   47.556402
  H    -25.022053   27.109683   46.146754
  H    -27.219670   25.777607   45.251613
  H    -25.646143   25.324894   44.572045
  H    -26.086023   23.151005   45.484892
  H    -27.297340   23.781077   46.622331
  H    -26.757630   25.990345   48.113936

 Multiplicity           Mult            ....    1
 Number of Electrons    NEL             ....  102
 Basis Dimension        Dim             ....  149

ORBITAL ENERGIES
----------------

  NO   OCC          E(Eh)            E(eV)
   0   2.0000     -19.147386      -521.0269
   1   2.0000     -19.143103      -520.9103
   2   2.0000     -19.140482      -520.8390
   3   2.0000     -19.133438      -520.6473
   4   2.0000     -10.280166      -279.7375
   5   2.0000     -10.233936      -278.4795
   6   2.0000     -10.230788      -278.3939
   7   2.0000     -10.230444      -278.3845
   8   2.0000     -10.228231      -278.3243
   9   2.0000     -10.225044      -278.2376
  10   2.0000     -10.186067      -277.1770
  11   2.0000     -10.185841      -277.1708
  12   2.0000     -10.184769      -277.1416
  13   2.0000      -1.055887       -28.7321
  14   2.0000      -1.034132       -28.1402
  15   2.0000      -1.002513       -27.2798
  16   2.0000      -0.995521       -27.0895
  17   2.0000      -0.790491       -21.5104
  18   2.0000      -0.777194       -21.1485
  19   2.0000      -0.765972       -20.8432
  20   2.0000      -0.728802       -19.8317
  21   2.0000      -0.672518       -18.3001
  22   2.0000      -0.602576       -16.3969
  23   2.0000      -0.598601       -16.2888
  24   2.0000      -0.589352       -16.0371
  25   2.0000      -0.582758       -15.8577
  26   2.0000      -0.521655       -14.1950
  27   2.0000      -0.516571       -14.0566
  28   2.0000      -0.496176       -13.5016
  29   2.0000      -0.487226       -13.2581
  30   2.0000      -0.469303       -12.7704
  31   2.0000      -0.455839       -12.4040
  32   2.0000      -0.451817       -12.2946
  33   2.0000      -0.436100       -11.8669
  34   2.0000      -0.424267       -11.5449
  35   2.0000      -0.411039       -11.1849
  36   2.0000      -0.400735       -10.9045
  37   2.0000      -0.390646       -10.6300
  38   2.0000      -0.374298       -10.1852
  39   2.0000      -0.364971        -9.9314
  40   2.0000      -0.358643        -9.7592
  41   2.0000      -0.355831        -9.6827
  42   2.0000      -0.348018        -9.4701
  43   2.0000      -0.334110        -9.0916
  44   2.0000      -0.323536        -8.8039
  45   2.0000      -0.306493        -8.3401
  46   2.0000      -0.299053        -8.1376
  47   2.0000      -0.277550        -7.5525
  48   2.0000      -0.263976        -7.1831
  49   2.0000      -0.252751        -6.8777
  50   2.0000      -0.245640        -6.6842
  51   0.0000       0.065908         1.7934
  52   0.0000       0.081279         2.2117
  53   0.0000       0.096002         2.6123
  54   0.0000       0.101567         2.7638
  55   0.0000       0.108648         2.9564

MULLIKEN ATOMIC CHARGES
-----------------------
   0 C :    0.285092
   1 C :   -0.260391
   2 C :   -0.298519
   3 C :   -0.003954
   4 O :   -0.510571
   5 H :    0.143789
   6 H :    0.145581
   7 H :    0.154914
   8 H :    0.141320
   9 H :    0.165090
  10 H :    0.149611
  11 H :    0.143284
  12 C :   -0.010041
  13 H :    0.127306
  14 H :    0.170211
  15 O :   -0.528389
  16 C :    0.059281
  17 C :    0.095138
  18 C :   -0.302992
  19 C :   -0.026482
  20 O :   -0.529208
  21 H :    0.163768
  22 O :   -0.606148
  23 H :    0.172003
  24 H :    0.160624
  25 H :    0.146769
  26 H :    0.145544
  27 H :    0.144714
  28 H :    0.362655
Sum of atomic charges:    0.0000000

LOEWDIN ATOMIC CHARGES
----------------------
   0 C :    0.172636
   1 C :   -0.215129
   2 C :   -0.215720
   3 C :   -0.027422
   4 O :   -0.329259
   5 H :    0.097789
   6 H :    0.114311
   7 H :    0.123121
   8 H :    0.113790
   9 H :    0.120441
  10 H :    0.106638
  11 H :    0.103170
  12 C :   -0.042246
  13 H :    0.092763
  14 H :    0.118181
  15 O :   -0.333768
  16 C :    0.018004
  17 C :    0.038269
  18 C :   -0.242204
  19 C :   -0.037358
  20 O :   -0.331497
  21 H :    0.118604
  22 O :   -0.416295
  23 H :    0.126015
  24 H :    0.126176
  25 H :    0.114131
  26 H :    0.103410
  27 H :    0.102019
  28 H :    0.281427

  Mayer bond orders larger than 0.100000
B(  0-C ,  1-C ) :   0.9496 B(  0-C ,  4-O ) :   0.9095 B(  0-C ,  5-H ) :   0.9209
B(  0-C , 15-O ) :   0.8564 B(  1-C ,  2-C ) :   0.9565 B(  1-C ,  6-H ) :   0.9403
B(  1-C ,  7-H ) :   0.9366 B(  2-C ,  3-C ) :   0.9551 B(  2-C ,  8-H ) :   0.9452
B(  2-C ,  9-H ) :   0.9436 B(  3-C ,  4-O ) :   0.8344 B(  3-C , 10-H ) :   0.9356
B(  3-C , 11-H ) :   0.9403 B( 12-C , 13-H ) :   0.9238 B( 12-C , 14-H ) :   0.9132
B( 12-C , 15-O ) :   0.8157 B( 12-C , 16-C ) :   0.9074 B( 16-C , 17-C ) :   0.9142
B( 16-C , 20-O ) :   0.8420 B( 16-C , 21-H ) :   0.9255 B( 17-C , 18-C ) :   0.9123
B( 17-C , 22-O ) :   0.8887 B( 17-C , 23-H ) :   0.9252 B( 18-C , 19-C ) :   0.9420
B( 18-C , 24-H ) :   0.9382 B( 18-C , 25-H ) :   0.9346 B( 19-C , 20-O ) :   0.8433
B( 19-C , 26-H ) :   0.9357 B( 19-C , 27-H ) :   0.9386 B( 22-O , 28-H ) :   0.7961

FINAL SINGLE POINT ENERGY      -652.869548905044

DIPOLE MOMENT
-------------
                                X             Y             Z
Electronic contribution:     -1.55413      -2.47492       2.10237
Nuclear contribution   :      1.86505       2.62220      -2.88158
                        -----------------------------------------
Total Dipole Moment    :      0.31093       0.14728      -0.77921
                        -----------------------------------------
Magnitude (a.u.)       :      0.85179
Magnitude (Debye)      :      2.16507

Rotational constants in cm-1:     0.056729     0.012436     0.011902
Rotational constants in MHz :  1700.695296   372.816981   356.813830

                             ****ORCA TERMINATED NORMALLY****
TOTAL RUN TIME: 0 days 0 hours 45 minutes 1 seconds 134 msec
