                         Program Version 4.2.0 -  RELEASE  -
|  1> # Test redundant internal optimization
|  2> #
|  3> ! RKS B3LYP  Opt TightSCF SmallPrint
|  4>
|  5> %basis
|  6>         Basis "6-31G"
|  7> end
|  8>
|  9> %geom
| 10> Constraints
| 11> { D 4  0  15  12  225.0   C } # D for Dihedral angle
| 12> { D 0  15  12  16  210.0   C } # D for Dihedral angle
| 13> { D 0  4  3  2   C } # D for Dihedral angle
| 14> { D 4  3  2  1   C } # D for Dihedral angle
| 15> { D 3  2  1  0   C } # D for Dihedral angle
| 16> { D 2  1  0  4   C } # D for Dihedral angle
| 17> { D 1  0  4  3   C } # D for Dihedral angle
| 18> { D 16  20  19  18   C } # D for Dihedral angle
| 19> { D 20  19  18  17   C } # D for Dihedral angle
| 20> { D 19  18  17  16   C } # D for Dihedral angle
| 21> { D 18  17  16  20   C } # D for Dihedral angle
| 22> { D 17  16  20  19   C } # D for Dihedral angle
| 23> { D 15  12  16  20   C } # D for Dihedral angle
| 24> end
| 25> end
| 26>
| 27>
| 28> #%pal
| 29> #nprocs 8
| 30> #end
| 31>
| 32> * xyz 0 1
| 33> C  -21.048   26.222   46.251
| 34> C  -20.361   27.558   45.944
| 35> C  -20.329   28.222   47.341
| 36> C  -20.110   27.022   48.296
| 37> O  -20.473   25.807   47.535
| 38> H  -20.833   25.428   45.533
| 39> H  -19.344   27.382   45.576
| 40> H  -20.898   28.157   45.201
| 41> H  -19.543   28.978   47.434
| 42> H  -21.289   28.710   47.548
| 43> H  -20.733   27.082   49.195
| 44> H  -19.064   26.913   48.597
| 45> C  -23.415   25.773   45.218
| 46> H  -22.820   25.788   44.297
| 47> H  -23.669   24.729   45.445
| 48> O  -22.586   26.394   46.375
| 49> C  -24.743   26.536   44.954
| 50> C  -25.592   26.633   46.227
| 51> C  -24.896   27.793   46.979
| 52> C  -24.446   28.735   45.835
| 53> O  -24.470   27.931   44.594
| 54> H  -25.255   26.080   44.104
| 55> H  -26.623   26.902   45.971
| 56> O  -25.618   25.314   47.046
| 57> H  -25.557   28.292   47.695
| 58> H  -24.027   27.415   47.532
| 59> H  -23.436   29.130   45.988
| 60> H  -25.135   29.573   45.688
| 61> H  -24.595   25.026   47.313
| 62> *
| 63>
| 64>                          ****END OF INPUT****
 Total Charge           Charge          ....    0
 Multiplicity           Mult            ....    1
 Number of Electrons    NEL             ....  102
FINAL SINGLE POINT ENERGY      -652.834470775170
FINAL SINGLE POINT ENERGY      -652.857329582408
FINAL SINGLE POINT ENERGY      -652.861462385292
FINAL SINGLE POINT ENERGY      -652.862841714512
FINAL SINGLE POINT ENERGY      -652.862951416839
FINAL SINGLE POINT ENERGY      -652.862968532994
                    ***********************HURRAY********************

CARTESIAN COORDINATES (ANGSTROEM)
---------------------------------
  C    -21.052194   26.184790   46.189671
  C    -20.394410   27.533306   45.904227
  C    -20.400284   28.193536   47.302696
  C    -20.169847   26.997920   48.252088
  O    -20.500016   25.785225   47.456054
  H    -20.824840   25.389741   45.473992
  H    -19.368436   27.372174   45.552785
  H    -20.941607   28.107273   45.152217
  H    -19.630312   28.963722   47.407629
  H    -21.374421   28.654839   47.491345
  H    -20.809227   27.019126   49.138095
  H    -19.125804   26.893662   48.561009
  C    -23.294637   25.761500   45.230902
  H    -22.728463   25.785458   44.290434
  H    -23.538738   24.716275   45.465773
  O    -22.495112   26.343390   46.303956
  C    -24.583417   26.547507   45.023091
  C    -25.517126   26.616948   46.244177
  C    -24.929242   27.830076   47.028178
  C    -24.462961   28.771240   45.897916
  O    -24.367058   27.943278   44.666616
  H    -25.094155   26.089188   44.166999
  H    -26.541223   26.811980   45.919192
  O    -25.590852   25.389996   47.007926
  H    -25.672803   28.293280   47.683901
  H    -24.081329   27.486060   47.624674
  H    -23.485376   29.219462   46.096897
  H    -25.185826   29.565522   45.687263
  H    -24.748284   25.258527   47.492298

 Multiplicity           Mult            ....    1
 Number of Electrons    NEL             ....  102
 Basis Dimension        Dim             ....  149

ORBITAL ENERGIES
----------------

  NO   OCC          E(Eh)            E(eV)
   0   2.0000     -19.148562      -521.0589
   1   2.0000     -19.144918      -520.9597
   2   2.0000     -19.137870      -520.7679
   3   2.0000     -19.136116      -520.7202
   4   2.0000     -10.284794      -279.8635
   5   2.0000     -10.236044      -278.5369
   6   2.0000     -10.234188      -278.4864
   7   2.0000     -10.231520      -278.4138
   8   2.0000     -10.229671      -278.3635
   9   2.0000     -10.224010      -278.2095
  10   2.0000     -10.190618      -277.3008
  11   2.0000     -10.187991      -277.2293
  12   2.0000     -10.179370      -276.9947
  13   2.0000      -1.057578       -28.7782
  14   2.0000      -1.027335       -27.9552
  15   2.0000      -1.009345       -27.4657
  16   2.0000      -0.998235       -27.1634
  17   2.0000      -0.790823       -21.5194
  18   2.0000      -0.773511       -21.0483
  19   2.0000      -0.766702       -20.8630
  20   2.0000      -0.734080       -19.9753
  21   2.0000      -0.679007       -18.4767
  22   2.0000      -0.603576       -16.4241
  23   2.0000      -0.602270       -16.3886
  24   2.0000      -0.596136       -16.2217
  25   2.0000      -0.575980       -15.6732
  26   2.0000      -0.528319       -14.3763
  27   2.0000      -0.507326       -13.8050
  28   2.0000      -0.497265       -13.5313
  29   2.0000      -0.489573       -13.3219
  30   2.0000      -0.474890       -12.9224
  31   2.0000      -0.462161       -12.5760
  32   2.0000      -0.440182       -11.9779
  33   2.0000      -0.436164       -11.8686
  34   2.0000      -0.423255       -11.5174
  35   2.0000      -0.415655       -11.3105
  36   2.0000      -0.403367       -10.9762
  37   2.0000      -0.396543       -10.7905
  38   2.0000      -0.379653       -10.3309
  39   2.0000      -0.372917       -10.1476
  40   2.0000      -0.360470        -9.8089
  41   2.0000      -0.355232        -9.6664
  42   2.0000      -0.350265        -9.5312
  43   2.0000      -0.326647        -8.8885
  44   2.0000      -0.318964        -8.6795
  45   2.0000      -0.313789        -8.5386
  46   2.0000      -0.305365        -8.3094
  47   2.0000      -0.270371        -7.3572
  48   2.0000      -0.263774        -7.1777
  49   2.0000      -0.254980        -6.9384
  50   2.0000      -0.239631        -6.5207
  51   0.0000       0.064344         1.7509
  52   0.0000       0.072888         1.9834
  53   0.0000       0.087545         2.3822
  54   0.0000       0.095879         2.6090
  55   0.0000       0.104745         2.8503

MULLIKEN ATOMIC CHARGES
-----------------------
   0 C :    0.290774
   1 C :   -0.258477
   2 C :   -0.308007
   3 C :   -0.003271
   4 O :   -0.503684
   5 H :    0.143745
   6 H :    0.144482
   7 H :    0.161648
   8 H :    0.145289
   9 H :    0.159601
  10 H :    0.149436
  11 H :    0.144871
  12 C :   -0.027573
  13 H :    0.144901
  14 H :    0.146870
  15 O :   -0.533934
  16 C :    0.094395
  17 C :    0.089869
  18 C :   -0.317538
  19 C :   -0.007309
  20 O :   -0.523962
  21 H :    0.148929
  22 H :    0.160690
  23 O :   -0.608928
  24 H :    0.143763
  25 H :    0.171280
  26 H :    0.140280
  27 H :    0.142842
  28 H :    0.369016
Sum of atomic charges:   -0.0000000

LOEWDIN ATOMIC CHARGES
----------------------
   0 C :    0.179550
   1 C :   -0.224092
   2 C :   -0.217214
   3 C :   -0.026579
   4 O :   -0.312150
   5 H :    0.100536
   6 H :    0.113975
   7 H :    0.124619
   8 H :    0.116011
   9 H :    0.114758
  10 H :    0.106567
  11 H :    0.104032
  12 C :   -0.047087
  13 H :    0.104325
  14 H :    0.104392
  15 O :   -0.346293
  16 C :    0.017574
  17 C :    0.038673
  18 C :   -0.244444
  19 C :   -0.025346
  20 O :   -0.325024
  21 H :    0.114283
  22 H :    0.115740
  23 O :   -0.411539
  24 H :    0.114842
  25 H :    0.123561
  26 H :    0.099533
  27 H :    0.101186
  28 H :    0.285614

  Mayer bond orders larger than 0.100000
B(  0-C ,  1-C ) :   0.9373 B(  0-C ,  4-O ) :   0.9369 B(  0-C ,  5-H ) :   0.9203
B(  0-C , 15-O ) :   0.8257 B(  1-C ,  2-C ) :   0.9551 B(  1-C ,  6-H ) :   0.9348
B(  1-C ,  7-H ) :   0.9334 B(  2-C ,  3-C ) :   0.9536 B(  2-C ,  8-H ) :   0.9447
B(  2-C ,  9-H ) :   0.9405 B(  3-C ,  4-O ) :   0.8366 B(  3-C , 10-H ) :   0.9351
B(  3-C , 11-H ) :   0.9394 B( 12-C , 13-H ) :   0.9220 B( 12-C , 14-H ) :   0.9053
B( 12-C , 15-O ) :   0.8344 B( 12-C , 16-C ) :   0.9103 B( 16-C , 17-C ) :   0.8869
B( 16-C , 20-O ) :   0.8757 B( 16-C , 21-H ) :   0.9275 B( 17-C , 18-C ) :   0.9329
B( 17-C , 22-H ) :   0.9363 B( 17-C , 23-O ) :   0.9048 B( 18-C , 19-C ) :   0.9463
B( 18-C , 24-H ) :   0.9414 B( 18-C , 25-H ) :   0.9246 B( 19-C , 20-O ) :   0.8385
B( 19-C , 26-H ) :   0.9287 B( 19-C , 27-H ) :   0.9373 B( 23-O , 28-H ) :   0.7895

FINAL SINGLE POINT ENERGY      -652.862969633012

DIPOLE MOMENT
-------------
                                X             Y             Z
Electronic contribution:     -2.47522      -4.19264      -1.33166
Nuclear contribution   :      3.25303       4.94137       1.40617
                        -----------------------------------------
Total Dipole Moment    :      0.77782       0.74873       0.07450
                        -----------------------------------------
Magnitude (a.u.)       :      1.08220
Magnitude (Debye)      :      2.75073

Rotational constants in cm-1:     0.044465     0.016675     0.015603
Rotational constants in MHz :  1333.020500   499.917043   467.777676

                             ****ORCA TERMINATED NORMALLY****
TOTAL RUN TIME: 0 days 0 hours 27 minutes 41 seconds 905 msec
