                         Program Version 4.2.1 -  RELEASE  -
|  1> # Test redundant internal optimization
|  2> #
|  3> ! RKS B3LYP  Opt TightSCF SmallPrint
|  4>
|  5> %basis
|  6>         Basis "6-31G"
|  7> end
|  8>
|  9> %geom
| 10> Constraints
| 11> { D 4  0  19  14  15.0   C } # D for Dihedral angle
| 12> { D 0  19  14  12  60.0   C } # D for Dihedral angle
| 13> { D 0  4  3  2   C } # D for Dihedral angle
| 14> { D 4  3  2  1   C } # D for Dihedral angle
| 15> { D 3  2  1  0   C } # D for Dihedral angle
| 16> { D 2  1  0  4   C } # D for Dihedral angle
| 17> { D 1  0  4  3   C } # D for Dihedral angle
| 18> { D 14  15  16  17   C } # D for Dihedral angle
| 19> { D 15  16  17  12   C } # D for Dihedral angle
| 20> { D 16  17  12  14   C } # D for Dihedral angle
| 21> { D 17  12  14  15   C } # D for Dihedral angle
| 22> { D 12  14  15  16   C } # D for Dihedral angle
| 23> end
| 24> end
| 25>
| 26>
| 27> #%pal
| 28> #nprocs 8
| 29> #end
| 30>
| 31> * xyz 0 1
| 32> C  -21.048   26.222   46.251
| 33> C  -20.361   27.558   45.944
| 34> C  -20.329   28.222   47.341
| 35> C  -20.110   27.022   48.296
| 36> O  -20.473   25.807   47.535
| 37> H  -20.833   25.428   45.533
| 38> H  -19.344   27.382   45.576
| 39> H  -20.898   28.157   45.201
| 40> H  -19.543   28.978   47.434
| 41> H  -21.289   28.710   47.548
| 42> H  -20.733   27.082   49.195
| 43> H  -19.064   26.913   48.597
| 44> C  -22.319   27.630   48.449
| 45> H  -22.434   27.537   49.541
| 46> C  -22.954   26.442   47.718
| 47> C  -24.453   26.820   47.747
| 48> C  -24.430   28.363   47.607
| 49> O  -23.059   28.796   47.954
| 50> H  -21.266   27.796   48.214
| 51> O  -22.472   26.381   46.366
| 52> H  -22.749   25.480   48.201
| 53> H  -25.029   26.337   46.952
| 54> H  -24.898   26.527   48.707
| 55> H  -25.143   28.857   48.276
| 56> H  -24.621   28.692   46.581
| 57> *
| 58>
| 59>                          ****END OF INPUT****
 Total Charge           Charge          ....    0
 Multiplicity           Mult            ....    1
 Number of Electrons    NEL             ....   86
FINAL SINGLE POINT ENERGY      -538.230877876357
FINAL SINGLE POINT ENERGY      -538.288258353780
FINAL SINGLE POINT ENERGY      -538.325344691459
FINAL SINGLE POINT ENERGY      -538.351667474138
FINAL SINGLE POINT ENERGY      -538.371053116401
FINAL SINGLE POINT ENERGY      -538.385364971802
FINAL SINGLE POINT ENERGY      -538.395738087259
FINAL SINGLE POINT ENERGY      -538.403154530803
FINAL SINGLE POINT ENERGY      -538.408394360288
FINAL SINGLE POINT ENERGY      -538.411942636546
FINAL SINGLE POINT ENERGY      -538.423491748307
FINAL SINGLE POINT ENERGY      -538.423517513040
FINAL SINGLE POINT ENERGY      -538.423532646896
FINAL SINGLE POINT ENERGY      -538.423550011381
FINAL SINGLE POINT ENERGY      -538.423568604456
FINAL SINGLE POINT ENERGY      -538.423588676290
FINAL SINGLE POINT ENERGY      -538.423602176721
FINAL SINGLE POINT ENERGY      -538.423610948586
FINAL SINGLE POINT ENERGY      -538.423612925190
                    ***********************HURRAY********************

CARTESIAN COORDINATES (ANGSTROEM)
---------------------------------
  C    -21.030075   26.282105   46.405123
  C    -20.358385   27.554375   45.875884
  C    -19.922600   28.257708   47.189027
  C    -19.546019   27.069125   48.106934
  O    -20.184800   25.868828   47.500421
  H    -20.978313   25.461690   45.682965
  H    -19.489867   27.263792   45.274293
  H    -21.034219   28.158528   45.267353
  H    -19.078835   28.939086   47.042463
  H    -20.759980   28.839166   47.587165
  H    -19.882951   27.174427   49.141768
  H    -18.469010   26.873311   48.111269
  C    -22.790547   27.590559   48.888523
  H    -23.242801   27.386084   49.871159
  C    -23.150153   26.451560   47.935582
  C    -24.596031   26.813029   47.556218
  C    -24.589147   28.358260   47.522900
  O    -23.386939   28.783977   48.279708
  H    -21.734023   27.786230   49.025063
  O    -22.456342   26.402902   46.650002
  H    -23.063843   25.475458   48.428162
  H    -24.861565   26.363635   46.597933
  H    -25.284291   26.437823   48.322931
  H    -25.476590   28.795559   47.992361
  H    -24.484674   28.751783   46.508795

 Multiplicity           Mult            ....    1
 Number of Electrons    NEL             ....   86
 Basis Dimension        Dim             ....  127

ORBITAL ENERGIES
----------------

  NO   OCC          E(Eh)            E(eV)
   0   2.0000     -19.147615      -521.0331
   1   2.0000     -19.134095      -520.6652
   2   2.0000     -19.132658      -520.6261
   3   2.0000     -10.276376      -279.6344
   4   2.0000     -10.241343      -278.6811
   5   2.0000     -10.230155      -278.3767
   6   2.0000     -10.223541      -278.1967
   7   2.0000     -10.220593      -278.1165
   8   2.0000     -10.185131      -277.1515
   9   2.0000     -10.183080      -277.0957
  10   2.0000     -10.182038      -277.0674
  11   2.0000      -1.048033       -28.5184
  12   2.0000      -1.015738       -27.6396
  13   2.0000      -0.987624       -26.8746
  14   2.0000      -0.790974       -21.5235
  15   2.0000      -0.779325       -21.2065
  16   2.0000      -0.741443       -20.1757
  17   2.0000      -0.721862       -19.6429
  18   2.0000      -0.623783       -16.9740
  19   2.0000      -0.600373       -16.3370
  20   2.0000      -0.595128       -16.1943
  21   2.0000      -0.561656       -15.2834
  22   2.0000      -0.508474       -13.8363
  23   2.0000      -0.503734       -13.7073
  24   2.0000      -0.496607       -13.5134
  25   2.0000      -0.483971       -13.1695
  26   2.0000      -0.452665       -12.3176
  27   2.0000      -0.440077       -11.9751
  28   2.0000      -0.428869       -11.6701
  29   2.0000      -0.414864       -11.2890
  30   2.0000      -0.409511       -11.1434
  31   2.0000      -0.377978       -10.2853
  32   2.0000      -0.370767       -10.0891
  33   2.0000      -0.361603        -9.8397
  34   2.0000      -0.359071        -9.7708
  35   2.0000      -0.355798        -9.6817
  36   2.0000      -0.340238        -9.2584
  37   2.0000      -0.323524        -8.8035
  38   2.0000      -0.311704        -8.4819
  39   2.0000      -0.300607        -8.1799
  40   2.0000      -0.262676        -7.1478
  41   2.0000      -0.245913        -6.6916
  42   2.0000      -0.236843        -6.4448
  43   0.0000       0.079023         2.1503
  44   0.0000       0.092245         2.5101
  45   0.0000       0.098295         2.6747
  46   0.0000       0.108632         2.9560
  47   0.0000       0.112268         3.0550

MULLIKEN ATOMIC CHARGES
-----------------------
   0 C :    0.317366
   1 C :   -0.262202
   2 C :   -0.333780
   3 C :   -0.024935
   4 O :   -0.515763
   5 H :    0.157856
   6 H :    0.146120
   7 H :    0.158988
   8 H :    0.145255
   9 H :    0.188406
  10 H :    0.147809
  11 H :    0.149739
  12 C :   -0.020686
  13 H :    0.130132
  14 C :    0.101994
  15 C :   -0.290403
  16 C :    0.002913
  17 O :   -0.528125
  18 H :    0.147761
  19 O :   -0.552212
  20 H :    0.139626
  21 H :    0.168648
  22 H :    0.139111
  23 H :    0.134556
  24 H :    0.151825
Sum of atomic charges:   -0.0000000

LOEWDIN ATOMIC CHARGES
----------------------
   0 C :    0.183594
   1 C :   -0.221428
   2 C :   -0.228374
   3 C :   -0.037606
   4 O :   -0.321640
   5 H :    0.104738
   6 H :    0.115092
   7 H :    0.125375
   8 H :    0.116651
   9 H :    0.127185
  10 H :    0.099683
  11 H :    0.105864
  12 C :   -0.053962
  13 H :    0.096439
  14 C :    0.052212
  15 C :   -0.221819
  16 C :   -0.026992
  17 O :   -0.337087
  18 H :    0.113572
  19 O :   -0.341145
  20 H :    0.102385
  21 H :    0.131312
  22 H :    0.110131
  23 H :    0.098235
  24 H :    0.107583

  Mayer bond orders larger than 0.100000
B(  0-C ,  1-C ) :   0.9213 B(  0-C ,  4-O ) :   0.9091 B(  0-C ,  5-H ) :   0.9353
B(  0-C , 19-O ) :   0.8543 B(  1-C ,  2-C ) :   0.9549 B(  1-C ,  6-H ) :   0.9356
B(  1-C ,  7-H ) :   0.9364 B(  2-C ,  3-C ) :   0.9501 B(  2-C ,  8-H ) :   0.9439
B(  2-C ,  9-H ) :   0.9224 B(  3-C ,  4-O ) :   0.8349 B(  3-C , 10-H ) :   0.9206
B(  3-C , 11-H ) :   0.9370 B( 12-C , 13-H ) :   0.9124 B( 12-C , 14-C ) :   0.9126
B( 12-C , 17-O ) :   0.8589 B( 12-C , 18-H ) :   0.9166 B( 14-C , 15-C ) :   0.9555
B( 14-C , 19-O ) :   0.8257 B( 14-C , 20-H ) :   0.9230 B( 15-C , 16-C ) :   0.9447
B( 15-C , 21-H ) :   0.9350 B( 15-C , 22-H ) :   0.9427 B( 16-C , 17-O ) :   0.8491
B( 16-C , 23-H ) :   0.9342 B( 16-C , 24-H ) :   0.9377

FINAL SINGLE POINT ENERGY      -538.423612861897

DIPOLE MOMENT
-------------
                                X             Y             Z
Electronic contribution:     -0.14496      -2.35034      -0.39021
Nuclear contribution   :      0.15581       2.42301       0.48722
                        -----------------------------------------
Total Dipole Moment    :      0.01084       0.07267       0.09702
                        -----------------------------------------
Magnitude (a.u.)       :      0.12170
Magnitude (Debye)      :      0.30934

Rotational constants in cm-1:     0.067468     0.026224     0.024415
Rotational constants in MHz :  2022.626378   786.171568   731.953731

                             ****ORCA TERMINATED NORMALLY****
TOTAL RUN TIME: 0 days 0 hours 42 minutes 4 seconds 239 msec
