                         Program Version 4.2.0 -  RELEASE  -
|  1> # Test redundant internal optimization
|  2> #
|  3> ! RKS B3LYP  Opt TightSCF SmallPrint
|  4>
|  5> %basis
|  6>         Basis "6-31G"
|  7> end
|  8>
|  9> %geom
| 10> Constraints
| 11> { D 4  0  15  12  195.0   C } # D for Dihedral angle
| 12> { D 0  15  12  16  315.0   C } # D for Dihedral angle
| 13> { D 0  4  3  2   C } # D for Dihedral angle
| 14> { D 4  3  2  1   C } # D for Dihedral angle
| 15> { D 3  2  1  0   C } # D for Dihedral angle
| 16> { D 2  1  0  4   C } # D for Dihedral angle
| 17> { D 1  0  4  3   C } # D for Dihedral angle
| 18> { D 16  20  19  18   C } # D for Dihedral angle
| 19> { D 20  19  18  17   C } # D for Dihedral angle
| 20> { D 19  18  17  16   C } # D for Dihedral angle
| 21> { D 18  17  16  20   C } # D for Dihedral angle
| 22> { D 17  16  20  19   C } # D for Dihedral angle
| 23> { D 15  12  16  20   C } # D for Dihedral angle
| 24> end
| 25> end
| 26>
| 27>
| 28> #%pal
| 29> #nprocs 8
| 30> #end
| 31>
| 32> * xyz 0 1
| 33> C  -21.048   26.222   46.251
| 34> C  -20.361   27.558   45.944
| 35> C  -20.329   28.222   47.341
| 36> C  -20.110   27.022   48.296
| 37> O  -20.473   25.807   47.535
| 38> H  -20.833   25.428   45.533
| 39> H  -19.344   27.382   45.576
| 40> H  -20.898   28.157   45.201
| 41> H  -19.543   28.978   47.434
| 42> H  -21.289   28.710   47.548
| 43> H  -20.733   27.082   49.195
| 44> H  -19.064   26.913   48.597
| 45> C  -23.353   26.472   45.026
| 46> H  -23.419   25.468   44.589
| 47> H  -24.373   26.845   45.186
| 48> O  -22.586   26.394   46.375
| 49> C  -22.663   27.409   43.997
| 50> C  -23.504   27.553   42.724
| 51> C  -24.575   28.577   43.170
| 52> C  -23.793   29.509   44.129
| 53> O  -22.573   28.774   44.526
| 54> H  -21.641   27.064   43.827
| 55> H  -22.893   27.962   41.912
| 56> O  -24.119   26.210   42.244
| 57> H  -25.019   29.121   42.330
| 58> H  -25.385   28.066   43.704
| 59> H  -24.367   29.763   45.027
| 60> H  -23.469   30.433   43.641
| 61> H  -24.737   25.781   43.040
| 62> *
| 63>
| 64>                          ****END OF INPUT****
 Total Charge           Charge          ....    0
 Multiplicity           Mult            ....    1
 Number of Electrons    NEL             ....  102
FINAL SINGLE POINT ENERGY      -652.817864402338
FINAL SINGLE POINT ENERGY      -652.842118516814
FINAL SINGLE POINT ENERGY      -652.849651242115
FINAL SINGLE POINT ENERGY      -652.851609620938
FINAL SINGLE POINT ENERGY      -652.851965734652
FINAL SINGLE POINT ENERGY      -652.852050862953
FINAL SINGLE POINT ENERGY      -652.852057225194
FINAL SINGLE POINT ENERGY      -652.852058818438
                    ***********************HURRAY********************

CARTESIAN COORDINATES (ANGSTROEM)
---------------------------------
  C    -20.938135   26.234078   46.200404
  C    -20.193324   27.554310   46.005246
  C    -20.318316   28.205968   47.406445
  C    -20.243859   26.989929   48.352290
  O    -20.541004   25.804040   47.510745
  H    -20.677833   25.435893   45.495536
  H    -19.144078   27.329998   45.774269
  H    -20.604558   28.196188   45.228486
  H    -19.529042   28.938308   47.600169
  H    -21.288110   28.705374   47.484309
  H    -20.972568   27.028106   49.166336
  H    -19.243349   26.834917   48.768036
  C    -23.177662   26.511787   45.044504
  H    -23.294172   25.508157   44.602405
  H    -24.154617   26.843383   45.409142
  O    -22.389094   26.398716   46.259692
  C    -22.681444   27.431024   43.925171
  C    -23.653010   27.494520   42.731738
  C    -24.691900   28.554369   43.218820
  C    -23.816365   29.537735   44.028182
  O    -22.552870   28.823183   44.346718
  H    -21.687033   27.116915   43.596994
  H    -23.117010   27.868287   41.856500
  O    -24.212420   26.233538   42.301593
  H    -25.211247   29.033230   42.385418
  H    -25.443962   28.068745   43.854317
  H    -24.284985   29.859086   44.962622
  H    -23.542667   30.423053   43.447005
  H    -24.889368   25.919163   42.934910

 Multiplicity           Mult            ....    1
 Number of Electrons    NEL             ....  102
 Basis Dimension        Dim             ....  149

ORBITAL ENERGIES
----------------

  NO   OCC          E(Eh)            E(eV)
   0   2.0000     -19.157051      -521.2899
   1   2.0000     -19.149947      -521.0966
   2   2.0000     -19.132805      -520.6301
   3   2.0000     -19.130349      -520.5633
   4   2.0000     -10.271601      -279.5045
   5   2.0000     -10.254070      -279.0274
   6   2.0000     -10.240384      -278.6550
   7   2.0000     -10.239963      -278.6435
   8   2.0000     -10.232494      -278.4403
   9   2.0000     -10.214788      -277.9585
  10   2.0000     -10.203174      -277.6425
  11   2.0000     -10.173574      -276.8370
  12   2.0000     -10.169473      -276.7254
  13   2.0000      -1.046518       -28.4772
  14   2.0000      -1.040057       -28.3014
  15   2.0000      -1.025496       -27.9052
  16   2.0000      -0.983872       -26.7725
  17   2.0000      -0.791144       -21.5281
  18   2.0000      -0.773500       -21.0480
  19   2.0000      -0.771301       -20.9882
  20   2.0000      -0.729874       -19.8609
  21   2.0000      -0.682195       -18.5635
  22   2.0000      -0.620552       -16.8861
  23   2.0000      -0.602784       -16.4026
  24   2.0000      -0.588175       -16.0051
  25   2.0000      -0.566297       -15.4097
  26   2.0000      -0.533289       -14.5115
  27   2.0000      -0.516186       -14.0461
  28   2.0000      -0.492023       -13.3886
  29   2.0000      -0.485670       -13.2158
  30   2.0000      -0.466287       -12.6883
  31   2.0000      -0.451479       -12.2854
  32   2.0000      -0.449432       -12.2297
  33   2.0000      -0.437593       -11.9075
  34   2.0000      -0.435258       -11.8440
  35   2.0000      -0.418592       -11.3905
  36   2.0000      -0.411984       -11.2106
  37   2.0000      -0.397743       -10.8231
  38   2.0000      -0.385635       -10.4937
  39   2.0000      -0.364958        -9.9310
  40   2.0000      -0.361732        -9.8432
  41   2.0000      -0.348879        -9.4935
  42   2.0000      -0.340745        -9.2721
  43   2.0000      -0.334030        -9.0894
  44   2.0000      -0.323608        -8.8058
  45   2.0000      -0.304684        -8.2909
  46   2.0000      -0.293963        -7.9992
  47   2.0000      -0.280775        -7.6403
  48   2.0000      -0.261435        -7.1140
  49   2.0000      -0.248178        -6.7533
  50   2.0000      -0.237491        -6.4625
  51   0.0000       0.047523         1.2932
  52   0.0000       0.071179         1.9369
  53   0.0000       0.081384         2.2146
  54   0.0000       0.094337         2.5670
  55   0.0000       0.101128         2.7518

MULLIKEN ATOMIC CHARGES
-----------------------
   0 C :    0.291104
   1 C :   -0.287580
   2 C :   -0.298004
   3 C :   -0.000156
   4 O :   -0.504208
   5 H :    0.134313
   6 H :    0.133617
   7 H :    0.193820
   8 H :    0.136097
   9 H :    0.163121
  10 H :    0.149607
  11 H :    0.136816
  12 C :    0.000548
  13 H :    0.128238
  14 H :    0.140987
  15 O :   -0.510588
  16 C :    0.063732
  17 C :    0.088381
  18 C :   -0.321315
  19 C :   -0.007441
  20 O :   -0.522035
  21 H :    0.155911
  22 H :    0.168807
  23 O :   -0.596712
  24 H :    0.160306
  25 H :    0.137851
  26 H :    0.151825
  27 H :    0.153381
  28 H :    0.359579
Sum of atomic charges:   -0.0000000

LOEWDIN ATOMIC CHARGES
----------------------
   0 C :    0.181335
   1 C :   -0.238506
   2 C :   -0.215008
   3 C :   -0.026361
   4 O :   -0.305417
   5 H :    0.093139
   6 H :    0.108856
   7 H :    0.135898
   8 H :    0.111884
   9 H :    0.119611
  10 H :    0.106693
  11 H :    0.099718
  12 C :   -0.048872
  13 H :    0.095242
  14 H :    0.107981
  15 O :   -0.328926
  16 C :    0.001133
  17 C :    0.038560
  18 C :   -0.239743
  19 C :   -0.027739
  20 O :   -0.323865
  21 H :    0.112188
  22 H :    0.119655
  23 O :   -0.403597
  24 H :    0.124435
  25 H :    0.106335
  26 H :    0.107065
  27 H :    0.108056
  28 H :    0.280251

  Mayer bond orders larger than 0.100000
B(  0-C ,  1-C ) :   0.9302 B(  0-C ,  4-O ) :   0.9361 B(  0-C ,  5-H ) :   0.9198
B(  0-C , 15-O ) :   0.8271 B(  1-C ,  2-C ) :   0.9533 B(  1-C ,  6-H ) :   0.9328
B(  1-C ,  7-H ) :   0.9044 B(  2-C ,  3-C ) :   0.9561 B(  2-C ,  8-H ) :   0.9455
B(  2-C ,  9-H ) :   0.9423 B(  3-C ,  4-O ) :   0.8343 B(  3-C , 10-H ) :   0.9356
B(  3-C , 11-H ) :   0.9401 B( 12-C , 13-H ) :   0.9004 B( 12-C , 14-H ) :   0.9380
B( 12-C , 15-O ) :   0.8776 B( 12-C , 16-C ) :   0.8850 B( 16-C , 17-C ) :   0.8722
B( 16-C , 20-O ) :   0.8384 B( 16-C , 21-H ) :   0.9284 B( 17-C , 18-C ) :   0.9216
B( 17-C , 22-H ) :   0.9332 B( 17-C , 23-O ) :   0.9056 B( 18-C , 19-C ) :   0.9388
B( 18-C , 24-H ) :   0.9418 B( 18-C , 25-H ) :   0.9403 B( 19-C , 20-O ) :   0.8341
B( 19-C , 26-H ) :   0.9317 B( 19-C , 27-H ) :   0.9380 B( 23-O , 28-H ) :   0.7955

FINAL SINGLE POINT ENERGY      -652.852058767746

DIPOLE MOMENT
-------------
                                X             Y             Z
Electronic contribution:     -0.13283      -4.07353      -0.41396
Nuclear contribution   :     -0.56497       5.16081      -0.16900
                        -----------------------------------------
Total Dipole Moment    :     -0.69780       1.08728      -0.58296
                        -----------------------------------------
Magnitude (a.u.)       :      1.41737
Magnitude (Debye)      :      3.60267

Rotational constants in cm-1:     0.056561     0.014231     0.012580
Rotational constants in MHz :  1695.665089   426.637128   377.149006

                             ****ORCA TERMINATED NORMALLY****
TOTAL RUN TIME: 0 days 2 hours 5 minutes 23 seconds 830 msec
