                         Program Version 4.2.0 -  RELEASE  -
|  1> # Test redundant internal optimization
|  2> #
|  3> ! RKS B3LYP  Opt TightSCF SmallPrint
|  4>
|  5> %basis
|  6>         Basis "6-31G"
|  7> end
|  8>
|  9> %geom
| 10> Constraints
| 11> { D 4  0  15  12  150.0   C } # D for Dihedral angle
| 12> { D 0  15  12  16  270.0   C } # D for Dihedral angle
| 13> { D 0  4  3  2   C } # D for Dihedral angle
| 14> { D 4  3  2  1   C } # D for Dihedral angle
| 15> { D 3  2  1  0   C } # D for Dihedral angle
| 16> { D 2  1  0  4   C } # D for Dihedral angle
| 17> { D 1  0  4  3   C } # D for Dihedral angle
| 18> { D 16  20  19  18   C } # D for Dihedral angle
| 19> { D 20  19  18  17   C } # D for Dihedral angle
| 20> { D 19  18  17  16   C } # D for Dihedral angle
| 21> { D 18  17  16  20   C } # D for Dihedral angle
| 22> { D 17  16  20  19   C } # D for Dihedral angle
| 23> { D 15  12  16  20   C } # D for Dihedral angle
| 24> end
| 25> end
| 26>
| 27>
| 28> #%pal
| 29> #nprocs 8
| 30> #end
| 31>
| 32> * xyz 0 1
| 33> C  -21.048   26.222   46.251
| 34> C  -20.361   27.558   45.944
| 35> C  -20.329   28.222   47.341
| 36> C  -20.110   27.022   48.296
| 37> O  -20.473   25.807   47.535
| 38> H  -20.833   25.428   45.533
| 39> H  -19.344   27.382   45.576
| 40> H  -20.898   28.157   45.201
| 41> H  -19.543   28.978   47.434
| 42> H  -21.289   28.710   47.548
| 43> H  -20.733   27.082   49.195
| 44> H  -19.064   26.913   48.597
| 45> C  -23.210   27.459   45.431
| 46> H  -22.617   27.517   44.510
| 47> H  -24.236   27.179   45.162
| 48> O  -22.586   26.394   46.375
| 49> C  -23.258   28.874   46.071
| 50> C  -23.982   29.872   45.161
| 51> C  -25.465   29.528   45.437
| 52> C  -25.465   29.150   46.939
| 53> O  -24.062   28.855   47.298
| 54> H  -22.246   29.172   46.356
| 55> H  -23.758   30.898   45.474
| 56> O  -23.597   29.722   43.664
| 57> H  -26.142   30.360   45.216
| 58> H  -25.774   28.674   44.823
| 59> H  -26.082   28.270   47.150
| 60> H  -25.795   29.975   47.577
| 61> H  -23.814   28.702   43.327
| 62> *
| 63>
| 64>                          ****END OF INPUT****
 Total Charge           Charge          ....    0
 Multiplicity           Mult            ....    1
 Number of Electrons    NEL             ....  102
FINAL SINGLE POINT ENERGY      -652.810881028491
FINAL SINGLE POINT ENERGY      -652.834899350785
FINAL SINGLE POINT ENERGY      -652.842110171076
FINAL SINGLE POINT ENERGY      -652.844449738497
FINAL SINGLE POINT ENERGY      -652.844918352419
FINAL SINGLE POINT ENERGY      -652.845025879801
FINAL SINGLE POINT ENERGY      -652.845037765054
FINAL SINGLE POINT ENERGY      -652.845040823899
                    ***********************HURRAY********************

CARTESIAN COORDINATES (ANGSTROEM)
---------------------------------
  C    -21.046925   26.283486   46.244381
  C    -20.165070   27.507325   45.978360
  C    -20.133404   28.200823   47.372713
  C    -20.146923   26.992880   48.336980
  O    -20.625753   25.840514   47.539144
  H    -20.861459   25.448945   45.561136
  H    -19.164537   27.155145   45.705807
  H    -20.522024   28.159782   45.175956
  H    -19.242732   28.823793   47.500428
  H    -21.012865   28.825800   47.534171
  H    -20.819197   27.133490   49.186885
  H    -19.149802   26.728182   48.700766
  C    -23.156698   27.489175   45.438414
  H    -22.655199   27.578833   44.462757
  H    -24.146496   27.051666   45.268555
  O    -22.491775   26.500985   46.270318
  C    -23.313797   28.893345   46.027880
  C    -24.092261   29.841254   45.097285
  C    -25.573931   29.467572   45.422631
  C    -25.514388   29.149065   46.933375
  O    -24.088470   28.903993   47.263239
  H    -22.339678   29.312474   46.274502
  H    -23.891455   30.874399   45.390298
  O    -23.731290   29.782092   43.695938
  H    -26.265299   30.280557   45.185428
  H    -25.870507   28.587789   44.836097
  H    -26.099329   28.265545   47.207125
  H    -25.843199   29.993424   47.546776
  H    -24.149538   29.009667   43.264656

 Multiplicity           Mult            ....    1
 Number of Electrons    NEL             ....  102
 Basis Dimension        Dim             ....  149

ORBITAL ENERGIES
----------------

  NO   OCC          E(Eh)            E(eV)
   0   2.0000     -19.155288      -521.2419
   1   2.0000     -19.139934      -520.8241
   2   2.0000     -19.134472      -520.6755
   3   2.0000     -19.132648      -520.6258
   4   2.0000     -10.275647      -279.6146
   5   2.0000     -10.250200      -278.9221
   6   2.0000     -10.233566      -278.4695
   7   2.0000     -10.232760      -278.4476
   8   2.0000     -10.232616      -278.4436
   9   2.0000     -10.220017      -278.1008
  10   2.0000     -10.200423      -277.5676
  11   2.0000     -10.189103      -277.2596
  12   2.0000     -10.185577      -277.1636
  13   2.0000      -1.045955       -28.4619
  14   2.0000      -1.037915       -28.2431
  15   2.0000      -1.019604       -27.7448
  16   2.0000      -0.987168       -26.8622
  17   2.0000      -0.786721       -21.4078
  18   2.0000      -0.783676       -21.3249
  19   2.0000      -0.770329       -20.9617
  20   2.0000      -0.732530       -19.9332
  21   2.0000      -0.684343       -18.6219
  22   2.0000      -0.616209       -16.7679
  23   2.0000      -0.604272       -16.4431
  24   2.0000      -0.593110       -16.1393
  25   2.0000      -0.571572       -15.5533
  26   2.0000      -0.526249       -14.3200
  27   2.0000      -0.509434       -13.8624
  28   2.0000      -0.502366       -13.6701
  29   2.0000      -0.496796       -13.5185
  30   2.0000      -0.465740       -12.6734
  31   2.0000      -0.454283       -12.3617
  32   2.0000      -0.444922       -12.1070
  33   2.0000      -0.436888       -11.8883
  34   2.0000      -0.431734       -11.7481
  35   2.0000      -0.425195       -11.5701
  36   2.0000      -0.406854       -11.0710
  37   2.0000      -0.405135       -11.0243
  38   2.0000      -0.381152       -10.3717
  39   2.0000      -0.376826       -10.2540
  40   2.0000      -0.360566        -9.8115
  41   2.0000      -0.352323        -9.5872
  42   2.0000      -0.349889        -9.5210
  43   2.0000      -0.332678        -9.0526
  44   2.0000      -0.320872        -8.7314
  45   2.0000      -0.305918        -8.3244
  46   2.0000      -0.287520        -7.8238
  47   2.0000      -0.275911        -7.5079
  48   2.0000      -0.265669        -7.2292
  49   2.0000      -0.251820        -6.8524
  50   2.0000      -0.232949        -6.3389
  51   0.0000       0.047674         1.2973
  52   0.0000       0.075748         2.0612
  53   0.0000       0.081120         2.2074
  54   0.0000       0.089974         2.4483
  55   0.0000       0.098548         2.6816

MULLIKEN ATOMIC CHARGES
-----------------------
   0 C :    0.322008
   1 C :   -0.304135
   2 C :   -0.314128
   3 C :   -0.001533
   4 O :   -0.497206
   5 H :    0.145901
   6 H :    0.152972
   7 H :    0.147313
   8 H :    0.142424
   9 H :    0.175978
  10 H :    0.159771
  11 H :    0.140121
  12 C :   -0.021608
  13 H :    0.124483
  14 H :    0.145854
  15 O :   -0.513092
  16 C :    0.086697
  17 C :    0.081358
  18 C :   -0.329259
  19 C :   -0.011298
  20 O :   -0.507223
  21 H :    0.150611
  22 H :    0.167073
  23 O :   -0.601405
  24 H :    0.160222
  25 H :    0.136115
  26 H :    0.151815
  27 H :    0.151944
  28 H :    0.358228
Sum of atomic charges:    0.0000000

LOEWDIN ATOMIC CHARGES
----------------------
   0 C :    0.185810
   1 C :   -0.235633
   2 C :   -0.222079
   3 C :   -0.025841
   4 O :   -0.303352
   5 H :    0.098140
   6 H :    0.121057
   7 H :    0.114114
   8 H :    0.114603
   9 H :    0.119109
  10 H :    0.111770
  11 H :    0.101401
  12 C :   -0.049292
  13 H :    0.093652
  14 H :    0.108638
  15 O :   -0.327505
  16 C :    0.006422
  17 C :    0.034574
  18 C :   -0.242789
  19 C :   -0.029059
  20 O :   -0.315636
  21 H :    0.110379
  22 H :    0.118611
  23 O :   -0.408594
  24 H :    0.123507
  25 H :    0.105068
  26 H :    0.106861
  27 H :    0.107033
  28 H :    0.279032

  Mayer bond orders larger than 0.100000
B(  0-C ,  1-C ) :   0.9277 B(  0-C ,  4-O ) :   0.9356 B(  0-C ,  5-H ) :   0.9270
B(  0-C , 15-O ) :   0.8485 B(  1-C ,  2-C ) :   0.9520 B(  1-C ,  6-H ) :   0.9327
B(  1-C ,  7-H ) :   0.9281 B(  2-C ,  3-C ) :   0.9506 B(  2-C ,  8-H ) :   0.9454
B(  2-C ,  9-H ) :   0.9251 B(  3-C ,  4-O ) :   0.8365 B(  3-C , 10-H ) :   0.9332
B(  3-C , 11-H ) :   0.9402 B( 12-C , 13-H ) :   0.9030 B( 12-C , 14-H ) :   0.9362
B( 12-C , 15-O ) :   0.8741 B( 12-C , 16-C ) :   0.8784 B( 16-C , 17-C ) :   0.8640
B( 16-C , 20-O ) :   0.8718 B( 16-C , 21-H ) :   0.9171 B( 17-C , 18-C ) :   0.9259
B( 17-C , 22-H ) :   0.9327 B( 17-C , 23-O ) :   0.8962 B( 18-C , 19-C ) :   0.9387
B( 18-C , 24-H ) :   0.9409 B( 18-C , 25-H ) :   0.9398 B( 19-C , 20-O ) :   0.8469
B( 19-C , 26-H ) :   0.9305 B( 19-C , 27-H ) :   0.9371 B( 23-O , 28-H ) :   0.7977

FINAL SINGLE POINT ENERGY      -652.845040903482

DIPOLE MOMENT
-------------
                                X             Y             Z
Electronic contribution:     -0.41987      -3.09516       0.48952
Nuclear contribution   :      0.06197       3.96043      -1.31381
                        -----------------------------------------
Total Dipole Moment    :     -0.35790       0.86527      -0.82429
                        -----------------------------------------
Magnitude (a.u.)       :      1.24749
Magnitude (Debye)      :      3.17087

Rotational constants in cm-1:     0.050127     0.014692     0.013695
Rotational constants in MHz :  1502.760101   440.464937   410.580249

                             ****ORCA TERMINATED NORMALLY****
TOTAL RUN TIME: 0 days 1 hours 51 minutes 2 seconds 200 msec
