                         Program Version 4.2.0 -  RELEASE  -
|  1> # Test redundant internal optimization
|  2> #
|  3> ! RKS B3LYP  Opt TightSCF SmallPrint
|  4>
|  5> %basis
|  6>         Basis "6-31G"
|  7> end
|  8>
|  9> %geom
| 10> Constraints
| 11> { D 4  0  15  12  240.0   C } # D for Dihedral angle
| 12> { D 0  15  12  16  300.0   C } # D for Dihedral angle
| 13> { D 0  4  3  2   C } # D for Dihedral angle
| 14> { D 4  3  2  1   C } # D for Dihedral angle
| 15> { D 3  2  1  0   C } # D for Dihedral angle
| 16> { D 2  1  0  4   C } # D for Dihedral angle
| 17> { D 1  0  4  3   C } # D for Dihedral angle
| 18> { D 16  20  19  18   C } # D for Dihedral angle
| 19> { D 20  19  18  17   C } # D for Dihedral angle
| 20> { D 19  18  17  16   C } # D for Dihedral angle
| 21> { D 18  17  16  20   C } # D for Dihedral angle
| 22> { D 17  16  20  19   C } # D for Dihedral angle
| 23> { D 15  12  16  20   C } # D for Dihedral angle
| 24> end
| 25> end
| 26>
| 27>
| 28> #%pal
| 29> #nprocs 8
| 30> #end
| 31>
| 32> * xyz 0 1
| 33> C  -21.048   26.222   46.251
| 34> C  -20.361   27.558   45.944
| 35> C  -20.329   28.222   47.341
| 36> C  -20.110   27.022   48.296
| 37> O  -20.473   25.807   47.535
| 38> H  -20.833   25.428   45.533
| 39> H  -19.344   27.382   45.576
| 40> H  -20.898   28.157   45.201
| 41> H  -19.543   28.978   47.434
| 42> H  -21.289   28.710   47.548
| 43> H  -20.733   27.082   49.195
| 44> H  -19.064   26.913   48.597
| 45> C  -23.430   25.483   45.442
| 46> H  -23.218   24.432   45.675
| 47> H  -24.502   25.659   45.600
| 48> O  -22.586   26.394   46.375
| 49> C  -23.128   25.720   43.937
| 50> C  -24.057   24.891   43.045
| 51> C  -25.355   25.732   43.075
| 52> C  -24.829   27.188   43.128
| 53> O  -23.420   27.110   43.568
| 54> H  -22.063   25.558   43.755
| 55> H  -23.655   24.838   42.027
| 56> O  -24.267   23.441   43.563
| 57> H  -25.999   25.552   42.208
| 58> H  -25.935   25.498   43.977
| 59> H  -25.391   27.812   43.833
| 60> H  -24.834   27.670   42.146
| 61> H  -24.671   23.468   44.581
| 62> *
| 63>
| 64>                          ****END OF INPUT****
 Total Charge           Charge          ....    0
 Multiplicity           Mult            ....    1
 Number of Electrons    NEL             ....  102
FINAL SINGLE POINT ENERGY      -652.826987794534
FINAL SINGLE POINT ENERGY      -652.850360130490
FINAL SINGLE POINT ENERGY      -652.855138676136
FINAL SINGLE POINT ENERGY      -652.856015483360
FINAL SINGLE POINT ENERGY      -652.856175631248
FINAL SINGLE POINT ENERGY      -652.856198384343
FINAL SINGLE POINT ENERGY      -652.856202936237
                    ***********************HURRAY********************

CARTESIAN COORDINATES (ANGSTROEM)
---------------------------------
  C    -21.025744   26.193407   46.200388
  C    -20.405258   27.561760   45.923250
  C    -20.422943   28.207524   47.326884
  C    -20.156483   27.010910   48.266381
  O    -20.455481   25.794709   47.466538
  H    -20.775609   25.403228   45.487910
  H    -19.376255   27.431982   45.566330
  H    -20.977794   28.119432   45.179158
  H    -19.675397   28.999072   47.436835
  H    -21.411798   28.634158   47.519812
  H    -20.793479   27.011788   49.154450
  H    -19.108461   26.934492   48.572028
  C    -23.318038   25.521877   45.497882
  H    -23.164229   24.458976   45.741802
  H    -24.331221   25.807978   45.794392
  O    -22.462007   26.349113   46.326949
  C    -23.109425   25.712134   43.990969
  C    -24.069329   24.873178   43.129799
  C    -25.355531   25.755990   43.128520
  C    -24.781586   27.190330   43.124084
  O    -23.367026   27.086223   43.566968
  H    -22.066998   25.509726   43.730719
  H    -23.666960   24.792611   42.117766
  O    -24.259848   23.502661   43.551545
  H    -25.995308   25.549639   42.266724
  H    -25.938191   25.558721   44.038095
  H    -25.315480   27.866822   43.798304
  H    -24.768994   27.628118   42.121534
  H    -24.810124   23.460440   44.359985

 Multiplicity           Mult            ....    1
 Number of Electrons    NEL             ....  102
 Basis Dimension        Dim             ....  149

ORBITAL ENERGIES
----------------

  NO   OCC          E(Eh)            E(eV)
   0   2.0000     -19.154080      -521.2090
   1   2.0000     -19.143516      -520.9216
   2   2.0000     -19.135639      -520.7072
   3   2.0000     -19.130539      -520.5684
   4   2.0000     -10.271902      -279.5127
   5   2.0000     -10.250333      -278.9257
   6   2.0000     -10.236266      -278.5430
   7   2.0000     -10.235417      -278.5199
   8   2.0000     -10.232580      -278.4427
   9   2.0000     -10.216680      -278.0100
  10   2.0000     -10.200072      -277.5581
  11   2.0000     -10.176497      -276.9166
  12   2.0000     -10.173914      -276.8463
  13   2.0000      -1.046401       -28.4740
  14   2.0000      -1.037147       -28.2222
  15   2.0000      -1.020314       -27.7642
  16   2.0000      -0.987441       -26.8696
  17   2.0000      -0.787650       -21.4331
  18   2.0000      -0.778251       -21.1773
  19   2.0000      -0.766753       -20.8644
  20   2.0000      -0.729402       -19.8480
  21   2.0000      -0.680478       -18.5168
  22   2.0000      -0.616265       -16.7694
  23   2.0000      -0.603148       -16.4125
  24   2.0000      -0.589133       -16.0311
  25   2.0000      -0.565808       -15.3964
  26   2.0000      -0.534566       -14.5463
  27   2.0000      -0.514243       -13.9933
  28   2.0000      -0.494415       -13.4537
  29   2.0000      -0.485375       -13.2077
  30   2.0000      -0.466298       -12.6886
  31   2.0000      -0.451182       -12.2773
  32   2.0000      -0.445102       -12.1118
  33   2.0000      -0.435722       -11.8566
  34   2.0000      -0.431050       -11.7295
  35   2.0000      -0.421874       -11.4798
  36   2.0000      -0.409163       -11.1339
  37   2.0000      -0.393101       -10.6968
  38   2.0000      -0.383082       -10.4242
  39   2.0000      -0.365548        -9.9471
  40   2.0000      -0.357956        -9.7405
  41   2.0000      -0.348302        -9.4778
  42   2.0000      -0.343144        -9.3374
  43   2.0000      -0.335048        -9.1171
  44   2.0000      -0.320671        -8.7259
  45   2.0000      -0.308612        -8.3978
  46   2.0000      -0.299966        -8.1625
  47   2.0000      -0.276586        -7.5263
  48   2.0000      -0.265000        -7.2110
  49   2.0000      -0.247061        -6.7229
  50   2.0000      -0.234751        -6.3879
  51   0.0000       0.048428         1.3178
  52   0.0000       0.074952         2.0396
  53   0.0000       0.083775         2.2796
  54   0.0000       0.093825         2.5531
  55   0.0000       0.098260         2.6738

MULLIKEN ATOMIC CHARGES
-----------------------
   0 C :    0.276235
   1 C :   -0.256228
   2 C :   -0.301055
   3 C :   -0.000535
   4 O :   -0.508852
   5 H :    0.141698
   6 H :    0.136495
   7 H :    0.172198
   8 H :    0.137880
   9 H :    0.163142
  10 H :    0.147677
  11 H :    0.137741
  12 C :   -0.013270
  13 H :    0.135920
  14 H :    0.142658
  15 O :   -0.508625
  16 C :    0.077306
  17 C :    0.083997
  18 C :   -0.321385
  19 C :   -0.014169
  20 O :   -0.511747
  21 H :    0.155459
  22 H :    0.167409
  23 O :   -0.597453
  24 H :    0.161089
  25 H :    0.135220
  26 H :    0.151562
  27 H :    0.151185
  28 H :    0.358447
Sum of atomic charges:   -0.0000000

LOEWDIN ATOMIC CHARGES
----------------------
   0 C :    0.173794
   1 C :   -0.221369
   2 C :   -0.216568
   3 C :   -0.026771
   4 O :   -0.319476
   5 H :    0.097607
   6 H :    0.109638
   7 H :    0.130001
   8 H :    0.112193
   9 H :    0.119661
  10 H :    0.105747
  11 H :    0.100220
  12 C :   -0.047436
  13 H :    0.098548
  14 H :    0.109413
  15 O :   -0.321116
  16 C :    0.004270
  17 C :    0.035906
  18 C :   -0.240614
  19 C :   -0.029860
  20 O :   -0.321260
  21 H :    0.111437
  22 H :    0.119505
  23 O :   -0.405539
  24 H :    0.124325
  25 H :    0.105158
  26 H :    0.106212
  27 H :    0.107030
  28 H :    0.279342

  Mayer bond orders larger than 0.100000
B(  0-C ,  1-C ) :   0.9412 B(  0-C ,  4-O ) :   0.9210 B(  0-C ,  5-H ) :   0.9170
B(  0-C , 15-O ) :   0.8402 B(  1-C ,  2-C ) :   0.9567 B(  1-C ,  6-H ) :   0.9379
B(  1-C ,  7-H ) :   0.9298 B(  2-C ,  3-C ) :   0.9546 B(  2-C ,  8-H ) :   0.9456
B(  2-C ,  9-H ) :   0.9437 B(  3-C ,  4-O ) :   0.8407 B(  3-C , 10-H ) :   0.9354
B(  3-C , 11-H ) :   0.9401 B( 12-C , 13-H ) :   0.9027 B( 12-C , 14-H ) :   0.9399
B( 12-C , 15-O ) :   0.8708 B( 12-C , 16-C ) :   0.8851 B( 16-C , 17-C ) :   0.8685
B( 16-C , 20-O ) :   0.8623 B( 16-C , 21-H ) :   0.9262 B( 17-C , 18-C ) :   0.9236
B( 17-C , 22-H ) :   0.9328 B( 17-C , 23-O ) :   0.9036 B( 18-C , 19-C ) :   0.9387
B( 18-C , 24-H ) :   0.9415 B( 18-C , 25-H ) :   0.9404 B( 19-C , 20-O ) :   0.8448
B( 19-C , 26-H ) :   0.9306 B( 19-C , 27-H ) :   0.9374 B( 23-O , 28-H ) :   0.7961

FINAL SINGLE POINT ENERGY      -652.856204021829

DIPOLE MOMENT
-------------
                                X             Y             Z
Electronic contribution:      0.24516      -3.39262      -0.18057
Nuclear contribution   :     -1.03806       3.87756      -0.20747
                        -----------------------------------------
Total Dipole Moment    :     -0.79290       0.48495      -0.38804
                        -----------------------------------------
Magnitude (a.u.)       :      1.00719
Magnitude (Debye)      :      2.56009

Rotational constants in cm-1:     0.059089     0.012902     0.011511
Rotational constants in MHz :  1771.438062   386.806346   345.085827

                             ****ORCA TERMINATED NORMALLY****
TOTAL RUN TIME: 0 days 2 hours 8 minutes 45 seconds 156 msec
