                         Program Version 4.2.0 -  RELEASE  -
|  1> # Test redundant internal optimization
|  2> #
|  3> ! RKS B3LYP  Opt TightSCF SmallPrint
|  4>
|  5> %basis
|  6>         Basis "6-31G"
|  7> end
|  8>
|  9> %geom
| 10> Constraints
| 11> { D 4  0  15  12  195.0   C } # D for Dihedral angle
| 12> { D 0  15  12  16  90.0   C } # D for Dihedral angle
| 13> { D 0  4  3  2   C } # D for Dihedral angle
| 14> { D 4  3  2  1   C } # D for Dihedral angle
| 15> { D 3  2  1  0   C } # D for Dihedral angle
| 16> { D 2  1  0  4   C } # D for Dihedral angle
| 17> { D 1  0  4  3   C } # D for Dihedral angle
| 18> { D 16  20  19  18   C } # D for Dihedral angle
| 19> { D 20  19  18  17   C } # D for Dihedral angle
| 20> { D 19  18  17  16   C } # D for Dihedral angle
| 21> { D 18  17  16  20   C } # D for Dihedral angle
| 22> { D 17  16  20  19   C } # D for Dihedral angle
| 23> { D 15  12  16  20   C } # D for Dihedral angle
| 24> end
| 25> end
| 26>
| 27>
| 28> #%pal
| 29> #nprocs 8
| 30> #end
| 31>
| 32> * xyz 0 1
| 33> C  -21.048   26.222   46.251
| 34> C  -20.361   27.558   45.944
| 35> C  -20.329   28.222   47.341
| 36> C  -20.110   27.022   48.296
| 37> O  -20.473   25.807   47.535
| 38> H  -20.833   25.428   45.533
| 39> H  -19.344   27.382   45.576
| 40> H  -20.898   28.157   45.201
| 41> H  -19.543   28.978   47.434
| 42> H  -21.289   28.710   47.548
| 43> H  -20.733   27.082   49.195
| 44> H  -19.064   26.913   48.597
| 45> C  -23.353   26.472   45.026
| 46> H  -24.243   27.101   45.152
| 47> H  -22.721   26.924   44.251
| 48> O  -22.586   26.394   46.375
| 49> C  -23.808   25.078   44.513
| 50> C  -24.457   25.180   43.128
| 51> C  -23.218   25.286   42.208
| 52> C  -22.177   24.380   42.913
| 53> O  -22.648   24.205   44.304
| 54> H  -24.433   24.604   45.271
| 55> H  -25.024   24.268   42.909
| 56> O  -25.414   26.396   42.991
| 57> H  -23.422   24.965   41.181
| 58> H  -22.864   26.323   42.170
| 59> H  -21.176   24.825   42.927
| 60> H  -22.118   23.385   42.465
| 61> H  -24.868   27.321   43.204
| 62> *
| 63>
| 64>                          ****END OF INPUT****
 Total Charge           Charge          ....    0
 Multiplicity           Mult            ....    1
 Number of Electrons    NEL             ....  102
FINAL SINGLE POINT ENERGY      -652.827575232045
FINAL SINGLE POINT ENERGY      -652.850941075229
FINAL SINGLE POINT ENERGY      -652.855388884864
FINAL SINGLE POINT ENERGY      -652.856090005325
FINAL SINGLE POINT ENERGY      -652.856193490073
FINAL SINGLE POINT ENERGY      -652.856209964089
FINAL SINGLE POINT ENERGY      -652.856211125266
                    ***********************HURRAY********************

CARTESIAN COORDINATES (ANGSTROEM)
---------------------------------
  C    -21.014852   26.249151   46.182431
  C    -20.317239   27.591274   45.972007
  C    -20.380548   28.212807   47.388736
  C    -20.221810   26.984040   48.308016
  O    -20.535609   25.805484   47.458247
  H    -20.800880   25.463619   45.457368
  H    -19.278713   27.415449   45.666377
  H    -20.796591   28.215703   45.211846
  H    -19.602126   28.963668   47.554268
  H    -21.356588   28.683037   47.540302
  H    -20.905200   26.991467   49.160520
  H    -19.196315   26.848185   48.664560
  C    -23.208747   26.545879   45.056455
  H    -24.087268   27.155784   45.290628
  H    -22.612600   27.078947   44.297197
  O    -22.464886   26.426913   46.297405
  C    -23.673087   25.181352   44.544189
  C    -24.446525   25.217238   43.213545
  C    -23.288032   25.241658   42.172831
  C    -22.210078   24.357066   42.836182
  O    -22.555566   24.272645   44.280564
  H    -24.249510   24.707206   45.343366
  H    -25.035403   24.303645   43.110662
  O    -25.409655   26.290415   43.084332
  H    -23.601369   24.868331   41.194647
  H    -22.936079   26.273747   42.041910
  H    -21.199435   24.765468   42.732813
  H    -22.215308   23.334433   42.448353
  H    -24.954979   27.143389   42.929244

 Multiplicity           Mult            ....    1
 Number of Electrons    NEL             ....  102
 Basis Dimension        Dim             ....  149

ORBITAL ENERGIES
----------------

  NO   OCC          E(Eh)            E(eV)
   0   2.0000     -19.153598      -521.1959
   1   2.0000     -19.144999      -520.9619
   2   2.0000     -19.134051      -520.6640
   3   2.0000     -19.133086      -520.6378
   4   2.0000     -10.268311      -279.4150
   5   2.0000     -10.248735      -278.8822
   6   2.0000     -10.236760      -278.5564
   7   2.0000     -10.232827      -278.4494
   8   2.0000     -10.231156      -278.4039
   9   2.0000     -10.218970      -278.0723
  10   2.0000     -10.200553      -277.5712
  11   2.0000     -10.183411      -277.1047
  12   2.0000     -10.182289      -277.0742
  13   2.0000      -1.046801       -28.4849
  14   2.0000      -1.036774       -28.2121
  15   2.0000      -1.020319       -27.7643
  16   2.0000      -0.986948       -26.8562
  17   2.0000      -0.787591       -21.4315
  18   2.0000      -0.781929       -21.2774
  19   2.0000      -0.767685       -20.8898
  20   2.0000      -0.728174       -19.8146
  21   2.0000      -0.682533       -18.5727
  22   2.0000      -0.616664       -16.7803
  23   2.0000      -0.598197       -16.2778
  24   2.0000      -0.590149       -16.0588
  25   2.0000      -0.571748       -15.5581
  26   2.0000      -0.532194       -14.4817
  27   2.0000      -0.508157       -13.8277
  28   2.0000      -0.501281       -13.6405
  29   2.0000      -0.487665       -13.2700
  30   2.0000      -0.469321       -12.7709
  31   2.0000      -0.456603       -12.4248
  32   2.0000      -0.445432       -12.1208
  33   2.0000      -0.438960       -11.9447
  34   2.0000      -0.431098       -11.7308
  35   2.0000      -0.418865       -11.3979
  36   2.0000      -0.406500       -11.0614
  37   2.0000      -0.394573       -10.7369
  38   2.0000      -0.384547       -10.4641
  39   2.0000      -0.370002       -10.0683
  40   2.0000      -0.360804        -9.8180
  41   2.0000      -0.351339        -9.5604
  42   2.0000      -0.348851        -9.4927
  43   2.0000      -0.333973        -9.0879
  44   2.0000      -0.319930        -8.7057
  45   2.0000      -0.305927        -8.3247
  46   2.0000      -0.299963        -8.1624
  47   2.0000      -0.274723        -7.4756
  48   2.0000      -0.268080        -7.2948
  49   2.0000      -0.251777        -6.8512
  50   2.0000      -0.231541        -6.3005
  51   0.0000       0.045623         1.2415
  52   0.0000       0.066333         1.8050
  53   0.0000       0.085934         2.3384
  54   0.0000       0.097190         2.6447
  55   0.0000       0.100714         2.7406

MULLIKEN ATOMIC CHARGES
-----------------------
   0 C :    0.289305
   1 C :   -0.272673
   2 C :   -0.297474
   3 C :    0.000098
   4 O :   -0.500850
   5 H :    0.172110
   6 H :    0.143130
   7 H :    0.134972
   8 H :    0.138804
   9 H :    0.158450
  10 H :    0.153279
  11 H :    0.138857
  12 C :   -0.045092
  13 H :    0.157942
  14 H :    0.106100
  15 O :   -0.503056
  16 C :    0.099850
  17 C :    0.087521
  18 C :   -0.320536
  19 C :   -0.014855
  20 O :   -0.509696
  21 H :    0.171847
  22 H :    0.170052
  23 O :   -0.599538
  24 H :    0.158790
  25 H :    0.131455
  26 H :    0.139376
  27 H :    0.155992
  28 H :    0.355842
Sum of atomic charges:    0.0000000

LOEWDIN ATOMIC CHARGES
----------------------
   0 C :    0.176993
   1 C :   -0.232035
   2 C :   -0.217201
   3 C :   -0.025678
   4 O :   -0.300267
   5 H :    0.112277
   6 H :    0.112660
   7 H :    0.109235
   8 H :    0.112508
   9 H :    0.117329
  10 H :    0.108934
  11 H :    0.100923
  12 C :   -0.054899
  13 H :    0.117413
  14 H :    0.080932
  15 O :   -0.327787
  16 C :    0.011976
  17 C :    0.035512
  18 C :   -0.240891
  19 C :   -0.031819
  20 O :   -0.317654
  21 H :    0.123566
  22 H :    0.120950
  23 O :   -0.406366
  24 H :    0.123688
  25 H :    0.102854
  26 H :    0.099895
  27 H :    0.109110
  28 H :    0.277842

  Mayer bond orders larger than 0.100000
B(  0-C ,  1-C ) :   0.9278 B(  0-C ,  4-O ) :   0.9338 B(  0-C ,  5-H ) :   0.9057
B(  0-C , 15-O ) :   0.8166 B(  1-C ,  2-C ) :   0.9511 B(  1-C ,  6-H ) :   0.9349
B(  1-C ,  7-H ) :   0.9352 B(  2-C ,  3-C ) :   0.9568 B(  2-C ,  8-H ) :   0.9454
B(  2-C ,  9-H ) :   0.9444 B(  3-C ,  4-O ) :   0.8394 B(  3-C , 10-H ) :   0.9344
B(  3-C , 11-H ) :   0.9399 B( 12-C , 13-H ) :   0.9216 B( 12-C , 14-H ) :   0.9173
B( 12-C , 15-O ) :   0.8780 B( 12-C , 16-C ) :   0.8892 B( 16-C , 17-C ) :   0.8663
B( 16-C , 20-O ) :   0.8571 B( 16-C , 21-H ) :   0.9287 B( 17-C , 18-C ) :   0.9222
B( 17-C , 22-H ) :   0.9317 B( 17-C , 23-O ) :   0.8993 B( 18-C , 19-C ) :   0.9393
B( 18-C , 24-H ) :   0.9418 B( 18-C , 25-H ) :   0.9408 B( 19-C , 20-O ) :   0.8452
B( 19-C , 26-H ) :   0.9320 B( 19-C , 27-H ) :   0.9375 B( 23-O , 28-H ) :   0.7985

FINAL SINGLE POINT ENERGY      -652.856209739163

DIPOLE MOMENT
-------------
                                X             Y             Z
Electronic contribution:     -3.18301      -4.14992       1.89859
Nuclear contribution   :      3.77652       5.33196      -3.23001
                        -----------------------------------------
Total Dipole Moment    :      0.59351       1.18204      -1.33142
                        -----------------------------------------
Magnitude (a.u.)       :      1.87674
Magnitude (Debye)      :      4.77029

Rotational constants in cm-1:     0.058122     0.013050     0.012219
Rotational constants in MHz :  1742.445958   391.224079   366.307396

                             ****ORCA TERMINATED NORMALLY****
TOTAL RUN TIME: 0 days 0 hours 22 minutes 36 seconds 417 msec
