                         Program Version 4.2.0 -  RELEASE  -
|  1> # Test redundant internal optimization
|  2> #
|  3> ! RKS B3LYP  Opt TightSCF SmallPrint
|  4>
|  5> %basis
|  6>         Basis "6-31G"
|  7> end
|  8>
|  9> %geom
| 10> Constraints
| 11> { D 4  0  15  12  105.0   C } # D for Dihedral angle
| 12> { D 0  15  12  16  135.0   C } # D for Dihedral angle
| 13> { D 0  4  3  2   C } # D for Dihedral angle
| 14> { D 4  3  2  1   C } # D for Dihedral angle
| 15> { D 3  2  1  0   C } # D for Dihedral angle
| 16> { D 2  1  0  4   C } # D for Dihedral angle
| 17> { D 1  0  4  3   C } # D for Dihedral angle
| 18> { D 16  20  19  18   C } # D for Dihedral angle
| 19> { D 20  19  18  17   C } # D for Dihedral angle
| 20> { D 19  18  17  16   C } # D for Dihedral angle
| 21> { D 18  17  16  20   C } # D for Dihedral angle
| 22> { D 17  16  20  19   C } # D for Dihedral angle
| 23> { D 15  12  16  20   C } # D for Dihedral angle
| 24> end
| 25> end
| 26>
| 27>
| 28> #%pal
| 29> #nprocs 8
| 30> #end
| 31>
| 32> * xyz 0 1
| 33> C  -21.048   26.222   46.251
| 34> C  -20.361   27.558   45.944
| 35> C  -20.329   28.222   47.341
| 36> C  -20.110   27.022   48.296
| 37> O  -20.473   25.807   47.535
| 38> H  -20.833   25.428   45.533
| 39> H  -19.344   27.382   45.576
| 40> H  -20.898   28.157   45.201
| 41> H  -19.543   28.978   47.434
| 42> H  -21.289   28.710   47.548
| 43> H  -20.733   27.082   49.195
| 44> H  -19.064   26.913   48.597
| 45> C  -23.085   27.864   46.420
| 46> H  -23.365   28.120   47.450
| 47> H  -22.289   28.550   46.102
| 48> O  -22.586   26.394   46.375
| 49> C  -24.315   28.110   45.503
| 50> C  -24.707   29.591   45.483
| 51> C  -23.665   30.179   44.502
| 52> C  -23.470   29.039   43.472
| 53> O  -23.982   27.806   44.107
| 54> H  -25.120   27.433   45.796
| 55> H  -25.721   29.707   45.085
| 56> O  -24.654   30.255   46.886
| 57> H  -23.999   31.111   44.035
| 58> H  -22.726   30.386   45.030
| 59> H  -22.418   28.892   43.201
| 60> H  -24.052   29.197   42.559
| 61> H  -23.648   30.153   47.306
| 62> *
| 63>
| 64>                          ****END OF INPUT****
 Total Charge           Charge          ....    0
 Multiplicity           Mult            ....    1
 Number of Electrons    NEL             ....  102
FINAL SINGLE POINT ENERGY      -652.806929803087
FINAL SINGLE POINT ENERGY      -652.833166640511
FINAL SINGLE POINT ENERGY      -652.845187401224
FINAL SINGLE POINT ENERGY      -652.847144627341
FINAL SINGLE POINT ENERGY      -652.847505072233
FINAL SINGLE POINT ENERGY      -652.847592158571
FINAL SINGLE POINT ENERGY      -652.847602927247
FINAL SINGLE POINT ENERGY      -652.847603845588
                    ***********************HURRAY********************

CARTESIAN COORDINATES (ANGSTROEM)
---------------------------------
  C    -21.154252   26.328846   46.339183
  C    -20.157915   27.446065   46.003435
  C    -19.910324   28.091583   47.397284
  C    -19.978212   26.867961   48.346748
  O    -20.665366   25.797934   47.592159
  H    -21.128575   25.489560   45.643527
  H    -19.239385   26.982410   45.630093
  H    -20.517252   28.145593   45.244088
  H    -18.943880   28.602079   47.453253
  H    -20.687848   28.822376   47.640358
  H    -20.533469   27.071451   49.267343
  H    -18.985484   26.489010   48.607054
  C    -23.075180   28.017855   46.480341
  H    -23.443083   28.206359   47.497635
  H    -22.305531   28.760668   46.239968
  O    -22.555360   26.668324   46.396744
  C    -24.231687   28.124876   45.485309
  C    -24.885922   29.514477   45.407039
  C    -23.927277   30.265383   44.434723
  C    -23.497703   29.153823   43.452784
  O    -23.802699   27.858089   44.114400
  H    -24.954359   27.340662   45.725611
  H    -25.880722   29.422275   44.966502
  O    -25.110799   30.174266   46.676386
  H    -24.417432   31.107843   43.939743
  H    -23.070288   30.658320   44.998251
  H    -22.431197   29.188601   43.207659
  H    -24.071068   29.179669   42.522080
  H    -24.264733   30.491642   47.053300

 Multiplicity           Mult            ....    1
 Number of Electrons    NEL             ....  102
 Basis Dimension        Dim             ....  149

ORBITAL ENERGIES
----------------

  NO   OCC          E(Eh)            E(eV)
   0   2.0000     -19.152943      -521.1781
   1   2.0000     -19.140084      -520.8282
   2   2.0000     -19.137699      -520.7633
   3   2.0000     -19.135971      -520.7162
   4   2.0000     -10.277275      -279.6589
   5   2.0000     -10.247982      -278.8618
   6   2.0000     -10.234775      -278.5024
   7   2.0000     -10.233980      -278.4808
   8   2.0000     -10.230632      -278.3896
   9   2.0000     -10.227425      -278.3024
  10   2.0000     -10.199593      -277.5450
  11   2.0000     -10.196344      -277.4566
  12   2.0000     -10.194771      -277.4138
  13   2.0000      -1.048854       -28.5408
  14   2.0000      -1.035927       -28.1890
  15   2.0000      -1.018165       -27.7057
  16   2.0000      -0.992255       -27.0006
  17   2.0000      -0.790678       -21.5154
  18   2.0000      -0.786280       -21.3958
  19   2.0000      -0.773473       -21.0473
  20   2.0000      -0.733402       -19.9569
  21   2.0000      -0.687615       -18.7109
  22   2.0000      -0.614799       -16.7295
  23   2.0000      -0.605891       -16.4871
  24   2.0000      -0.598383       -16.2828
  25   2.0000      -0.572822       -15.5873
  26   2.0000      -0.530660       -14.4400
  27   2.0000      -0.508476       -13.8363
  28   2.0000      -0.507965       -13.8224
  29   2.0000      -0.495261       -13.4767
  30   2.0000      -0.473626       -12.8880
  31   2.0000      -0.462279       -12.5792
  32   2.0000      -0.447705       -12.1827
  33   2.0000      -0.437729       -11.9112
  34   2.0000      -0.428050       -11.6478
  35   2.0000      -0.422133       -11.4868
  36   2.0000      -0.409997       -11.1566
  37   2.0000      -0.402979       -10.9656
  38   2.0000      -0.384733       -10.4691
  39   2.0000      -0.381355       -10.3772
  40   2.0000      -0.363548        -9.8926
  41   2.0000      -0.358080        -9.7438
  42   2.0000      -0.352504        -9.5921
  43   2.0000      -0.333942        -9.0870
  44   2.0000      -0.317660        -8.6440
  45   2.0000      -0.313556        -8.5323
  46   2.0000      -0.291658        -7.9364
  47   2.0000      -0.273508        -7.4425
  48   2.0000      -0.265202        -7.2165
  49   2.0000      -0.254209        -6.9174
  50   2.0000      -0.238984        -6.5031
  51   0.0000       0.042268         1.1502
  52   0.0000       0.060407         1.6437
  53   0.0000       0.082157         2.2356
  54   0.0000       0.091055         2.4777
  55   0.0000       0.101651         2.7661

MULLIKEN ATOMIC CHARGES
-----------------------
   0 C :    0.317444
   1 C :   -0.305728
   2 C :   -0.311116
   3 C :   -0.004069
   4 O :   -0.496338
   5 H :    0.169605
   6 H :    0.159533
   7 H :    0.151753
   8 H :    0.145124
   9 H :    0.142068
  10 H :    0.145705
  11 H :    0.145310
  12 C :   -0.011755
  13 H :    0.141017
  14 H :    0.114001
  15 O :   -0.517101
  16 C :    0.097974
  17 C :    0.077726
  18 C :   -0.319793
  19 C :   -0.013108
  20 O :   -0.506461
  21 H :    0.172085
  22 H :    0.172659
  23 O :   -0.597819
  24 H :    0.157720
  25 H :    0.128378
  26 H :    0.139134
  27 H :    0.152253
  28 H :    0.353797
Sum of atomic charges:   -0.0000000

LOEWDIN ATOMIC CHARGES
----------------------
   0 C :    0.182064
   1 C :   -0.233078
   2 C :   -0.223999
   3 C :   -0.031179
   4 O :   -0.317479
   5 H :    0.114263
   6 H :    0.125090
   7 H :    0.115939
   8 H :    0.115512
   9 H :    0.104995
  10 H :    0.103622
  11 H :    0.103603
  12 C :   -0.048255
  13 H :    0.103171
  14 H :    0.087059
  15 O :   -0.312313
  16 C :    0.018731
  17 C :    0.033893
  18 C :   -0.241542
  19 C :   -0.031942
  20 O :   -0.314734
  21 H :    0.123533
  22 H :    0.121735
  23 O :   -0.406058
  24 H :    0.123131
  25 H :    0.101192
  26 H :    0.099134
  27 H :    0.107611
  28 H :    0.276301

  Mayer bond orders larger than 0.100000
B(  0-C ,  1-C ) :   0.9289 B(  0-C ,  4-O ) :   0.9028 B(  0-C ,  5-H ) :   0.9324
B(  0-C , 15-O ) :   0.8882 B(  1-C ,  2-C ) :   0.9510 B(  1-C ,  6-H ) :   0.9343
B(  1-C ,  7-H ) :   0.9286 B(  2-C ,  3-C ) :   0.9470 B(  2-C ,  8-H ) :   0.9458
B(  2-C ,  9-H ) :   0.9412 B(  3-C ,  4-O ) :   0.8526 B(  3-C , 10-H ) :   0.9341
B(  3-C , 11-H ) :   0.9391 B( 12-C , 13-H ) :   0.9103 B( 12-C , 14-H ) :   0.9058
B( 12-C , 15-O ) :   0.8546 B( 12-C , 16-C ) :   0.8966 B( 16-C , 17-C ) :   0.8736
B( 16-C , 20-O ) :   0.8670 B( 16-C , 21-H ) :   0.9277 B( 17-C , 18-C ) :   0.9215
B( 17-C , 22-H ) :   0.9314 B( 17-C , 23-O ) :   0.8954 B( 18-C , 19-C ) :   0.9390
B( 18-C , 24-H ) :   0.9421 B( 18-C , 25-H ) :   0.9416 B( 19-C , 20-O ) :   0.8545
B( 19-C , 26-H ) :   0.9305 B( 19-C , 27-H ) :   0.9370 B( 23-O , 28-H ) :   0.7993

FINAL SINGLE POINT ENERGY      -652.847593622101

DIPOLE MOMENT
-------------
                                X             Y             Z
Electronic contribution:     -4.34265      -5.16189       0.36106
Nuclear contribution   :      5.48036       6.98377      -0.67083
                        -----------------------------------------
Total Dipole Moment    :      1.13772       1.82188      -0.30977
                        -----------------------------------------
Magnitude (a.u.)       :      2.17016
Magnitude (Debye)      :      5.51611

Rotational constants in cm-1:     0.049409     0.014010     0.013307
Rotational constants in MHz :  1481.234854   419.994905   398.929864

                             ****ORCA TERMINATED NORMALLY****
TOTAL RUN TIME: 0 days 1 hours 20 minutes 44 seconds 540 msec
