                         Program Version 4.2.0 -  RELEASE  -
|  1> # Test redundant internal optimization
|  2> #
|  3> ! RKS B3LYP  Opt TightSCF SmallPrint
|  4>
|  5> %basis
|  6>         Basis "6-31G"
|  7> end
|  8>
|  9> %geom
| 10> Constraints
| 11> { D 4  0  15  12  75.0   C } # D for Dihedral angle
| 12> { D 0  15  12  16  180.0   C } # D for Dihedral angle
| 13> { D 0  4  3  2   C } # D for Dihedral angle
| 14> { D 4  3  2  1   C } # D for Dihedral angle
| 15> { D 3  2  1  0   C } # D for Dihedral angle
| 16> { D 2  1  0  4   C } # D for Dihedral angle
| 17> { D 1  0  4  3   C } # D for Dihedral angle
| 18> { D 16  20  19  18   C } # D for Dihedral angle
| 19> { D 20  19  18  17   C } # D for Dihedral angle
| 20> { D 19  18  17  16   C } # D for Dihedral angle
| 21> { D 18  17  16  20   C } # D for Dihedral angle
| 22> { D 17  16  20  19   C } # D for Dihedral angle
| 23> { D 15  12  16  20   C } # D for Dihedral angle
| 24> end
| 25> end
| 26>
| 27>
| 28> #%pal
| 29> #nprocs 8
| 30> #end
| 31>
| 32> * xyz 0 1
| 33> C  -21.048   26.222   46.251
| 34> C  -20.361   27.558   45.944
| 35> C  -20.329   28.222   47.341
| 36> C  -20.110   27.022   48.296
| 37> O  -20.473   25.807   47.535
| 38> H  -20.833   25.428   45.533
| 39> H  -19.344   27.382   45.576
| 40> H  -20.898   28.157   45.201
| 41> H  -19.543   28.978   47.434
| 42> H  -21.289   28.710   47.548
| 43> H  -20.733   27.082   49.195
| 44> H  -19.064   26.913   48.597
| 45> C  -23.049   27.675   47.122
| 46> H  -22.643   27.666   48.141
| 47> H  -22.677   28.573   46.612
| 48> O  -22.586   26.394   46.375
| 49> C  -24.596   27.790   47.213
| 50> C  -25.018   29.118   47.852
| 51> C  -24.861   30.100   46.667
| 52> C  -25.273   29.244   45.443
| 53> O  -25.187   27.831   45.872
| 54> H  -24.992   26.903   47.711
| 55> H  -26.064   29.066   48.174
| 56> O  -24.148   29.509   49.078
| 57> H  -25.478   30.998   46.774
| 58> H  -23.816   30.421   46.580
| 59> H  -24.612   29.398   44.582
| 60> H  -26.306   29.426   45.135
| 61> H  -23.096   29.569   48.779
| 62> *
| 63>
| 64>                          ****END OF INPUT****
 Total Charge           Charge          ....    0
 Multiplicity           Mult            ....    1
 Number of Electrons    NEL             ....  102
FINAL SINGLE POINT ENERGY      -652.804766663459
FINAL SINGLE POINT ENERGY      -652.833082483221
FINAL SINGLE POINT ENERGY      -652.847794104946
FINAL SINGLE POINT ENERGY      -652.850232837805
FINAL SINGLE POINT ENERGY      -652.850698349465
FINAL SINGLE POINT ENERGY      -652.850809493500
FINAL SINGLE POINT ENERGY      -652.850824236946
FINAL SINGLE POINT ENERGY      -652.850825761509
                    ***********************HURRAY********************

CARTESIAN COORDINATES (ANGSTROEM)
---------------------------------
  C    -21.186771   26.335869   46.383222
  C    -20.232752   27.453890   45.935901
  C    -19.850582   28.118363   47.291608
  C    -19.817570   26.905948   48.259252
  O    -20.572013   25.821648   47.589923
  H    -21.216293   25.494244   45.690232
  H    -19.354277   26.998281   45.468363
  H    -20.690855   28.144321   45.222267
  H    -18.881882   28.626076   47.246483
  H    -20.596116   28.856749   47.595709
  H    -20.278260   27.116233   49.229482
  H    -18.801232   26.535222   48.422343
  C    -23.032631   27.839144   47.213114
  H    -22.726194   27.813884   48.267649
  H    -22.625210   28.743829   46.738933
  O    -22.583336   26.653312   46.510744
  C    -24.558580   27.838911   47.140639
  C    -25.219720   29.058110   47.806214
  C    -25.134497   30.126099   46.674954
  C    -25.330698   29.282859   45.396202
  O    -25.059328   27.871750   45.770955
  H    -24.911233   26.894400   47.563187
  H    -26.261807   28.823783   48.032039
  O    -24.652943   29.464810   49.075698
  H    -25.886743   30.911302   46.789477
  H    -24.144836   30.602740   46.695670
  H    -24.655873   29.573290   44.585022
  H    -26.360159   29.323250   45.028167
  H    -23.804609   29.933683   48.937550

 Multiplicity           Mult            ....    1
 Number of Electrons    NEL             ....  102
 Basis Dimension        Dim             ....  149

ORBITAL ENERGIES
----------------

  NO   OCC          E(Eh)            E(eV)
   0   2.0000     -19.152658      -521.1703
   1   2.0000     -19.142094      -520.8829
   2   2.0000     -19.139331      -520.8077
   3   2.0000     -19.137150      -520.7483
   4   2.0000     -10.276179      -279.6290
   5   2.0000     -10.246773      -278.8289
   6   2.0000     -10.233402      -278.4650
   7   2.0000     -10.231399      -278.4105
   8   2.0000     -10.230487      -278.3857
   9   2.0000     -10.229640      -278.3626
  10   2.0000     -10.198304      -277.5099
  11   2.0000     -10.195835      -277.4428
  12   2.0000     -10.192354      -277.3480
  13   2.0000      -1.051600       -28.6155
  14   2.0000      -1.035428       -28.1754
  15   2.0000      -1.016988       -27.6737
  16   2.0000      -0.995193       -27.0806
  17   2.0000      -0.789772       -21.4908
  18   2.0000      -0.785047       -21.3622
  19   2.0000      -0.773741       -21.0546
  20   2.0000      -0.732854       -19.9420
  21   2.0000      -0.685309       -18.6482
  22   2.0000      -0.613582       -16.6964
  23   2.0000      -0.605516       -16.4769
  24   2.0000      -0.598192       -16.2776
  25   2.0000      -0.573460       -15.6046
  26   2.0000      -0.527929       -14.3657
  27   2.0000      -0.510169       -13.8824
  28   2.0000      -0.502608       -13.6767
  29   2.0000      -0.495816       -13.4918
  30   2.0000      -0.475637       -12.9428
  31   2.0000      -0.462325       -12.5805
  32   2.0000      -0.445772       -12.1301
  33   2.0000      -0.435034       -11.8379
  34   2.0000      -0.424985       -11.5644
  35   2.0000      -0.422429       -11.4949
  36   2.0000      -0.412189       -11.2162
  37   2.0000      -0.403621       -10.9831
  38   2.0000      -0.384558       -10.4644
  39   2.0000      -0.378562       -10.3012
  40   2.0000      -0.362280        -9.8581
  41   2.0000      -0.357206        -9.7201
  42   2.0000      -0.350548        -9.5389
  43   2.0000      -0.331688        -9.0257
  44   2.0000      -0.317668        -8.6442
  45   2.0000      -0.314522        -8.5586
  46   2.0000      -0.300354        -8.1730
  47   2.0000      -0.272883        -7.4255
  48   2.0000      -0.266062        -7.2399
  49   2.0000      -0.250502        -6.8165
  50   2.0000      -0.242731        -6.6050
  51   0.0000       0.041071         1.1176
  52   0.0000       0.068639         1.8678
  53   0.0000       0.082101         2.2341
  54   0.0000       0.090401         2.4599
  55   0.0000       0.100641         2.7386

MULLIKEN ATOMIC CHARGES
-----------------------
   0 C :    0.302616
   1 C :   -0.284405
   2 C :   -0.310539
   3 C :   -0.009706
   4 O :   -0.502033
   5 H :    0.169865
   6 H :    0.157472
   7 H :    0.149904
   8 H :    0.145238
   9 H :    0.135162
  10 H :    0.144281
  11 H :    0.147183
  12 C :   -0.011607
  13 H :    0.140859
  14 H :    0.113245
  15 O :   -0.505717
  16 C :    0.099336
  17 C :    0.077910
  18 C :   -0.325420
  19 C :   -0.008401
  20 O :   -0.503445
  21 H :    0.170144
  22 H :    0.171863
  23 O :   -0.597668
  24 H :    0.160613
  25 H :    0.127325
  26 H :    0.143348
  27 H :    0.149349
  28 H :    0.353226
Sum of atomic charges:    0.0000000

LOEWDIN ATOMIC CHARGES
----------------------
   0 C :    0.173835
   1 C :   -0.230142
   2 C :   -0.224071
   3 C :   -0.033828
   4 O :   -0.321289
   5 H :    0.115724
   6 H :    0.123246
   7 H :    0.118126
   8 H :    0.115400
   9 H :    0.103427
  10 H :    0.101664
  11 H :    0.104260
  12 C :   -0.052431
  13 H :    0.101186
  14 H :    0.083115
  15 O :   -0.301477
  16 C :    0.024682
  17 C :    0.034303
  18 C :   -0.242233
  19 C :   -0.030153
  20 O :   -0.310834
  21 H :    0.123703
  22 H :    0.121447
  23 O :   -0.406641
  24 H :    0.123545
  25 H :    0.100918
  26 H :    0.102242
  27 H :    0.106302
  28 H :    0.275976

  Mayer bond orders larger than 0.100000
B(  0-C ,  1-C ) :   0.9194 B(  0-C ,  4-O ) :   0.8966 B(  0-C ,  5-H ) :   0.9355
B(  0-C , 15-O ) :   0.9075 B(  1-C ,  2-C ) :   0.9548 B(  1-C ,  6-H ) :   0.9355
B(  1-C ,  7-H ) :   0.9356 B(  2-C ,  3-C ) :   0.9474 B(  2-C ,  8-H ) :   0.9457
B(  2-C ,  9-H ) :   0.9423 B(  3-C ,  4-O ) :   0.8510 B(  3-C , 10-H ) :   0.9329
B(  3-C , 11-H ) :   0.9383 B( 12-C , 13-H ) :   0.8992 B( 12-C , 14-H ) :   0.9086
B( 12-C , 15-O ) :   0.8489 B( 12-C , 16-C ) :   0.9031 B( 16-C , 17-C ) :   0.8732
B( 16-C , 20-O ) :   0.8714 B( 16-C , 21-H ) :   0.9278 B( 17-C , 18-C ) :   0.9236
B( 17-C , 22-H ) :   0.9327 B( 17-C , 23-O ) :   0.8951 B( 18-C , 19-C ) :   0.9390
B( 18-C , 24-H ) :   0.9413 B( 18-C , 25-H ) :   0.9407 B( 19-C , 20-O ) :   0.8534
B( 19-C , 26-H ) :   0.9314 B( 19-C , 27-H ) :   0.9373 B( 23-O , 28-H ) :   0.7996

FINAL SINGLE POINT ENERGY      -652.850824554502

DIPOLE MOMENT
-------------
                                X             Y             Z
Electronic contribution:     -3.54101      -5.45763       0.49154
Nuclear contribution   :      4.39803       7.32890      -0.75299
                        -----------------------------------------
Total Dipole Moment    :      0.85702       1.87128      -0.26145
                        -----------------------------------------
Magnitude (a.u.)       :      2.07473
Magnitude (Debye)      :      5.27355

Rotational constants in cm-1:     0.048227     0.014108     0.012950
Rotational constants in MHz :  1445.817507   422.932464   388.237089

                             ****ORCA TERMINATED NORMALLY****
TOTAL RUN TIME: 0 days 0 hours 27 minutes 8 seconds 310 msec
