                         Program Version 4.2.0 -  RELEASE  -
|  1> # Test redundant internal optimization
|  2> #
|  3> ! RKS B3LYP  Opt TightSCF SmallPrint
|  4>
|  5> %basis
|  6>         Basis "6-31G"
|  7> end
|  8>
|  9> %geom
| 10> Constraints
| 11> { D 4  0  15  12  225.0   C } # D for Dihedral angle
| 12> { D 0  15  12  16  300.0   C } # D for Dihedral angle
| 13> { D 0  4  3  2   C } # D for Dihedral angle
| 14> { D 4  3  2  1   C } # D for Dihedral angle
| 15> { D 3  2  1  0   C } # D for Dihedral angle
| 16> { D 2  1  0  4   C } # D for Dihedral angle
| 17> { D 1  0  4  3   C } # D for Dihedral angle
| 18> { D 16  20  19  18   C } # D for Dihedral angle
| 19> { D 20  19  18  17   C } # D for Dihedral angle
| 20> { D 19  18  17  16   C } # D for Dihedral angle
| 21> { D 18  17  16  20   C } # D for Dihedral angle
| 22> { D 17  16  20  19   C } # D for Dihedral angle
| 23> { D 15  12  16  20   C } # D for Dihedral angle
| 24> end
| 25> end
| 26>
| 27>
| 28> #%pal
| 29> #nprocs 8
| 30> #end
| 31>
| 32> * xyz 0 1
| 33> C  -21.048   26.222   46.251
| 34> C  -20.361   27.558   45.944
| 35> C  -20.329   28.222   47.341
| 36> C  -20.110   27.022   48.296
| 37> O  -20.473   25.807   47.535
| 38> H  -20.833   25.428   45.533
| 39> H  -19.344   27.382   45.576
| 40> H  -20.898   28.157   45.201
| 41> H  -19.543   28.978   47.434
| 42> H  -21.289   28.710   47.548
| 43> H  -20.733   27.082   49.195
| 44> H  -19.064   26.913   48.597
| 45> C  -23.415   25.773   45.218
| 46> H  -23.229   24.692   45.178
| 47> H  -24.489   25.930   45.387
| 48> O  -22.586   26.394   46.375
| 49> C  -23.062   26.381   43.832
| 50> C  -23.977   25.830   42.733
| 51> C  -25.261   26.667   42.945
| 52> C  -24.712   28.048   43.383
| 53> O  -23.319   27.825   43.825
| 54> H  -21.996   26.244   43.643
| 55> O  -23.363   26.114   41.335
| 56> H  -24.154   24.752   42.821
| 57> H  -25.880   26.731   42.044
| 58> H  -25.872   26.224   43.741
| 59> H  -25.285   28.484   44.210
| 60> H  -24.678   28.765   42.558
| 61> H  -23.178   27.188   41.226
| 62> *
| 63>
| 64>                          ****END OF INPUT****
 Total Charge           Charge          ....    0
 Multiplicity           Mult            ....    1
 Number of Electrons    NEL             ....  102
FINAL SINGLE POINT ENERGY      -652.832288087398
FINAL SINGLE POINT ENERGY      -652.855190816399
FINAL SINGLE POINT ENERGY      -652.859219574373
FINAL SINGLE POINT ENERGY      -652.859921760570
FINAL SINGLE POINT ENERGY      -652.860017889271
FINAL SINGLE POINT ENERGY      -652.860025937585
                    ***********************HURRAY********************

CARTESIAN COORDINATES (ANGSTROEM)
---------------------------------
  C    -21.040107   26.216339   46.164257
  C    -20.400942   27.580931   45.914909
  C    -20.421732   28.205023   47.329072
  C    -20.177508   26.990210   48.249727
  O    -20.486278   25.792073   47.424336
  H    -20.801336   25.434374   45.435799
  H    -19.370465   27.443910   45.564087
  H    -20.957477   28.168847   45.181713
  H    -19.665494   28.985413   47.456460
  H    -21.407151   28.640245   47.520062
  H    -20.821962   26.980872   49.132080
  H    -19.132964   26.893867   48.561170
  C    -23.307538   25.812084   45.244824
  H    -23.167321   24.719281   45.188378
  H    -24.331167   26.012345   45.570720
  O    -22.480516   26.362359   46.298973
  C    -23.048003   26.406536   43.855927
  C    -23.982162   25.847031   42.772674
  C    -25.257580   26.707240   42.980218
  C    -24.684425   28.088584   43.388197
  O    -23.286680   27.852366   43.823610
  H    -22.002235   26.260064   43.568623
  O    -23.413090   26.033292   41.447743
  H    -24.165664   24.775076   42.855473
  H    -25.850738   26.744783   42.063218
  H    -25.879096   26.281669   43.775807
  H    -25.238799   28.551589   44.209635
  H    -24.646767   28.792796   42.550846
  H    -23.055801   26.943802   41.376464

 Multiplicity           Mult            ....    1
 Number of Electrons    NEL             ....  102
 Basis Dimension        Dim             ....  149

ORBITAL ENERGIES
----------------

  NO   OCC          E(Eh)            E(eV)
   0   2.0000     -19.149965      -521.0970
   1   2.0000     -19.145930      -520.9872
   2   2.0000     -19.137184      -520.7492
   3   2.0000     -19.133110      -520.6384
   4   2.0000     -10.274180      -279.5747
   5   2.0000     -10.249813      -278.9116
   6   2.0000     -10.241023      -278.6724
   7   2.0000     -10.237680      -278.5814
   8   2.0000     -10.235599      -278.5248
   9   2.0000     -10.218031      -278.0468
  10   2.0000     -10.196595      -277.4634
  11   2.0000     -10.177611      -276.9469
  12   2.0000     -10.175093      -276.8783
  13   2.0000      -1.049817       -28.5670
  14   2.0000      -1.041316       -28.3357
  15   2.0000      -1.013079       -27.5673
  16   2.0000      -0.990021       -26.9398
  17   2.0000      -0.791095       -21.5268
  18   2.0000      -0.778133       -21.1741
  19   2.0000      -0.769960       -20.9517
  20   2.0000      -0.730820       -19.8866
  21   2.0000      -0.675862       -18.3911
  22   2.0000      -0.611747       -16.6465
  23   2.0000      -0.607149       -16.5214
  24   2.0000      -0.590784       -16.0760
  25   2.0000      -0.572742       -15.5851
  26   2.0000      -0.530609       -14.4386
  27   2.0000      -0.515215       -14.0197
  28   2.0000      -0.491431       -13.3725
  29   2.0000      -0.490323       -13.3424
  30   2.0000      -0.472719       -12.8633
  31   2.0000      -0.455161       -12.3856
  32   2.0000      -0.454205       -12.3595
  33   2.0000      -0.446167       -12.1408
  34   2.0000      -0.423552       -11.5254
  35   2.0000      -0.414835       -11.2882
  36   2.0000      -0.401761       -10.9325
  37   2.0000      -0.394202       -10.7268
  38   2.0000      -0.379520       -10.3273
  39   2.0000      -0.369993       -10.0680
  40   2.0000      -0.360637        -9.8134
  41   2.0000      -0.351872        -9.5749
  42   2.0000      -0.346329        -9.4241
  43   2.0000      -0.336552        -9.1581
  44   2.0000      -0.317866        -8.6496
  45   2.0000      -0.308479        -8.3941
  46   2.0000      -0.302739        -8.2379
  47   2.0000      -0.278897        -7.5892
  48   2.0000      -0.265699        -7.2300
  49   2.0000      -0.250649        -6.8205
  50   2.0000      -0.238590        -6.4924
  51   0.0000       0.059391         1.6161
  52   0.0000       0.084342         2.2951
  53   0.0000       0.087223         2.3735
  54   0.0000       0.091606         2.4927
  55   0.0000       0.095388         2.5956

MULLIKEN ATOMIC CHARGES
-----------------------
   0 C :    0.279308
   1 C :   -0.265096
   2 C :   -0.301054
   3 C :   -0.001175
   4 O :   -0.507091
   5 H :    0.136251
   6 H :    0.135144
   7 H :    0.176932
   8 H :    0.138467
   9 H :    0.164649
  10 H :    0.150267
  11 H :    0.138297
  12 C :   -0.005456
  13 H :    0.130737
  14 H :    0.152286
  15 O :   -0.500525
  16 C :    0.050895
  17 C :    0.075651
  18 C :   -0.300125
  19 C :   -0.030639
  20 O :   -0.518886
  21 H :    0.161335
  22 O :   -0.600638
  23 H :    0.156713
  24 H :    0.166260
  25 H :    0.148489
  26 H :    0.154706
  27 H :    0.148935
  28 H :    0.365361
Sum of atomic charges:   -0.0000000

LOEWDIN ATOMIC CHARGES
----------------------
   0 C :    0.174406
   1 C :   -0.227634
   2 C :   -0.216036
   3 C :   -0.026081
   4 O :   -0.313029
   5 H :    0.094813
   6 H :    0.108972
   7 H :    0.130618
   8 H :    0.112727
   9 H :    0.120541
  10 H :    0.107139
  11 H :    0.100568
  12 C :   -0.039628
  13 H :    0.095981
  14 H :    0.114543
  15 O :   -0.321868
  16 C :   -0.001030
  17 C :    0.036062
  18 C :   -0.240615
  19 C :   -0.037589
  20 O :   -0.328792
  21 H :    0.112659
  22 O :   -0.413501
  23 H :    0.117700
  24 H :    0.128292
  25 H :    0.114930
  26 H :    0.108443
  27 H :    0.103686
  28 H :    0.283721

  Mayer bond orders larger than 0.100000
B(  0-C ,  1-C ) :   0.9356 B(  0-C ,  4-O ) :   0.9302 B(  0-C ,  5-H ) :   0.9178
B(  0-C , 15-O ) :   0.8337 B(  1-C ,  2-C ) :   0.9556 B(  1-C ,  6-H ) :   0.9360
B(  1-C ,  7-H ) :   0.9236 B(  2-C ,  3-C ) :   0.9551 B(  2-C ,  8-H ) :   0.9454
B(  2-C ,  9-H ) :   0.9432 B(  3-C ,  4-O ) :   0.8375 B(  3-C , 10-H ) :   0.9352
B(  3-C , 11-H ) :   0.9400 B( 12-C , 13-H ) :   0.9079 B( 12-C , 14-H ) :   0.9395
B( 12-C , 15-O ) :   0.8759 B( 12-C , 16-C ) :   0.8735 B( 16-C , 17-C ) :   0.8972
B( 16-C , 20-O ) :   0.8514 B( 16-C , 21-H ) :   0.9219 B( 17-C , 18-C ) :   0.9121
B( 17-C , 22-O ) :   0.8942 B( 17-C , 23-H ) :   0.9319 B( 18-C , 19-C ) :   0.9399
B( 18-C , 24-H ) :   0.9370 B( 18-C , 25-H ) :   0.9335 B( 19-C , 20-O ) :   0.8433
B( 19-C , 26-H ) :   0.9335 B( 19-C , 27-H ) :   0.9372 B( 22-O , 28-H ) :   0.7941

FINAL SINGLE POINT ENERGY      -652.860027255001

DIPOLE MOMENT
-------------
                                X             Y             Z
Electronic contribution:      0.50795      -2.62959      -0.77615
Nuclear contribution   :     -1.01925       3.26546       0.41665
                        -----------------------------------------
Total Dipole Moment    :     -0.51131       0.63587      -0.35950
                        -----------------------------------------
Magnitude (a.u.)       :      0.89163
Magnitude (Debye)      :      2.26634

Rotational constants in cm-1:     0.063333     0.012475     0.012095
Rotational constants in MHz :  1898.674283   373.991386   362.594141

                             ****ORCA TERMINATED NORMALLY****
TOTAL RUN TIME: 0 days 0 hours 20 minutes 4 seconds 24 msec
