                         Program Version 4.2.0 -  RELEASE  -
|  1> # Test redundant internal optimization
|  2> #
|  3> ! RKS B3LYP  Opt TightSCF SmallPrint
|  4>
|  5> %basis
|  6>         Basis "6-31G"
|  7> end
|  8>
|  9> %geom
| 10> Constraints
| 11> { D 4  0  15  12  135.0   C } # D for Dihedral angle
| 12> { D 0  15  12  16  195.0   C } # D for Dihedral angle
| 13> { D 0  4  3  2   C } # D for Dihedral angle
| 14> { D 4  3  2  1   C } # D for Dihedral angle
| 15> { D 3  2  1  0   C } # D for Dihedral angle
| 16> { D 2  1  0  4   C } # D for Dihedral angle
| 17> { D 1  0  4  3   C } # D for Dihedral angle
| 18> { D 16  20  19  18   C } # D for Dihedral angle
| 19> { D 20  19  18  17   C } # D for Dihedral angle
| 20> { D 19  18  17  16   C } # D for Dihedral angle
| 21> { D 18  17  16  20   C } # D for Dihedral angle
| 22> { D 17  16  20  19   C } # D for Dihedral angle
| 23> { D 15  12  16  20   C } # D for Dihedral angle
| 24> end
| 25> end
| 26>
| 27>
| 28> #%pal
| 29> #nprocs 8
| 30> #end
| 31>
| 32> * xyz 0 1
| 33> C  -21.048   26.222   46.251
| 34> C  -20.361   27.558   45.944
| 35> C  -20.329   28.222   47.341
| 36> C  -20.110   27.022   48.296
| 37> O  -20.473   25.807   47.535
| 38> H  -20.833   25.428   45.533
| 39> H  -19.344   27.382   45.576
| 40> H  -20.898   28.157   45.201
| 41> H  -19.543   28.978   47.434
| 42> H  -21.289   28.710   47.548
| 43> H  -20.733   27.082   49.195
| 44> H  -19.064   26.913   48.597
| 45> C  -23.162   27.680   45.721
| 46> H  -22.525   28.535   45.981
| 47> H  -23.173   27.582   44.627
| 48> O  -22.586   26.394   46.375
| 49> C  -24.612   27.991   46.183
| 50> C  -25.189   29.197   45.432
| 51> C  -25.591   28.561   44.080
| 52> C  -26.061   27.142   44.485
| 53> O  -25.510   26.885   45.833
| 54> H  -24.628   28.086   47.271
| 55> O  -26.439   29.740   46.177
| 56> H  -24.471   30.016   45.319
| 57> H  -26.372   29.127   43.561
| 58> H  -24.721   28.505   43.416
| 59> H  -25.700   26.368   43.798
| 60> H  -27.150   27.068   44.562
| 61> H  -27.172   28.936   46.301
| 62> *
| 63>
| 64>                          ****END OF INPUT****
 Total Charge           Charge          ....    0
 Multiplicity           Mult            ....    1
 Number of Electrons    NEL             ....  102
FINAL SINGLE POINT ENERGY      -652.820056020510
FINAL SINGLE POINT ENERGY      -652.843909928793
FINAL SINGLE POINT ENERGY      -652.848380363673
FINAL SINGLE POINT ENERGY      -652.850579066062
FINAL SINGLE POINT ENERGY      -652.850801952915
FINAL SINGLE POINT ENERGY      -652.850844473976
FINAL SINGLE POINT ENERGY      -652.850847813175
                    ***********************HURRAY********************

CARTESIAN COORDINATES (ANGSTROEM)
---------------------------------
  C    -21.137595   26.318704   46.254907
  C    -20.203705   27.498635   45.975049
  C    -20.192048   28.235251   47.342199
  C    -20.280702   27.067855   48.351470
  O    -20.775682   25.901859   47.582968
  H    -20.977186   25.450348   45.611893
  H    -19.209090   27.099864   45.748345
  H    -20.508240   28.132065   45.138079
  H    -19.290020   28.838721   47.481415
  H    -21.058171   28.899248   47.434181
  H    -20.969014   27.265591   49.177373
  H    -19.303850   26.786828   48.755638
  C    -23.099447   27.787840   45.585868
  H    -22.543611   28.694511   45.862859
  H    -23.059083   27.684394   44.490937
  O    -22.567566   26.603902   46.226525
  C    -24.540145   27.953109   46.067865
  C    -25.270698   29.153296   45.447407
  C    -25.753185   28.565185   44.094574
  C    -26.080333   27.094104   44.452263
  O    -25.385137   26.807393   45.729924
  H    -24.529332   28.012064   47.160238
  O    -26.385295   29.567413   46.283917
  H    -24.650564   30.044121   45.333575
  H    -26.618314   29.118779   43.721287
  H    -24.954453   28.627196   43.346591
  H    -25.736253   26.385561   43.692732
  H    -27.149438   26.931284   44.622009
  H    -26.858844   28.768880   46.600911

 Multiplicity           Mult            ....    1
 Number of Electrons    NEL             ....  102
 Basis Dimension        Dim             ....  149

ORBITAL ENERGIES
----------------

  NO   OCC          E(Eh)            E(eV)
   0   2.0000     -19.140046      -520.8271
   1   2.0000     -19.139527      -520.8130
   2   2.0000     -19.138224      -520.7775
   3   2.0000     -19.137107      -520.7472
   4   2.0000     -10.279329      -279.7148
   5   2.0000     -10.244915      -278.7783
   6   2.0000     -10.236955      -278.5617
   7   2.0000     -10.234722      -278.5009
   8   2.0000     -10.229798      -278.3670
   9   2.0000     -10.226939      -278.2892
  10   2.0000     -10.195227      -277.4262
  11   2.0000     -10.194905      -277.4175
  12   2.0000     -10.191155      -277.3154
  13   2.0000      -1.050819       -28.5942
  14   2.0000      -1.036426       -28.2026
  15   2.0000      -1.006879       -27.3986
  16   2.0000      -0.991672       -26.9848
  17   2.0000      -0.791572       -21.5398
  18   2.0000      -0.786426       -21.3997
  19   2.0000      -0.770448       -20.9650
  20   2.0000      -0.733770       -19.9669
  21   2.0000      -0.679718       -18.4961
  22   2.0000      -0.607354       -16.5269
  23   2.0000      -0.604983       -16.4624
  24   2.0000      -0.595413       -16.2020
  25   2.0000      -0.577837       -15.7238
  26   2.0000      -0.525483       -14.2991
  27   2.0000      -0.515162       -14.0183
  28   2.0000      -0.500321       -13.6144
  29   2.0000      -0.493926       -13.4404
  30   2.0000      -0.475688       -12.9441
  31   2.0000      -0.462300       -12.5798
  32   2.0000      -0.449390       -12.2285
  33   2.0000      -0.445659       -12.1270
  34   2.0000      -0.426766       -11.6129
  35   2.0000      -0.416722       -11.3396
  36   2.0000      -0.400085       -10.8869
  37   2.0000      -0.394423       -10.7328
  38   2.0000      -0.382294       -10.4028
  39   2.0000      -0.373182       -10.1548
  40   2.0000      -0.367165        -9.9911
  41   2.0000      -0.361149        -9.8274
  42   2.0000      -0.354040        -9.6339
  43   2.0000      -0.333397        -9.0722
  44   2.0000      -0.313468        -8.5299
  45   2.0000      -0.306797        -8.3484
  46   2.0000      -0.292331        -7.9547
  47   2.0000      -0.272972        -7.4279
  48   2.0000      -0.265141        -7.2148
  49   2.0000      -0.248707        -6.7677
  50   2.0000      -0.242557        -6.6003
  51   0.0000       0.062489         1.7004
  52   0.0000       0.076498         2.0816
  53   0.0000       0.083084         2.2608
  54   0.0000       0.098567         2.6821
  55   0.0000       0.101698         2.7673

MULLIKEN ATOMIC CHARGES
-----------------------
   0 C :    0.320382
   1 C :   -0.302775
   2 C :   -0.305371
   3 C :   -0.001172
   4 O :   -0.493435
   5 H :    0.154765
   6 H :    0.155701
   7 H :    0.143893
   8 H :    0.146425
   9 H :    0.151146
  10 H :    0.152493
  11 H :    0.144533
  12 C :    0.000859
  13 H :    0.119230
  14 H :    0.126661
  15 O :   -0.513151
  16 C :    0.073266
  17 C :    0.070563
  18 C :   -0.299240
  19 C :   -0.031274
  20 O :   -0.503897
  21 H :    0.170393
  22 O :   -0.600497
  23 H :    0.148315
  24 H :    0.164156
  25 H :    0.142676
  26 H :    0.150939
  27 H :    0.147054
  28 H :    0.367363
Sum of atomic charges:   -0.0000000

LOEWDIN ATOMIC CHARGES
----------------------
   0 C :    0.184224
   1 C :   -0.233940
   2 C :   -0.219308
   3 C :   -0.028222
   4 O :   -0.306714
   5 H :    0.104315
   6 H :    0.122253
   7 H :    0.113707
   8 H :    0.116440
   9 H :    0.109193
  10 H :    0.107970
  11 H :    0.103897
  12 C :   -0.041438
  13 H :    0.090758
  14 H :    0.090023
  15 O :   -0.322477
  16 C :    0.019151
  17 C :    0.033764
  18 C :   -0.243055
  19 C :   -0.038886
  20 O :   -0.315570
  21 H :    0.121925
  22 O :   -0.413819
  23 H :    0.113095
  24 H :    0.127069
  25 H :    0.111600
  26 H :    0.106416
  27 H :    0.102780
  28 H :    0.284851

  Mayer bond orders larger than 0.100000
B(  0-C ,  1-C ) :   0.9298 B(  0-C ,  4-O ) :   0.9255 B(  0-C ,  5-H ) :   0.9279
B(  0-C , 15-O ) :   0.8552 B(  1-C ,  2-C ) :   0.9499 B(  1-C ,  6-H ) :   0.9340
B(  1-C ,  7-H ) :   0.9294 B(  2-C ,  3-C ) :   0.9504 B(  2-C ,  8-H ) :   0.9455
B(  2-C ,  9-H ) :   0.9407 B(  3-C ,  4-O ) :   0.8434 B(  3-C , 10-H ) :   0.9339
B(  3-C , 11-H ) :   0.9392 B( 12-C , 13-H ) :   0.8954 B( 12-C , 14-H ) :   0.9161
B( 12-C , 15-O ) :   0.8517 B( 12-C , 16-C ) :   0.8945 B( 16-C , 17-C ) :   0.8979
B( 16-C , 20-O ) :   0.8719 B( 16-C , 21-H ) :   0.9224 B( 17-C , 18-C ) :   0.9116
B( 17-C , 22-O ) :   0.8980 B( 17-C , 23-H ) :   0.9332 B( 18-C , 19-C ) :   0.9394
B( 18-C , 24-H ) :   0.9368 B( 18-C , 25-H ) :   0.9345 B( 19-C , 20-O ) :   0.8532
B( 19-C , 26-H ) :   0.9335 B( 19-C , 27-H ) :   0.9375 B( 22-O , 28-H ) :   0.7922

FINAL SINGLE POINT ENERGY      -652.850848112419

DIPOLE MOMENT
-------------
                                X             Y             Z
Electronic contribution:     -3.22605      -4.04336       2.44500
Nuclear contribution   :      4.01846       5.10566      -3.45893
                        -----------------------------------------
Total Dipole Moment    :      0.79241       1.06230      -1.01393
                        -----------------------------------------
Magnitude (a.u.)       :      1.66866
Magnitude (Debye)      :      4.24141

Rotational constants in cm-1:     0.058763     0.012110     0.011552
Rotational constants in MHz :  1761.662776   363.054789   346.318963

                             ****ORCA TERMINATED NORMALLY****
TOTAL RUN TIME: 0 days 2 hours 5 minutes 0 seconds 262 msec
