                         Program Version 4.2.0 -  RELEASE  -
|  1> # Test redundant internal optimization
|  2> #
|  3> ! RKS B3LYP  Opt TightSCF SmallPrint
|  4>
|  5> %basis
|  6>         Basis "6-31G"
|  7> end
|  8>
|  9> %geom
| 10> Constraints
| 11> { D 4  0  15  12  255.0   C } # D for Dihedral angle
| 12> { D 0  15  12  16  210.0   C } # D for Dihedral angle
| 13> { D 0  4  3  2   C } # D for Dihedral angle
| 14> { D 4  3  2  1   C } # D for Dihedral angle
| 15> { D 3  2  1  0   C } # D for Dihedral angle
| 16> { D 2  1  0  4   C } # D for Dihedral angle
| 17> { D 1  0  4  3   C } # D for Dihedral angle
| 18> { D 16  20  19  18   C } # D for Dihedral angle
| 19> { D 20  19  18  17   C } # D for Dihedral angle
| 20> { D 19  18  17  16   C } # D for Dihedral angle
| 21> { D 18  17  16  20   C } # D for Dihedral angle
| 22> { D 17  16  20  19   C } # D for Dihedral angle
| 23> { D 15  12  16  20   C } # D for Dihedral angle
| 24> end
| 25> end
| 26>
| 27>
| 28> #%pal
| 29> #nprocs 8
| 30> #end
| 31>
| 32> * xyz 0 1
| 33> C  -21.048   26.222   46.251
| 34> C  -20.361   27.558   45.944
| 35> C  -20.329   28.222   47.341
| 36> C  -20.110   27.022   48.296
| 37> O  -20.473   25.807   47.535
| 38> H  -20.833   25.428   45.533
| 39> H  -19.344   27.382   45.576
| 40> H  -20.898   28.157   45.201
| 41> H  -19.543   28.978   47.434
| 42> H  -21.289   28.710   47.548
| 43> H  -20.733   27.082   49.195
| 44> H  -19.064   26.913   48.597
| 45> C  -23.431   25.260   45.734
| 46> H  -22.879   24.831   44.888
| 47> H  -23.617   24.460   46.462
| 48> O  -22.586   26.394   46.375
| 49> C  -24.809   25.757   45.215
| 50> C  -25.604   26.452   46.327
| 51> C  -24.939   27.850   46.360
| 52> C  -24.594   28.110   44.873
| 53> O  -24.629   26.795   44.196
| 54> H  -25.332   24.927   44.738
| 55> O  -27.099   26.566   45.921
| 56> H  -25.546   25.932   47.289
| 57> H  -25.594   28.621   46.778
| 58> H  -24.027   27.818   46.968
| 59> H  -23.601   28.554   44.744
| 60> H  -25.333   28.747   44.377
| 61> H  -27.181   27.086   44.960
| 62> *
| 63>
| 64>                          ****END OF INPUT****
 Total Charge           Charge          ....    0
 Multiplicity           Mult            ....    1
 Number of Electrons    NEL             ....  102
FINAL SINGLE POINT ENERGY      -652.837812037882
FINAL SINGLE POINT ENERGY      -652.860345429877
FINAL SINGLE POINT ENERGY      -652.864447005965
FINAL SINGLE POINT ENERGY      -652.865478575954
FINAL SINGLE POINT ENERGY      -652.865580317801
FINAL SINGLE POINT ENERGY      -652.865594353346
                    ***********************HURRAY********************

CARTESIAN COORDINATES (ANGSTROEM)
---------------------------------
  C    -21.074754   26.153032   46.221430
  C    -20.443895   27.512202   45.917415
  C    -20.428527   28.177197   47.315245
  C    -20.157925   26.985133   48.260721
  O    -20.485026   25.766065   47.480590
  H    -20.848236   25.358246   45.505184
  H    -19.422934   27.361199   45.547830
  H    -21.011325   28.072385   45.171660
  H    -19.667195   28.958371   47.402249
  H    -21.405136   28.624323   47.525044
  H    -20.776469   27.002429   49.161495
  H    -19.105239   26.901341   48.546735
  C    -23.346798   25.276328   45.770061
  H    -22.835959   24.826991   44.907633
  H    -23.524996   24.489703   46.516952
  O    -22.507939   26.323296   46.335584
  C    -24.680008   25.840440   45.287140
  C    -25.569849   26.521838   46.337003
  C    -24.978640   27.956002   46.368518
  C    -24.566780   28.196074   44.895148
  O    -24.498307   26.861197   44.253935
  H    -25.228997   25.013605   44.820084
  O    -26.963458   26.505319   45.916281
  H    -25.558840   26.027858   47.308689
  H    -25.721595   28.673939   46.727049
  H    -24.103317   27.971587   47.019798
  H    -23.589464   28.678891   44.810024
  H    -25.303324   28.783147   44.335950
  H    -27.021069   26.822860   44.990552

 Multiplicity           Mult            ....    1
 Number of Electrons    NEL             ....  102
 Basis Dimension        Dim             ....  149

ORBITAL ENERGIES
----------------

  NO   OCC          E(Eh)            E(eV)
   0   2.0000     -19.148666      -521.0617
   1   2.0000     -19.140637      -520.8432
   2   2.0000     -19.139415      -520.8100
   3   2.0000     -19.134819      -520.6849
   4   2.0000     -10.282740      -279.8076
   5   2.0000     -10.236586      -278.5517
   6   2.0000     -10.235369      -278.5186
   7   2.0000     -10.234672      -278.4996
   8   2.0000     -10.226772      -278.2846
   9   2.0000     -10.225000      -278.2364
  10   2.0000     -10.188691      -277.2484
  11   2.0000     -10.187505      -277.2161
  12   2.0000     -10.177240      -276.9368
  13   2.0000      -1.056292       -28.7432
  14   2.0000      -1.032849       -28.1052
  15   2.0000      -1.004305       -27.3285
  16   2.0000      -0.995748       -27.0957
  17   2.0000      -0.790917       -21.5219
  18   2.0000      -0.776774       -21.1371
  19   2.0000      -0.765255       -20.8236
  20   2.0000      -0.732485       -19.9319
  21   2.0000      -0.675086       -18.3700
  22   2.0000      -0.601171       -16.3587
  23   2.0000      -0.597762       -16.2659
  24   2.0000      -0.597257       -16.2522
  25   2.0000      -0.581719       -15.8294
  26   2.0000      -0.527065       -14.3422
  27   2.0000      -0.506298       -13.7771
  28   2.0000      -0.496220       -13.5028
  29   2.0000      -0.487666       -13.2701
  30   2.0000      -0.474872       -12.9219
  31   2.0000      -0.462093       -12.5742
  32   2.0000      -0.448536       -12.2053
  33   2.0000      -0.435478       -11.8500
  34   2.0000      -0.426447       -11.6042
  35   2.0000      -0.409162       -11.1339
  36   2.0000      -0.401385       -10.9222
  37   2.0000      -0.388224       -10.5641
  38   2.0000      -0.379506       -10.3269
  39   2.0000      -0.367106        -9.9895
  40   2.0000      -0.359027        -9.7696
  41   2.0000      -0.356544        -9.7020
  42   2.0000      -0.350699        -9.5430
  43   2.0000      -0.329763        -8.9733
  44   2.0000      -0.320487        -8.7209
  45   2.0000      -0.310631        -8.4527
  46   2.0000      -0.301106        -8.1935
  47   2.0000      -0.273197        -7.4341
  48   2.0000      -0.265710        -7.2303
  49   2.0000      -0.253451        -6.8967
  50   2.0000      -0.242195        -6.5905
  51   0.0000       0.060837         1.6555
  52   0.0000       0.081117         2.2073
  53   0.0000       0.086175         2.3449
  54   0.0000       0.102225         2.7817
  55   0.0000       0.106028         2.8852

MULLIKEN ATOMIC CHARGES
-----------------------
   0 C :    0.291346
   1 C :   -0.260347
   2 C :   -0.303896
   3 C :   -0.000521
   4 O :   -0.504849
   5 H :    0.144514
   6 H :    0.146385
   7 H :    0.156419
   8 H :    0.143395
   9 H :    0.158014
  10 H :    0.148986
  11 H :    0.142886
  12 C :    0.008202
  13 H :    0.139145
  14 H :    0.142183
  15 O :   -0.528497
  16 C :    0.063126
  17 C :    0.076558
  18 C :   -0.290200
  19 C :   -0.023941
  20 O :   -0.527200
  21 H :    0.157390
  22 O :   -0.602684
  23 H :    0.154189
  24 H :    0.147493
  25 H :    0.178285
  26 H :    0.143988
  27 H :    0.137365
  28 H :    0.362268
Sum of atomic charges:   -0.0000000

LOEWDIN ATOMIC CHARGES
----------------------
   0 C :    0.177005
   1 C :   -0.218344
   2 C :   -0.217015
   3 C :   -0.026839
   4 O :   -0.321455
   5 H :    0.100429
   6 H :    0.114813
   7 H :    0.121332
   8 H :    0.114583
   9 H :    0.115250
  10 H :    0.106520
  11 H :    0.102878
  12 C :   -0.033038
  13 H :    0.102788
  14 H :    0.102699
  15 O :   -0.332061
  16 C :    0.012149
  17 C :    0.039666
  18 C :   -0.242423
  19 C :   -0.033934
  20 O :   -0.331661
  21 H :    0.117039
  22 O :   -0.416824
  23 H :    0.117594
  24 H :    0.118258
  25 H :    0.129936
  26 H :    0.102592
  27 H :    0.096494
  28 H :    0.281571

  Mayer bond orders larger than 0.100000
B(  0-C ,  1-C ) :   0.9447 B(  0-C ,  4-O ) :   0.9269 B(  0-C ,  5-H ) :   0.9176
B(  0-C , 15-O ) :   0.8416 B(  1-C ,  2-C ) :   0.9573 B(  1-C ,  6-H ) :   0.9377
B(  1-C ,  7-H ) :   0.9344 B(  2-C ,  3-C ) :   0.9537 B(  2-C ,  8-H ) :   0.9449
B(  2-C ,  9-H ) :   0.9436 B(  3-C ,  4-O ) :   0.8390 B(  3-C , 10-H ) :   0.9352
B(  3-C , 11-H ) :   0.9398 B( 12-C , 13-H ) :   0.9166 B( 12-C , 14-H ) :   0.9122
B( 12-C , 15-O ) :   0.8460 B( 12-C , 16-C ) :   0.9066 B( 16-C , 17-C ) :   0.9100
B( 16-C , 20-O ) :   0.8699 B( 16-C , 21-H ) :   0.9203 B( 17-C , 18-C ) :   0.9257
B( 17-C , 22-O ) :   0.8926 B( 17-C , 23-H ) :   0.9350 B( 18-C , 19-C ) :   0.9458
B( 18-C , 24-H ) :   0.9372 B( 18-C , 25-H ) :   0.9167 B( 19-C , 20-O ) :   0.8417
B( 19-C , 26-H ) :   0.9322 B( 19-C , 27-H ) :   0.9365 B( 22-O , 28-H ) :   0.7962

FINAL SINGLE POINT ENERGY      -652.865593849221

DIPOLE MOMENT
-------------
                                X             Y             Z
Electronic contribution:     -3.12042      -4.23474      -1.50516
Nuclear contribution   :      3.88848       4.93194       1.42002
                        -----------------------------------------
Total Dipole Moment    :      0.76806       0.69720      -0.08513
                        -----------------------------------------
Magnitude (a.u.)       :      1.04079
Magnitude (Debye)      :      2.64549

Rotational constants in cm-1:     0.055157     0.014043     0.013572
Rotational constants in MHz :  1653.573729   420.984777   406.890735

                             ****ORCA TERMINATED NORMALLY****
TOTAL RUN TIME: 0 days 1 hours 39 minutes 13 seconds 237 msec
