                         Program Version 4.2.0 -  RELEASE  -
|  1> # Test redundant internal optimization
|  2> #
|  3> ! RKS B3LYP  Opt TightSCF SmallPrint
|  4>
|  5> %basis
|  6>         Basis "6-31G"
|  7> end
|  8>
|  9> %geom
| 10> Constraints
| 11> { D 4  0  15  12  45.0   C } # D for Dihedral angle
| 12> { D 0  15  12  16  135.0   C } # D for Dihedral angle
| 13> { D 0  4  3  2   C } # D for Dihedral angle
| 14> { D 4  3  2  1   C } # D for Dihedral angle
| 15> { D 3  2  1  0   C } # D for Dihedral angle
| 16> { D 2  1  0  4   C } # D for Dihedral angle
| 17> { D 1  0  4  3   C } # D for Dihedral angle
| 18> { D 16  20  19  18   C } # D for Dihedral angle
| 19> { D 20  19  18  17   C } # D for Dihedral angle
| 20> { D 19  18  17  16   C } # D for Dihedral angle
| 21> { D 18  17  16  20   C } # D for Dihedral angle
| 22> { D 17  16  20  19   C } # D for Dihedral angle
| 23> { D 15  12  16  20   C } # D for Dihedral angle
| 24> end
| 25> end
| 26>
| 27>
| 28> #%pal
| 29> #nprocs 8
| 30> #end
| 31>
| 32> * xyz 0 1
| 33> C  -21.048   26.222   46.251
| 34> C  -20.361   27.558   45.944
| 35> C  -20.329   28.222   47.341
| 36> C  -20.110   27.022   48.296
| 37> O  -20.473   25.807   47.535
| 38> H  -20.833   25.428   45.533
| 39> H  -19.344   27.382   45.576
| 40> H  -20.898   28.157   45.201
| 41> H  -19.543   28.978   47.434
| 42> H  -21.289   28.710   47.548
| 43> H  -20.733   27.082   49.195
| 44> H  -19.064   26.913   48.597
| 45> C  -23.065   27.161   47.638
| 46> H  -23.479   26.447   48.360
| 47> H  -22.223   27.682   48.113
| 48> O  -22.586   26.394   46.375
| 49> C  -24.156   28.221   47.319
| 50> C  -24.521   29.037   48.564
| 51> C  -23.347   30.042   48.636
| 52> C  -23.031   30.320   47.145
| 53> O  -23.642   29.217   46.373
| 54> H  -25.003   27.729   46.836
| 55> H  -25.470   29.561   48.406
| 56> O  -24.649   28.169   49.846
| 57> H  -23.601   30.954   49.185
| 58> H  -22.485   29.580   49.133
| 59> H  -21.954   30.346   46.942
| 60> H  -23.481   31.251   46.789
| 61> H  -23.710   27.634   50.025
| 62> *
| 63>
| 64>                          ****END OF INPUT****
 Total Charge           Charge          ....    0
 Multiplicity           Mult            ....    1
 Number of Electrons    NEL             ....  102
FINAL SINGLE POINT ENERGY      -652.803039244671
FINAL SINGLE POINT ENERGY      -652.832187809767
FINAL SINGLE POINT ENERGY      -652.848047314343
FINAL SINGLE POINT ENERGY      -652.850591072282
FINAL SINGLE POINT ENERGY      -652.851001189576
FINAL SINGLE POINT ENERGY      -652.851097499065
FINAL SINGLE POINT ENERGY      -652.851106432701
FINAL SINGLE POINT ENERGY      -652.851105978812
                    ***********************HURRAY********************

CARTESIAN COORDINATES (ANGSTROEM)
---------------------------------
  C    -21.145641   26.294924   46.346703
  C    -20.310728   27.501593   45.896919
  C    -19.869310   28.113279   47.255854
  C    -19.674334   26.859491   48.145711
  O    -20.404656   25.757983   47.470147
  H    -21.174425   25.501609   45.597505
  H    -19.444780   27.143545   45.329923
  H    -20.894057   28.190799   45.282871
  H    -18.946517   28.696493   47.172884
  H    -20.644184   28.777162   47.646896
  H    -20.066704   26.978546   49.160997
  H    -18.625611   26.553295   48.206672
  C    -23.050939   27.181375   47.777989
  H    -23.531884   26.421185   48.406401
  H    -22.250031   27.646638   48.362451
  O    -22.544731   26.535317   46.581305
  C    -24.093959   28.209863   47.341377
  C    -24.734120   29.018621   48.483140
  C    -23.687036   30.151434   48.697007
  C    -23.172345   30.417833   47.265804
  O    -23.541154   29.229701   46.450681
  H    -24.844251   27.681813   46.745921
  H    -25.683871   29.436033   48.143773
  O    -25.072784   28.264696   49.671266
  H    -24.124301   31.037572   49.164373
  H    -22.885321   29.787247   49.354308
  H    -22.088186   30.562423   47.221200
  H    -23.659616   31.282265   46.806237
  H    -24.262524   27.993265   50.149685

 Multiplicity           Mult            ....    1
 Number of Electrons    NEL             ....  102
 Basis Dimension        Dim             ....  149

ORBITAL ENERGIES
----------------

  NO   OCC          E(Eh)            E(eV)
   0   2.0000     -19.152473      -521.1653
   1   2.0000     -19.143724      -520.9272
   2   2.0000     -19.143117      -520.9107
   3   2.0000     -19.137350      -520.7538
   4   2.0000     -10.275604      -279.6134
   5   2.0000     -10.248216      -278.8681
   6   2.0000     -10.235657      -278.5264
   7   2.0000     -10.233057      -278.4556
   8   2.0000     -10.232360      -278.4367
   9   2.0000     -10.231736      -278.4197
  10   2.0000     -10.199984      -277.5557
  11   2.0000     -10.193287      -277.3735
  12   2.0000     -10.182706      -277.0855
  13   2.0000      -1.051127       -28.6026
  14   2.0000      -1.036382       -28.2014
  15   2.0000      -1.019140       -27.7322
  16   2.0000      -0.993198       -27.0263
  17   2.0000      -0.788044       -21.4438
  18   2.0000      -0.786210       -21.3938
  19   2.0000      -0.774405       -21.0726
  20   2.0000      -0.733738       -19.9660
  21   2.0000      -0.684659       -18.6305
  22   2.0000      -0.615399       -16.7459
  23   2.0000      -0.603885       -16.4326
  24   2.0000      -0.597830       -16.2678
  25   2.0000      -0.574960       -15.6455
  26   2.0000      -0.529507       -14.4086
  27   2.0000      -0.512960       -13.9583
  28   2.0000      -0.505058       -13.7433
  29   2.0000      -0.492379       -13.3983
  30   2.0000      -0.467873       -12.7315
  31   2.0000      -0.461602       -12.5608
  32   2.0000      -0.450769       -12.2661
  33   2.0000      -0.437939       -11.9169
  34   2.0000      -0.430922       -11.7260
  35   2.0000      -0.416458       -11.3324
  36   2.0000      -0.410992       -11.1836
  37   2.0000      -0.404546       -11.0083
  38   2.0000      -0.383673       -10.4403
  39   2.0000      -0.375247       -10.2110
  40   2.0000      -0.361009        -9.8236
  41   2.0000      -0.357278        -9.7220
  42   2.0000      -0.344699        -9.3797
  43   2.0000      -0.338181        -9.2024
  44   2.0000      -0.318972        -8.6797
  45   2.0000      -0.317386        -8.6365
  46   2.0000      -0.307320        -8.3626
  47   2.0000      -0.273873        -7.4525
  48   2.0000      -0.261456        -7.1146
  49   2.0000      -0.256439        -6.9781
  50   2.0000      -0.238683        -6.4949
  51   0.0000       0.043588         1.1861
  52   0.0000       0.056482         1.5369
  53   0.0000       0.082985         2.2581
  54   0.0000       0.090181         2.4539
  55   0.0000       0.101944         2.7740

MULLIKEN ATOMIC CHARGES
-----------------------
   0 C :    0.298091
   1 C :   -0.265110
   2 C :   -0.327619
   3 C :   -0.015182
   4 O :   -0.508207
   5 H :    0.166115
   6 H :    0.146797
   7 H :    0.173965
   8 H :    0.144704
   9 H :    0.153631
  10 H :    0.136878
  11 H :    0.150140
  12 C :   -0.009153
  13 H :    0.149419
  14 H :    0.113332
  15 O :   -0.519817
  16 C :    0.095471
  17 C :    0.086975
  18 C :   -0.327467
  19 C :   -0.012788
  20 O :   -0.510948
  21 H :    0.170818
  22 H :    0.168977
  23 O :   -0.598015
  24 H :    0.160249
  25 H :    0.131562
  26 H :    0.139883
  27 H :    0.151111
  28 H :    0.356189
Sum of atomic charges:   -0.0000000

LOEWDIN ATOMIC CHARGES
----------------------
   0 C :    0.180143
   1 C :   -0.227359
   2 C :   -0.225873
   3 C :   -0.036867
   4 O :   -0.322984
   5 H :    0.113122
   6 H :    0.116662
   7 H :    0.131782
   8 H :    0.115643
   9 H :    0.107289
  10 H :    0.096879
  11 H :    0.106106
  12 C :   -0.045512
  13 H :    0.108633
  14 H :    0.088864
  15 O :   -0.314649
  16 C :    0.017397
  17 C :    0.036292
  18 C :   -0.242649
  19 C :   -0.032784
  20 O :   -0.317457
  21 H :    0.122680
  22 H :    0.120653
  23 O :   -0.405260
  24 H :    0.124070
  25 H :    0.102142
  26 H :    0.098010
  27 H :    0.107169
  28 H :    0.277859

  Mayer bond orders larger than 0.100000
B(  0-C ,  1-C ) :   0.9159 B(  0-C ,  4-O ) :   0.8999 B(  0-C ,  5-H ) :   0.9359
B(  0-C , 15-O ) :   0.8911 B(  1-C ,  2-C ) :   0.9564 B(  1-C ,  6-H ) :   0.9345
B(  1-C ,  7-H ) :   0.9293 B(  2-C ,  3-C ) :   0.9464 B(  2-C ,  8-H ) :   0.9452
B(  2-C ,  9-H ) :   0.9343 B(  3-C ,  4-O ) :   0.8462 B(  3-C , 10-H ) :   0.9322
B(  3-C , 11-H ) :   0.9381 B( 12-C , 13-H ) :   0.9137 B( 12-C , 14-H ) :   0.9129
B( 12-C , 15-O ) :   0.8386 B( 12-C , 16-C ) :   0.9036 B( 16-C , 17-C ) :   0.8720
B( 16-C , 20-O ) :   0.8614 B( 16-C , 21-H ) :   0.9273 B( 17-C , 18-C ) :   0.9198
B( 17-C , 22-H ) :   0.9330 B( 17-C , 23-O ) :   0.8997 B( 18-C , 19-C ) :   0.9400
B( 18-C , 24-H ) :   0.9420 B( 18-C , 25-H ) :   0.9410 B( 19-C , 20-O ) :   0.8518
B( 19-C , 26-H ) :   0.9249 B( 19-C , 27-H ) :   0.9373 B( 23-O , 28-H ) :   0.7979

FINAL SINGLE POINT ENERGY      -652.851104357124

DIPOLE MOMENT
-------------
                                X             Y             Z
Electronic contribution:     -4.23464      -4.69635      -1.72405
Nuclear contribution   :      5.21776       5.99868       2.41869
                        -----------------------------------------
Total Dipole Moment    :      0.98313       1.30233       0.69464
                        -----------------------------------------
Magnitude (a.u.)       :      1.77345
Magnitude (Debye)      :      4.50776

Rotational constants in cm-1:     0.044680     0.016388     0.015346
Rotational constants in MHz :  1339.474831   491.307923   460.065071

                             ****ORCA TERMINATED NORMALLY****
TOTAL RUN TIME: 0 days 0 hours 29 minutes 18 seconds 394 msec
