                         Program Version 4.2.0 -  RELEASE  -
|  1> # Test redundant internal optimization
|  2> #
|  3> ! RKS B3LYP  Opt TightSCF SmallPrint
|  4>
|  5> %basis
|  6>         Basis "6-31G"
|  7> end
|  8>
|  9> %geom
| 10> Constraints
| 11> { D 4  0  15  12  270.0   C } # D for Dihedral angle
| 12> { D 0  15  12  16  285.0   C } # D for Dihedral angle
| 13> { D 0  4  3  2   C } # D for Dihedral angle
| 14> { D 4  3  2  1   C } # D for Dihedral angle
| 15> { D 3  2  1  0   C } # D for Dihedral angle
| 16> { D 2  1  0  4   C } # D for Dihedral angle
| 17> { D 1  0  4  3   C } # D for Dihedral angle
| 18> { D 16  20  19  18   C } # D for Dihedral angle
| 19> { D 20  19  18  17   C } # D for Dihedral angle
| 20> { D 19  18  17  16   C } # D for Dihedral angle
| 21> { D 18  17  16  20   C } # D for Dihedral angle
| 22> { D 17  16  20  19   C } # D for Dihedral angle
| 23> { D 15  12  16  20   C } # D for Dihedral angle
| 24> end
| 25> end
| 26>
| 27>
| 28> #%pal
| 29> #nprocs 8
| 30> #end
| 31>
| 32> * xyz 0 1
| 33> C  -21.048   26.222   46.251
| 34> C  -20.361   27.558   45.944
| 35> C  -20.329   28.222   47.341
| 36> C  -20.110   27.022   48.296
| 37> O  -20.473   25.807   47.535
| 38> H  -20.833   25.428   45.533
| 39> H  -19.344   27.382   45.576
| 40> H  -20.898   28.157   45.201
| 41> H  -19.543   28.978   47.434
| 42> H  -21.289   28.710   47.548
| 43> H  -20.733   27.082   49.195
| 44> H  -19.064   26.913   48.597
| 45> C  -23.420   25.119   46.072
| 46> H  -22.967   24.260   46.584
| 47> H  -24.447   25.235   46.442
| 48> O  -22.586   26.394   46.375
| 49> C  -23.497   24.798   44.554
| 50> C  -22.115   24.453   43.987
| 51> C  -21.946   22.985   44.446
| 52> C  -23.386   22.421   44.358
| 53> O  -24.293   23.588   44.326
| 54> H  -24.005   25.617   44.041
| 55> O  -22.138   24.545   42.437
| 56> H  -21.321   25.109   44.359
| 57> H  -21.239   22.425   43.824
| 58> H  -21.580   22.954   45.479
| 59> H  -23.642   21.791   45.216
| 60> H  -23.557   21.854   43.439
| 61> H  -22.927   23.894   42.041
| 62> *
| 63>
| 64>                          ****END OF INPUT****
 Total Charge           Charge          ....    0
 Multiplicity           Mult            ....    1
 Number of Electrons    NEL             ....  102
FINAL SINGLE POINT ENERGY      -652.820219715004
FINAL SINGLE POINT ENERGY      -652.846178791545
FINAL SINGLE POINT ENERGY      -652.858271655779
FINAL SINGLE POINT ENERGY      -652.860150959468
FINAL SINGLE POINT ENERGY      -652.860562286854
FINAL SINGLE POINT ENERGY      -652.860616475611
FINAL SINGLE POINT ENERGY      -652.860625212776
                    ***********************HURRAY********************

CARTESIAN COORDINATES (ANGSTROEM)
---------------------------------
  C    -20.930253   26.228049   46.267481
  C    -20.343829   27.621969   46.039421
  C    -20.458703   28.248298   47.448721
  C    -20.200188   27.047500   48.386560
  O    -20.412354   25.832064   47.561242
  H    -20.604667   25.454635   45.574375
  H    -19.294731   27.529069   45.735814
  H    -20.889755   28.176971   45.274100
  H    -19.743803   29.061254   47.606949
  H    -21.469636   28.639640   47.593626
  H    -20.881574   27.017487   49.240781
  H    -19.167759   27.004484   48.746767
  C    -23.217324   25.226983   45.994838
  H    -22.898087   24.361981   46.594133
  H    -24.210831   25.519770   46.338431
  O    -22.365560   26.368367   46.299439
  C    -23.343827   24.803538   44.515454
  C    -22.105009   24.308263   43.750237
  C    -21.960109   22.856796   44.288090
  C    -23.431881   22.413336   44.485596
  O    -24.248464   23.647483   44.516848
  H    -23.834468   25.598942   43.946170
  O    -22.372588   24.320017   42.318651
  H    -21.213031   24.916331   43.865991
  H    -21.417639   22.231875   43.574727
  H    -21.414732   22.855748   45.238228
  H    -23.586680   21.860938   45.417411
  H    -23.800524   21.804171   43.654032
  H    -23.272991   23.967039   42.156886

 Multiplicity           Mult            ....    1
 Number of Electrons    NEL             ....  102
 Basis Dimension        Dim             ....  149

ORBITAL ENERGIES
----------------

  NO   OCC          E(Eh)            E(eV)
   0   2.0000     -19.149983      -521.0975
   1   2.0000     -19.144873      -520.9585
   2   2.0000     -19.141683      -520.8717
   3   2.0000     -19.137584      -520.7601
   4   2.0000     -10.279933      -279.7312
   5   2.0000     -10.246425      -278.8194
   6   2.0000     -10.238037      -278.5911
   7   2.0000     -10.235868      -278.5321
   8   2.0000     -10.231303      -278.4079
   9   2.0000     -10.223382      -278.1924
  10   2.0000     -10.193053      -277.3671
  11   2.0000     -10.184933      -277.1461
  12   2.0000     -10.183836      -277.1163
  13   2.0000      -1.052776       -28.6475
  14   2.0000      -1.042367       -28.3643
  15   2.0000      -1.010320       -27.4922
  16   2.0000      -0.993459       -27.0334
  17   2.0000      -0.787977       -21.4420
  18   2.0000      -0.781936       -21.2776
  19   2.0000      -0.767875       -20.8949
  20   2.0000      -0.735104       -20.0032
  21   2.0000      -0.677008       -18.4223
  22   2.0000      -0.608339       -16.5537
  23   2.0000      -0.601154       -16.3582
  24   2.0000      -0.596452       -16.2303
  25   2.0000      -0.583727       -15.8840
  26   2.0000      -0.525620       -14.3028
  27   2.0000      -0.521355       -14.1868
  28   2.0000      -0.501016       -13.6333
  29   2.0000      -0.484090       -13.1728
  30   2.0000      -0.473498       -12.8845
  31   2.0000      -0.460237       -12.5237
  32   2.0000      -0.447644       -12.1810
  33   2.0000      -0.433415       -11.7938
  34   2.0000      -0.426682       -11.6106
  35   2.0000      -0.423643       -11.5279
  36   2.0000      -0.400385       -10.8950
  37   2.0000      -0.397358       -10.8127
  38   2.0000      -0.377676       -10.2771
  39   2.0000      -0.373570       -10.1654
  40   2.0000      -0.357981        -9.7411
  41   2.0000      -0.354741        -9.6530
  42   2.0000      -0.348345        -9.4789
  43   2.0000      -0.335633        -9.1330
  44   2.0000      -0.321901        -8.7594
  45   2.0000      -0.313092        -8.5197
  46   2.0000      -0.302178        -8.2227
  47   2.0000      -0.277327        -7.5465
  48   2.0000      -0.273164        -7.4332
  49   2.0000      -0.253748        -6.9048
  50   2.0000      -0.242775        -6.6062
  51   0.0000       0.062505         1.7008
  52   0.0000       0.071485         1.9452
  53   0.0000       0.090775         2.4701
  54   0.0000       0.099200         2.6994
  55   0.0000       0.102465         2.7882

MULLIKEN ATOMIC CHARGES
-----------------------
   0 C :    0.276951
   1 C :   -0.255120
   2 C :   -0.297188
   3 C :   -0.002252
   4 O :   -0.513354
   5 H :    0.142061
   6 H :    0.143565
   7 H :    0.155063
   8 H :    0.140308
   9 H :    0.165371
  10 H :    0.149404
  11 H :    0.140166
  12 C :   -0.011187
  13 H :    0.139412
  14 H :    0.169718
  15 O :   -0.520544
  16 C :    0.047284
  17 C :    0.084136
  18 C :   -0.303854
  19 C :   -0.030551
  20 O :   -0.523857
  21 H :    0.163540
  22 O :   -0.607504
  23 H :    0.159258
  24 H :    0.165455
  25 H :    0.157308
  26 H :    0.151819
  27 H :    0.148361
  28 H :    0.366230
Sum of atomic charges:   -0.0000000

LOEWDIN ATOMIC CHARGES
----------------------
   0 C :    0.168404
   1 C :   -0.215530
   2 C :   -0.215207
   3 C :   -0.027305
   4 O :   -0.329256
   5 H :    0.095320
   6 H :    0.113172
   7 H :    0.123069
   8 H :    0.113234
   9 H :    0.120640
  10 H :    0.106469
  11 H :    0.101505
  12 C :   -0.040882
  13 H :    0.099762
  14 H :    0.125688
  15 O :   -0.327071
  16 C :    0.006147
  17 C :    0.032881
  18 C :   -0.242682
  19 C :   -0.038341
  20 O :   -0.327535
  21 H :    0.116070
  22 O :   -0.415351
  23 H :    0.116676
  24 H :    0.128097
  25 H :    0.118453
  26 H :    0.106623
  27 H :    0.103286
  28 H :    0.283666

  Mayer bond orders larger than 0.100000
B(  0-C ,  1-C ) :   0.9489 B(  0-C ,  4-O ) :   0.9080 B(  0-C ,  5-H ) :   0.9032
B(  0-C , 15-O ) :   0.8566 B(  1-C ,  2-C ) :   0.9579 B(  1-C ,  6-H ) :   0.9397
B(  1-C ,  7-H ) :   0.9363 B(  2-C ,  3-C ) :   0.9547 B(  2-C ,  8-H ) :   0.9453
B(  2-C ,  9-H ) :   0.9434 B(  3-C ,  4-O ) :   0.8381 B(  3-C , 10-H ) :   0.9354
B(  3-C , 11-H ) :   0.9403 B( 12-C , 13-H ) :   0.9238 B( 12-C , 14-H ) :   0.9347
B( 12-C , 15-O ) :   0.8462 B( 12-C , 16-C ) :   0.8776 B( 16-C , 17-C ) :   0.9106
B( 16-C , 20-O ) :   0.8299 B( 16-C , 21-H ) :   0.9246 B( 17-C , 18-C ) :   0.9151
B( 17-C , 22-O ) :   0.8805 B( 17-C , 23-H ) :   0.9193 B( 18-C , 19-C ) :   0.9398
B( 18-C , 24-H ) :   0.9370 B( 18-C , 25-H ) :   0.9304 B( 19-C , 20-O ) :   0.8377
B( 19-C , 26-H ) :   0.9346 B( 19-C , 27-H ) :   0.9377 B( 22-O , 28-H ) :   0.7926

FINAL SINGLE POINT ENERGY      -652.860626911622

DIPOLE MOMENT
-------------
                                X             Y             Z
Electronic contribution:     -3.14766      -1.36107      -2.03553
Nuclear contribution   :      3.52582       1.32173       2.23251
                        -----------------------------------------
Total Dipole Moment    :      0.37816      -0.03934       0.19698
                        -----------------------------------------
Magnitude (a.u.)       :      0.42820
Magnitude (Debye)      :      1.08840

Rotational constants in cm-1:     0.057028     0.012997     0.012482
Rotational constants in MHz :  1709.667913   389.645247   374.201517

                             ****ORCA TERMINATED NORMALLY****
TOTAL RUN TIME: 0 days 0 hours 25 minutes 36 seconds 43 msec
