                         Program Version 4.2.0 -  RELEASE  -
|  1> # Test redundant internal optimization
|  2> #
|  3> ! RKS B3LYP  Opt TightSCF SmallPrint
|  4>
|  5> %basis
|  6>         Basis "6-31G"
|  7> end
|  8>
|  9> %geom
| 10> Constraints
| 11> { D 4  0  15  12  300.0   C } # D for Dihedral angle
| 12> { D 0  15  12  16  135.0   C } # D for Dihedral angle
| 13> { D 0  4  3  2   C } # D for Dihedral angle
| 14> { D 4  3  2  1   C } # D for Dihedral angle
| 15> { D 3  2  1  0   C } # D for Dihedral angle
| 16> { D 2  1  0  4   C } # D for Dihedral angle
| 17> { D 1  0  4  3   C } # D for Dihedral angle
| 18> { D 16  20  19  18   C } # D for Dihedral angle
| 19> { D 20  19  18  17   C } # D for Dihedral angle
| 20> { D 19  18  17  16   C } # D for Dihedral angle
| 21> { D 18  17  16  20   C } # D for Dihedral angle
| 22> { D 17  16  20  19   C } # D for Dihedral angle
| 23> { D 15  12  16  20   C } # D for Dihedral angle
| 24> end
| 25> end
| 26>
| 27>
| 28> #%pal
| 29> #nprocs 8
| 30> #end
| 31>
| 32> * xyz 0 1
| 33> C  -21.048   26.222   46.251
| 34> C  -20.361   27.558   45.944
| 35> C  -20.329   28.222   47.341
| 36> C  -20.110   27.022   48.296
| 37> O  -20.473   25.807   47.535
| 38> H  -20.833   25.428   45.533
| 39> H  -19.344   27.382   45.576
| 40> H  -20.898   28.157   45.201
| 41> H  -19.543   28.978   47.434
| 42> H  -21.289   28.710   47.548
| 43> H  -20.733   27.082   49.195
| 44> H  -19.064   26.913   48.597
| 45> C  -23.362   25.116   46.798
| 46> H  -23.871   24.696   45.922
| 47> H  -22.670   24.359   47.188
| 48> O  -22.586   26.394   46.375
| 49> C  -24.425   25.395   47.895
| 50> C  -25.533   26.318   47.375
| 51> C  -26.406   25.333   46.562
| 52> C  -26.308   24.020   47.378
| 53> O  -25.126   24.158   48.256
| 54> H  -23.924   25.753   48.796
| 55> H  -26.101   26.735   48.215
| 56> O  -24.994   27.495   46.517
| 57> H  -27.439   25.677   46.447
| 58> H  -25.984   25.197   45.558
| 59> H  -26.180   23.138   46.741
| 60> H  -27.175   23.865   48.026
| 61> H  -24.422   27.101   45.670
| 62> *
| 63>
| 64>                          ****END OF INPUT****
 Total Charge           Charge          ....    0
 Multiplicity           Mult            ....    1
 Number of Electrons    NEL             ....  102
FINAL SINGLE POINT ENERGY      -652.836535147787
FINAL SINGLE POINT ENERGY      -652.861362913436
FINAL SINGLE POINT ENERGY      -652.867551499084
FINAL SINGLE POINT ENERGY      -652.869774304327
FINAL SINGLE POINT ENERGY      -652.870957958872
FINAL SINGLE POINT ENERGY      -652.871591111750
FINAL SINGLE POINT ENERGY      -652.871799166491
FINAL SINGLE POINT ENERGY      -652.871850458750
FINAL SINGLE POINT ENERGY      -652.871854225130
                    ***********************HURRAY********************

CARTESIAN COORDINATES (ANGSTROEM)
---------------------------------
  C    -21.078995   26.119138   46.242379
  C    -20.538935   27.517967   45.950088
  C    -20.590318   28.174371   47.347663
  C    -20.253723   27.007321   48.299748
  O    -20.485529   25.764527   47.508444
  H    -20.802980   25.330230   45.537640
  H    -19.508078   27.433303   45.588845
  H    -21.133291   28.046466   45.201647
  H    -19.885974   29.005698   47.445690
  H    -21.598455   28.552894   47.540359
  H    -20.885596   26.978778   49.190472
  H    -19.202702   26.987928   48.600337
  C    -23.247278   25.007503   46.745939
  H    -23.709794   24.559080   45.859418
  H    -22.553229   24.294192   47.197916
  O    -22.522852   26.220000   46.332219
  C    -24.291372   25.415586   47.790300
  C    -25.380263   26.376590   47.283976
  C    -26.338992   25.402966   46.540023
  C    -26.267436   24.119822   47.393067
  O    -25.030059   24.230859   48.222824
  H    -23.772948   25.805802   48.670609
  H    -25.898775   26.803580   48.149485
  O    -24.923644   27.479981   46.476054
  H    -27.351689   25.807809   46.465948
  H    -25.966707   25.244485   45.522116
  H    -26.207920   23.204424   46.796227
  H    -27.103394   24.030689   48.092771
  H    -24.000072   27.309011   46.177796

 Multiplicity           Mult            ....    1
 Number of Electrons    NEL             ....  102
 Basis Dimension        Dim             ....  149

ORBITAL ENERGIES
----------------

  NO   OCC          E(Eh)            E(eV)
   0   2.0000     -19.163683      -521.4703
   1   2.0000     -19.152559      -521.1676
   2   2.0000     -19.138341      -520.7807
   3   2.0000     -19.113534      -520.1057
   4   2.0000     -10.291932      -280.0577
   5   2.0000     -10.233903      -278.4786
   6   2.0000     -10.233278      -278.4616
   7   2.0000     -10.231430      -278.4114
   8   2.0000     -10.228899      -278.3425
   9   2.0000     -10.224965      -278.2354
  10   2.0000     -10.195009      -277.4203
  11   2.0000     -10.192734      -277.3584
  12   2.0000     -10.177745      -276.9505
  13   2.0000      -1.067496       -29.0480
  14   2.0000      -1.023549       -27.8522
  15   2.0000      -1.006116       -27.3778
  16   2.0000      -0.991698       -26.9855
  17   2.0000      -0.798287       -21.7225
  18   2.0000      -0.771709       -20.9993
  19   2.0000      -0.766426       -20.8555
  20   2.0000      -0.735287       -20.0082
  21   2.0000      -0.677172       -18.4268
  22   2.0000      -0.607748       -16.5377
  23   2.0000      -0.598980       -16.2991
  24   2.0000      -0.593138       -16.1401
  25   2.0000      -0.580636       -15.7999
  26   2.0000      -0.529367       -14.4048
  27   2.0000      -0.518961       -14.1216
  28   2.0000      -0.501297       -13.6410
  29   2.0000      -0.484721       -13.1899
  30   2.0000      -0.474754       -12.9187
  31   2.0000      -0.461177       -12.5493
  32   2.0000      -0.441565       -12.0156
  33   2.0000      -0.429277       -11.6812
  34   2.0000      -0.423948       -11.5362
  35   2.0000      -0.419364       -11.4115
  36   2.0000      -0.408886       -11.1264
  37   2.0000      -0.386982       -10.5303
  38   2.0000      -0.381572       -10.3831
  39   2.0000      -0.367299        -9.9947
  40   2.0000      -0.364957        -9.9310
  41   2.0000      -0.357559        -9.7297
  42   2.0000      -0.350858        -9.5473
  43   2.0000      -0.344898        -9.3852
  44   2.0000      -0.326808        -8.8929
  45   2.0000      -0.312137        -8.4937
  46   2.0000      -0.287925        -7.8348
  47   2.0000      -0.283024        -7.7015
  48   2.0000      -0.265797        -7.2327
  49   2.0000      -0.248754        -6.7689
  50   2.0000      -0.240350        -6.5403
  51   0.0000       0.058842         1.6012
  52   0.0000       0.080796         2.1986
  53   0.0000       0.092991         2.5304
  54   0.0000       0.097300         2.6477
  55   0.0000       0.106488         2.8977

MULLIKEN ATOMIC CHARGES
-----------------------
   0 C :    0.296768
   1 C :   -0.267385
   2 C :   -0.302211
   3 C :   -0.009777
   4 O :   -0.508852
   5 H :    0.154582
   6 H :    0.152071
   7 H :    0.160127
   8 H :    0.147162
   9 H :    0.167604
  10 H :    0.153522
  11 H :    0.149747
  12 C :   -0.023490
  13 H :    0.143110
  14 H :    0.182113
  15 O :   -0.567550
  16 C :    0.057627
  17 C :    0.121978
  18 C :   -0.307861
  19 C :   -0.016114
  20 O :   -0.521754
  21 H :    0.154259
  22 H :    0.145594
  23 O :   -0.644409
  24 H :    0.151511
  25 H :    0.146816
  26 H :    0.140092
  27 H :    0.148449
  28 H :    0.396270
Sum of atomic charges:   -0.0000000

LOEWDIN ATOMIC CHARGES
----------------------
   0 C :    0.177300
   1 C :   -0.214785
   2 C :   -0.216480
   3 C :   -0.027834
   4 O :   -0.324446
   5 H :    0.102655
   6 H :    0.118026
   7 H :    0.125114
   8 H :    0.117112
   9 H :    0.121004
  10 H :    0.108225
  11 H :    0.106802
  12 C :   -0.047630
  13 H :    0.101839
  14 H :    0.126064
  15 O :   -0.344189
  16 C :    0.017312
  17 C :    0.041689
  18 C :   -0.238339
  19 C :   -0.031614
  20 O :   -0.324566
  21 H :    0.113255
  22 H :    0.104658
  23 O :   -0.436837
  24 H :    0.121030
  25 H :    0.111689
  26 H :    0.101158
  27 H :    0.105770
  28 H :    0.286018

  Mayer bond orders larger than 0.100000
B(  0-C ,  1-C ) :   0.9515 B(  0-C ,  4-O ) :   0.9185 B(  0-C ,  5-H ) :   0.9221
B(  0-C , 15-O ) :   0.8209 B(  1-C ,  2-C ) :   0.9534 B(  1-C ,  6-H ) :   0.9389
B(  1-C ,  7-H ) :   0.9354 B(  2-C ,  3-C ) :   0.9544 B(  2-C ,  8-H ) :   0.9444
B(  2-C ,  9-H ) :   0.9423 B(  3-C ,  4-O ) :   0.8269 B(  3-C , 10-H ) :   0.9347
B(  3-C , 11-H ) :   0.9400 B( 12-C , 13-H ) :   0.9284 B( 12-C , 14-H ) :   0.9179
B( 12-C , 15-O ) :   0.7738 B( 12-C , 16-C ) :   0.9054 B( 16-C , 17-C ) :   0.9119
B( 16-C , 20-O ) :   0.8540 B( 16-C , 21-H ) :   0.9304 B( 17-C , 18-C ) :   0.9026
B( 17-C , 22-H ) :   0.9314 B( 17-C , 23-O ) :   0.9322 B( 18-C , 19-C ) :   0.9394
B( 18-C , 24-H ) :   0.9446 B( 18-C , 25-H ) :   0.9428 B( 19-C , 20-O ) :   0.8341
B( 19-C , 26-H ) :   0.9347 B( 19-C , 27-H ) :   0.9385 B( 23-O , 28-H ) :   0.7235

FINAL SINGLE POINT ENERGY      -652.871855426326

DIPOLE MOMENT
-------------
                                X             Y             Z
Electronic contribution:     -0.12507      -2.04833       0.79558
Nuclear contribution   :      0.81143       2.19879      -1.22162
                        -----------------------------------------
Total Dipole Moment    :      0.68636       0.15046      -0.42603
                        -----------------------------------------
Magnitude (a.u.)       :      0.82173
Magnitude (Debye)      :      2.08867

Rotational constants in cm-1:     0.056008     0.014321     0.013113
Rotational constants in MHz :  1679.089593   429.323483   393.118971

                             ****ORCA TERMINATED NORMALLY****
TOTAL RUN TIME: 0 days 0 hours 34 minutes 40 seconds 110 msec
