                         Program Version 4.2.0 -  RELEASE  -
|  1> # Test redundant internal optimization
|  2> #
|  3> ! RKS B3LYP  Opt TightSCF SmallPrint
|  4>
|  5> %basis
|  6>         Basis "6-31G"
|  7> end
|  8>
|  9> %geom
| 10> Constraints
| 11> { D 4  0  15  12  165.0   C } # D for Dihedral angle
| 12> { D 0  15  12  16  195.0   C } # D for Dihedral angle
| 13> { D 0  4  3  2   C } # D for Dihedral angle
| 14> { D 4  3  2  1   C } # D for Dihedral angle
| 15> { D 3  2  1  0   C } # D for Dihedral angle
| 16> { D 2  1  0  4   C } # D for Dihedral angle
| 17> { D 1  0  4  3   C } # D for Dihedral angle
| 18> { D 16  20  19  18   C } # D for Dihedral angle
| 19> { D 20  19  18  17   C } # D for Dihedral angle
| 20> { D 19  18  17  16   C } # D for Dihedral angle
| 21> { D 18  17  16  20   C } # D for Dihedral angle
| 22> { D 17  16  20  19   C } # D for Dihedral angle
| 23> { D 15  12  16  20   C } # D for Dihedral angle
| 24> end
| 25> end
| 26>
| 27>
| 28> #%pal
| 29> #nprocs 8
| 30> #end
| 31>
| 32> * xyz 0 1
| 33> C  -21.048   26.222   46.251
| 34> C  -20.361   27.558   45.944
| 35> C  -20.329   28.222   47.341
| 36> C  -20.110   27.022   48.296
| 37> O  -20.473   25.807   47.535
| 38> H  -20.833   25.428   45.533
| 39> H  -19.344   27.382   45.576
| 40> H  -20.898   28.157   45.201
| 41> H  -19.543   28.978   47.434
| 42> H  -21.289   28.710   47.548
| 43> H  -20.733   27.082   49.195
| 44> H  -19.064   26.913   48.597
| 45> C  -23.260   27.170   45.210
| 46> H  -22.660   28.057   44.972
| 47> H  -23.315   26.542   44.312
| 48> O  -22.586   26.394   46.375
| 49> C  -24.703   27.633   45.553
| 50> C  -24.703   28.653   46.697
| 51> C  -24.296   29.952   45.960
| 52> C  -24.970   29.794   44.573
| 53> O  -25.290   28.359   44.422
| 54> H  -25.328   26.756   45.729
| 55> O  -26.132   28.785   47.292
| 56> H  -24.015   28.392   47.508
| 57> H  -24.622   30.856   46.482
| 58> H  -23.205   29.999   45.856
| 59> H  -24.317   30.105   43.752
| 60> H  -25.912   30.344   44.503
| 61> H  -26.839   29.049   46.497
| 62> *
| 63>
| 64>                          ****END OF INPUT****
 Total Charge           Charge          ....    0
 Multiplicity           Mult            ....    1
 Number of Electrons    NEL             ....  102
FINAL SINGLE POINT ENERGY      -652.829791656530
FINAL SINGLE POINT ENERGY      -652.853275153683
FINAL SINGLE POINT ENERGY      -652.857538668779
FINAL SINGLE POINT ENERGY      -652.858326993652
FINAL SINGLE POINT ENERGY      -652.858462139245
FINAL SINGLE POINT ENERGY      -652.858485556019
FINAL SINGLE POINT ENERGY      -652.858488752133
                    ***********************HURRAY********************

CARTESIAN COORDINATES (ANGSTROEM)
---------------------------------
  C    -21.135678   26.257211   46.212604
  C    -20.276583   27.485960   45.915388
  C    -20.340363   28.259346   47.258744
  C    -20.372848   27.121009   48.300095
  O    -20.776221   25.903242   47.553515
  H    -20.931968   25.388867   45.578972
  H    -19.253982   27.146190   45.715651
  H    -20.599994   28.079297   45.057187
  H    -19.484255   28.926554   47.396134
  H    -21.253731   28.860500   47.308575
  H    -21.091720   27.291082   49.105371
  H    -19.389006   26.912136   48.730131
  C    -23.195849   27.203384   45.106387
  H    -22.611762   28.078877   44.794811
  H    -23.299250   26.540614   44.236904
  O    -22.575397   26.512419   46.223470
  C    -24.584409   27.646668   45.569928
  C    -24.595038   28.649517   46.732116
  C    -24.291702   29.982262   45.999547
  C    -25.010917   29.808242   44.638336
  O    -25.257245   28.353829   44.474466
  H    -25.187846   26.767479   45.810698
  O    -25.898525   28.681235   47.375938
  H    -23.882923   28.397340   47.514927
  H    -24.668764   30.831861   46.574270
  H    -23.211674   30.110609   45.866009
  H    -24.416556   30.166077   43.791655
  H    -25.985729   30.304032   44.613165
  H    -26.598066   28.655161   46.689006

 Multiplicity           Mult            ....    1
 Number of Electrons    NEL             ....  102
 Basis Dimension        Dim             ....  149

ORBITAL ENERGIES
----------------

  NO   OCC          E(Eh)            E(eV)
   0   2.0000     -19.146788      -521.0106
   1   2.0000     -19.144809      -520.9567
   2   2.0000     -19.143716      -520.9270
   3   2.0000     -19.135745      -520.7101
   4   2.0000     -10.284724      -279.8616
   5   2.0000     -10.237239      -278.5694
   6   2.0000     -10.234455      -278.4937
   7   2.0000     -10.234384      -278.4917
   8   2.0000     -10.234289      -278.4892
   9   2.0000     -10.229587      -278.3612
  10   2.0000     -10.195716      -277.4395
  11   2.0000     -10.195265      -277.4273
  12   2.0000     -10.190974      -277.3105
  13   2.0000      -1.056979       -28.7619
  14   2.0000      -1.037940       -28.2438
  15   2.0000      -1.005540       -27.3621
  16   2.0000      -0.997298       -27.1379
  17   2.0000      -0.793430       -21.5903
  18   2.0000      -0.782565       -21.2947
  19   2.0000      -0.771244       -20.9866
  20   2.0000      -0.735057       -20.0019
  21   2.0000      -0.680070       -18.5056
  22   2.0000      -0.608057       -16.5461
  23   2.0000      -0.605874       -16.4867
  24   2.0000      -0.594450       -16.1758
  25   2.0000      -0.580577       -15.7983
  26   2.0000      -0.528133       -14.3712
  27   2.0000      -0.515776       -14.0350
  28   2.0000      -0.504159       -13.7189
  29   2.0000      -0.496019       -13.4974
  30   2.0000      -0.477014       -12.9802
  31   2.0000      -0.457557       -12.4508
  32   2.0000      -0.453016       -12.3272
  33   2.0000      -0.445461       -12.1216
  34   2.0000      -0.428192       -11.6517
  35   2.0000      -0.416496       -11.3334
  36   2.0000      -0.406612       -11.0645
  37   2.0000      -0.394581       -10.7371
  38   2.0000      -0.382715       -10.4142
  39   2.0000      -0.370498       -10.0818
  40   2.0000      -0.367260        -9.9937
  41   2.0000      -0.360763        -9.8168
  42   2.0000      -0.356171        -9.6919
  43   2.0000      -0.334356        -9.0983
  44   2.0000      -0.318338        -8.6624
  45   2.0000      -0.308565        -8.3965
  46   2.0000      -0.301994        -8.2177
  47   2.0000      -0.273209        -7.4344
  48   2.0000      -0.263812        -7.1787
  49   2.0000      -0.256794        -6.9877
  50   2.0000      -0.247973        -6.7477
  51   0.0000       0.053850         1.4653
  52   0.0000       0.065268         1.7760
  53   0.0000       0.090702         2.4681
  54   0.0000       0.096366         2.6223
  55   0.0000       0.101572         2.7639

MULLIKEN ATOMIC CHARGES
-----------------------
   0 C :    0.321565
   1 C :   -0.296144
   2 C :   -0.303252
   3 C :   -0.001842
   4 O :   -0.497183
   5 H :    0.147580
   6 H :    0.154677
   7 H :    0.143064
   8 H :    0.145737
   9 H :    0.154979
  10 H :    0.156454
  11 H :    0.145663
  12 C :   -0.008773
  13 H :    0.120057
  14 H :    0.148336
  15 O :   -0.523560
  16 C :    0.056968
  17 C :    0.089942
  18 C :   -0.307082
  19 C :   -0.028267
  20 O :   -0.526572
  21 H :    0.173594
  22 O :   -0.601111
  23 H :    0.174253
  24 H :    0.162320
  25 H :    0.143097
  26 H :    0.143350
  27 H :    0.149259
  28 H :    0.362890
Sum of atomic charges:   -0.0000000

LOEWDIN ATOMIC CHARGES
----------------------
   0 C :    0.185767
   1 C :   -0.234018
   2 C :   -0.217809
   3 C :   -0.025807
   4 O :   -0.300669
   5 H :    0.099888
   6 H :    0.120549
   7 H :    0.113058
   8 H :    0.116152
   9 H :    0.111175
  10 H :    0.110273
  11 H :    0.104590
  12 C :   -0.042192
  13 H :    0.087480
  14 H :    0.104169
  15 O :   -0.337247
  16 C :    0.019217
  17 C :    0.038421
  18 C :   -0.244158
  19 C :   -0.037869
  20 O :   -0.330153
  21 H :    0.121846
  22 O :   -0.412815
  23 H :    0.124980
  24 H :    0.126842
  25 H :    0.110072
  26 H :    0.102369
  27 H :    0.104103
  28 H :    0.281785

  Mayer bond orders larger than 0.100000
B(  0-C ,  1-C ) :   0.9282 B(  0-C ,  4-O ) :   0.9389 B(  0-C ,  5-H ) :   0.9233
B(  0-C , 15-O ) :   0.8276 B(  1-C ,  2-C ) :   0.9500 B(  1-C ,  6-H ) :   0.9334
B(  1-C ,  7-H ) :   0.9278 B(  2-C ,  3-C ) :   0.9538 B(  2-C ,  8-H ) :   0.9450
B(  2-C ,  9-H ) :   0.9411 B(  3-C ,  4-O ) :   0.8358 B(  3-C , 10-H ) :   0.9337
B(  3-C , 11-H ) :   0.9392 B( 12-C , 13-H ) :   0.9072 B( 12-C , 14-H ) :   0.9166
B( 12-C , 15-O ) :   0.8332 B( 12-C , 16-C ) :   0.9060 B( 16-C , 17-C ) :   0.9119
B( 16-C , 20-O ) :   0.8433 B( 16-C , 21-H ) :   0.9235 B( 17-C , 18-C ) :   0.9106
B( 17-C , 22-O ) :   0.8915 B( 17-C , 23-H ) :   0.9213 B( 18-C , 19-C ) :   0.9402
B( 18-C , 24-H ) :   0.9381 B( 18-C , 25-H ) :   0.9330 B( 19-C , 20-O ) :   0.8437
B( 19-C , 26-H ) :   0.9359 B( 19-C , 27-H ) :   0.9380 B( 22-O , 28-H ) :   0.7954

FINAL SINGLE POINT ENERGY      -652.858489360426

DIPOLE MOMENT
-------------
                                X             Y             Z
Electronic contribution:     -4.31715      -5.35472       0.56692
Nuclear contribution   :      5.35940       6.65153      -1.34049
                        -----------------------------------------
Total Dipole Moment    :      1.04225       1.29681      -0.77356
                        -----------------------------------------
Magnitude (a.u.)       :      1.83478
Magnitude (Debye)      :      4.66364

Rotational constants in cm-1:     0.049172     0.014315     0.013865
Rotational constants in MHz :  1474.142154   429.152863   415.656362

                             ****ORCA TERMINATED NORMALLY****
TOTAL RUN TIME: 0 days 0 hours 22 minutes 25 seconds 89 msec
