                         Program Version 4.2.0 -  RELEASE  -
|  1> # Test redundant internal optimization
|  2> #
|  3> ! RKS B3LYP  Opt TightSCF SmallPrint
|  4>
|  5> %basis
|  6>         Basis "6-31G"
|  7> end
|  8>
|  9> %geom
| 10> Constraints
| 11> { D 4  0  15  12  225.0   C } # D for Dihedral angle
| 12> { D 0  15  12  16  30.0   C } # D for Dihedral angle
| 13> { D 0  4  3  2   C } # D for Dihedral angle
| 14> { D 4  3  2  1   C } # D for Dihedral angle
| 15> { D 3  2  1  0   C } # D for Dihedral angle
| 16> { D 2  1  0  4   C } # D for Dihedral angle
| 17> { D 1  0  4  3   C } # D for Dihedral angle
| 18> { D 16  20  19  18   C } # D for Dihedral angle
| 19> { D 20  19  18  17   C } # D for Dihedral angle
| 20> { D 19  18  17  16   C } # D for Dihedral angle
| 21> { D 18  17  16  20   C } # D for Dihedral angle
| 22> { D 17  16  20  19   C } # D for Dihedral angle
| 23> { D 15  12  16  20   C } # D for Dihedral angle
| 24> end
| 25> end
| 26>
| 27>
| 28> #%pal
| 29> #nprocs 8
| 30> #end
| 31>
| 32> * xyz 0 1
| 33> C  -21.048   26.222   46.251
| 34> C  -20.361   27.558   45.944
| 35> C  -20.329   28.222   47.341
| 36> C  -20.110   27.022   48.296
| 37> O  -20.473   25.807   47.535
| 38> H  -20.833   25.428   45.533
| 39> H  -19.344   27.382   45.576
| 40> H  -20.898   28.157   45.201
| 41> H  -19.543   28.978   47.434
| 42> H  -21.289   28.710   47.548
| 43> H  -20.733   27.082   49.195
| 44> H  -19.064   26.913   48.597
| 45> C  -23.415   25.773   45.218
| 46> H  -24.398   25.468   45.600
| 47> H  -23.572   26.509   44.419
| 48> O  -22.586   26.394   46.375
| 49> C  -22.729   24.530   44.587
| 50> C  -23.516   24.014   43.377
| 51> C  -23.080   25.006   42.273
| 52> C  -21.601   25.300   42.628
| 53> O  -21.418   24.892   44.038
| 54> H  -22.555   23.783   45.365
| 55> O  -23.066   22.569   43.025
| 56> H  -24.599   24.008   43.539
| 57> H  -23.194   24.596   41.264
| 58> H  -23.680   25.922   42.332
| 59> H  -21.348   26.361   42.527
| 60> H  -20.902   24.710   42.028
| 61> H  -21.983   22.552   42.858
| 62> *
| 63>
| 64>                          ****END OF INPUT****
 Total Charge           Charge          ....    0
 Multiplicity           Mult            ....    1
 Number of Electrons    NEL             ....  102
FINAL SINGLE POINT ENERGY      -652.821672376818
FINAL SINGLE POINT ENERGY      -652.842589182024
FINAL SINGLE POINT ENERGY      -652.854294504423
FINAL SINGLE POINT ENERGY      -652.856430601340
FINAL SINGLE POINT ENERGY      -652.856845819967
FINAL SINGLE POINT ENERGY      -652.856880473253
FINAL SINGLE POINT ENERGY      -652.856886632030
                    ***********************HURRAY********************

CARTESIAN COORDINATES (ANGSTROEM)
---------------------------------
  C    -20.817884   26.244948   46.251258
  C    -20.253508   27.653259   46.066380
  C    -20.472372   28.273279   47.468234
  C    -20.243150   27.072580   48.412722
  O    -20.374399   25.861408   47.566654
  H    -20.465501   25.498360   45.545882
  H    -19.184632   27.590047   45.828951
  H    -20.758506   28.203675   45.268378
  H    -19.790968   29.103959   47.674582
  H    -21.501039   28.635847   47.551217
  H    -20.975976   27.017819   49.222435
  H    -19.234105   27.052929   48.836727
  C    -23.123613   25.760972   45.227044
  H    -24.056050   25.493236   45.736733
  H    -23.354237   26.557531   44.501963
  O    -22.277278   26.317331   46.266319
  C    -22.618410   24.527980   44.471041
  C    -23.580585   24.050449   43.370584
  C    -23.188570   24.974927   42.185641
  C    -21.658113   25.146359   42.366147
  O    -21.351029   24.759069   43.766798
  H    -22.420235   23.722571   45.186205
  O    -23.363050   22.649421   43.057555
  H    -24.633832   24.124155   43.644224
  H    -23.456385   24.512569   41.232421
  H    -23.709149   25.935098   42.263315
  H    -21.324214   26.174685   42.200792
  H    -21.080421   24.482367   41.716507
  H    -22.399787   22.471171   43.017288

 Multiplicity           Mult            ....    1
 Number of Electrons    NEL             ....  102
 Basis Dimension        Dim             ....  149

ORBITAL ENERGIES
----------------

  NO   OCC          E(Eh)            E(eV)
   0   2.0000     -19.156148      -521.2653
   1   2.0000     -19.145987      -520.9888
   2   2.0000     -19.129967      -520.5529
   3   2.0000     -19.126571      -520.4605
   4   2.0000     -10.262000      -279.2432
   5   2.0000     -10.251861      -278.9673
   6   2.0000     -10.242652      -278.7167
   7   2.0000     -10.241251      -278.6786
   8   2.0000     -10.235563      -278.5238
   9   2.0000     -10.214282      -277.9448
  10   2.0000     -10.198260      -277.5088
  11   2.0000     -10.175852      -276.8990
  12   2.0000     -10.174576      -276.8643
  13   2.0000      -1.048927       -28.5428
  14   2.0000      -1.036516       -28.2050
  15   2.0000      -1.015510       -27.6334
  16   2.0000      -0.981310       -26.7028
  17   2.0000      -0.793436       -21.5905
  18   2.0000      -0.777565       -21.1586
  19   2.0000      -0.769132       -20.9291
  20   2.0000      -0.727338       -19.7919
  21   2.0000      -0.675511       -18.3816
  22   2.0000      -0.613714       -16.7000
  23   2.0000      -0.605737       -16.4829
  24   2.0000      -0.587558       -15.9883
  25   2.0000      -0.568179       -15.4609
  26   2.0000      -0.534006       -14.5310
  27   2.0000      -0.509143       -13.8545
  28   2.0000      -0.494311       -13.4509
  29   2.0000      -0.484418       -13.1817
  30   2.0000      -0.476146       -12.9566
  31   2.0000      -0.456955       -12.4344
  32   2.0000      -0.448474       -12.2036
  33   2.0000      -0.438918       -11.9436
  34   2.0000      -0.427452       -11.6316
  35   2.0000      -0.409096       -11.1321
  36   2.0000      -0.402952       -10.9649
  37   2.0000      -0.393961       -10.7202
  38   2.0000      -0.382396       -10.4055
  39   2.0000      -0.369499       -10.0546
  40   2.0000      -0.363387        -9.8883
  41   2.0000      -0.346973        -9.4416
  42   2.0000      -0.343357        -9.3432
  43   2.0000      -0.335361        -9.1256
  44   2.0000      -0.324163        -8.8209
  45   2.0000      -0.303344        -8.2544
  46   2.0000      -0.297972        -8.1082
  47   2.0000      -0.280028        -7.6199
  48   2.0000      -0.257285        -7.0011
  49   2.0000      -0.252349        -6.8668
  50   2.0000      -0.231871        -6.3095
  51   0.0000       0.056554         1.5389
  52   0.0000       0.079747         2.1700
  53   0.0000       0.085995         2.3400
  54   0.0000       0.094552         2.5729
  55   0.0000       0.102754         2.7961

MULLIKEN ATOMIC CHARGES
-----------------------
   0 C :    0.260868
   1 C :   -0.250994
   2 C :   -0.297353
   3 C :    0.000065
   4 O :   -0.503465
   5 H :    0.196620
   6 H :    0.139974
   7 H :    0.134888
   8 H :    0.134613
   9 H :    0.158905
  10 H :    0.147838
  11 H :    0.136500
  12 C :    0.026311
  13 H :    0.151934
  14 H :    0.119457
  15 O :   -0.537206
  16 C :    0.033233
  17 C :    0.081205
  18 C :   -0.296476
  19 C :   -0.026892
  20 O :   -0.528749
  21 H :    0.177029
  22 O :   -0.599663
  23 H :    0.158633
  24 H :    0.164790
  25 H :    0.148998
  26 H :    0.148700
  27 H :    0.153409
  28 H :    0.366826
Sum of atomic charges:    0.0000000

LOEWDIN ATOMIC CHARGES
----------------------
   0 C :    0.169456
   1 C :   -0.221355
   2 C :   -0.217505
   3 C :   -0.027568
   4 O :   -0.313861
   5 H :    0.123073
   6 H :    0.110787
   7 H :    0.112158
   8 H :    0.110487
   9 H :    0.117536
  10 H :    0.105522
  11 H :    0.099307
  12 C :   -0.034041
  13 H :    0.115844
  14 H :    0.087533
  15 O :   -0.339321
  16 C :    0.001173
  17 C :    0.040275
  18 C :   -0.240321
  19 C :   -0.037102
  20 O :   -0.332166
  21 H :    0.121969
  22 O :   -0.410990
  23 H :    0.118784
  24 H :    0.128225
  25 H :    0.115269
  26 H :    0.105910
  27 H :    0.106096
  28 H :    0.284823

  Mayer bond orders larger than 0.100000
B(  0-C ,  1-C ) :   0.9393 B(  0-C ,  4-O ) :   0.9190 B(  0-C ,  5-H ) :   0.8903
B(  0-C , 15-O ) :   0.8154 B(  1-C ,  2-C ) :   0.9559 B(  1-C ,  6-H ) :   0.9378
B(  1-C ,  7-H ) :   0.9415 B(  2-C ,  3-C ) :   0.9551 B(  2-C ,  8-H ) :   0.9462
B(  2-C ,  9-H ) :   0.9440 B(  3-C ,  4-O ) :   0.8427 B(  3-C , 10-H ) :   0.9352
B(  3-C , 11-H ) :   0.9402 B( 12-C , 13-H ) :   0.9233 B( 12-C , 14-H ) :   0.9191
B( 12-C , 15-O ) :   0.8678 B( 12-C , 16-C ) :   0.8967 B( 16-C , 17-C ) :   0.8972
B( 16-C , 20-O ) :   0.8303 B( 16-C , 21-H ) :   0.9195 B( 17-C , 18-C ) :   0.9104
B( 17-C , 22-O ) :   0.8958 B( 17-C , 23-H ) :   0.9332 B( 18-C , 19-C ) :   0.9413
B( 18-C , 24-H ) :   0.9371 B( 18-C , 25-H ) :   0.9318 B( 19-C , 20-O ) :   0.8352
B( 19-C , 26-H ) :   0.9355 B( 19-C , 27-H ) :   0.9374 B( 22-O , 28-H ) :   0.7936

FINAL SINGLE POINT ENERGY      -652.856887159704

DIPOLE MOMENT
-------------
                                X             Y             Z
Electronic contribution:     -0.42289      -5.40962       1.05939
Nuclear contribution   :      0.36555       6.36513      -2.11072
                        -----------------------------------------
Total Dipole Moment    :     -0.05735       0.95551      -1.05133
                        -----------------------------------------
Magnitude (a.u.)       :      1.42182
Magnitude (Debye)      :      3.61399

Rotational constants in cm-1:     0.066353     0.012476     0.011974
Rotational constants in MHz :  1989.222323   374.016677   358.963375

                             ****ORCA TERMINATED NORMALLY****
TOTAL RUN TIME: 0 days 0 hours 23 minutes 20 seconds 687 msec
