                         Program Version 4.2.0 -  RELEASE  -
|  1> # Test redundant internal optimization
|  2> #
|  3> ! RKS B3LYP  Opt TightSCF SmallPrint
|  4>
|  5> %basis
|  6>         Basis "6-31G"
|  7> end
|  8>
|  9> %geom
| 10> Constraints
| 11> { D 4  0  15  12  270.0   C } # D for Dihedral angle
| 12> { D 0  15  12  16  150.0   C } # D for Dihedral angle
| 13> { D 0  4  3  2   C } # D for Dihedral angle
| 14> { D 4  3  2  1   C } # D for Dihedral angle
| 15> { D 3  2  1  0   C } # D for Dihedral angle
| 16> { D 2  1  0  4   C } # D for Dihedral angle
| 17> { D 1  0  4  3   C } # D for Dihedral angle
| 18> { D 16  20  19  18   C } # D for Dihedral angle
| 19> { D 20  19  18  17   C } # D for Dihedral angle
| 20> { D 19  18  17  16   C } # D for Dihedral angle
| 21> { D 18  17  16  20   C } # D for Dihedral angle
| 22> { D 17  16  20  19   C } # D for Dihedral angle
| 23> { D 15  12  16  20   C } # D for Dihedral angle
| 24> end
| 25> end
| 26>
| 27>
| 28> #%pal
| 29> #nprocs 8
| 30> #end
| 31>
| 32> * xyz 0 1
| 33> C  -21.048   26.222   46.251
| 34> C  -20.361   27.558   45.944
| 35> C  -20.329   28.222   47.341
| 36> C  -20.110   27.022   48.296
| 37> O  -20.473   25.807   47.535
| 38> H  -20.833   25.428   45.533
| 39> H  -19.344   27.382   45.576
| 40> H  -20.898   28.157   45.201
| 41> H  -19.543   28.978   47.434
| 42> H  -21.289   28.710   47.548
| 43> H  -20.733   27.082   49.195
| 44> H  -19.064   26.913   48.597
| 45> C  -23.420   25.119   46.072
| 46> H  -23.657   25.087   45.002
| 47> H  -22.847   24.217   46.324
| 48> O  -22.586   26.394   46.375
| 49> C  -24.753   25.070   46.869
| 50> C  -25.493   23.748   46.635
| 51> C  -24.720   22.786   47.569
| 52> C  -24.352   23.687   48.774
| 53> O  -24.488   25.084   48.312
| 54> H  -25.339   25.962   46.642
| 55> O  -26.973   23.878   47.086
| 56> H  -25.478   23.426   45.588
| 57> H  -25.312   21.914   47.865
| 58> H  -23.815   22.422   47.068
| 59> H  -23.326   23.523   49.123
| 60> H  -25.037   23.557   49.617
| 61> H  -27.012   24.199   48.133
| 62> *
| 63>
| 64>                          ****END OF INPUT****
 Total Charge           Charge          ....    0
 Multiplicity           Mult            ....    1
 Number of Electrons    NEL             ....  102
FINAL SINGLE POINT ENERGY      -652.834301857940
FINAL SINGLE POINT ENERGY      -652.858385185811
FINAL SINGLE POINT ENERGY      -652.862487983746
FINAL SINGLE POINT ENERGY      -652.863245120555
FINAL SINGLE POINT ENERGY      -652.863342990845
FINAL SINGLE POINT ENERGY      -652.863353708596
                    ***********************HURRAY********************

CARTESIAN COORDINATES (ANGSTROEM)
---------------------------------
  C    -21.068448   26.144956   46.194179
  C    -20.533521   27.559169   45.969059
  C    -20.570317   28.144398   47.400230
  C    -20.220542   26.925699   48.282924
  O    -20.457465   25.729575   47.436583
  H    -20.793509   25.399600   45.442128
  H    -19.504536   27.503242   45.594762
  H    -21.142357   28.119562   45.256841
  H    -19.867547   28.972180   47.534735
  H    -21.579258   28.502096   47.623631
  H    -20.847506   26.851560   49.174335
  H    -19.165884   26.898746   48.573805
  C    -23.268948   25.055907   46.018741
  H    -23.534447   25.039832   44.951042
  H    -22.672714   24.162847   46.248392
  O    -22.503283   26.251700   46.318325
  C    -24.540284   25.078612   46.864935
  C    -25.426163   23.837788   46.684364
  C    -24.742081   22.820331   47.635092
  C    -24.252658   23.709300   48.805314
  O    -24.245779   25.103465   48.298817
  H    -25.091626   25.998662   46.649278
  O    -26.795797   24.114302   47.087383
  H    -25.495951   23.486859   45.653758
  H    -25.451993   22.050891   47.948577
  H    -23.903298   22.328815   47.130064
  H    -23.244603   23.450257   49.141055
  H    -24.927932   23.681316   49.666454
  H    -26.784553   24.632335   47.920197

 Multiplicity           Mult            ....    1
 Number of Electrons    NEL             ....  102
 Basis Dimension        Dim             ....  149

ORBITAL ENERGIES
----------------

  NO   OCC          E(Eh)            E(eV)
   0   2.0000     -19.139600      -520.8150
   1   2.0000     -19.138397      -520.7823
   2   2.0000     -19.137950      -520.7701
   3   2.0000     -19.132879      -520.6321
   4   2.0000     -10.275697      -279.6159
   5   2.0000     -10.242239      -278.7055
   6   2.0000     -10.232670      -278.4451
   7   2.0000     -10.232052      -278.4283
   8   2.0000     -10.227181      -278.2958
   9   2.0000     -10.218154      -278.0501
  10   2.0000     -10.188392      -277.2403
  11   2.0000     -10.180646      -277.0295
  12   2.0000     -10.178943      -276.9831
  13   2.0000      -1.050303       -28.5802
  14   2.0000      -1.033918       -28.1343
  15   2.0000      -1.004546       -27.3351
  16   2.0000      -0.989630       -26.9292
  17   2.0000      -0.787815       -21.4375
  18   2.0000      -0.778691       -21.1893
  19   2.0000      -0.764705       -20.8087
  20   2.0000      -0.726262       -19.7626
  21   2.0000      -0.671599       -18.2751
  22   2.0000      -0.602869       -16.4049
  23   2.0000      -0.593013       -16.1367
  24   2.0000      -0.588334       -16.0094
  25   2.0000      -0.584008       -15.8917
  26   2.0000      -0.525714       -14.3054
  27   2.0000      -0.509831       -13.8732
  28   2.0000      -0.488696       -13.2981
  29   2.0000      -0.483799       -13.1648
  30   2.0000      -0.477098       -12.9825
  31   2.0000      -0.456590       -12.4244
  32   2.0000      -0.450177       -12.2499
  33   2.0000      -0.432999       -11.7825
  34   2.0000      -0.426619       -11.6089
  35   2.0000      -0.402124       -10.9423
  36   2.0000      -0.398156       -10.8344
  37   2.0000      -0.392361       -10.6767
  38   2.0000      -0.373665       -10.1679
  39   2.0000      -0.370642       -10.0857
  40   2.0000      -0.354791        -9.6544
  41   2.0000      -0.350335        -9.5331
  42   2.0000      -0.343574        -9.3491
  43   2.0000      -0.329266        -8.9598
  44   2.0000      -0.320252        -8.7145
  45   2.0000      -0.305235        -8.3059
  46   2.0000      -0.298223        -8.1151
  47   2.0000      -0.270388        -7.3576
  48   2.0000      -0.264816        -7.2060
  49   2.0000      -0.244295        -6.6476
  50   2.0000      -0.241993        -6.5850
  51   0.0000       0.067883         1.8472
  52   0.0000       0.085256         2.3199
  53   0.0000       0.090320         2.4577
  54   0.0000       0.102845         2.7985
  55   0.0000       0.107912         2.9364

MULLIKEN ATOMIC CHARGES
-----------------------
   0 C :    0.281646
   1 C :   -0.256520
   2 C :   -0.298659
   3 C :    0.000308
   4 O :   -0.509521
   5 H :    0.136562
   6 H :    0.141261
   7 H :    0.151745
   8 H :    0.137299
   9 H :    0.168552
  10 H :    0.156444
  11 H :    0.137130
  12 C :    0.002936
  13 H :    0.127813
  14 H :    0.139755
  15 O :   -0.511047
  16 C :    0.067294
  17 C :    0.075976
  18 C :   -0.293860
  19 C :   -0.031439
  20 O :   -0.509352
  21 H :    0.168502
  22 O :   -0.602047
  23 H :    0.149048
  24 H :    0.162154
  25 H :    0.142461
  26 H :    0.155404
  27 H :    0.144546
  28 H :    0.365609
Sum of atomic charges:   -0.0000000

LOEWDIN ATOMIC CHARGES
----------------------
   0 C :    0.173184
   1 C :   -0.216374
   2 C :   -0.215473
   3 C :   -0.026067
   4 O :   -0.327736
   5 H :    0.095723
   6 H :    0.111676
   7 H :    0.121426
   8 H :    0.111704
   9 H :    0.122348
  10 H :    0.110480
  11 H :    0.099924
  12 C :   -0.041126
  13 H :    0.095791
  14 H :    0.100934
  15 O :   -0.321773
  16 C :    0.017241
  17 C :    0.034884
  18 C :   -0.240731
  19 C :   -0.038746
  20 O :   -0.320159
  21 H :    0.120155
  22 O :   -0.414532
  23 H :    0.114103
  24 H :    0.126298
  25 H :    0.112215
  26 H :    0.109194
  27 H :    0.101612
  28 H :    0.283824

  Mayer bond orders larger than 0.100000
B(  0-C ,  1-C ) :   0.9492 B(  0-C ,  4-O ) :   0.9156 B(  0-C ,  5-H ) :   0.9206
B(  0-C , 15-O ) :   0.8611 B(  1-C ,  2-C ) :   0.9579 B(  1-C ,  6-H ) :   0.9404
B(  1-C ,  7-H ) :   0.9373 B(  2-C ,  3-C ) :   0.9558 B(  2-C ,  8-H ) :   0.9455
B(  2-C ,  9-H ) :   0.9426 B(  3-C ,  4-O ) :   0.8354 B(  3-C , 10-H ) :   0.9341
B(  3-C , 11-H ) :   0.9403 B( 12-C , 13-H ) :   0.9147 B( 12-C , 14-H ) :   0.9155
B( 12-C , 15-O ) :   0.8410 B( 12-C , 16-C ) :   0.9024 B( 16-C , 17-C ) :   0.9003
B( 16-C , 20-O ) :   0.8681 B( 16-C , 21-H ) :   0.9239 B( 17-C , 18-C ) :   0.9103
B( 17-C , 22-O ) :   0.8950 B( 17-C , 23-H ) :   0.9331 B( 18-C , 19-C ) :   0.9398
B( 18-C , 24-H ) :   0.9378 B( 18-C , 25-H ) :   0.9344 B( 19-C , 20-O ) :   0.8508
B( 19-C , 26-H ) :   0.9330 B( 19-C , 27-H ) :   0.9375 B( 22-O , 28-H ) :   0.7933

FINAL SINGLE POINT ENERGY      -652.863355479200

DIPOLE MOMENT
-------------
                                X             Y             Z
Electronic contribution:     -3.07586      -0.56698      -0.12442
Nuclear contribution   :      3.67265       0.43950      -0.11545
                        -----------------------------------------
Total Dipole Moment    :      0.59679      -0.12749      -0.23987
                        -----------------------------------------
Magnitude (a.u.)       :      0.65570
Magnitude (Debye)      :      1.66667

Rotational constants in cm-1:     0.061691     0.012772     0.012038
Rotational constants in MHz :  1849.451128   382.900761   360.896095

                             ****ORCA TERMINATED NORMALLY****
TOTAL RUN TIME: 0 days 1 hours 19 minutes 8 seconds 553 msec
