                         Program Version 4.2.0 -  RELEASE  -
|  1> # Test redundant internal optimization
|  2> #
|  3> ! RKS B3LYP  Opt TightSCF SmallPrint
|  4>
|  5> %basis
|  6>         Basis "6-31G"
|  7> end
|  8>
|  9> %geom
| 10> Constraints
| 11> { D 4  0  15  12  300.0   C } # D for Dihedral angle
| 12> { D 0  15  12  16  105.0   C } # D for Dihedral angle
| 13> { D 0  4  3  2   C } # D for Dihedral angle
| 14> { D 4  3  2  1   C } # D for Dihedral angle
| 15> { D 3  2  1  0   C } # D for Dihedral angle
| 16> { D 2  1  0  4   C } # D for Dihedral angle
| 17> { D 1  0  4  3   C } # D for Dihedral angle
| 18> { D 16  20  19  18   C } # D for Dihedral angle
| 19> { D 20  19  18  17   C } # D for Dihedral angle
| 20> { D 19  18  17  16   C } # D for Dihedral angle
| 21> { D 18  17  16  20   C } # D for Dihedral angle
| 22> { D 17  16  20  19   C } # D for Dihedral angle
| 23> { D 15  12  16  20   C } # D for Dihedral angle
| 24> end
| 25> end
| 26>
| 27>
| 28> #%pal
| 29> #nprocs 8
| 30> #end
| 31>
| 32> * xyz 0 1
| 33> C  -21.048   26.222   46.251
| 34> C  -20.361   27.558   45.944
| 35> C  -20.329   28.222   47.341
| 36> C  -20.110   27.022   48.296
| 37> O  -20.473   25.807   47.535
| 38> H  -20.833   25.428   45.533
| 39> H  -19.344   27.382   45.576
| 40> H  -20.898   28.157   45.201
| 41> H  -19.543   28.978   47.434
| 42> H  -21.289   28.710   47.548
| 43> H  -20.733   27.082   49.195
| 44> H  -19.064   26.913   48.597
| 45> C  -23.362   25.116   46.798
| 46> H  -24.245   25.000   46.157
| 47> H  -22.731   24.226   46.676
| 48> O  -22.586   26.394   46.375
| 49> C  -23.834   25.162   48.277
| 50> C  -24.492   23.842   48.693
| 51> C  -23.258   22.945   48.953
| 52> C  -22.222   23.935   49.541
| 53> O  -22.684   25.292   49.179
| 54> H  -24.458   26.045   48.426
| 55> O  -25.310   24.041   49.998
| 56> H  -25.159   23.434   47.926
| 57> H  -23.473   22.114   49.632
| 58> H  -22.895   22.521   48.009
| 59> H  -21.216   23.778   49.136
| 60> H  -22.175   23.891   50.633
| 61> H  -24.661   24.449   50.781
| 62> *
| 63>
| 64>                          ****END OF INPUT****
 Total Charge           Charge          ....    0
 Multiplicity           Mult            ....    1
 Number of Electrons    NEL             ....  102
FINAL SINGLE POINT ENERGY      -652.837719104262
FINAL SINGLE POINT ENERGY      -652.861490261770
FINAL SINGLE POINT ENERGY      -652.865963347528
FINAL SINGLE POINT ENERGY      -652.866762174294
FINAL SINGLE POINT ENERGY      -652.866872262689
FINAL SINGLE POINT ENERGY      -652.866890399789
FINAL SINGLE POINT ENERGY      -652.866894028193
                    ***********************HURRAY********************

CARTESIAN COORDINATES (ANGSTROEM)
---------------------------------
  C    -21.059231   26.172822   46.246248
  C    -20.520003   27.575537   45.974112
  C    -20.443127   28.168336   47.399231
  C    -20.049656   26.950763   48.264571
  O    -20.369797   25.753807   47.438855
  H    -20.845757   25.410484   45.489276
  H    -19.523305   27.498682   45.524041
  H    -21.170513   28.142038   45.304640
  H    -19.719304   28.985746   47.475723
  H    -21.427184   28.544139   47.692460
  H    -20.621268   26.877045   49.189789
  H    -18.976363   26.904031   48.473122
  C    -23.246168   25.141559   46.792791
  H    -24.142326   25.119460   46.161379
  H    -22.654120   24.238048   46.592324
  O    -22.495727   26.320879   46.398068
  C    -23.690721   25.183899   48.262748
  C    -24.432379   23.903464   48.670668
  C    -23.255466   22.948606   49.012649
  C    -22.205937   23.904859   49.633797
  O    -22.589819   25.274776   49.216314
  H    -24.306999   26.074744   48.418283
  O    -25.285484   24.136883   49.825922
  H    -25.096876   23.511015   47.899281
  H    -23.585808   22.166650   49.700782
  H    -22.871254   22.471874   48.104615
  H    -21.191390   23.714241   49.275717
  H    -22.213646   23.886037   50.728533
  H    -24.796372   24.685577   50.475062

 Multiplicity           Mult            ....    1
 Number of Electrons    NEL             ....  102
 Basis Dimension        Dim             ....  149

ORBITAL ENERGIES
----------------

  NO   OCC          E(Eh)            E(eV)
   0   2.0000     -19.140074      -520.8279
   1   2.0000     -19.139128      -520.8022
   2   2.0000     -19.137219      -520.7502
   3   2.0000     -19.134060      -520.6642
   4   2.0000     -10.273795      -279.5642
   5   2.0000     -10.241209      -278.6775
   6   2.0000     -10.231347      -278.4091
   7   2.0000     -10.230152      -278.3766
   8   2.0000     -10.225123      -278.2397
   9   2.0000     -10.213068      -277.9117
  10   2.0000     -10.187384      -277.2128
  11   2.0000     -10.178610      -276.9741
  12   2.0000     -10.176898      -276.9275
  13   2.0000      -1.048487       -28.5308
  14   2.0000      -1.033415       -28.1206
  15   2.0000      -1.003785       -27.3144
  16   2.0000      -0.989091       -26.9145
  17   2.0000      -0.786709       -21.4074
  18   2.0000      -0.777339       -21.1525
  19   2.0000      -0.761977       -20.7345
  20   2.0000      -0.725770       -19.7492
  21   2.0000      -0.669127       -18.2079
  22   2.0000      -0.601758       -16.3747
  23   2.0000      -0.591777       -16.1031
  24   2.0000      -0.589198       -16.0329
  25   2.0000      -0.577425       -15.7125
  26   2.0000      -0.521551       -14.1921
  27   2.0000      -0.510972       -13.9043
  28   2.0000      -0.489907       -13.3310
  29   2.0000      -0.478823       -13.0294
  30   2.0000      -0.474615       -12.9149
  31   2.0000      -0.452748       -12.3199
  32   2.0000      -0.449066       -12.2197
  33   2.0000      -0.432937       -11.7808
  34   2.0000      -0.420500       -11.4424
  35   2.0000      -0.403357       -10.9759
  36   2.0000      -0.395901       -10.7730
  37   2.0000      -0.389774       -10.6063
  38   2.0000      -0.372433       -10.1344
  39   2.0000      -0.369711       -10.0603
  40   2.0000      -0.352156        -9.5826
  41   2.0000      -0.347880        -9.4663
  42   2.0000      -0.341803        -9.3009
  43   2.0000      -0.330110        -8.9827
  44   2.0000      -0.322807        -8.7840
  45   2.0000      -0.304966        -8.2986
  46   2.0000      -0.292523        -7.9600
  47   2.0000      -0.270213        -7.3529
  48   2.0000      -0.269375        -7.3301
  49   2.0000      -0.251758        -6.8507
  50   2.0000      -0.232474        -6.3259
  51   0.0000       0.068856         1.8737
  52   0.0000       0.090567         2.4645
  53   0.0000       0.092055         2.5049
  54   0.0000       0.100992         2.7481
  55   0.0000       0.110197         2.9986

MULLIKEN ATOMIC CHARGES
-----------------------
   0 C :    0.291937
   1 C :   -0.265468
   2 C :   -0.298976
   3 C :   -0.006007
   4 O :   -0.510827
   5 H :    0.139870
   6 H :    0.141392
   7 H :    0.156390
   8 H :    0.136724
   9 H :    0.162701
  10 H :    0.171043
  11 H :    0.133703
  12 C :   -0.002646
  13 H :    0.143082
  14 H :    0.128684
  15 O :   -0.520747
  16 C :    0.079325
  17 C :    0.070309
  18 C :   -0.293085
  19 C :   -0.032169
  20 O :   -0.512515
  21 H :    0.162868
  22 O :   -0.602446
  23 H :    0.150054
  24 H :    0.161499
  25 H :    0.143175
  26 H :    0.166168
  27 H :    0.142097
  28 H :    0.363864
Sum of atomic charges:   -0.0000000

LOEWDIN ATOMIC CHARGES
----------------------
   0 C :    0.173746
   1 C :   -0.215573
   2 C :   -0.215265
   3 C :   -0.030550
   4 O :   -0.324089
   5 H :    0.093377
   6 H :    0.111883
   7 H :    0.123423
   8 H :    0.111303
   9 H :    0.119427
  10 H :    0.117621
  11 H :    0.098182
  12 C :   -0.042032
  13 H :    0.109233
  14 H :    0.097666
  15 O :   -0.327158
  16 C :    0.011899
  17 C :    0.033125
  18 C :   -0.239839
  19 C :   -0.039602
  20 O :   -0.318675
  21 H :    0.116765
  22 O :   -0.415060
  23 H :    0.113991
  24 H :    0.126047
  25 H :    0.112503
  26 H :    0.114826
  27 H :    0.100160
  28 H :    0.282666

  Mayer bond orders larger than 0.100000
B(  0-C ,  1-C ) :   0.9501 B(  0-C ,  4-O ) :   0.9178 B(  0-C ,  5-H ) :   0.9213
B(  0-C , 15-O ) :   0.8534 B(  1-C ,  2-C ) :   0.9582 B(  1-C ,  6-H ) :   0.9407
B(  1-C ,  7-H ) :   0.9365 B(  2-C ,  3-C ) :   0.9596 B(  2-C ,  8-H ) :   0.9453
B(  2-C ,  9-H ) :   0.9438 B(  3-C ,  4-O ) :   0.8235 B(  3-C , 10-H ) :   0.9217
B(  3-C , 11-H ) :   0.9408 B( 12-C , 13-H ) :   0.9260 B( 12-C , 14-H ) :   0.9216
B( 12-C , 15-O ) :   0.8516 B( 12-C , 16-C ) :   0.8851 B( 16-C , 17-C ) :   0.8948
B( 16-C , 20-O ) :   0.8680 B( 16-C , 21-H ) :   0.9271 B( 17-C , 18-C ) :   0.9122
B( 17-C , 22-O ) :   0.8911 B( 17-C , 23-H ) :   0.9334 B( 18-C , 19-C ) :   0.9425
B( 18-C , 24-H ) :   0.9373 B( 18-C , 25-H ) :   0.9331 B( 19-C , 20-O ) :   0.8389
B( 19-C , 26-H ) :   0.9261 B( 19-C , 27-H ) :   0.9377 B( 22-O , 28-H ) :   0.7946

FINAL SINGLE POINT ENERGY      -652.866894384741

DIPOLE MOMENT
-------------
                                X             Y             Z
Electronic contribution:     -2.78564      -0.55717       0.48567
Nuclear contribution   :      3.35876       0.41483      -0.71871
                        -----------------------------------------
Total Dipole Moment    :      0.57311      -0.14234      -0.23304
                        -----------------------------------------
Magnitude (a.u.)       :      0.63485
Magnitude (Debye)      :      1.61365

Rotational constants in cm-1:     0.057042     0.015636     0.014447
Rotational constants in MHz :  1710.090748   468.764684   433.118540

                             ****ORCA TERMINATED NORMALLY****
TOTAL RUN TIME: 0 days 0 hours 26 minutes 46 seconds 505 msec
