                         Program Version 4.2.0 -  RELEASE  -
|  1> # Test redundant internal optimization
|  2> #
|  3> ! RKS B3LYP  Opt TightSCF SmallPrint
|  4>
|  5> %basis
|  6>         Basis "6-31G"
|  7> end
|  8>
|  9> %geom
| 10> Constraints
| 11> { D 4  0  15  12  45.0   C } # D for Dihedral angle
| 12> { D 0  15  12  16  210.0   C } # D for Dihedral angle
| 13> { D 0  4  3  2   C } # D for Dihedral angle
| 14> { D 4  3  2  1   C } # D for Dihedral angle
| 15> { D 3  2  1  0   C } # D for Dihedral angle
| 16> { D 2  1  0  4   C } # D for Dihedral angle
| 17> { D 1  0  4  3   C } # D for Dihedral angle
| 18> { D 16  20  19  18   C } # D for Dihedral angle
| 19> { D 20  19  18  17   C } # D for Dihedral angle
| 20> { D 19  18  17  16   C } # D for Dihedral angle
| 21> { D 18  17  16  20   C } # D for Dihedral angle
| 22> { D 17  16  20  19   C } # D for Dihedral angle
| 23> { D 15  12  16  20   C } # D for Dihedral angle
| 24> end
| 25> end
| 26>
| 27>
| 28> #%pal
| 29> #nprocs 8
| 30> #end
| 31>
| 32> * xyz 0 1
| 33> C  -21.048   26.222   46.251
| 34> C  -20.361   27.558   45.944
| 35> C  -20.329   28.222   47.341
| 36> C  -20.110   27.022   48.296
| 37> O  -20.473   25.807   47.535
| 38> H  -20.833   25.428   45.533
| 39> H  -19.344   27.382   45.576
| 40> H  -20.898   28.157   45.201
| 41> H  -19.543   28.978   47.434
| 42> H  -21.289   28.710   47.548
| 43> H  -20.733   27.082   49.195
| 44> H  -19.064   26.913   48.597
| 45> C  -23.065   27.161   47.638
| 46> H  -22.349   26.999   48.453
| 47> H  -23.116   28.239   47.436
| 48> O  -22.586   26.394   46.375
| 49> C  -24.469   26.704   48.122
| 50> C  -24.448   25.244   48.589
| 51> C  -23.833   25.376   50.003
| 52> C  -24.402   26.726   50.509
| 53> O  -24.871   27.459   49.314
| 54> H  -25.203   26.920   47.344
| 55> O  -25.897   24.691   48.670
| 56> H  -23.866   24.590   47.932
| 57> H  -24.096   24.541   50.659
| 58> H  -22.740   25.418   49.935
| 59> H  -23.650   27.330   51.027
| 60> H  -25.265   26.595   51.167
| 61> H  -26.500   25.331   49.325
| 62> *
| 63>
| 64>                          ****END OF INPUT****
 Total Charge           Charge          ....    0
 Multiplicity           Mult            ....    1
 Number of Electrons    NEL             ....  102
FINAL SINGLE POINT ENERGY      -652.825494115981
FINAL SINGLE POINT ENERGY      -652.850695350419
FINAL SINGLE POINT ENERGY      -652.859266720116
FINAL SINGLE POINT ENERGY      -652.861264401579
FINAL SINGLE POINT ENERGY      -652.861573417170
FINAL SINGLE POINT ENERGY      -652.861634097876
FINAL SINGLE POINT ENERGY      -652.861629177881
                    ***********************HURRAY********************

CARTESIAN COORDINATES (ANGSTROEM)
---------------------------------
  C    -21.193928   26.308977   46.435475
  C    -20.427242   27.522357   45.893120
  C    -20.060892   28.282090   47.199342
  C    -19.808877   27.130813   48.203917
  O    -20.450864   25.925492   47.616189
  H    -21.169034   25.450326   45.763147
  H    -19.524845   27.171067   45.381100
  H    -21.024260   28.114503   45.195608
  H    -19.178931   28.918767   47.080530
  H    -20.890068   28.919504   47.521494
  H    -20.234105   27.316748   49.194804
  H    -18.745574   26.897123   48.312523
  C    -23.098449   27.245774   47.798420
  H    -22.412308   27.139873   48.644379
  H    -23.209132   28.310256   47.559649
  O    -22.610970   26.499233   46.646908
  C    -24.465454   26.666904   48.164106
  C    -24.448701   25.197383   48.607578
  C    -23.971570   25.320417   50.076488
  C    -24.619481   26.644565   50.551666
  O    -24.997501   27.392367   49.324826
  H    -25.165716   26.816006   47.338021
  O    -25.780017   24.616621   48.517441
  H    -23.809037   24.573056   47.987304
  H    -24.295278   24.455785   50.661632
  H    -22.877558   25.368337   50.113449
  H    -23.940660   27.262329   51.148844
  H    -25.537850   26.483234   51.124979
  H    -26.432698   25.249091   48.886063

 Multiplicity           Mult            ....    1
 Number of Electrons    NEL             ....  102
 Basis Dimension        Dim             ....  149

ORBITAL ENERGIES
----------------

  NO   OCC          E(Eh)            E(eV)
   0   2.0000     -19.152236      -521.1588
   1   2.0000     -19.147126      -521.0198
   2   2.0000     -19.143260      -520.9146
   3   2.0000     -19.131027      -520.5817
   4   2.0000     -10.283109      -279.8176
   5   2.0000     -10.237269      -278.5702
   6   2.0000     -10.231728      -278.4195
   7   2.0000     -10.230952      -278.3984
   8   2.0000     -10.230507      -278.3863
   9   2.0000     -10.229831      -278.3678
  10   2.0000     -10.197482      -277.4876
  11   2.0000     -10.192075      -277.3405
  12   2.0000     -10.183868      -277.1171
  13   2.0000      -1.058901       -28.8142
  14   2.0000      -1.033142       -28.1132
  15   2.0000      -1.002156       -27.2701
  16   2.0000      -0.998992       -27.1840
  17   2.0000      -0.793792       -21.6002
  18   2.0000      -0.779811       -21.2197
  19   2.0000      -0.768978       -20.9249
  20   2.0000      -0.734628       -19.9903
  21   2.0000      -0.677222       -18.4281
  22   2.0000      -0.608896       -16.5689
  23   2.0000      -0.601336       -16.3632
  24   2.0000      -0.596248       -16.2247
  25   2.0000      -0.577370       -15.7110
  26   2.0000      -0.521814       -14.1993
  27   2.0000      -0.515514       -14.0279
  28   2.0000      -0.506227       -13.7751
  29   2.0000      -0.488910       -13.3039
  30   2.0000      -0.473964       -12.8972
  31   2.0000      -0.461445       -12.5566
  32   2.0000      -0.451861       -12.2958
  33   2.0000      -0.436663       -11.8822
  34   2.0000      -0.421159       -11.4603
  35   2.0000      -0.416835       -11.3427
  36   2.0000      -0.409137       -11.1332
  37   2.0000      -0.389177       -10.5900
  38   2.0000      -0.383685       -10.4406
  39   2.0000      -0.365942        -9.9578
  40   2.0000      -0.364141        -9.9088
  41   2.0000      -0.357667        -9.7326
  42   2.0000      -0.353874        -9.6294
  43   2.0000      -0.328849        -8.9484
  44   2.0000      -0.325280        -8.8513
  45   2.0000      -0.315162        -8.5760
  46   2.0000      -0.303147        -8.2490
  47   2.0000      -0.273331        -7.4377
  48   2.0000      -0.264398        -7.1946
  49   2.0000      -0.257974        -7.0198
  50   2.0000      -0.243339        -6.6216
  51   0.0000       0.061724         1.6796
  52   0.0000       0.066722         1.8156
  53   0.0000       0.090166         2.4535
  54   0.0000       0.096256         2.6193
  55   0.0000       0.100538         2.7358

MULLIKEN ATOMIC CHARGES
-----------------------
   0 C :    0.296056
   1 C :   -0.265923
   2 C :   -0.313895
   3 C :   -0.019282
   4 O :   -0.509848
   5 H :    0.167283
   6 H :    0.152222
   7 H :    0.156752
   8 H :    0.149321
   9 H :    0.153351
  10 H :    0.141466
  11 H :    0.152569
  12 C :   -0.011773
  13 H :    0.140517
  14 H :    0.147035
  15 O :   -0.526522
  16 C :    0.055853
  17 C :    0.091431
  18 C :   -0.305198
  19 C :   -0.037833
  20 O :   -0.528225
  21 H :    0.167874
  22 O :   -0.602808
  23 H :    0.178665
  24 H :    0.160659
  25 H :    0.157435
  26 H :    0.143254
  27 H :    0.148716
  28 H :    0.360850
Sum of atomic charges:   -0.0000000

LOEWDIN ATOMIC CHARGES
----------------------
   0 C :    0.176545
   1 C :   -0.227192
   2 C :   -0.223328
   3 C :   -0.035472
   4 O :   -0.322450
   5 H :    0.113867
   6 H :    0.119231
   7 H :    0.123079
   8 H :    0.118215
   9 H :    0.112558
  10 H :    0.099109
  11 H :    0.106959
  12 C :   -0.043583
  13 H :    0.100371
  14 H :    0.102899
  15 O :   -0.324877
  16 C :    0.017797
  17 C :    0.039503
  18 C :   -0.243745
  19 C :   -0.040822
  20 O :   -0.332562
  21 H :    0.118936
  22 O :   -0.414722
  23 H :    0.129154
  24 H :    0.126291
  25 H :    0.118763
  26 H :    0.101847
  27 H :    0.103307
  28 H :    0.280321

  Mayer bond orders larger than 0.100000
B(  0-C ,  1-C ) :   0.9164 B(  0-C ,  4-O ) :   0.9034 B(  0-C ,  5-H ) :   0.9349
B(  0-C , 15-O ) :   0.8842 B(  1-C ,  2-C ) :   0.9555 B(  1-C ,  6-H ) :   0.9348
B(  1-C ,  7-H ) :   0.9369 B(  2-C ,  3-C ) :   0.9492 B(  2-C ,  8-H ) :   0.9445
B(  2-C ,  9-H ) :   0.9415 B(  3-C ,  4-O ) :   0.8379 B(  3-C , 10-H ) :   0.9305
B(  3-C , 11-H ) :   0.9390 B( 12-C , 13-H ) :   0.9107 B( 12-C , 14-H ) :   0.9167
B( 12-C , 15-O ) :   0.8238 B( 12-C , 16-C ) :   0.9017 B( 16-C , 17-C ) :   0.9114
B( 16-C , 20-O ) :   0.8447 B( 16-C , 21-H ) :   0.9261 B( 17-C , 18-C ) :   0.9133
B( 17-C , 22-O ) :   0.8894 B( 17-C , 23-H ) :   0.9227 B( 18-C , 19-C ) :   0.9415
B( 18-C , 24-H ) :   0.9378 B( 18-C , 25-H ) :   0.9317 B( 19-C , 20-O ) :   0.8433
B( 19-C , 26-H ) :   0.9357 B( 19-C , 27-H ) :   0.9377 B( 22-O , 28-H ) :   0.7967

FINAL SINGLE POINT ENERGY      -652.861628122587

DIPOLE MOMENT
-------------
                                X             Y             Z
Electronic contribution:     -4.67224      -3.04198      -1.91134
Nuclear contribution   :      5.80299       4.04598       2.32788
                        -----------------------------------------
Total Dipole Moment    :      1.13075       1.00400       0.41655
                        -----------------------------------------
Magnitude (a.u.)       :      1.56847
Magnitude (Debye)      :      3.98675

Rotational constants in cm-1:     0.052430     0.014261     0.013692
Rotational constants in MHz :  1571.796941   427.524456   410.472710

                             ****ORCA TERMINATED NORMALLY****
TOTAL RUN TIME: 0 days 0 hours 27 minutes 3 seconds 502 msec
