                         Program Version 4.2.0 -  RELEASE  -
|  1> # Test redundant internal optimization
|  2> #
|  3> ! RKS B3LYP  Opt TightSCF SmallPrint
|  4>
|  5> %basis
|  6>         Basis "6-31G"
|  7> end
|  8>
|  9> %geom
| 10> Constraints
| 11> { D 4  0  15  12  150.0   C } # D for Dihedral angle
| 12> { D 0  15  12  16  135.0   C } # D for Dihedral angle
| 13> { D 0  4  3  2   C } # D for Dihedral angle
| 14> { D 4  3  2  1   C } # D for Dihedral angle
| 15> { D 3  2  1  0   C } # D for Dihedral angle
| 16> { D 2  1  0  4   C } # D for Dihedral angle
| 17> { D 1  0  4  3   C } # D for Dihedral angle
| 18> { D 16  20  19  18   C } # D for Dihedral angle
| 19> { D 20  19  18  17   C } # D for Dihedral angle
| 20> { D 19  18  17  16   C } # D for Dihedral angle
| 21> { D 18  17  16  20   C } # D for Dihedral angle
| 22> { D 17  16  20  19   C } # D for Dihedral angle
| 23> { D 15  12  16  20   C } # D for Dihedral angle
| 24> end
| 25> end
| 26>
| 27>
| 28> #%pal
| 29> #nprocs 8
| 30> #end
| 31>
| 32> * xyz 0 1
| 33> C  -21.048   26.222   46.251
| 34> C  -20.361   27.558   45.944
| 35> C  -20.329   28.222   47.341
| 36> C  -20.110   27.022   48.296
| 37> O  -20.473   25.807   47.535
| 38> H  -20.833   25.428   45.533
| 39> H  -19.344   27.382   45.576
| 40> H  -20.898   28.157   45.201
| 41> H  -19.543   28.978   47.434
| 42> H  -21.289   28.710   47.548
| 43> H  -20.733   27.082   49.195
| 44> H  -19.064   26.913   48.597
| 45> C  -23.210   27.459   45.431
| 46> H  -23.455   28.357   46.011
| 47> H  -22.496   27.741   44.646
| 48> O  -22.586   26.394   46.375
| 49> C  -24.505   26.959   44.735
| 50> C  -25.621   26.700   45.754
| 51> C  -26.136   28.134   46.025
| 52> C  -25.990   28.826   44.646
| 53> O  -25.051   28.000   43.858
| 54> H  -24.264   26.103   44.102
| 55> H  -26.408   26.086   45.302
| 56> O  -25.120   25.987   47.039
| 57> H  -27.166   28.152   46.394
| 58> H  -25.503   28.626   46.773
| 59> H  -25.593   29.843   44.728
| 60> H  -26.933   28.859   44.094
| 61> H  -24.331   26.585   47.509
| 62> *
| 63>
| 64>                          ****END OF INPUT****
 Total Charge           Charge          ....    0
 Multiplicity           Mult            ....    1
 Number of Electrons    NEL             ....  102
FINAL SINGLE POINT ENERGY      -652.822312850696
FINAL SINGLE POINT ENERGY      -652.847192177260
FINAL SINGLE POINT ENERGY      -652.854215740005
FINAL SINGLE POINT ENERGY      -652.857214506675
FINAL SINGLE POINT ENERGY      -652.858871040716
FINAL SINGLE POINT ENERGY      -652.859906708433
FINAL SINGLE POINT ENERGY      -652.860425990075
FINAL SINGLE POINT ENERGY      -652.860554634074
FINAL SINGLE POINT ENERGY      -652.860570572769
FINAL SINGLE POINT ENERGY      -652.860575583825
                    ***********************HURRAY********************

CARTESIAN COORDINATES (ANGSTROEM)
---------------------------------
  C    -21.134169   26.292900   46.222538
  C    -20.222820   27.486211   45.940996
  C    -20.232165   28.228496   47.301827
  C    -20.303912   27.071137   48.318913
  O    -20.775276   25.889705   47.547856
  H    -20.996412   25.426958   45.572143
  H    -19.221314   27.103307   45.714963
  H    -20.533822   28.116374   45.105159
  H    -19.343925   28.851715   47.440331
  H    -21.114565   28.872257   47.377659
  H    -21.004719   27.254792   49.136540
  H    -19.326963   26.802615   48.729791
  C    -23.166589   27.626592   45.364761
  H    -23.357184   28.540880   45.938982
  H    -22.512853   27.873895   44.523170
  O    -22.565142   26.624212   46.247464
  C    -24.462225   27.027427   44.805805
  C    -25.539199   26.712905   45.858237
  C    -26.159043   28.119340   46.103232
  C    -26.093014   28.779370   44.710673
  O    -25.098894   27.995930   43.916330
  H    -24.213188   26.152614   44.198287
  H    -26.291999   26.061005   45.398071
  O    -25.084774   26.074096   47.064913
  H    -27.178001   28.051204   46.493148
  H    -25.550816   28.648361   46.844735
  H    -25.771569   29.825553   44.739363
  H    -27.040926   28.717068   44.168248
  H    -24.097521   26.065081   47.088864

 Multiplicity           Mult            ....    1
 Number of Electrons    NEL             ....  102
 Basis Dimension        Dim             ....  149

ORBITAL ENERGIES
----------------

  NO   OCC          E(Eh)            E(eV)
   0   2.0000     -19.159682      -521.3615
   1   2.0000     -19.152119      -521.1556
   2   2.0000     -19.139992      -520.8257
   3   2.0000     -19.107288      -519.9357
   4   2.0000     -10.295356      -280.1509
   5   2.0000     -10.241386      -278.6823
   6   2.0000     -10.235472      -278.5214
   7   2.0000     -10.233189      -278.4592
   8   2.0000     -10.227818      -278.3131
   9   2.0000     -10.226239      -278.2701
  10   2.0000     -10.202560      -277.6258
  11   2.0000     -10.200374      -277.5663
  12   2.0000     -10.177514      -276.9442
  13   2.0000      -1.065470       -28.9929
  14   2.0000      -1.025029       -27.8924
  15   2.0000      -1.006173       -27.3794
  16   2.0000      -0.987122       -26.8610
  17   2.0000      -0.800041       -21.7702
  18   2.0000      -0.775609       -21.1054
  19   2.0000      -0.766957       -20.8700
  20   2.0000      -0.739506       -20.1230
  21   2.0000      -0.683249       -18.5921
  22   2.0000      -0.613592       -16.6967
  23   2.0000      -0.600568       -16.3423
  24   2.0000      -0.595223       -16.1968
  25   2.0000      -0.576119       -15.6770
  26   2.0000      -0.530382       -14.4324
  27   2.0000      -0.521144       -14.1811
  28   2.0000      -0.508219       -13.8293
  29   2.0000      -0.487849       -13.2750
  30   2.0000      -0.477177       -12.9847
  31   2.0000      -0.462671       -12.5899
  32   2.0000      -0.445230       -12.1153
  33   2.0000      -0.432450       -11.7676
  34   2.0000      -0.429622       -11.6906
  35   2.0000      -0.421230       -11.4622
  36   2.0000      -0.410643       -11.1742
  37   2.0000      -0.389880       -10.6092
  38   2.0000      -0.385293       -10.4844
  39   2.0000      -0.372292       -10.1306
  40   2.0000      -0.367126        -9.9900
  41   2.0000      -0.362469        -9.8633
  42   2.0000      -0.347833        -9.4650
  43   2.0000      -0.341538        -9.2937
  44   2.0000      -0.321758        -8.7555
  45   2.0000      -0.314292        -8.5523
  46   2.0000      -0.282898        -7.6980
  47   2.0000      -0.275821        -7.5055
  48   2.0000      -0.271851        -7.3974
  49   2.0000      -0.245333        -6.6759
  50   2.0000      -0.238233        -6.4826
  51   0.0000       0.057465         1.5637
  52   0.0000       0.071789         1.9535
  53   0.0000       0.091662         2.4942
  54   0.0000       0.095799         2.6068
  55   0.0000       0.101192         2.7536

MULLIKEN ATOMIC CHARGES
-----------------------
   0 C :    0.325276
   1 C :   -0.294143
   2 C :   -0.303840
   3 C :   -0.004746
   4 O :   -0.495053
   5 H :    0.159936
   6 H :    0.158396
   7 H :    0.150617
   8 H :    0.149641
   9 H :    0.157034
  10 H :    0.159184
  11 H :    0.149605
  12 C :   -0.019553
  13 H :    0.143759
  14 H :    0.152941
  15 O :   -0.568909
  16 C :    0.058530
  17 C :    0.120322
  18 C :   -0.301137
  19 C :   -0.023850
  20 O :   -0.524019
  21 H :    0.155582
  22 H :    0.145436
  23 O :   -0.641009
  24 H :    0.151997
  25 H :    0.144919
  26 H :    0.140759
  27 H :    0.150856
  28 H :    0.401469
Sum of atomic charges:    0.0000000

LOEWDIN ATOMIC CHARGES
----------------------
   0 C :    0.188757
   1 C :   -0.231300
   2 C :   -0.216710
   3 C :   -0.026308
   4 O :   -0.301638
   5 H :    0.107561
   6 H :    0.123047
   7 H :    0.117473
   8 H :    0.118454
   9 H :    0.114357
  10 H :    0.111925
  11 H :    0.106929
  12 C :   -0.044752
  13 H :    0.100737
  14 H :    0.108846
  15 O :   -0.351093
  16 C :    0.015507
  17 C :    0.042119
  18 C :   -0.236998
  19 C :   -0.033378
  20 O :   -0.326951
  21 H :    0.113628
  22 H :    0.103431
  23 O :   -0.435207
  24 H :    0.121746
  25 H :    0.110879
  26 H :    0.100777
  27 H :    0.106326
  28 H :    0.291836

  Mayer bond orders larger than 0.100000
B(  0-C ,  1-C ) :   0.9381 B(  0-C ,  4-O ) :   0.9477 B(  0-C ,  5-H ) :   0.9257
B(  0-C , 15-O ) :   0.7935 B(  1-C ,  2-C ) :   0.9469 B(  1-C ,  6-H ) :   0.9329
B(  1-C ,  7-H ) :   0.9263 B(  2-C ,  3-C ) :   0.9537 B(  2-C ,  8-H ) :   0.9446
B(  2-C ,  9-H ) :   0.9450 B(  3-C ,  4-O ) :   0.8297 B(  3-C , 10-H ) :   0.9341
B(  3-C , 11-H ) :   0.9392 B( 12-C , 13-H ) :   0.9257 B( 12-C , 14-H ) :   0.9189
B( 12-C , 15-O ) :   0.7901 B( 12-C , 16-C ) :   0.8910 B( 16-C , 17-C ) :   0.9155
B( 16-C , 20-O ) :   0.8544 B( 16-C , 21-H ) :   0.9300 B( 17-C , 18-C ) :   0.9034
B( 17-C , 22-H ) :   0.9283 B( 17-C , 23-O ) :   0.9406 B( 18-C , 19-C ) :   0.9386
B( 18-C , 24-H ) :   0.9444 B( 18-C , 25-H ) :   0.9427 B( 19-C , 20-O ) :   0.8303
B( 19-C , 26-H ) :   0.9345 B( 19-C , 27-H ) :   0.9383 B( 23-O , 28-H ) :   0.7185

FINAL SINGLE POINT ENERGY      -652.860576319835

DIPOLE MOMENT
-------------
                                X             Y             Z
Electronic contribution:     -1.43521      -5.17555      -0.80959
Nuclear contribution   :      2.61178       6.50173       0.53129
                        -----------------------------------------
Total Dipole Moment    :      1.17657       1.32618      -0.27830
                        -----------------------------------------
Magnitude (a.u.)       :      1.79458
Magnitude (Debye)      :      4.56146

Rotational constants in cm-1:     0.054543     0.013668     0.012610
Rotational constants in MHz :  1635.155374   409.752147   378.038952

                             ****ORCA TERMINATED NORMALLY****
TOTAL RUN TIME: 0 days 0 hours 55 minutes 32 seconds 401 msec
