                         Program Version 4.2.0 -  RELEASE  -
|  1> # Test redundant internal optimization
|  2> #
|  3> ! RKS B3LYP  Opt TightSCF SmallPrint
|  4>
|  5> %basis
|  6>         Basis "6-31G"
|  7> end
|  8>
|  9> %geom
| 10> Constraints
| 11> { D 4  0  15  12  285.0   C } # D for Dihedral angle
| 12> { D 0  15  12  16  315.0   C } # D for Dihedral angle
| 13> { D 0  4  3  2   C } # D for Dihedral angle
| 14> { D 4  3  2  1   C } # D for Dihedral angle
| 15> { D 3  2  1  0   C } # D for Dihedral angle
| 16> { D 2  1  0  4   C } # D for Dihedral angle
| 17> { D 1  0  4  3   C } # D for Dihedral angle
| 18> { D 16  20  19  18   C } # D for Dihedral angle
| 19> { D 20  19  18  17   C } # D for Dihedral angle
| 20> { D 19  18  17  16   C } # D for Dihedral angle
| 21> { D 18  17  16  20   C } # D for Dihedral angle
| 22> { D 17  16  20  19   C } # D for Dihedral angle
| 23> { D 15  12  16  20   C } # D for Dihedral angle
| 24> end
| 25> end
| 26>
| 27>
| 28> #%pal
| 29> #nprocs 8
| 30> #end
| 31>
| 32> * xyz 0 1
| 33> C  -21.048   26.222   46.251
| 34> C  -20.361   27.558   45.944
| 35> C  -20.329   28.222   47.341
| 36> C  -20.110   27.022   48.296
| 37> O  -20.473   25.807   47.535
| 38> H  -20.833   25.428   45.533
| 39> H  -19.344   27.382   45.576
| 40> H  -20.898   28.157   45.201
| 41> H  -19.543   28.978   47.434
| 42> H  -21.289   28.710   47.548
| 43> H  -20.733   27.082   49.195
| 44> H  -19.064   26.913   48.597
| 45> C  -23.396   25.070   46.435
| 46> H  -23.284   24.622   47.431
| 47> H  -24.463   25.264   46.264
| 48> O  -22.586   26.394   46.375
| 49> C  -22.929   24.032   45.378
| 50> C  -23.823   22.787   45.388
| 51> C  -25.054   23.277   44.589
| 52> C  -24.432   24.223   43.532
| 53> O  -23.083   24.575   44.024
| 54> H  -21.866   23.827   45.522
| 55> O  -23.117   21.618   44.646
| 56> H  -24.079   22.449   46.398
| 57> H  -25.619   22.457   44.134
| 58> H  -25.735   23.828   45.248
| 59> H  -25.015   25.141   43.396
| 60> H  -24.305   23.737   42.560
| 61> H  -22.852   21.933   43.631
| 62> *
| 63>
| 64>                          ****END OF INPUT****
 Total Charge           Charge          ....    0
 Multiplicity           Mult            ....    1
 Number of Electrons    NEL             ....  102
FINAL SINGLE POINT ENERGY      -652.834055998218
FINAL SINGLE POINT ENERGY      -652.858033849564
FINAL SINGLE POINT ENERGY      -652.862945670969
FINAL SINGLE POINT ENERGY      -652.863712373965
FINAL SINGLE POINT ENERGY      -652.863826284184
FINAL SINGLE POINT ENERGY      -652.863838933412
                    ***********************HURRAY********************

CARTESIAN COORDINATES (ANGSTROEM)
---------------------------------
  C    -20.996463   26.183816   46.193318
  C    -20.444059   27.591351   45.961446
  C    -20.455468   28.175672   47.393474
  C    -20.112121   26.951722   48.272740
  O    -20.374695   25.757340   47.431998
  H    -20.728199   25.448409   45.434456
  H    -19.421872   27.517751   45.573034
  H    -21.055124   28.157604   45.256300
  H    -19.738425   28.992330   47.522007
  H    -21.455770   28.550650   47.627639
  H    -20.722820   26.889840   49.177317
  H    -19.054182   26.912001   48.549834
  C    -23.242551   25.114599   46.371416
  H    -23.166919   24.666363   47.373211
  H    -24.260867   25.485248   46.229185
  O    -22.423563   26.319499   46.324712
  C    -22.905802   24.036141   45.340194
  C    -23.856016   22.830806   45.410213
  C    -25.074744   23.339355   44.593459
  C    -24.416275   24.208841   43.492432
  O    -23.046495   24.522735   43.964423
  H    -21.872331   23.699439   45.453512
  O    -23.250758   21.659298   44.798584
  H    -24.110726   22.524998   46.425466
  H    -25.646098   22.499734   44.190327
  H    -25.738956   23.934517   45.229573
  H    -24.953422   25.144723   43.313453
  H    -24.315869   23.676613   42.541284
  H    -22.822409   21.923604   43.956994

 Multiplicity           Mult            ....    1
 Number of Electrons    NEL             ....  102
 Basis Dimension        Dim             ....  149

ORBITAL ENERGIES
----------------

  NO   OCC          E(Eh)            E(eV)
   0   2.0000     -19.145283      -520.9696
   1   2.0000     -19.141481      -520.8662
   2   2.0000     -19.140118      -520.8291
   3   2.0000     -19.133712      -520.6548
   4   2.0000     -10.271480      -279.5012
   5   2.0000     -10.246170      -278.8125
   6   2.0000     -10.237120      -278.5662
   7   2.0000     -10.234053      -278.4827
   8   2.0000     -10.230878      -278.3963
   9   2.0000     -10.220285      -278.1081
  10   2.0000     -10.192966      -277.3647
  11   2.0000     -10.179512      -276.9986
  12   2.0000     -10.178425      -276.9690
  13   2.0000      -1.049839       -28.5676
  14   2.0000      -1.038544       -28.2602
  15   2.0000      -1.009108       -27.4592
  16   2.0000      -0.988197       -26.8902
  17   2.0000      -0.789824       -21.4922
  18   2.0000      -0.780223       -21.2310
  19   2.0000      -0.766121       -20.8472
  20   2.0000      -0.731040       -19.8926
  21   2.0000      -0.673322       -18.3220
  22   2.0000      -0.608092       -16.5470
  23   2.0000      -0.607325       -16.5262
  24   2.0000      -0.592413       -16.1204
  25   2.0000      -0.566481       -15.4147
  26   2.0000      -0.530096       -14.4246
  27   2.0000      -0.511124       -13.9084
  28   2.0000      -0.493035       -13.4162
  29   2.0000      -0.484792       -13.1919
  30   2.0000      -0.474748       -12.9185
  31   2.0000      -0.457172       -12.4403
  32   2.0000      -0.450733       -12.2651
  33   2.0000      -0.437393       -11.9021
  34   2.0000      -0.427833       -11.6419
  35   2.0000      -0.405737       -11.0407
  36   2.0000      -0.398841       -10.8530
  37   2.0000      -0.395799       -10.7702
  38   2.0000      -0.378229       -10.2921
  39   2.0000      -0.367655       -10.0044
  40   2.0000      -0.361425        -9.8349
  41   2.0000      -0.350531        -9.5384
  42   2.0000      -0.342573        -9.3219
  43   2.0000      -0.334620        -9.1055
  44   2.0000      -0.323332        -8.7983
  45   2.0000      -0.310815        -8.4577
  46   2.0000      -0.295623        -8.0443
  47   2.0000      -0.276725        -7.5301
  48   2.0000      -0.267791        -7.2870
  49   2.0000      -0.246009        -6.6942
  50   2.0000      -0.243058        -6.6140
  51   0.0000       0.063650         1.7320
  52   0.0000       0.086816         2.3624
  53   0.0000       0.089780         2.4431
  54   0.0000       0.096120         2.6156
  55   0.0000       0.100937         2.7466

MULLIKEN ATOMIC CHARGES
-----------------------
   0 C :    0.275505
   1 C :   -0.257576
   2 C :   -0.297654
   3 C :   -0.001487
   4 O :   -0.517099
   5 H :    0.159697
   6 H :    0.143018
   7 H :    0.159261
   8 H :    0.138019
   9 H :    0.161040
  10 H :    0.143949
  11 H :    0.140658
  12 C :    0.022785
  13 H :    0.139665
  14 H :    0.146729
  15 O :   -0.519567
  16 C :    0.025561
  17 C :    0.077774
  18 C :   -0.294209
  19 C :   -0.029997
  20 O :   -0.522107
  21 H :    0.176630
  22 O :   -0.599291
  23 H :    0.155534
  24 H :    0.164228
  25 H :    0.144313
  26 H :    0.153020
  27 H :    0.146904
  28 H :    0.364700
Sum of atomic charges:   -0.0000000

LOEWDIN ATOMIC CHARGES
----------------------
   0 C :    0.169717
   1 C :   -0.212885
   2 C :   -0.216369
   3 C :   -0.027540
   4 O :   -0.335229
   5 H :    0.103134
   6 H :    0.112760
   7 H :    0.125529
   8 H :    0.111846
   9 H :    0.118544
  10 H :    0.103565
  11 H :    0.101482
  12 C :   -0.038907
  13 H :    0.102522
  14 H :    0.111663
  15 O :   -0.317606
  16 C :   -0.000644
  17 C :    0.038577
  18 C :   -0.240354
  19 C :   -0.037100
  20 O :   -0.331270
  21 H :    0.119427
  22 O :   -0.412409
  23 H :    0.117480
  24 H :    0.127419
  25 H :    0.113190
  26 H :    0.107448
  27 H :    0.102826
  28 H :    0.283182

  Mayer bond orders larger than 0.100000
B(  0-C ,  1-C ) :   0.9493 B(  0-C ,  4-O ) :   0.8968 B(  0-C ,  5-H ) :   0.9089
B(  0-C , 15-O ) :   0.8647 B(  1-C ,  2-C ) :   0.9564 B(  1-C ,  6-H ) :   0.9415
B(  1-C ,  7-H ) :   0.9361 B(  2-C ,  3-C ) :   0.9553 B(  2-C ,  8-H ) :   0.9456
B(  2-C ,  9-H ) :   0.9445 B(  3-C ,  4-O ) :   0.8396 B(  3-C , 10-H ) :   0.9362
B(  3-C , 11-H ) :   0.9405 B( 12-C , 13-H ) :   0.9109 B( 12-C , 14-H ) :   0.9383
B( 12-C , 15-O ) :   0.8522 B( 12-C , 16-C ) :   0.8880 B( 16-C , 17-C ) :   0.8952
B( 16-C , 20-O ) :   0.8496 B( 16-C , 21-H ) :   0.9159 B( 17-C , 18-C ) :   0.9130
B( 17-C , 22-O ) :   0.8951 B( 17-C , 23-H ) :   0.9323 B( 18-C , 19-C ) :   0.9384
B( 18-C , 24-H ) :   0.9373 B( 18-C , 25-H ) :   0.9344 B( 19-C , 20-O ) :   0.8465
B( 19-C , 26-H ) :   0.9340 B( 19-C , 27-H ) :   0.9379 B( 22-O , 28-H ) :   0.7942

FINAL SINGLE POINT ENERGY      -652.863839983627

DIPOLE MOMENT
-------------
                                X             Y             Z
Electronic contribution:      0.77353      -3.49993      -1.11375
Nuclear contribution   :     -1.30092       4.06912       0.96786
                        -----------------------------------------
Total Dipole Moment    :     -0.52739       0.56919      -0.14589
                        -----------------------------------------
Magnitude (a.u.)       :      0.78956
Magnitude (Debye)      :      2.00690

Rotational constants in cm-1:     0.065029     0.012298     0.011568
Rotational constants in MHz :  1949.508396   368.697946   346.791255

                             ****ORCA TERMINATED NORMALLY****
TOTAL RUN TIME: 0 days 0 hours 31 minutes 8 seconds 606 msec
