                         Program Version 4.2.0 -  RELEASE  -
|  1> # Test redundant internal optimization
|  2> #
|  3> ! RKS B3LYP  Opt TightSCF SmallPrint
|  4>
|  5> %basis
|  6>         Basis "6-31G"
|  7> end
|  8>
|  9> %geom
| 10> Constraints
| 11> { D 4  0  15  12  240.0   C } # D for Dihedral angle
| 12> { D 0  15  12  16  315.0   C } # D for Dihedral angle
| 13> { D 0  4  3  2   C } # D for Dihedral angle
| 14> { D 4  3  2  1   C } # D for Dihedral angle
| 15> { D 3  2  1  0   C } # D for Dihedral angle
| 16> { D 2  1  0  4   C } # D for Dihedral angle
| 17> { D 1  0  4  3   C } # D for Dihedral angle
| 18> { D 16  20  19  18   C } # D for Dihedral angle
| 19> { D 20  19  18  17   C } # D for Dihedral angle
| 20> { D 19  18  17  16   C } # D for Dihedral angle
| 21> { D 18  17  16  20   C } # D for Dihedral angle
| 22> { D 17  16  20  19   C } # D for Dihedral angle
| 23> { D 15  12  16  20   C } # D for Dihedral angle
| 24> end
| 25> end
| 26>
| 27>
| 28> #%pal
| 29> #nprocs 8
| 30> #end
| 31>
| 32> * xyz 0 1
| 33> C  -21.048   26.222   46.251
| 34> C  -20.361   27.558   45.944
| 35> C  -20.329   28.222   47.341
| 36> C  -20.110   27.022   48.296
| 37> O  -20.473   25.807   47.535
| 38> H  -20.833   25.428   45.533
| 39> H  -19.344   27.382   45.576
| 40> H  -20.898   28.157   45.201
| 41> H  -19.543   28.978   47.434
| 42> H  -21.289   28.710   47.548
| 43> H  -20.733   27.082   49.195
| 44> H  -19.064   26.913   48.597
| 45> C  -23.430   25.483   45.442
| 46> H  -23.431   24.460   45.839
| 47> H  -24.469   25.834   45.399
| 48> O  -22.586   26.394   46.375
| 49> C  -22.884   25.442   43.988
| 50> C  -23.803   24.629   43.071
| 51> C  -24.935   25.644   42.781
| 52> C  -24.186   26.999   42.731
| 53> O  -22.886   26.786   43.402
| 54> H  -21.846   25.101   44.005
| 55> H  -23.276   24.363   42.147
| 56> O  -24.322   23.321   43.730
| 57> H  -25.471   25.428   41.851
| 58> H  -25.666   25.636   43.598
| 59> H  -24.730   27.798   43.249
| 60> H  -23.973   27.321   41.708
| 61> H  -24.855   23.561   44.657
| 62> *
| 63>
| 64>                          ****END OF INPUT****
 Total Charge           Charge          ....    0
 Multiplicity           Mult            ....    1
 Number of Electrons    NEL             ....  102
FINAL SINGLE POINT ENERGY      -652.824739305802
FINAL SINGLE POINT ENERGY      -652.848261853610
FINAL SINGLE POINT ENERGY      -652.853308367899
FINAL SINGLE POINT ENERGY      -652.854146739970
FINAL SINGLE POINT ENERGY      -652.854312721791
FINAL SINGLE POINT ENERGY      -652.854339918737
FINAL SINGLE POINT ENERGY      -652.854344400014
                    ***********************HURRAY********************

CARTESIAN COORDINATES (ANGSTROEM)
---------------------------------
  C    -20.964833   26.202285   46.202337
  C    -20.358729   27.583139   45.956399
  C    -20.426360   28.214132   47.365314
  C    -20.167302   27.011808   48.299969
  O    -20.423837   25.799664   47.480766
  H    -20.676830   25.427360   45.490952
  H    -19.317838   27.471391   45.629082
  H    -20.915999   28.134526   45.197064
  H    -19.694877   29.015926   47.504715
  H    -21.426865   28.623141   47.535174
  H    -20.828385   26.994028   49.170288
  H    -19.127047   26.949453   48.634327
  C    -23.276407   25.529246   45.459448
  H    -23.339150   24.510348   45.872121
  H    -24.253757   26.009613   45.561737
  O    -22.404842   26.338083   46.295320
  C    -22.876425   25.422267   43.984055
  C    -23.877708   24.609556   43.143544
  C    -24.981346   25.672382   42.842863
  C    -24.164068   26.975022   42.694739
  O    -22.842279   26.727387   43.327496
  H    -21.869565   25.009846   43.889857
  H    -23.393983   24.296803   42.215717
  O    -24.349088   23.378875   43.737442
  H    -25.555845   25.425377   41.946422
  H    -25.679771   25.727646   43.688387
  H    -24.634919   27.833449   43.182660
  H    -23.972251   27.225452   41.647495
  H    -24.973694   23.562796   44.468312

 Multiplicity           Mult            ....    1
 Number of Electrons    NEL             ....  102
 Basis Dimension        Dim             ....  149

ORBITAL ENERGIES
----------------

  NO   OCC          E(Eh)            E(eV)
   0   2.0000     -19.154605      -521.2233
   1   2.0000     -19.145346      -520.9713
   2   2.0000     -19.134365      -520.6725
   3   2.0000     -19.129038      -520.5276
   4   2.0000     -10.270674      -279.4792
   5   2.0000     -10.251487      -278.9571
   6   2.0000     -10.237889      -278.5871
   7   2.0000     -10.236406      -278.5468
   8   2.0000     -10.232886      -278.4510
   9   2.0000     -10.215676      -277.9827
  10   2.0000     -10.200909      -277.5808
  11   2.0000     -10.175604      -276.8923
  12   2.0000     -10.172236      -276.8006
  13   2.0000      -1.045161       -28.4403
  14   2.0000      -1.037496       -28.2317
  15   2.0000      -1.021563       -27.7981
  16   2.0000      -0.985328       -26.8121
  17   2.0000      -0.788626       -21.4596
  18   2.0000      -0.777625       -21.1602
  19   2.0000      -0.767167       -20.8757
  20   2.0000      -0.729461       -19.8496
  21   2.0000      -0.680699       -18.5228
  22   2.0000      -0.617372       -16.7996
  23   2.0000      -0.605068       -16.4648
  24   2.0000      -0.588083       -16.0025
  25   2.0000      -0.562693       -15.3117
  26   2.0000      -0.536195       -14.5906
  27   2.0000      -0.514795       -14.0083
  28   2.0000      -0.494119       -13.4456
  29   2.0000      -0.483040       -13.1442
  30   2.0000      -0.467385       -12.7182
  31   2.0000      -0.452351       -12.3091
  32   2.0000      -0.443840       -12.0775
  33   2.0000      -0.434830       -11.8323
  34   2.0000      -0.431723       -11.7478
  35   2.0000      -0.423318       -11.5191
  36   2.0000      -0.408374       -11.1124
  37   2.0000      -0.392346       -10.6763
  38   2.0000      -0.384075       -10.4512
  39   2.0000      -0.366387        -9.9699
  40   2.0000      -0.357880        -9.7384
  41   2.0000      -0.347939        -9.4679
  42   2.0000      -0.342195        -9.3116
  43   2.0000      -0.335617        -9.1326
  44   2.0000      -0.321490        -8.7482
  45   2.0000      -0.307327        -8.3628
  46   2.0000      -0.299200        -8.1416
  47   2.0000      -0.277253        -7.5444
  48   2.0000      -0.263133        -7.1602
  49   2.0000      -0.245974        -6.6933
  50   2.0000      -0.234934        -6.3929
  51   0.0000       0.047770         1.2999
  52   0.0000       0.074269         2.0210
  53   0.0000       0.082872         2.2551
  54   0.0000       0.095260         2.5922
  55   0.0000       0.098984         2.6935

MULLIKEN ATOMIC CHARGES
-----------------------
   0 C :    0.282470
   1 C :   -0.252604
   2 C :   -0.300567
   3 C :   -0.000354
   4 O :   -0.509397
   5 H :    0.142015
   6 H :    0.136287
   7 H :    0.169212
   8 H :    0.136807
   9 H :    0.160659
  10 H :    0.147090
  11 H :    0.137126
  12 C :    0.002457
  13 H :    0.135415
  14 H :    0.140347
  15 O :   -0.519028
  16 C :    0.064006
  17 C :    0.084862
  18 C :   -0.323588
  19 C :   -0.008828
  20 O :   -0.513902
  21 H :    0.159899
  22 H :    0.169370
  23 O :   -0.595773
  24 H :    0.160303
  25 H :    0.137591
  26 H :    0.148240
  27 H :    0.151679
  28 H :    0.358205
Sum of atomic charges:   -0.0000000

LOEWDIN ATOMIC CHARGES
----------------------
   0 C :    0.176761
   1 C :   -0.219798
   2 C :   -0.217113
   3 C :   -0.027015
   4 O :   -0.320068
   5 H :    0.098050
   6 H :    0.109667
   7 H :    0.128998
   8 H :    0.111641
   9 H :    0.118402
  10 H :    0.105291
  11 H :    0.099857
  12 C :   -0.044536
  13 H :    0.098648
  14 H :    0.107897
  15 O :   -0.324983
  16 C :    0.003044
  17 C :    0.037068
  18 C :   -0.241283
  19 C :   -0.028340
  20 O :   -0.323121
  21 H :    0.112576
  22 H :    0.120073
  23 O :   -0.403822
  24 H :    0.124186
  25 H :    0.105884
  26 H :    0.105347
  27 H :    0.107342
  28 H :    0.279347

  Mayer bond orders larger than 0.100000
B(  0-C ,  1-C ) :   0.9433 B(  0-C ,  4-O ) :   0.9172 B(  0-C ,  5-H ) :   0.9157
B(  0-C , 15-O ) :   0.8393 B(  1-C ,  2-C ) :   0.9562 B(  1-C ,  6-H ) :   0.9382
B(  1-C ,  7-H ) :   0.9305 B(  2-C ,  3-C ) :   0.9542 B(  2-C ,  8-H ) :   0.9457
B(  2-C ,  9-H ) :   0.9441 B(  3-C ,  4-O ) :   0.8419 B(  3-C , 10-H ) :   0.9354
B(  3-C , 11-H ) :   0.9402 B( 12-C , 13-H ) :   0.9019 B( 12-C , 14-H ) :   0.9378
B( 12-C , 15-O ) :   0.8670 B( 12-C , 16-C ) :   0.8926 B( 16-C , 17-C ) :   0.8667
B( 16-C , 20-O ) :   0.8595 B( 16-C , 21-H ) :   0.9225 B( 17-C , 18-C ) :   0.9233
B( 17-C , 22-H ) :   0.9323 B( 17-C , 23-O ) :   0.9050 B( 18-C , 19-C ) :   0.9382
B( 18-C , 24-H ) :   0.9416 B( 18-C , 25-H ) :   0.9407 B( 19-C , 20-O ) :   0.8431
B( 19-C , 26-H ) :   0.9318 B( 19-C , 27-H ) :   0.9378 B( 23-O , 28-H ) :   0.7960

FINAL SINGLE POINT ENERGY      -652.854345359551

DIPOLE MOMENT
-------------
                                X             Y             Z
Electronic contribution:      0.22999      -3.80937       0.03365
Nuclear contribution   :     -1.03662       4.45803      -0.57579
                        -----------------------------------------
Total Dipole Moment    :     -0.80663       0.64866      -0.54214
                        -----------------------------------------
Magnitude (a.u.)       :      1.16847
Magnitude (Debye)      :      2.97002

Rotational constants in cm-1:     0.059331     0.012983     0.011541
Rotational constants in MHz :  1778.692054   389.231492   346.001448

                             ****ORCA TERMINATED NORMALLY****
TOTAL RUN TIME: 0 days 1 hours 1 minutes 5 seconds 271 msec
