                         Program Version 4.2.1 -  RELEASE  -
|  1> # Test redundant internal optimization
|  2> #
|  3> ! RKS B3LYP  Opt TightSCF SmallPrint
|  4>
|  5> %basis
|  6>         Basis "6-31G"
|  7> end
|  8>
|  9> %geom
| 10> Constraints
| 11> { D 4  0  19  14  240.0   C } # D for Dihedral angle
| 12> { D 0  19  14  12  105.0   C } # D for Dihedral angle
| 13> { D 0  4  3  2   C } # D for Dihedral angle
| 14> { D 4  3  2  1   C } # D for Dihedral angle
| 15> { D 3  2  1  0   C } # D for Dihedral angle
| 16> { D 2  1  0  4   C } # D for Dihedral angle
| 17> { D 1  0  4  3   C } # D for Dihedral angle
| 18> { D 14  15  16  17   C } # D for Dihedral angle
| 19> { D 15  16  17  12   C } # D for Dihedral angle
| 20> { D 16  17  12  14   C } # D for Dihedral angle
| 21> { D 17  12  14  15   C } # D for Dihedral angle
| 22> { D 12  14  15  16   C } # D for Dihedral angle
| 23> end
| 24> end
| 25>
| 26>
| 27> #%pal
| 28> #nprocs 8
| 29> #end
| 30>
| 31> * xyz 0 1
| 32> C  -21.048   26.222   46.251
| 33> C  -20.361   27.558   45.944
| 34> C  -20.329   28.222   47.341
| 35> C  -20.110   27.022   48.296
| 36> O  -20.473   25.807   47.535
| 37> H  -20.833   25.428   45.533
| 38> H  -19.344   27.382   45.576
| 39> H  -20.898   28.157   45.201
| 40> H  -19.543   28.978   47.434
| 41> H  -21.289   28.710   47.548
| 42> H  -20.733   27.082   49.195
| 43> H  -19.064   26.913   48.597
| 44> C  -23.860   24.383   46.298
| 45> H  -24.198   23.569   45.637
| 46> C  -23.235   25.530   45.496
| 47> C  -24.490   26.267   44.973
| 48> C  -25.501   26.111   46.136
| 49> O  -25.005   24.999   46.977
| 50> H  -23.214   23.968   47.074
| 51> O  -22.472   26.381   46.366
| 52> H  -22.579   25.183   44.690
| 53> H  -24.295   27.316   44.727
| 54> H  -24.866   25.776   44.066
| 55> H  -26.511   25.873   45.786
| 56> H  -25.547   27.000   46.772
| 57> *
| 58>
| 59>                          ****END OF INPUT****
 Total Charge           Charge          ....    0
 Multiplicity           Mult            ....    1
 Number of Electrons    NEL             ....   86
FINAL SINGLE POINT ENERGY      -538.429787514206
FINAL SINGLE POINT ENERGY      -538.432057414683
FINAL SINGLE POINT ENERGY      -538.432284241048
FINAL SINGLE POINT ENERGY      -538.432319039868
FINAL SINGLE POINT ENERGY      -538.432326553565
FINAL SINGLE POINT ENERGY      -538.432327802315
                    ***********************HURRAY********************

CARTESIAN COORDINATES (ANGSTROEM)
---------------------------------
  C    -20.975637   26.186454   46.228789
  C    -20.358868   27.555773   45.943599
  C    -20.413025   28.227856   47.337240
  C    -20.158734   27.045735   48.298897
  O    -20.431185   25.817560   47.511194
  H    -20.708654   25.392653   45.524282
  H    -19.320762   27.427309   45.613872
  H    -20.908766   28.105602   45.176599
  H    -19.673539   29.026099   47.450586
  H    -21.409288   28.648859   47.501815
  H    -20.815996   27.053483   49.171639
  H    -19.117283   26.982234   48.628506
  C    -23.889053   24.356869   46.277941
  H    -24.284925   23.568958   45.618743
  C    -23.236363   25.470899   45.459378
  C    -24.465310   26.276798   44.993682
  C    -25.436525   26.169467   46.193433
  O    -24.967309   25.025957   47.005161
  H    -23.215836   23.919760   47.017272
  O    -22.416617   26.328142   46.306036
  H    -22.639987   25.088682   44.620130
  H    -24.192045   27.307186   44.756268
  H    -24.890395   25.810975   44.097266
  H    -26.471444   25.989548   45.881882
  H    -25.400454   27.054142   46.834788

 Multiplicity           Mult            ....    1
 Number of Electrons    NEL             ....   86
 Basis Dimension        Dim             ....  127

ORBITAL ENERGIES
----------------

  NO   OCC          E(Eh)            E(eV)
   0   2.0000     -19.139334      -520.8077
   1   2.0000     -19.136579      -520.7328
   2   2.0000     -19.125009      -520.4179
   3   2.0000     -10.279701      -279.7249
   4   2.0000     -10.242127      -278.7024
   5   2.0000     -10.221785      -278.1489
   6   2.0000     -10.217909      -278.0434
   7   2.0000     -10.217338      -278.0279
   8   2.0000     -10.185293      -277.1559
   9   2.0000     -10.184254      -277.1276
  10   2.0000     -10.183541      -277.1083
  11   2.0000      -1.051398       -28.6100
  12   2.0000      -1.011850       -27.5338
  13   2.0000      -0.988867       -26.9084
  14   2.0000      -0.789711       -21.4891
  15   2.0000      -0.776336       -21.1252
  16   2.0000      -0.736830       -20.0502
  17   2.0000      -0.720296       -19.6003
  18   2.0000      -0.606846       -16.5131
  19   2.0000      -0.596966       -16.2443
  20   2.0000      -0.594362       -16.1734
  21   2.0000      -0.580176       -15.7874
  22   2.0000      -0.520848       -14.1730
  23   2.0000      -0.502338       -13.6693
  24   2.0000      -0.482075       -13.1179
  25   2.0000      -0.475045       -12.9266
  26   2.0000      -0.447408       -12.1746
  27   2.0000      -0.443321       -12.0634
  28   2.0000      -0.433326       -11.7914
  29   2.0000      -0.409857       -11.1528
  30   2.0000      -0.407752       -11.0955
  31   2.0000      -0.383727       -10.4417
  32   2.0000      -0.369401       -10.0519
  33   2.0000      -0.362725        -9.8702
  34   2.0000      -0.355006        -9.6602
  35   2.0000      -0.353073        -9.6076
  36   2.0000      -0.344937        -9.3862
  37   2.0000      -0.315640        -8.5890
  38   2.0000      -0.307725        -8.3736
  39   2.0000      -0.299625        -8.1532
  40   2.0000      -0.264176        -7.1886
  41   2.0000      -0.246751        -6.7144
  42   2.0000      -0.229039        -6.2325
  43   0.0000       0.074970         2.0400
  44   0.0000       0.095100         2.5878
  45   0.0000       0.097493         2.6529
  46   0.0000       0.114741         3.1223
  47   0.0000       0.125911         3.4262

MULLIKEN ATOMIC CHARGES
-----------------------
   0 C :    0.284448
   1 C :   -0.251625
   2 C :   -0.300077
   3 C :   -0.000087
   4 O :   -0.503495
   5 H :    0.136326
   6 H :    0.141441
   7 H :    0.143397
   8 H :    0.140212
   9 H :    0.163411
  10 H :    0.155260
  11 H :    0.139608
  12 C :    0.013741
  13 H :    0.117278
  14 C :    0.054316
  15 C :   -0.284232
  16 C :    0.003666
  17 O :   -0.518489
  18 H :    0.171118
  19 O :   -0.508590
  20 H :    0.123228
  21 H :    0.153617
  22 H :    0.138546
  23 H :    0.133752
  24 H :    0.153230
Sum of atomic charges:   -0.0000000

LOEWDIN ATOMIC CHARGES
----------------------
   0 C :    0.175638
   1 C :   -0.221182
   2 C :   -0.216508
   3 C :   -0.025834
   4 O :   -0.317341
   5 H :    0.096259
   6 H :    0.111688
   7 H :    0.116592
   8 H :    0.113328
   9 H :    0.119802
  10 H :    0.109811
  11 H :    0.101243
  12 C :   -0.042547
  13 H :    0.088263
  14 C :    0.038995
  15 C :   -0.226239
  16 C :   -0.027924
  17 O :   -0.328388
  18 H :    0.124236
  19 O :   -0.325067
  20 H :    0.095129
  21 H :    0.123362
  22 H :    0.111462
  23 H :    0.097280
  24 H :    0.107941

  Mayer bond orders larger than 0.100000
B(  0-C ,  1-C ) :   0.9418 B(  0-C ,  4-O ) :   0.9304 B(  0-C ,  5-H ) :   0.9177
B(  0-C , 19-O ) :   0.8473 B(  1-C ,  2-C ) :   0.9577 B(  1-C ,  6-H ) :   0.9367
B(  1-C ,  7-H ) :   0.9390 B(  2-C ,  3-C ) :   0.9544 B(  2-C ,  8-H ) :   0.9452
B(  2-C ,  9-H ) :   0.9435 B(  3-C ,  4-O ) :   0.8368 B(  3-C , 10-H ) :   0.9342
B(  3-C , 11-H ) :   0.9399 B( 12-C , 13-H ) :   0.9109 B( 12-C , 14-C ) :   0.9183
B( 12-C , 17-O ) :   0.8720 B( 12-C , 18-H ) :   0.9302 B( 14-C , 15-C ) :   0.9539
B( 14-C , 19-O ) :   0.8380 B( 14-C , 20-H ) :   0.9187 B( 15-C , 16-C ) :   0.9468
B( 15-C , 21-H ) :   0.9391 B( 15-C , 22-H ) :   0.9410 B( 16-C , 17-O ) :   0.8595
B( 16-C , 23-H ) :   0.9328 B( 16-C , 24-H ) :   0.9361

FINAL SINGLE POINT ENERGY      -538.432328024675

DIPOLE MOMENT
-------------
                                X             Y             Z
Electronic contribution:     -0.53733      -3.38197       1.91712
Nuclear contribution   :      1.01444       4.10014      -3.12861
                        -----------------------------------------
Total Dipole Moment    :      0.47711       0.71817      -1.21149
                        -----------------------------------------
Magnitude (a.u.)       :      1.48699
Magnitude (Debye)      :      3.77962

Rotational constants in cm-1:     0.077582     0.020341     0.019400
Rotational constants in MHz :  2325.848351   609.812735   581.599360

                             ****ORCA TERMINATED NORMALLY****
TOTAL RUN TIME: 0 days 0 hours 6 minutes 54 seconds 174 msec
