                         Program Version 4.2.1 -  RELEASE  -
|  1> # Test redundant internal optimization
|  2> #
|  3> ! RKS B3LYP  Opt TightSCF SmallPrint
|  4>
|  5> %basis
|  6>         Basis "6-31G"
|  7> end
|  8>
|  9> %geom
| 10> Constraints
| 11> { D 4  0  19  14  45.0   C } # D for Dihedral angle
| 12> { D 0  19  14  12  120.0   C } # D for Dihedral angle
| 13> { D 0  4  3  2   C } # D for Dihedral angle
| 14> { D 4  3  2  1   C } # D for Dihedral angle
| 15> { D 3  2  1  0   C } # D for Dihedral angle
| 16> { D 2  1  0  4   C } # D for Dihedral angle
| 17> { D 1  0  4  3   C } # D for Dihedral angle
| 18> { D 14  15  16  17   C } # D for Dihedral angle
| 19> { D 15  16  17  12   C } # D for Dihedral angle
| 20> { D 16  17  12  14   C } # D for Dihedral angle
| 21> { D 17  12  14  15   C } # D for Dihedral angle
| 22> { D 12  14  15  16   C } # D for Dihedral angle
| 23> end
| 24> end
| 25>
| 26>
| 27> #%pal
| 28> #nprocs 8
| 29> #end
| 30>
| 31> * xyz 0 1
| 32> C  -21.048   26.222   46.251
| 33> C  -20.361   27.558   45.944
| 34> C  -20.329   28.222   47.341
| 35> C  -20.110   27.022   48.296
| 36> O  -20.473   25.807   47.535
| 37> H  -20.833   25.428   45.533
| 38> H  -19.344   27.382   45.576
| 39> H  -20.898   28.157   45.201
| 40> H  -19.543   28.978   47.434
| 41> H  -21.289   28.710   47.548
| 42> H  -20.733   27.082   49.195
| 43> H  -19.064   26.913   48.597
| 44> C  -23.668   28.355   47.139
| 45> H  -23.751   29.059   47.982
| 46> C  -22.896   27.093   47.540
| 47> C  -23.976   26.293   48.304
| 48> C  -25.277   26.635   47.536
| 49> O  -24.995   27.859   46.755
| 50> H  -23.260   28.879   46.273
| 51> O  -22.472   26.381   46.366
| 52> H  -22.012   27.306   48.152
| 53> H  -23.774   25.217   48.324
| 54> H  -24.039   26.640   49.343
| 55> H  -26.124   26.823   48.205
| 56> H  -25.558   25.855   46.821
| 57> *
| 58>
| 59>                          ****END OF INPUT****
 Total Charge           Charge          ....    0
 Multiplicity           Mult            ....    1
 Number of Electrons    NEL             ....   86
FINAL SINGLE POINT ENERGY      -538.402067543041
FINAL SINGLE POINT ENERGY      -538.424720604778
FINAL SINGLE POINT ENERGY      -538.427026306989
FINAL SINGLE POINT ENERGY      -538.427339569177
FINAL SINGLE POINT ENERGY      -538.427370670616
FINAL SINGLE POINT ENERGY      -538.427379608147
                    ***********************HURRAY********************

CARTESIAN COORDINATES (ANGSTROEM)
---------------------------------
  C    -21.085727   26.304154   46.402110
  C    -20.299226   27.534488   45.928445
  C    -19.980032   28.251336   47.270992
  C    -19.764639   27.065572   48.245084
  O    -20.384206   25.882660   47.596313
  H    -21.025829   25.469524   45.701743
  H    -19.377631   27.197766   45.441567
  H    -20.867913   28.148461   45.226347
  H    -19.093852   28.889893   47.204782
  H    -20.818891   28.882344   47.581676
  H    -20.224557   27.217583   49.226843
  H    -18.705271   26.830621   48.384970
  C    -23.895750   28.377219   47.237289
  H    -24.129467   29.040431   48.084988
  C    -23.088523   27.166082   47.706087
  C    -24.191338   26.264639   48.296339
  C    -25.402610   26.531831   47.373343
  O    -25.113606   27.802415   46.667933
  H    -23.403602   28.948123   46.447727
  O    -22.510956   26.471662   46.556767
  H    -22.325500   27.409573   48.447717
  H    -23.874215   25.219681   48.300515
  H    -24.404690   26.571482   49.327420
  H    -26.341483   26.636298   47.927928
  H    -25.517489   25.762162   46.606074

 Multiplicity           Mult            ....    1
 Number of Electrons    NEL             ....   86
 Basis Dimension        Dim             ....  127

ORBITAL ENERGIES
----------------

  NO   OCC          E(Eh)            E(eV)
   0   2.0000     -19.147921      -521.0414
   1   2.0000     -19.139457      -520.8111
   2   2.0000     -19.125757      -520.4383
   3   2.0000     -10.279853      -279.7290
   4   2.0000     -10.240440      -278.6565
   5   2.0000     -10.235207      -278.5141
   6   2.0000     -10.221924      -278.1527
   7   2.0000     -10.216285      -277.9993
   8   2.0000     -10.196897      -277.4717
   9   2.0000     -10.189902      -277.2813
  10   2.0000     -10.181075      -277.0411
  11   2.0000      -1.054620       -28.6977
  12   2.0000      -1.013420       -27.5766
  13   2.0000      -0.990210       -26.9450
  14   2.0000      -0.792624       -21.5684
  15   2.0000      -0.783833       -21.3292
  16   2.0000      -0.740016       -20.1368
  17   2.0000      -0.723533       -19.6883
  18   2.0000      -0.619331       -16.8529
  19   2.0000      -0.606766       -16.5109
  20   2.0000      -0.595794       -16.2124
  21   2.0000      -0.567168       -15.4334
  22   2.0000      -0.524801       -14.2806
  23   2.0000      -0.504247       -13.7213
  24   2.0000      -0.487212       -13.2577
  25   2.0000      -0.481841       -13.1116
  26   2.0000      -0.453016       -12.3272
  27   2.0000      -0.442045       -12.0286
  28   2.0000      -0.429991       -11.7007
  29   2.0000      -0.418786       -11.3958
  30   2.0000      -0.412258       -11.2181
  31   2.0000      -0.386599       -10.5199
  32   2.0000      -0.371075       -10.0975
  33   2.0000      -0.367895       -10.0109
  34   2.0000      -0.363519        -9.8919
  35   2.0000      -0.360359        -9.8059
  36   2.0000      -0.343951        -9.3594
  37   2.0000      -0.322379        -8.7724
  38   2.0000      -0.310317        -8.4441
  39   2.0000      -0.298403        -8.1200
  40   2.0000      -0.265765        -7.2318
  41   2.0000      -0.252861        -6.8807
  42   2.0000      -0.229902        -6.2560
  43   0.0000       0.065570         1.7842
  44   0.0000       0.088826         2.4171
  45   0.0000       0.093943         2.5563
  46   0.0000       0.104682         2.8485
  47   0.0000       0.113449         3.0871

MULLIKEN ATOMIC CHARGES
-----------------------
   0 C :    0.295856
   1 C :   -0.265362
   2 C :   -0.317889
   3 C :   -0.018922
   4 O :   -0.507458
   5 H :    0.165343
   6 H :    0.151330
   7 H :    0.156196
   8 H :    0.149264
   9 H :    0.148382
  10 H :    0.143817
  11 H :    0.151046
  12 C :    0.010771
  13 H :    0.120151
  14 C :    0.051092
  15 C :   -0.283005
  16 C :    0.002763
  17 O :   -0.520308
  18 H :    0.152801
  19 O :   -0.516157
  20 H :    0.137160
  21 H :    0.167896
  22 H :    0.136610
  23 H :    0.131594
  24 H :    0.157029
Sum of atomic charges:   -0.0000000

LOEWDIN ATOMIC CHARGES
----------------------
   0 C :    0.178080
   1 C :   -0.227815
   2 C :   -0.224969
   3 C :   -0.036968
   4 O :   -0.321770
   5 H :    0.113061
   6 H :    0.118797
   7 H :    0.122152
   8 H :    0.118015
   9 H :    0.108763
  10 H :    0.099478
  11 H :    0.106701
  12 C :   -0.042465
  13 H :    0.089121
  14 C :    0.035336
  15 C :   -0.226219
  16 C :   -0.027550
  17 O :   -0.330016
  18 H :    0.113830
  19 O :   -0.317350
  20 H :    0.104189
  21 H :    0.130407
  22 H :    0.109978
  23 H :    0.096937
  24 H :    0.110276

  Mayer bond orders larger than 0.100000
B(  0-C ,  1-C ) :   0.9141 B(  0-C ,  4-O ) :   0.8990 B(  0-C ,  5-H ) :   0.9356
B(  0-C , 19-O ) :   0.8996 B(  1-C ,  2-C ) :   0.9544 B(  1-C ,  6-H ) :   0.9347
B(  1-C ,  7-H ) :   0.9361 B(  2-C ,  3-C ) :   0.9474 B(  2-C ,  8-H ) :   0.9447
B(  2-C ,  9-H ) :   0.9421 B(  3-C ,  4-O ) :   0.8421 B(  3-C , 10-H ) :   0.9293
B(  3-C , 11-H ) :   0.9382 B( 12-C , 13-H ) :   0.9113 B( 12-C , 14-C ) :   0.9236
B( 12-C , 17-O ) :   0.8757 B( 12-C , 18-H ) :   0.9329 B( 14-C , 15-C ) :   0.9486
B( 14-C , 19-O ) :   0.8185 B( 14-C , 20-H ) :   0.9109 B( 15-C , 16-C ) :   0.9483
B( 15-C , 21-H ) :   0.9375 B( 15-C , 22-H ) :   0.9403 B( 16-C , 17-O ) :   0.8524
B( 16-C , 23-H ) :   0.9340 B( 16-C , 24-H ) :   0.9358

FINAL SINGLE POINT ENERGY      -538.427379206271

DIPOLE MOMENT
-------------
                                X             Y             Z
Electronic contribution:     -1.63178      -2.62543      -2.09330
Nuclear contribution   :      2.55378       3.22334       2.82335
                        -----------------------------------------
Total Dipole Moment    :      0.92200       0.59791       0.73005
                        -----------------------------------------
Magnitude (a.u.)       :      1.31930
Magnitude (Debye)      :      3.35339

Rotational constants in cm-1:     0.078543     0.022266     0.021066
Rotational constants in MHz :  2354.666146   667.526086   631.529001

                             ****ORCA TERMINATED NORMALLY****
TOTAL RUN TIME: 0 days 0 hours 16 minutes 32 seconds 546 msec
