                         Program Version 4.2.0 -  RELEASE  -
|  1> # Test redundant internal optimization
|  2> #
|  3> ! RKS B3LYP  Opt TightSCF SmallPrint
|  4>
|  5> %basis
|  6>         Basis "6-31G"
|  7> end
|  8>
|  9> %geom
| 10> Constraints
| 11> { D 4  0  15  12  150.0   C } # D for Dihedral angle
| 12> { D 0  15  12  16  135.0   C } # D for Dihedral angle
| 13> { D 0  4  3  2   C } # D for Dihedral angle
| 14> { D 4  3  2  1   C } # D for Dihedral angle
| 15> { D 3  2  1  0   C } # D for Dihedral angle
| 16> { D 2  1  0  4   C } # D for Dihedral angle
| 17> { D 1  0  4  3   C } # D for Dihedral angle
| 18> { D 16  20  19  18   C } # D for Dihedral angle
| 19> { D 20  19  18  17   C } # D for Dihedral angle
| 20> { D 19  18  17  16   C } # D for Dihedral angle
| 21> { D 18  17  16  20   C } # D for Dihedral angle
| 22> { D 17  16  20  19   C } # D for Dihedral angle
| 23> { D 15  12  16  20   C } # D for Dihedral angle
| 24> end
| 25> end
| 26>
| 27>
| 28> #%pal
| 29> #nprocs 8
| 30> #end
| 31>
| 32> * xyz 0 1
| 33> C  -21.048   26.222   46.251
| 34> C  -20.361   27.558   45.944
| 35> C  -20.329   28.222   47.341
| 36> C  -20.110   27.022   48.296
| 37> O  -20.473   25.807   47.535
| 38> H  -20.833   25.428   45.533
| 39> H  -19.344   27.382   45.576
| 40> H  -20.898   28.157   45.201
| 41> H  -19.543   28.978   47.434
| 42> H  -21.289   28.710   47.548
| 43> H  -20.733   27.082   49.195
| 44> H  -19.064   26.913   48.597
| 45> C  -23.210   27.459   45.431
| 46> H  -23.455   28.357   46.011
| 47> H  -22.496   27.741   44.646
| 48> O  -22.586   26.394   46.375
| 49> C  -24.505   26.959   44.735
| 50> C  -24.259   25.650   43.975
| 51> C  -24.291   24.611   45.122
| 52> C  -25.359   25.185   46.087
| 53> O  -25.523   26.612   45.732
| 54> H  -24.917   27.764   44.125
| 55> O  -25.415   25.392   42.970
| 56> H  -23.314   25.643   43.423
| 57> H  -24.541   23.603   44.775
| 58> H  -23.312   24.563   45.614
| 59> H  -25.060   25.107   47.137
| 60> H  -26.335   24.708   45.960
| 61> H  -26.373   25.393   43.502
| 62> *
| 63>
| 64>                          ****END OF INPUT****
 Total Charge           Charge          ....    0
 Multiplicity           Mult            ....    1
 Number of Electrons    NEL             ....  102
FINAL SINGLE POINT ENERGY      -652.825771263355
FINAL SINGLE POINT ENERGY      -652.848911118908
FINAL SINGLE POINT ENERGY      -652.853429198998
FINAL SINGLE POINT ENERGY      -652.855103495113
FINAL SINGLE POINT ENERGY      -652.855266872003
FINAL SINGLE POINT ENERGY      -652.855292902641
FINAL SINGLE POINT ENERGY      -652.855293908448
                    ***********************HURRAY********************

CARTESIAN COORDINATES (ANGSTROEM)
---------------------------------
  C    -21.080598   26.289311   46.237154
  C    -20.251451   27.538406   45.937970
  C    -20.270704   28.275021   47.303216
  C    -20.244437   27.109562   48.314521
  O    -20.661094   25.905131   47.553499
  H    -20.889012   25.435532   45.581432
  H    -19.233336   27.220013   45.686190
  H    -20.620210   28.151495   45.113086
  H    -19.419220   28.951496   47.422576
  H    -21.189984   28.860649   47.405326
  H    -20.933515   27.249386   49.150867
  H    -19.241621   26.903908   48.699616
  C    -23.193360   27.476768   45.436491
  H    -23.457229   28.356876   46.035147
  H    -22.548859   27.800084   44.608622
  O    -22.526110   26.514742   46.302193
  C    -24.475759   26.895210   44.839681
  C    -24.330330   25.636004   43.972758
  C    -24.325176   24.512051   45.044397
  C    -25.304459   25.051222   46.116259
  O    -25.434433   26.508201   45.872159
  H    -24.950431   27.694800   44.256441
  O    -25.452216   25.517732   43.053318
  H    -23.442757   25.636132   43.338630
  H    -24.650214   23.563111   44.608942
  H    -23.325333   24.400555   45.464488
  H    -24.929400   24.900560   47.131125
  H    -26.308260   24.620970   46.032775
  H    -26.286492   25.647074   43.552123

 Multiplicity           Mult            ....    1
 Number of Electrons    NEL             ....  102
 Basis Dimension        Dim             ....  149

ORBITAL ENERGIES
----------------

  NO   OCC          E(Eh)            E(eV)
   0   2.0000     -19.144244      -520.9414
   1   2.0000     -19.143678      -520.9260
   2   2.0000     -19.134575      -520.6783
   3   2.0000     -19.134284      -520.6703
   4   2.0000     -10.287345      -279.9329
   5   2.0000     -10.236257      -278.5427
   6   2.0000     -10.236019      -278.5362
   7   2.0000     -10.232302      -278.4351
   8   2.0000     -10.229726      -278.3650
   9   2.0000     -10.218538      -278.0606
  10   2.0000     -10.197333      -277.4835
  11   2.0000     -10.195141      -277.4239
  12   2.0000     -10.174382      -276.8590
  13   2.0000      -1.056543       -28.7500
  14   2.0000      -1.031050       -28.0563
  15   2.0000      -1.002661       -27.2838
  16   2.0000      -0.992868       -27.0173
  17   2.0000      -0.794001       -21.6059
  18   2.0000      -0.777244       -21.1499
  19   2.0000      -0.763496       -20.7758
  20   2.0000      -0.736788       -20.0490
  21   2.0000      -0.678301       -18.4575
  22   2.0000      -0.609039       -16.5728
  23   2.0000      -0.600472       -16.3397
  24   2.0000      -0.595210       -16.1965
  25   2.0000      -0.569496       -15.4968
  26   2.0000      -0.526245       -14.3199
  27   2.0000      -0.509330       -13.8596
  28   2.0000      -0.507439       -13.8081
  29   2.0000      -0.486925       -13.2499
  30   2.0000      -0.474162       -12.9026
  31   2.0000      -0.458583       -12.4787
  32   2.0000      -0.449483       -12.2311
  33   2.0000      -0.432343       -11.7646
  34   2.0000      -0.429445       -11.6858
  35   2.0000      -0.416516       -11.3340
  36   2.0000      -0.404337       -11.0026
  37   2.0000      -0.386398       -10.5144
  38   2.0000      -0.383989       -10.4489
  39   2.0000      -0.364583        -9.9208
  40   2.0000      -0.362700        -9.8696
  41   2.0000      -0.359895        -9.7932
  42   2.0000      -0.354133        -9.6364
  43   2.0000      -0.326516        -8.8849
  44   2.0000      -0.317735        -8.6460
  45   2.0000      -0.301686        -8.2093
  46   2.0000      -0.300396        -8.1742
  47   2.0000      -0.268956        -7.3187
  48   2.0000      -0.263154        -7.1608
  49   2.0000      -0.259652        -7.0655
  50   2.0000      -0.235828        -6.4172
  51   0.0000       0.067303         1.8314
  52   0.0000       0.076882         2.0921
  53   0.0000       0.093796         2.5523
  54   0.0000       0.098970         2.6931
  55   0.0000       0.105105         2.8600

MULLIKEN ATOMIC CHARGES
-----------------------
   0 C :    0.313354
   1 C :   -0.296214
   2 C :   -0.301324
   3 C :   -0.000443
   4 O :   -0.496325
   5 H :    0.146349
   6 H :    0.155204
   7 H :    0.146019
   8 H :    0.146651
   9 H :    0.158013
  10 H :    0.156444
  11 H :    0.144550
  12 C :    0.001149
  13 H :    0.150398
  14 H :    0.120578
  15 O :   -0.528230
  16 C :    0.073374
  17 C :    0.075103
  18 C :   -0.279751
  19 C :   -0.018686
  20 O :   -0.526153
  21 H :    0.149650
  22 O :   -0.605593
  23 H :    0.141036
  24 H :    0.145375
  25 H :    0.170687
  26 H :    0.160908
  27 H :    0.133559
  28 H :    0.364318
Sum of atomic charges:   -0.0000000

LOEWDIN ATOMIC CHARGES
----------------------
   0 C :    0.183035
   1 C :   -0.233621
   2 C :   -0.216577
   3 C :   -0.025885
   4 O :   -0.304524
   5 H :    0.098465
   6 H :    0.120886
   7 H :    0.114322
   8 H :    0.116654
   9 H :    0.115081
  10 H :    0.110667
  11 H :    0.104118
  12 C :   -0.038389
  13 H :    0.107732
  14 H :    0.094337
  15 O :   -0.338316
  16 C :    0.011160
  17 C :    0.038100
  18 C :   -0.237917
  19 C :   -0.031706
  20 O :   -0.329745
  21 H :    0.112979
  22 O :   -0.417995
  23 H :    0.110670
  24 H :    0.117141
  25 H :    0.127817
  26 H :    0.113528
  27 H :    0.095137
  28 H :    0.282847

  Mayer bond orders larger than 0.100000
B(  0-C ,  1-C ) :   0.9350 B(  0-C ,  4-O ) :   0.9375 B(  0-C ,  5-H ) :   0.9225
B(  0-C , 15-O ) :   0.8340 B(  1-C ,  2-C ) :   0.9482 B(  1-C ,  6-H ) :   0.9333
B(  1-C ,  7-H ) :   0.9270 B(  2-C ,  3-C ) :   0.9544 B(  2-C ,  8-H ) :   0.9450
B(  2-C ,  9-H ) :   0.9448 B(  3-C ,  4-O ) :   0.8347 B(  3-C , 10-H ) :   0.9340
B(  3-C , 11-H ) :   0.9396 B( 12-C , 13-H ) :   0.9219 B( 12-C , 14-H ) :   0.9045
B( 12-C , 15-O ) :   0.8513 B( 12-C , 16-C ) :   0.8960 B( 16-C , 17-C ) :   0.9071
B( 16-C , 20-O ) :   0.8765 B( 16-C , 21-H ) :   0.9206 B( 17-C , 18-C ) :   0.9236
B( 17-C , 22-O ) :   0.8901 B( 17-C , 23-H ) :   0.9375 B( 18-C , 19-C ) :   0.9451
B( 18-C , 24-H ) :   0.9377 B( 18-C , 25-H ) :   0.9209 B( 19-C , 20-O ) :   0.8369
B( 19-C , 26-H ) :   0.9330 B( 19-C , 27-H ) :   0.9375 B( 22-O , 28-H ) :   0.7949

FINAL SINGLE POINT ENERGY      -652.855280422961

DIPOLE MOMENT
-------------
                                X             Y             Z
Electronic contribution:     -3.85646      -2.09510      -0.70271
Nuclear contribution   :      4.87435       2.88933       0.67020
                        -----------------------------------------
Total Dipole Moment    :      1.01789       0.79423      -0.03251
                        -----------------------------------------
Magnitude (a.u.)       :      1.29149
Magnitude (Debye)      :      3.28272

Rotational constants in cm-1:     0.059876     0.013422     0.012949
Rotational constants in MHz :  1795.028540   402.384428   388.210928

                             ****ORCA TERMINATED NORMALLY****
TOTAL RUN TIME: 0 days 0 hours 26 minutes 0 seconds 743 msec
