                         Program Version 4.2.0 -  RELEASE  -
|  1> # Test redundant internal optimization
|  2> #
|  3> ! RKS B3LYP  Opt TightSCF SmallPrint
|  4>
|  5> %basis
|  6>         Basis "6-31G"
|  7> end
|  8>
|  9> %geom
| 10> Constraints
| 11> { D 4  0  15  12  345.0   C } # D for Dihedral angle
| 12> { D 0  15  12  16  150.0   C } # D for Dihedral angle
| 13> { D 0  4  3  2   C } # D for Dihedral angle
| 14> { D 4  3  2  1   C } # D for Dihedral angle
| 15> { D 3  2  1  0   C } # D for Dihedral angle
| 16> { D 2  1  0  4   C } # D for Dihedral angle
| 17> { D 1  0  4  3   C } # D for Dihedral angle
| 18> { D 16  20  19  18   C } # D for Dihedral angle
| 19> { D 20  19  18  17   C } # D for Dihedral angle
| 20> { D 19  18  17  16   C } # D for Dihedral angle
| 21> { D 18  17  16  20   C } # D for Dihedral angle
| 22> { D 17  16  20  19   C } # D for Dihedral angle
| 23> { D 15  12  16  20   C } # D for Dihedral angle
| 24> end
| 25> end
| 26>
| 27>
| 28> #%pal
| 29> #nprocs 8
| 30> #end
| 31>
| 32> * xyz 0 1
| 33> C  -21.048   26.222   46.251
| 34> C  -20.361   27.558   45.944
| 35> C  -20.329   28.222   47.341
| 36> C  -20.110   27.022   48.296
| 37> O  -20.473   25.807   47.535
| 38> H  -20.833   25.428   45.533
| 39> H  -19.344   27.382   45.576
| 40> H  -20.898   28.157   45.201
| 41> H  -19.543   28.978   47.434
| 42> H  -21.289   28.710   47.548
| 43> H  -20.733   27.082   49.195
| 44> H  -19.064   26.913   48.597
| 45> C  -23.221   25.764   47.645
| 46> H  -23.501   24.725   47.432
| 47> H  -22.501   25.762   48.474
| 48> O  -22.586   26.394   46.375
| 49> C  -24.489   26.524   48.123
| 50> C  -25.616   26.432   47.088
| 51> C  -26.175   25.015   47.359
| 52> C  -26.022   24.865   48.894
| 53> O  -25.046   25.889   49.322
| 54> H  -24.212   27.543   48.400
| 55> O  -26.694   27.512   47.377
| 56> H  -25.267   26.561   46.058
| 57> H  -27.212   24.897   47.030
| 58> H  -25.570   24.265   46.835
| 59> H  -25.654   23.875   49.184
| 60> H  -26.955   25.065   49.428
| 61> H  -27.060   27.401   48.405
| 62> *
| 63>
| 64>                          ****END OF INPUT****
 Total Charge           Charge          ....    0
 Multiplicity           Mult            ....    1
 Number of Electrons    NEL             ....  102
FINAL SINGLE POINT ENERGY      -652.837328585556
FINAL SINGLE POINT ENERGY      -652.860166103903
FINAL SINGLE POINT ENERGY      -652.864023934039
FINAL SINGLE POINT ENERGY      -652.864617557649
FINAL SINGLE POINT ENERGY      -652.864697766141
FINAL SINGLE POINT ENERGY      -652.864710653274
                    ***********************HURRAY********************

CARTESIAN COORDINATES (ANGSTROEM)
---------------------------------
  C    -21.129870   26.195256   46.342427
  C    -20.620204   27.593234   45.993562
  C    -20.469261   28.232017   47.392724
  C    -20.016113   27.049940   48.276070
  O    -20.369896   25.818172   47.509626
  H    -20.931502   25.424760   45.592172
  H    -19.651030   27.508219   45.488724
  H    -21.314463   28.133481   45.346358
  H    -19.748984   29.055735   47.403132
  H    -21.435736   28.620896   47.727487
  H    -20.516304   27.015506   49.247577
  H    -18.933390   27.017227   48.426293
  C    -23.145348   25.633937   47.746707
  H    -23.391898   24.582512   47.543281
  H    -22.442436   25.652500   48.582704
  O    -22.571157   26.251397   46.558302
  C    -24.395083   26.436051   48.100051
  C    -25.504071   26.417890   47.038368
  C    -26.179409   25.051023   47.315687
  C    -26.074358   24.909553   48.854999
  O    -25.025838   25.864273   49.295679
  H    -24.112064   27.464222   48.344071
  O    -26.427443   27.525348   47.236649
  H    -25.122844   26.525920   46.024701
  H    -27.211608   25.049507   46.957482
  H    -25.636907   24.248977   46.804082
  H    -25.792239   23.900947   49.172320
  H    -27.000235   25.189795   49.367198
  H    -26.636306   27.601705   48.191564

 Multiplicity           Mult            ....    1
 Number of Electrons    NEL             ....  102
 Basis Dimension        Dim             ....  149

ORBITAL ENERGIES
----------------

  NO   OCC          E(Eh)            E(eV)
   0   2.0000     -19.152116      -521.1556
   1   2.0000     -19.142581      -520.8961
   2   2.0000     -19.141652      -520.8708
   3   2.0000     -19.132407      -520.6193
   4   2.0000     -10.281552      -279.7752
   5   2.0000     -10.233296      -278.4621
   6   2.0000     -10.232284      -278.4346
   7   2.0000     -10.229759      -278.3659
   8   2.0000     -10.229411      -278.3564
   9   2.0000     -10.225558      -278.2516
  10   2.0000     -10.191092      -277.3137
  11   2.0000     -10.187463      -277.2150
  12   2.0000     -10.184665      -277.1388
  13   2.0000      -1.056858       -28.7586
  14   2.0000      -1.033348       -28.1188
  15   2.0000      -1.001557       -27.2538
  16   2.0000      -0.994358       -27.0579
  17   2.0000      -0.793319       -21.5873
  18   2.0000      -0.777430       -21.1549
  19   2.0000      -0.766930       -20.8692
  20   2.0000      -0.732360       -19.9285
  21   2.0000      -0.671501       -18.2725
  22   2.0000      -0.604692       -16.4545
  23   2.0000      -0.601325       -16.3629
  24   2.0000      -0.591728       -16.1017
  25   2.0000      -0.576082       -15.6760
  26   2.0000      -0.523853       -14.2548
  27   2.0000      -0.511686       -13.9237
  28   2.0000      -0.499614       -13.5952
  29   2.0000      -0.492055       -13.3895
  30   2.0000      -0.473518       -12.8851
  31   2.0000      -0.455464       -12.3938
  32   2.0000      -0.448905       -12.2153
  33   2.0000      -0.436009       -11.8644
  34   2.0000      -0.421274       -11.4634
  35   2.0000      -0.415130       -11.2963
  36   2.0000      -0.399756       -10.8779
  37   2.0000      -0.389338       -10.5944
  38   2.0000      -0.376139       -10.2352
  39   2.0000      -0.364778        -9.9261
  40   2.0000      -0.361924        -9.8485
  41   2.0000      -0.354229        -9.6391
  42   2.0000      -0.352099        -9.5811
  43   2.0000      -0.342599        -9.3226
  44   2.0000      -0.323391        -8.7999
  45   2.0000      -0.309467        -8.4210
  46   2.0000      -0.298799        -8.1307
  47   2.0000      -0.271028        -7.3751
  48   2.0000      -0.265527        -7.2253
  49   2.0000      -0.254972        -6.9382
  50   2.0000      -0.242883        -6.6092
  51   0.0000       0.067121         1.8264
  52   0.0000       0.069922         1.9027
  53   0.0000       0.094145         2.5618
  54   0.0000       0.098077         2.6688
  55   0.0000       0.102256         2.7825

MULLIKEN ATOMIC CHARGES
-----------------------
   0 C :    0.307395
   1 C :   -0.260011
   2 C :   -0.304841
   3 C :   -0.021556
   4 O :   -0.512092
   5 H :    0.152481
   6 H :    0.145663
   7 H :    0.163039
   8 H :    0.147805
   9 H :    0.158512
  10 H :    0.149796
  11 H :    0.153156
  12 C :   -0.008426
  13 H :    0.129923
  14 H :    0.168717
  15 O :   -0.548711
  16 C :    0.060594
  17 C :    0.092401
  18 C :   -0.298292
  19 C :   -0.029364
  20 O :   -0.529001
  21 H :    0.154509
  22 O :   -0.605032
  23 H :    0.175157
  24 H :    0.158640
  25 H :    0.148499
  26 H :    0.145222
  27 H :    0.144952
  28 H :    0.360865
Sum of atomic charges:   -0.0000000

LOEWDIN ATOMIC CHARGES
----------------------
   0 C :    0.183563
   1 C :   -0.218123
   2 C :   -0.218243
   3 C :   -0.032480
   4 O :   -0.319237
   5 H :    0.101191
   6 H :    0.114292
   7 H :    0.126995
   8 H :    0.117626
   9 H :    0.115996
  10 H :    0.104888
  11 H :    0.108061
  12 C :   -0.038731
  13 H :    0.093545
  14 H :    0.115757
  15 O :   -0.346993
  16 C :    0.015715
  17 C :    0.038130
  18 C :   -0.241088
  19 C :   -0.037920
  20 O :   -0.332513
  21 H :    0.112191
  22 O :   -0.416380
  23 H :    0.127496
  24 H :    0.125435
  25 H :    0.115240
  26 H :    0.103627
  27 H :    0.101594
  28 H :    0.280365

  Mayer bond orders larger than 0.100000
B(  0-C ,  1-C ) :   0.9384 B(  0-C ,  4-O ) :   0.9132 B(  0-C ,  5-H ) :   0.9266
B(  0-C , 15-O ) :   0.8323 B(  1-C ,  2-C ) :   0.9536 B(  1-C ,  6-H ) :   0.9361
B(  1-C ,  7-H ) :   0.9353 B(  2-C ,  3-C ) :   0.9540 B(  2-C ,  8-H ) :   0.9443
B(  2-C ,  9-H ) :   0.9436 B(  3-C ,  4-O ) :   0.8275 B(  3-C , 10-H ) :   0.9322
B(  3-C , 11-H ) :   0.9403 B( 12-C , 13-H ) :   0.9256 B( 12-C , 14-H ) :   0.9087
B( 12-C , 15-O ) :   0.8159 B( 12-C , 16-C ) :   0.8991 B( 16-C , 17-C ) :   0.9130
B( 16-C , 20-O ) :   0.8437 B( 16-C , 21-H ) :   0.9257 B( 17-C , 18-C ) :   0.9130
B( 17-C , 22-O ) :   0.8876 B( 17-C , 23-H ) :   0.9247 B( 18-C , 19-C ) :   0.9394
B( 18-C , 24-H ) :   0.9388 B( 18-C , 25-H ) :   0.9343 B( 19-C , 20-O ) :   0.8435
B( 19-C , 26-H ) :   0.9360 B( 19-C , 27-H ) :   0.9382 B( 22-O , 28-H ) :   0.7968

FINAL SINGLE POINT ENERGY      -652.864712377856

DIPOLE MOMENT
-------------
                                X             Y             Z
Electronic contribution:     -1.47413      -0.80220       0.20616
Nuclear contribution   :      1.93458       0.76382      -0.14955
                        -----------------------------------------
Total Dipole Moment    :      0.46045      -0.03838       0.05660
                        -----------------------------------------
Magnitude (a.u.)       :      0.46551
Magnitude (Debye)      :      1.18322

Rotational constants in cm-1:     0.055476     0.013116     0.012477
Rotational constants in MHz :  1663.125970   393.196241   374.047456

                             ****ORCA TERMINATED NORMALLY****
TOTAL RUN TIME: 0 days 0 hours 25 minutes 4 seconds 699 msec
