                         Program Version 4.2.1 -  RELEASE  -
|  1> # Test redundant internal optimization
|  2> #
|  3> ! RKS B3LYP  Opt TightSCF SmallPrint
|  4>
|  5> %basis
|  6>         Basis "6-31G"
|  7> end
|  8>
|  9> %geom
| 10> Constraints
| 11> { D 4  0  19  14  255.0   C } # D for Dihedral angle
| 12> { D 0  19  14  12  60.0   C } # D for Dihedral angle
| 13> { D 0  4  3  2   C } # D for Dihedral angle
| 14> { D 4  3  2  1   C } # D for Dihedral angle
| 15> { D 3  2  1  0   C } # D for Dihedral angle
| 16> { D 2  1  0  4   C } # D for Dihedral angle
| 17> { D 1  0  4  3   C } # D for Dihedral angle
| 18> { D 14  15  16  17   C } # D for Dihedral angle
| 19> { D 15  16  17  12   C } # D for Dihedral angle
| 20> { D 16  17  12  14   C } # D for Dihedral angle
| 21> { D 17  12  14  15   C } # D for Dihedral angle
| 22> { D 12  14  15  16   C } # D for Dihedral angle
| 23> end
| 24> end
| 25>
| 26>
| 27> #%pal
| 28> #nprocs 8
| 29> #end
| 30>
| 31> * xyz 0 1
| 32> C  -21.048   26.222   46.251
| 33> C  -20.361   27.558   45.944
| 34> C  -20.329   28.222   47.341
| 35> C  -20.110   27.022   48.296
| 36> O  -20.473   25.807   47.535
| 37> H  -20.833   25.428   45.533
| 38> H  -19.344   27.382   45.576
| 39> H  -20.898   28.157   45.201
| 40> H  -19.543   28.978   47.434
| 41> H  -21.289   28.710   47.548
| 42> H  -20.733   27.082   49.195
| 43> H  -19.064   26.913   48.597
| 44> C  -22.889   23.984   46.429
| 45> H  -23.227   23.134   45.815
| 46> C  -23.236   25.322   45.767
| 47> C  -24.736   25.466   46.117
| 48> C  -24.830   24.836   47.529
| 49> O  -23.613   24.013   47.705
| 50> H  -21.831   23.857   46.665
| 51> O  -22.472   26.381   46.366
| 52> H  -23.049   25.329   44.688
| 53> H  -25.079   26.505   46.099
| 54> H  -25.346   24.900   45.401
| 55> H  -25.714   24.199   47.648
| 56> H  -24.827   25.589   48.323
| 57> *
| 58>
| 59>                          ****END OF INPUT****
 Total Charge           Charge          ....    0
 Multiplicity           Mult            ....    1
 Number of Electrons    NEL             ....   86
FINAL SINGLE POINT ENERGY      -538.430089530561
FINAL SINGLE POINT ENERGY      -538.433316801112
FINAL SINGLE POINT ENERGY      -538.433625022160
FINAL SINGLE POINT ENERGY      -538.433665965399
FINAL SINGLE POINT ENERGY      -538.433676156717
                    ***********************HURRAY********************

CARTESIAN COORDINATES (ANGSTROEM)
---------------------------------
  C    -20.958603   26.187303   46.245470
  C    -20.378298   27.571694   45.954754
  C    -20.422991   28.237354   47.351873
  C    -20.124529   27.057114   48.304366
  O    -20.382393   25.826174   47.517967
  H    -20.681800   25.404533   45.533899
  H    -19.343841   27.467562   45.606293
  H    -20.955970   28.109783   45.200380
  H    -19.699100   29.051176   47.455327
  H    -21.424984   28.636196   47.535265
  H    -20.764715   27.047275   49.189649
  H    -19.076018   27.016658   48.614775
  C    -22.961923   23.884723   46.389647
  H    -23.392769   23.095326   45.754562
  C    -23.205985   25.252502   45.755290
  C    -24.670197   25.521335   46.148603
  C    -24.785455   24.884176   47.554854
  O    -23.642329   23.956351   47.683789
  H    -21.914749   23.657827   46.595942
  O    -22.397775   26.323673   46.327867
  H    -23.059788   25.234428   44.665528
  H    -24.883580   26.592936   46.144473
  H    -25.336123   25.028041   45.431911
  H    -25.720027   24.327510   47.686678
  H    -24.690058   25.624351   48.353839

 Multiplicity           Mult            ....    1
 Number of Electrons    NEL             ....   86
 Basis Dimension        Dim             ....  127

ORBITAL ENERGIES
----------------

  NO   OCC          E(Eh)            E(eV)
   0   2.0000     -19.140392      -520.8365
   1   2.0000     -19.134373      -520.6728
   2   2.0000     -19.123756      -520.3839
   3   2.0000     -10.276970      -279.6506
   4   2.0000     -10.240132      -278.6482
   5   2.0000     -10.220323      -278.1091
   6   2.0000     -10.218860      -278.0693
   7   2.0000     -10.216835      -278.0142
   8   2.0000     -10.184596      -277.1369
   9   2.0000     -10.182631      -277.0835
  10   2.0000     -10.182136      -277.0700
  11   2.0000      -1.050683       -28.5905
  12   2.0000      -1.010357       -27.4932
  13   2.0000      -0.988041       -26.8860
  14   2.0000      -0.789628       -21.4869
  15   2.0000      -0.774335       -21.0707
  16   2.0000      -0.734185       -19.9782
  17   2.0000      -0.721479       -19.6325
  18   2.0000      -0.611214       -16.6320
  19   2.0000      -0.595270       -16.1981
  20   2.0000      -0.591954       -16.1079
  21   2.0000      -0.571742       -15.5579
  22   2.0000      -0.522292       -14.2123
  23   2.0000      -0.499018       -13.5790
  24   2.0000      -0.483498       -13.1567
  25   2.0000      -0.473689       -12.8897
  26   2.0000      -0.447680       -12.1820
  27   2.0000      -0.437737       -11.9114
  28   2.0000      -0.436478       -11.8772
  29   2.0000      -0.409945       -11.1552
  30   2.0000      -0.402756       -10.9595
  31   2.0000      -0.379882       -10.3371
  32   2.0000      -0.365779        -9.9533
  33   2.0000      -0.364105        -9.9078
  34   2.0000      -0.355045        -9.6613
  35   2.0000      -0.352929        -9.6037
  36   2.0000      -0.342685        -9.3249
  37   2.0000      -0.319743        -8.7006
  38   2.0000      -0.302065        -8.2196
  39   2.0000      -0.298426        -8.1206
  40   2.0000      -0.263266        -7.1638
  41   2.0000      -0.245273        -6.6742
  42   2.0000      -0.230287        -6.2664
  43   0.0000       0.081821         2.2265
  44   0.0000       0.096932         2.6377
  45   0.0000       0.103544         2.8176
  46   0.0000       0.117885         3.2078
  47   0.0000       0.123903         3.3716

MULLIKEN ATOMIC CHARGES
-----------------------
   0 C :    0.284749
   1 C :   -0.253660
   2 C :   -0.300014
   3 C :    0.001330
   4 O :   -0.504237
   5 H :    0.137229
   6 H :    0.141743
   7 H :    0.147806
   8 H :    0.139397
   9 H :    0.161850
  10 H :    0.153646
  11 H :    0.139722
  12 C :   -0.008842
  13 H :    0.120363
  14 C :    0.065885
  15 C :   -0.295866
  16 C :    0.006582
  17 O :   -0.514460
  18 H :    0.177076
  19 O :   -0.514904
  20 H :    0.126888
  21 H :    0.161863
  22 H :    0.141766
  23 H :    0.130483
  24 H :    0.153606
Sum of atomic charges:   -0.0000000

LOEWDIN ATOMIC CHARGES
----------------------
   0 C :    0.171772
   1 C :   -0.217024
   2 C :   -0.216274
   3 C :   -0.025500
   4 O :   -0.319677
   5 H :    0.096263
   6 H :    0.111732
   7 H :    0.119247
   8 H :    0.112775
   9 H :    0.118926
  10 H :    0.109033
  11 H :    0.101331
  12 C :   -0.050024
  13 H :    0.090623
  14 C :    0.036858
  15 C :   -0.223909
  16 C :   -0.027144
  17 O :   -0.325435
  18 H :    0.124664
  19 O :   -0.325705
  20 H :    0.093144
  21 H :    0.127517
  22 H :    0.112638
  23 H :    0.096111
  24 H :    0.108060

  Mayer bond orders larger than 0.100000
B(  0-C ,  1-C ) :   0.9476 B(  0-C ,  4-O ) :   0.9159 B(  0-C ,  5-H ) :   0.9189
B(  0-C , 19-O ) :   0.8474 B(  1-C ,  2-C ) :   0.9581 B(  1-C ,  6-H ) :   0.9389
B(  1-C ,  7-H ) :   0.9384 B(  2-C ,  3-C ) :   0.9539 B(  2-C ,  8-H ) :   0.9454
B(  2-C ,  9-H ) :   0.9441 B(  3-C ,  4-O ) :   0.8377 B(  3-C , 10-H ) :   0.9344
B(  3-C , 11-H ) :   0.9401 B( 12-C , 13-H ) :   0.9077 B( 12-C , 14-C ) :   0.9126
B( 12-C , 17-O ) :   0.8738 B( 12-C , 18-H ) :   0.9225 B( 14-C , 15-C ) :   0.9601
B( 14-C , 19-O ) :   0.8441 B( 14-C , 20-H ) :   0.9206 B( 15-C , 16-C ) :   0.9473
B( 15-C , 21-H ) :   0.9364 B( 15-C , 22-H ) :   0.9411 B( 16-C , 17-O ) :   0.8598
B( 16-C , 23-H ) :   0.9332 B( 16-C , 24-H ) :   0.9363

FINAL SINGLE POINT ENERGY      -538.433677685053

DIPOLE MOMENT
-------------
                                X             Y             Z
Electronic contribution:      0.38765      -3.06488       1.00439
Nuclear contribution   :     -0.44863       3.85874      -2.01610
                        -----------------------------------------
Total Dipole Moment    :     -0.06097       0.79386      -1.01170
                        -----------------------------------------
Magnitude (a.u.)       :      1.28743
Magnitude (Debye)      :      3.27239

Rotational constants in cm-1:     0.074988     0.022271     0.021117
Rotational constants in MHz :  2248.072820   667.658610   633.060479

                             ****ORCA TERMINATED NORMALLY****
TOTAL RUN TIME: 0 days 0 hours 6 minutes 5 seconds 123 msec
