                         Program Version 4.2.0 -  RELEASE  -
|  1> # Test redundant internal optimization
|  2> #
|  3> ! RKS B3LYP  Opt TightSCF SmallPrint
|  4>
|  5> %basis
|  6>         Basis "6-31G"
|  7> end
|  8>
|  9> %geom
| 10> Constraints
| 11> { D 4  0  15  12  195.0   C } # D for Dihedral angle
| 12> { D 0  15  12  16  15.0   C } # D for Dihedral angle
| 13> { D 0  4  3  2   C } # D for Dihedral angle
| 14> { D 4  3  2  1   C } # D for Dihedral angle
| 15> { D 3  2  1  0   C } # D for Dihedral angle
| 16> { D 2  1  0  4   C } # D for Dihedral angle
| 17> { D 1  0  4  3   C } # D for Dihedral angle
| 18> { D 16  20  19  18   C } # D for Dihedral angle
| 19> { D 20  19  18  17   C } # D for Dihedral angle
| 20> { D 19  18  17  16   C } # D for Dihedral angle
| 21> { D 18  17  16  20   C } # D for Dihedral angle
| 22> { D 17  16  20  19   C } # D for Dihedral angle
| 23> { D 15  12  16  20   C } # D for Dihedral angle
| 24> end
| 25> end
| 26>
| 27>
| 28> #%pal
| 29> #nprocs 8
| 30> #end
| 31>
| 32> * xyz 0 1
| 33> C  -21.048   26.222   46.251
| 34> C  -20.361   27.558   45.944
| 35> C  -20.329   28.222   47.341
| 36> C  -20.110   27.022   48.296
| 37> O  -20.473   25.807   47.535
| 38> H  -20.833   25.428   45.533
| 39> H  -19.344   27.382   45.576
| 40> H  -20.898   28.157   45.201
| 41> H  -19.543   28.978   47.434
| 42> H  -21.289   28.710   47.548
| 43> H  -20.733   27.082   49.195
| 44> H  -19.064   26.913   48.597
| 45> C  -23.353   26.472   45.026
| 46> H  -24.249   25.842   45.082
| 47> H  -23.671   27.503   44.825
| 48> O  -22.586   26.394   46.375
| 49> C  -22.496   25.997   43.820
| 50> C  -23.241   26.196   42.496
| 51> C  -23.035   27.709   42.244
| 52> C  -21.612   27.967   42.800
| 53> O  -21.294   26.827   43.686
| 54> H  -22.160   24.974   44.001
| 55> H  -22.768   25.604   41.704
| 56> O  -24.740   25.798   42.573
| 57> H  -23.126   27.980   41.187
| 58> H  -23.779   28.288   42.803
| 59> H  -21.549   28.897   43.375
| 60> H  -20.853   27.985   42.012
| 61> H  -25.237   26.378   43.359
| 62> *
| 63>
| 64>                          ****END OF INPUT****
 Total Charge           Charge          ....    0
 Multiplicity           Mult            ....    1
 Number of Electrons    NEL             ....  102
FINAL SINGLE POINT ENERGY      -652.811884080046
FINAL SINGLE POINT ENERGY      -652.835532659645
FINAL SINGLE POINT ENERGY      -652.847716914540
FINAL SINGLE POINT ENERGY      -652.849600265914
FINAL SINGLE POINT ENERGY      -652.850004169858
FINAL SINGLE POINT ENERGY      -652.850068793886
FINAL SINGLE POINT ENERGY      -652.850076981696
FINAL SINGLE POINT ENERGY      -652.850077993503
                    ***********************HURRAY********************

CARTESIAN COORDINATES (ANGSTROEM)
---------------------------------
  C    -20.865209   26.214349   46.272318
  C    -20.152746   27.554340   46.094351
  C    -20.361058   28.218438   47.479622
  C    -20.292909   27.014641   48.443326
  O    -20.515343   25.812791   47.604122
  H    -20.557060   25.423045   45.588649
  H    -19.088245   27.370831   45.903992
  H    -20.551940   28.135152   45.264979
  H    -19.603332   28.975677   47.702757
  H    -21.347545   28.689719   47.521159
  H    -21.058092   27.041014   49.223941
  H    -19.307873   26.895760   48.905739
  C    -23.114842   26.466724   45.055414
  H    -23.986039   25.822917   45.220294
  H    -23.468499   27.506697   44.975027
  O    -22.319889   26.375427   46.271469
  C    -22.473809   26.048747   43.726960
  C    -23.416127   26.227862   42.522456
  C    -23.197489   27.732436   42.164028
  C    -21.699498   27.940700   42.478096
  O    -21.287472   26.816779   43.362628
  H    -22.136953   25.009987   43.806272
  H    -23.074276   25.591006   41.703862
  O    -24.791590   25.839184   42.734065
  H    -23.446912   27.946530   41.121809
  H    -23.833006   28.359041   42.802324
  H    -21.496830   28.887168   42.989350
  H    -21.074653   27.882126   41.583006
  H    -25.254763   26.492911   43.296983

 Multiplicity           Mult            ....    1
 Number of Electrons    NEL             ....  102
 Basis Dimension        Dim             ....  149

ORBITAL ENERGIES
----------------

  NO   OCC          E(Eh)            E(eV)
   0   2.0000     -19.157520      -521.3026
   1   2.0000     -19.153046      -521.1809
   2   2.0000     -19.128933      -520.5247
   3   2.0000     -19.128766      -520.5202
   4   2.0000     -10.268148      -279.4105
   5   2.0000     -10.255047      -279.0540
   6   2.0000     -10.242527      -278.7133
   7   2.0000     -10.241716      -278.6913
   8   2.0000     -10.233105      -278.4569
   9   2.0000     -10.215098      -277.9669
  10   2.0000     -10.204615      -277.6817
  11   2.0000     -10.175481      -276.8889
  12   2.0000     -10.169446      -276.7247
  13   2.0000      -1.046730       -28.4830
  14   2.0000      -1.038784       -28.2668
  15   2.0000      -1.027100       -27.9488
  16   2.0000      -0.980639       -26.6846
  17   2.0000      -0.792672       -21.5697
  18   2.0000      -0.775675       -21.1072
  19   2.0000      -0.769788       -20.9470
  20   2.0000      -0.728648       -19.8275
  21   2.0000      -0.682741       -18.5783
  22   2.0000      -0.622235       -16.9319
  23   2.0000      -0.604183       -16.4407
  24   2.0000      -0.587891       -15.9973
  25   2.0000      -0.559979       -15.2378
  26   2.0000      -0.537411       -14.6237
  27   2.0000      -0.516470       -14.0539
  28   2.0000      -0.493858       -13.4386
  29   2.0000      -0.477832       -13.0025
  30   2.0000      -0.473880       -12.8949
  31   2.0000      -0.455834       -12.4039
  32   2.0000      -0.444211       -12.0876
  33   2.0000      -0.438334       -11.9277
  34   2.0000      -0.432732       -11.7752
  35   2.0000      -0.423834       -11.5331
  36   2.0000      -0.407550       -11.0900
  37   2.0000      -0.394984       -10.7481
  38   2.0000      -0.389343       -10.5946
  39   2.0000      -0.366372        -9.9695
  40   2.0000      -0.358700        -9.7607
  41   2.0000      -0.350476        -9.5369
  42   2.0000      -0.342744        -9.3266
  43   2.0000      -0.337053        -9.1717
  44   2.0000      -0.324479        -8.8295
  45   2.0000      -0.304060        -8.2739
  46   2.0000      -0.297012        -8.0821
  47   2.0000      -0.281211        -7.6521
  48   2.0000      -0.253159        -6.8888
  49   2.0000      -0.247570        -6.7367
  50   2.0000      -0.238167        -6.4808
  51   0.0000       0.045086         1.2269
  52   0.0000       0.063693         1.7332
  53   0.0000       0.081953         2.2301
  54   0.0000       0.094632         2.5751
  55   0.0000       0.102518         2.7897

MULLIKEN ATOMIC CHARGES
-----------------------
   0 C :    0.308886
   1 C :   -0.255270
   2 C :   -0.303254
   3 C :    0.001642
   4 O :   -0.505499
   5 H :    0.150276
   6 H :    0.139447
   7 H :    0.153453
   8 H :    0.135145
   9 H :    0.151666
  10 H :    0.149544
  11 H :    0.137619
  12 C :    0.011689
  13 H :    0.154232
  14 H :    0.113039
  15 O :   -0.533864
  16 C :    0.059160
  17 C :    0.081598
  18 C :   -0.320647
  19 C :   -0.013182
  20 O :   -0.520298
  21 H :    0.166114
  22 H :    0.173747
  23 O :   -0.595252
  24 H :    0.159714
  25 H :    0.139247
  26 H :    0.143135
  27 H :    0.158122
  28 H :    0.359792
Sum of atomic charges:   -0.0000000

LOEWDIN ATOMIC CHARGES
----------------------
   0 C :    0.189249
   1 C :   -0.225526
   2 C :   -0.221082
   3 C :   -0.025511
   4 O :   -0.304883
   5 H :    0.102220
   6 H :    0.112813
   7 H :    0.118747
   8 H :    0.110824
   9 H :    0.113587
  10 H :    0.106356
  11 H :    0.099920
  12 C :   -0.046098
  13 H :    0.114949
  14 H :    0.085322
  15 O :   -0.340287
  16 C :    0.003424
  17 C :    0.038242
  18 C :   -0.240686
  19 C :   -0.029974
  20 O :   -0.322255
  21 H :    0.116621
  22 H :    0.121686
  23 O :   -0.402122
  24 H :    0.124601
  25 H :    0.106975
  26 H :    0.101992
  27 H :    0.110169
  28 H :    0.280725

  Mayer bond orders larger than 0.100000
B(  0-C ,  1-C ) :   0.9356 B(  0-C ,  4-O ) :   0.9261 B(  0-C ,  5-H ) :   0.9195
B(  0-C , 15-O ) :   0.8158 B(  1-C ,  2-C ) :   0.9454 B(  1-C ,  6-H ) :   0.9368
B(  1-C ,  7-H ) :   0.9299 B(  2-C ,  3-C ) :   0.9542 B(  2-C ,  8-H ) :   0.9456
B(  2-C ,  9-H ) :   0.9461 B(  3-C ,  4-O ) :   0.8374 B(  3-C , 10-H ) :   0.9356
B(  3-C , 11-H ) :   0.9402 B( 12-C , 13-H ) :   0.9110 B( 12-C , 14-H ) :   0.9223
B( 12-C , 15-O ) :   0.8610 B( 12-C , 16-C ) :   0.9023 B( 16-C , 17-C ) :   0.8697
B( 16-C , 20-O ) :   0.8441 B( 16-C , 21-H ) :   0.9259 B( 17-C , 18-C ) :   0.9234
B( 17-C , 22-H ) :   0.9316 B( 17-C , 23-O ) :   0.9067 B( 18-C , 19-C ) :   0.9419
B( 18-C , 24-H ) :   0.9415 B( 18-C , 25-H ) :   0.9393 B( 19-C , 20-O ) :   0.8377
B( 19-C , 26-H ) :   0.9298 B( 19-C , 27-H ) :   0.9373 B( 23-O , 28-H ) :   0.7959

FINAL SINGLE POINT ENERGY      -652.850078069202

DIPOLE MOMENT
-------------
                                X             Y             Z
Electronic contribution:     -1.32425      -5.51330       0.32471
Nuclear contribution   :      1.15153       7.04883      -1.27999
                        -----------------------------------------
Total Dipole Moment    :     -0.17272       1.53553      -0.95528
                        -----------------------------------------
Magnitude (a.u.)       :      1.81666
Magnitude (Debye)      :      4.61757

Rotational constants in cm-1:     0.058223     0.014078     0.012585
Rotational constants in MHz :  1745.467116   422.034094   377.288800

                             ****ORCA TERMINATED NORMALLY****
TOTAL RUN TIME: 0 days 2 hours 4 minutes 44 seconds 879 msec
