                         Program Version 4.2.1 -  RELEASE  -
|  1> # Test redundant internal optimization
|  2> #
|  3> ! RKS B3LYP  Opt TightSCF SmallPrint
|  4>
|  5> %basis
|  6>         Basis "6-31G"
|  7> end
|  8>
|  9> %geom
| 10> Constraints
| 11> { D 4  0  19  14  210.0   C } # D for Dihedral angle
| 12> { D 0  19  14  12  195.0   C } # D for Dihedral angle
| 13> { D 0  4  3  2   C } # D for Dihedral angle
| 14> { D 4  3  2  1   C } # D for Dihedral angle
| 15> { D 3  2  1  0   C } # D for Dihedral angle
| 16> { D 2  1  0  4   C } # D for Dihedral angle
| 17> { D 1  0  4  3   C } # D for Dihedral angle
| 18> { D 14  15  16  17   C } # D for Dihedral angle
| 19> { D 15  16  17  12   C } # D for Dihedral angle
| 20> { D 16  17  12  14   C } # D for Dihedral angle
| 21> { D 17  12  14  15   C } # D for Dihedral angle
| 22> { D 12  14  15  16   C } # D for Dihedral angle
| 23> end
| 24> end
| 25>
| 26>
| 27> #%pal
| 28> #nprocs 8
| 29> #end
| 30>
| 31> * xyz 0 1
| 32> C  -21.048   26.222   46.251
| 33> C  -20.361   27.558   45.944
| 34> C  -20.329   28.222   47.341
| 35> C  -20.110   27.022   48.296
| 36> O  -20.473   25.807   47.535
| 37> H  -20.833   25.428   45.533
| 38> H  -19.344   27.382   45.576
| 39> H  -20.898   28.157   45.201
| 40> H  -19.543   28.978   47.434
| 41> H  -21.289   28.710   47.548
| 42> H  -20.733   27.082   49.195
| 43> H  -19.064   26.913   48.597
| 44> C  -24.625   26.661   45.267
| 45> H  -25.282   26.228   44.495
| 46> C  -23.197   26.114   45.155
| 47> C  -22.632   26.951   43.984
| 48> C  -23.311   28.330   44.175
| 49> O  -24.476   28.106   45.059
| 50> H  -25.087   26.525   46.246
| 51> O  -22.472   26.381   46.366
| 52> H  -23.164   25.036   44.962
| 53> H  -21.539   27.018   43.998
| 54> H  -22.927   26.506   43.025
| 55> H  -23.655   28.764   43.231
| 56> H  -22.659   29.050   44.679
| 57> *
| 58>
| 59>                          ****END OF INPUT****
 Total Charge           Charge          ....    0
 Multiplicity           Mult            ....    1
 Number of Electrons    NEL             ....   86
FINAL SINGLE POINT ENERGY      -538.419154753888
FINAL SINGLE POINT ENERGY      -538.427226969777
FINAL SINGLE POINT ENERGY      -538.428071374856
FINAL SINGLE POINT ENERGY      -538.428244065639
FINAL SINGLE POINT ENERGY      -538.428263372399
FINAL SINGLE POINT ENERGY      -538.428270949487
                    ***********************HURRAY********************

CARTESIAN COORDINATES (ANGSTROEM)
---------------------------------
  C    -20.920700   26.231072   46.219269
  C    -20.236559   27.582718   46.013050
  C    -20.348358   28.220016   47.422413
  C    -20.196792   27.001056   48.357196
  O    -20.468637   25.809416   47.515551
  H    -20.645772   25.448043   45.504332
  H    -19.185625   27.415680   45.745309
  H    -20.699684   28.194571   45.238728
  H    -19.585552   28.983408   47.600387
  H    -21.336300   28.674991   47.538837
  H    -20.903835   27.007122   49.190408
  H    -19.179740   26.885728   48.744113
  C    -24.549740   26.716663   45.377378
  H    -25.308834   26.264825   44.722726
  C    -23.165559   26.135193   45.088069
  C    -22.756258   26.921372   43.829176
  C    -23.374130   28.321806   44.062332
  O    -24.407909   28.150703   45.105054
  H    -24.837186   26.603427   46.422665
  O    -22.367967   26.369266   46.287650
  H    -23.195895   25.053627   44.891652
  H    -21.677566   26.947907   43.656983
  H    -23.215240   26.435811   42.960246
  H    -23.837318   28.728159   43.156113
  H    -22.649841   29.048421   44.443366

 Multiplicity           Mult            ....    1
 Number of Electrons    NEL             ....   86
 Basis Dimension        Dim             ....  127

ORBITAL ENERGIES
----------------

  NO   OCC          E(Eh)            E(eV)
   0   2.0000     -19.137894      -520.7686
   1   2.0000     -19.137834      -520.7669
   2   2.0000     -19.131237      -520.5874
   3   2.0000     -10.279819      -279.7281
   4   2.0000     -10.243243      -278.7328
   5   2.0000     -10.227110      -278.2938
   6   2.0000     -10.222613      -278.1715
   7   2.0000     -10.222279      -278.1623
   8   2.0000     -10.194248      -277.3996
   9   2.0000     -10.185905      -277.1726
  10   2.0000     -10.183591      -277.1096
  11   2.0000      -1.052068       -28.6282
  12   2.0000      -1.016470       -27.6595
  13   2.0000      -0.988189       -26.8900
  14   2.0000      -0.788391       -21.4532
  15   2.0000      -0.781936       -21.2776
  16   2.0000      -0.747461       -20.3394
  17   2.0000      -0.720517       -19.6063
  18   2.0000      -0.613564       -16.6959
  19   2.0000      -0.603452       -16.4208
  20   2.0000      -0.595619       -16.2076
  21   2.0000      -0.573436       -15.6040
  22   2.0000      -0.519153       -14.1269
  23   2.0000      -0.504860       -13.7379
  24   2.0000      -0.488392       -13.2898
  25   2.0000      -0.484361       -13.1801
  26   2.0000      -0.455742       -12.4014
  27   2.0000      -0.446907       -12.1609
  28   2.0000      -0.420403       -11.4398
  29   2.0000      -0.419868       -11.4252
  30   2.0000      -0.405699       -11.0396
  31   2.0000      -0.388767       -10.5789
  32   2.0000      -0.378754       -10.3064
  33   2.0000      -0.371096       -10.0980
  34   2.0000      -0.362938        -9.8760
  35   2.0000      -0.352916        -9.6033
  36   2.0000      -0.348258        -9.4766
  37   2.0000      -0.311113        -8.4658
  38   2.0000      -0.309330        -8.4173
  39   2.0000      -0.298121        -8.1123
  40   2.0000      -0.261760        -7.1229
  41   2.0000      -0.247492        -6.7346
  42   2.0000      -0.237416        -6.4604
  43   0.0000       0.073885         2.0105
  44   0.0000       0.089326         2.4307
  45   0.0000       0.097515         2.6535
  46   0.0000       0.105893         2.8815
  47   0.0000       0.115222         3.1354

MULLIKEN ATOMIC CHARGES
-----------------------
   0 C :    0.294835
   1 C :   -0.266361
   2 C :   -0.303032
   3 C :   -0.000512
   4 O :   -0.503155
   5 H :    0.136433
   6 H :    0.141640
   7 H :    0.143526
   8 H :    0.140585
   9 H :    0.171273
  10 H :    0.155212
  11 H :    0.139686
  12 C :    0.001373
  13 H :    0.125182
  14 C :    0.077983
  15 C :   -0.316845
  16 C :   -0.002676
  17 O :   -0.518904
  18 H :    0.174018
  19 O :   -0.509894
  20 H :    0.134626
  21 H :    0.149343
  22 H :    0.147002
  23 H :    0.138484
  24 H :    0.150179
Sum of atomic charges:   -0.0000000

LOEWDIN ATOMIC CHARGES
----------------------
   0 C :    0.179724
   1 C :   -0.228952
   2 C :   -0.216927
   3 C :   -0.025011
   4 O :   -0.306346
   5 H :    0.095176
   6 H :    0.112158
   7 H :    0.113459
   8 H :    0.113870
   9 H :    0.123436
  10 H :    0.109651
  11 H :    0.101161
  12 C :   -0.031601
  13 H :    0.091673
  14 C :    0.039530
  15 C :   -0.243144
  16 C :   -0.030292
  17 O :   -0.328704
  18 H :    0.126707
  19 O :   -0.329217
  20 H :    0.097538
  21 H :    0.116918
  22 H :    0.117600
  23 H :    0.099660
  24 H :    0.101933

  Mayer bond orders larger than 0.100000
B(  0-C ,  1-C ) :   0.9301 B(  0-C ,  4-O ) :   0.9349 B(  0-C ,  5-H ) :   0.9195
B(  0-C , 19-O ) :   0.8336 B(  1-C ,  2-C ) :   0.9534 B(  1-C ,  6-H ) :   0.9342
B(  1-C ,  7-H ) :   0.9270 B(  2-C ,  3-C ) :   0.9552 B(  2-C ,  8-H ) :   0.9448
B(  2-C ,  9-H ) :   0.9410 B(  3-C ,  4-O ) :   0.8341 B(  3-C , 10-H ) :   0.9344
B(  3-C , 11-H ) :   0.9398 B( 12-C , 13-H ) :   0.9160 B( 12-C , 14-C ) :   0.9329
B( 12-C , 17-O ) :   0.8656 B( 12-C , 18-H ) :   0.9295 B( 14-C , 15-C ) :   0.9274
B( 14-C , 19-O ) :   0.8502 B( 14-C , 20-H ) :   0.9194 B( 15-C , 16-C ) :   0.9424
B( 15-C , 21-H ) :   0.9328 B( 15-C , 22-H ) :   0.9354 B( 16-C , 17-O ) :   0.8637
B( 16-C , 23-H ) :   0.9315 B( 16-C , 24-H ) :   0.9293

FINAL SINGLE POINT ENERGY      -538.428271552210

DIPOLE MOMENT
-------------
                                X             Y             Z
Electronic contribution:     -2.03190      -2.76268       2.17268
Nuclear contribution   :      2.67583       2.90680      -3.13912
                        -----------------------------------------
Total Dipole Moment    :      0.64393       0.14412      -0.96644
                        -----------------------------------------
Magnitude (a.u.)       :      1.17023
Magnitude (Debye)      :      2.97448

Rotational constants in cm-1:     0.073695     0.022701     0.021643
Rotational constants in MHz :  2209.330019   680.566067   648.843715

                             ****ORCA TERMINATED NORMALLY****
TOTAL RUN TIME: 0 days 0 hours 7 minutes 22 seconds 640 msec
