                         Program Version 4.2.0 -  RELEASE  -
|  1> # Test redundant internal optimization
|  2> #
|  3> ! RKS B3LYP  Opt TightSCF SmallPrint
|  4>
|  5> %basis
|  6>         Basis "6-31G"
|  7> end
|  8>
|  9> %geom
| 10> Constraints
| 11> { D 4  0  15  12  300.0   C } # D for Dihedral angle
| 12> { D 0  15  12  16  195.0   C } # D for Dihedral angle
| 13> { D 0  4  3  2   C } # D for Dihedral angle
| 14> { D 4  3  2  1   C } # D for Dihedral angle
| 15> { D 3  2  1  0   C } # D for Dihedral angle
| 16> { D 2  1  0  4   C } # D for Dihedral angle
| 17> { D 1  0  4  3   C } # D for Dihedral angle
| 18> { D 16  20  19  18   C } # D for Dihedral angle
| 19> { D 20  19  18  17   C } # D for Dihedral angle
| 20> { D 19  18  17  16   C } # D for Dihedral angle
| 21> { D 18  17  16  20   C } # D for Dihedral angle
| 22> { D 17  16  20  19   C } # D for Dihedral angle
| 23> { D 15  12  16  20   C } # D for Dihedral angle
| 24> end
| 25> end
| 26>
| 27>
| 28> #%pal
| 29> #nprocs 8
| 30> #end
| 31>
| 32> * xyz 0 1
| 33> C  -21.048   26.222   46.251
| 34> C  -20.361   27.558   45.944
| 35> C  -20.329   28.222   47.341
| 36> C  -20.110   27.022   48.296
| 37> O  -20.473   25.807   47.535
| 38> H  -20.833   25.428   45.533
| 39> H  -19.344   27.382   45.576
| 40> H  -20.898   28.157   45.201
| 41> H  -19.543   28.978   47.434
| 42> H  -21.289   28.710   47.548
| 43> H  -20.733   27.082   49.195
| 44> H  -19.064   26.913   48.597
| 45> C  -23.362   25.116   46.798
| 46> H  -22.984   24.258   46.227
| 47> H  -23.211   24.911   47.866
| 48> O  -22.586   26.394   46.375
| 49> C  -24.891   25.232   46.550
| 50> C  -25.636   24.004   47.083
| 51> C  -25.702   24.311   48.598
| 52> C  -25.871   25.851   48.638
| 53> O  -25.450   26.353   47.313
| 54> H  -25.067   25.444   45.493
| 55> H  -26.643   23.958   46.654
| 56> O  -24.910   22.667   46.772
| 57> H  -26.522   23.789   49.102
| 58> H  -24.766   24.012   49.085
| 59> H  -25.253   26.320   49.412
| 60> H  -26.912   26.153   48.783
| 61> H  -23.899   22.688   47.193
| 62> *
| 63>
| 64>                          ****END OF INPUT****
 Total Charge           Charge          ....    0
 Multiplicity           Mult            ....    1
 Number of Electrons    NEL             ....  102
FINAL SINGLE POINT ENERGY      -652.831507605194
FINAL SINGLE POINT ENERGY      -652.856974847152
FINAL SINGLE POINT ENERGY      -652.861828790784
FINAL SINGLE POINT ENERGY      -652.862693185298
FINAL SINGLE POINT ENERGY      -652.862844592595
FINAL SINGLE POINT ENERGY      -652.862874830851
FINAL SINGLE POINT ENERGY      -652.862879513052
                    ***********************HURRAY********************

CARTESIAN COORDINATES (ANGSTROEM)
---------------------------------
  C    -21.089680   26.164951   46.258309
  C    -20.529651   27.553930   45.950754
  C    -20.484004   28.192090   47.356370
  C    -20.124559   27.002999   48.274693
  O    -20.430668   25.776383   47.491363
  H    -20.857266   25.375324   45.534308
  H    -19.524533   27.451690   45.526324
  H    -21.161388   28.102690   45.249338
  H    -19.754112   29.004616   47.426661
  H    -21.471777   28.587956   47.608066
  H    -20.705612   26.985942   49.200356
  H    -19.058517   26.958750   48.517357
  C    -23.191332   25.084700   46.840931
  H    -22.836268   24.227167   46.248744
  H    -22.961203   24.893332   47.896349
  O    -22.513814   26.297820   46.414383
  C    -24.685700   25.266925   46.600547
  C    -25.531926   24.065437   47.053982
  C    -25.702154   24.351411   48.577017
  C    -25.797428   25.891673   48.625195
  O    -25.248128   26.393858   47.339757
  H    -24.834667   25.503302   45.543224
  H    -26.499801   24.093427   46.549664
  O    -24.990134   22.761920   46.731424
  H    -26.582224   23.855146   48.994504
  H    -24.818660   23.986866   49.117735
  H    -25.228637   26.328791   49.451728
  H    -26.832553   26.240152   48.688063
  H    -24.243601   22.542752   47.325855

 Multiplicity           Mult            ....    1
 Number of Electrons    NEL             ....  102
 Basis Dimension        Dim             ....  149

ORBITAL ENERGIES
----------------

  NO   OCC          E(Eh)            E(eV)
   0   2.0000     -19.148949      -521.0694
   1   2.0000     -19.141841      -520.8760
   2   2.0000     -19.139170      -520.8033
   3   2.0000     -19.134707      -520.6819
   4   2.0000     -10.275469      -279.6097
   5   2.0000     -10.243821      -278.7485
   6   2.0000     -10.228511      -278.3319
   7   2.0000     -10.228430      -278.3297
   8   2.0000     -10.226031      -278.2645
   9   2.0000     -10.223743      -278.2022
  10   2.0000     -10.194217      -277.3987
  11   2.0000     -10.181938      -277.0646
  12   2.0000     -10.181461      -277.0516
  13   2.0000      -1.053825       -28.6760
  14   2.0000      -1.032135       -28.0858
  15   2.0000      -1.013671       -27.5834
  16   2.0000      -0.991383       -26.9769
  17   2.0000      -0.787341       -21.4246
  18   2.0000      -0.780250       -21.2317
  19   2.0000      -0.765145       -20.8207
  20   2.0000      -0.727786       -19.8041
  21   2.0000      -0.677046       -18.4234
  22   2.0000      -0.610304       -16.6072
  23   2.0000      -0.596859       -16.2413
  24   2.0000      -0.587434       -15.9849
  25   2.0000      -0.573937       -15.6176
  26   2.0000      -0.530547       -14.4369
  27   2.0000      -0.508886       -13.8475
  28   2.0000      -0.494107       -13.4453
  29   2.0000      -0.489339       -13.3156
  30   2.0000      -0.469130       -12.7657
  31   2.0000      -0.455601       -12.3975
  32   2.0000      -0.441318       -12.0089
  33   2.0000      -0.435739       -11.8571
  34   2.0000      -0.426513       -11.6060
  35   2.0000      -0.410629       -11.1738
  36   2.0000      -0.402854       -10.9622
  37   2.0000      -0.399184       -10.8623
  38   2.0000      -0.376724       -10.2512
  39   2.0000      -0.367720       -10.0062
  40   2.0000      -0.355828        -9.6826
  41   2.0000      -0.352485        -9.5916
  42   2.0000      -0.343542        -9.3482
  43   2.0000      -0.334518        -9.1027
  44   2.0000      -0.322050        -8.7634
  45   2.0000      -0.313558        -8.5324
  46   2.0000      -0.296893        -8.0789
  47   2.0000      -0.270533        -7.3616
  48   2.0000      -0.262832        -7.1520
  49   2.0000      -0.253403        -6.8955
  50   2.0000      -0.239737        -6.5236
  51   0.0000       0.052143         1.4189
  52   0.0000       0.078001         2.1225
  53   0.0000       0.091255         2.4832
  54   0.0000       0.098553         2.6818
  55   0.0000       0.103239         2.8093

MULLIKEN ATOMIC CHARGES
-----------------------
   0 C :    0.287436
   1 C :   -0.263209
   2 C :   -0.299592
   3 C :   -0.005360
   4 O :   -0.519404
   5 H :    0.141372
   6 H :    0.143453
   7 H :    0.162195
   8 H :    0.139600
   9 H :    0.170408
  10 H :    0.143671
  11 H :    0.142371
  12 C :    0.000712
  13 H :    0.128774
  14 H :    0.135583
  15 O :   -0.513114
  16 C :    0.089868
  17 C :    0.082743
  18 C :   -0.322570
  19 C :   -0.008013
  20 O :   -0.504924
  21 H :    0.161860
  22 H :    0.167626
  23 O :   -0.600241
  24 H :    0.156654
  25 H :    0.134818
  26 H :    0.143081
  27 H :    0.146867
  28 H :    0.357337
Sum of atomic charges:   -0.0000000

LOEWDIN ATOMIC CHARGES
----------------------
   0 C :    0.171271
   1 C :   -0.214149
   2 C :   -0.216287
   3 C :   -0.028606
   4 O :   -0.334963
   5 H :    0.093890
   6 H :    0.113396
   7 H :    0.126980
   8 H :    0.112813
   9 H :    0.123198
  10 H :    0.103412
  11 H :    0.102246
  12 C :   -0.049890
  13 H :    0.097878
  14 H :    0.096611
  15 O :   -0.313416
  16 C :    0.021362
  17 C :    0.035013
  18 C :   -0.241083
  19 C :   -0.029645
  20 O :   -0.313845
  21 H :    0.118934
  22 H :    0.119581
  23 O :   -0.407564
  24 H :    0.122090
  25 H :    0.104494
  26 H :    0.102571
  27 H :    0.104942
  28 H :    0.278765

  Mayer bond orders larger than 0.100000
B(  0-C ,  1-C ) :   0.9526 B(  0-C ,  4-O ) :   0.8910 B(  0-C ,  5-H ) :   0.9173
B(  0-C , 15-O ) :   0.8700 B(  1-C ,  2-C ) :   0.9561 B(  1-C ,  6-H ) :   0.9402
B(  1-C ,  7-H ) :   0.9350 B(  2-C ,  3-C ) :   0.9561 B(  2-C ,  8-H ) :   0.9451
B(  2-C ,  9-H ) :   0.9425 B(  3-C ,  4-O ) :   0.8370 B(  3-C , 10-H ) :   0.9364
B(  3-C , 11-H ) :   0.9406 B( 12-C , 13-H ) :   0.9028 B( 12-C , 14-H ) :   0.9185
B( 12-C , 15-O ) :   0.8340 B( 12-C , 16-C ) :   0.9051 B( 16-C , 17-C ) :   0.8747
B( 16-C , 20-O ) :   0.8699 B( 16-C , 21-H ) :   0.9298 B( 17-C , 18-C ) :   0.9229
B( 17-C , 22-H ) :   0.9335 B( 17-C , 23-O ) :   0.8974 B( 18-C , 19-C ) :   0.9388
B( 18-C , 24-H ) :   0.9420 B( 18-C , 25-H ) :   0.9407 B( 19-C , 20-O ) :   0.8531
B( 19-C , 26-H ) :   0.9318 B( 19-C , 27-H ) :   0.9381 B( 23-O , 28-H ) :   0.7975

FINAL SINGLE POINT ENERGY      -652.862880350892

DIPOLE MOMENT
-------------
                                X             Y             Z
Electronic contribution:     -1.83957      -2.26573      -2.73516
Nuclear contribution   :      2.16825       2.32015       3.48666
                        -----------------------------------------
Total Dipole Moment    :      0.32868       0.05443       0.75149
                        -----------------------------------------
Magnitude (a.u.)       :      0.82203
Magnitude (Debye)      :      2.08944

Rotational constants in cm-1:     0.052000     0.013052     0.012233
Rotational constants in MHz :  1558.907099   391.275190   366.742645

                             ****ORCA TERMINATED NORMALLY****
TOTAL RUN TIME: 0 days 0 hours 37 minutes 57 seconds 197 msec
