                         Program Version 4.2.1 -  RELEASE  -
|  1> # Test redundant internal optimization
|  2> #
|  3> ! RKS B3LYP  Opt TightSCF SmallPrint
|  4>
|  5> %basis
|  6>         Basis "6-31G"
|  7> end
|  8>
|  9> %geom
| 10> Constraints
| 11> { D 4  0  19  14  285.0   C } # D for Dihedral angle
| 12> { D 0  19  14  12  105.0   C } # D for Dihedral angle
| 13> { D 0  4  3  2   C } # D for Dihedral angle
| 14> { D 4  3  2  1   C } # D for Dihedral angle
| 15> { D 3  2  1  0   C } # D for Dihedral angle
| 16> { D 2  1  0  4   C } # D for Dihedral angle
| 17> { D 1  0  4  3   C } # D for Dihedral angle
| 18> { D 14  15  16  17   C } # D for Dihedral angle
| 19> { D 15  16  17  12   C } # D for Dihedral angle
| 20> { D 16  17  12  14   C } # D for Dihedral angle
| 21> { D 17  12  14  15   C } # D for Dihedral angle
| 22> { D 12  14  15  16   C } # D for Dihedral angle
| 23> end
| 24> end
| 25>
| 26>
| 27> #%pal
| 28> #nprocs 8
| 29> #end
| 30>
| 31> * xyz 0 1
| 32> C  -21.048   26.222   46.251
| 33> C  -20.361   27.558   45.944
| 34> C  -20.329   28.222   47.341
| 35> C  -20.110   27.022   48.296
| 36> O  -20.473   25.807   47.535
| 37> H  -20.833   25.428   45.533
| 38> H  -19.344   27.382   45.576
| 39> H  -20.898   28.157   45.201
| 40> H  -19.543   28.978   47.434
| 41> H  -21.289   28.710   47.548
| 42> H  -20.733   27.082   49.195
| 43> H  -19.064   26.913   48.597
| 44> C  -23.679   24.879   47.853
| 45> H  -23.980   23.828   47.987
| 46> C  -23.203   25.146   46.420
| 47> C  -24.545   25.271   45.662
| 48> C  -25.473   25.953   46.699
| 49> O  -24.835   25.767   48.021
| 50> H  -22.957   25.146   48.627
| 51> O  -22.472   26.381   46.366
| 52> H  -22.565   24.349   46.024
| 53> H  -24.458   25.849   44.736
| 54> H  -24.925   24.276   45.400
| 55> H  -26.476   25.513   46.719
| 56> H  -25.563   27.031   46.534
| 57> *
| 58>
| 59>                          ****END OF INPUT****
 Total Charge           Charge          ....    0
 Multiplicity           Mult            ....    1
 Number of Electrons    NEL             ....   86
FINAL SINGLE POINT ENERGY      -538.436341308992
FINAL SINGLE POINT ENERGY      -538.438376325308
FINAL SINGLE POINT ENERGY      -538.438721738905
FINAL SINGLE POINT ENERGY      -538.438747410121
FINAL SINGLE POINT ENERGY      -538.438755171040
                    ***********************HURRAY********************

CARTESIAN COORDINATES (ANGSTROEM)
---------------------------------
  C    -20.997970   26.176255   46.250473
  C    -20.416713   27.557642   45.944899
  C    -20.420378   28.217675   47.342859
  C    -20.104369   27.037939   48.289877
  O    -20.389056   25.803586   47.512632
  H    -20.742318   25.378818   45.544359
  H    -19.395232   27.442413   45.564891
  H    -21.013798   28.099459   45.208839
  H    -19.688379   29.026526   47.429429
  H    -21.414251   28.622823   47.553006
  H    -20.721177   27.037787   49.191720
  H    -19.048673   26.990912   48.573454
  C    -23.697590   24.847003   47.860408
  H    -24.056414   23.813152   47.980137
  C    -23.197652   25.082524   46.435023
  C    -24.519255   25.295255   45.672164
  C    -25.408338   26.035133   46.700732
  O    -24.790374   25.804958   48.023999
  H    -22.940576   25.065417   48.613713
  O    -22.425694   26.320801   46.351726
  H    -22.604748   24.246167   46.044534
  H    -24.357886   25.869280   44.756761
  H    -24.947549   24.322479   45.405013
  H    -26.437820   25.660155   46.713643
  H    -25.419788   27.115842   46.534709

 Multiplicity           Mult            ....    1
 Number of Electrons    NEL             ....   86
 Basis Dimension        Dim             ....  127

ORBITAL ENERGIES
----------------

  NO   OCC          E(Eh)            E(eV)
   0   2.0000     -19.143225      -520.9136
   1   2.0000     -19.138384      -520.7819
   2   2.0000     -19.123956      -520.3893
   3   2.0000     -10.278728      -279.6984
   4   2.0000     -10.238587      -278.6061
   5   2.0000     -10.222698      -278.1738
   6   2.0000     -10.217254      -278.0256
   7   2.0000     -10.215333      -277.9733
   8   2.0000     -10.184100      -277.1234
   9   2.0000     -10.183560      -277.1088
  10   2.0000     -10.182441      -277.0783
  11   2.0000      -1.054368       -28.6908
  12   2.0000      -1.010603       -27.4999
  13   2.0000      -0.989179       -26.9169
  14   2.0000      -0.791461       -21.5367
  15   2.0000      -0.774450       -21.0738
  16   2.0000      -0.735686       -20.0190
  17   2.0000      -0.718555       -19.5529
  18   2.0000      -0.605939       -16.4884
  19   2.0000      -0.597765       -16.2660
  20   2.0000      -0.592203       -16.1147
  21   2.0000      -0.577780       -15.7222
  22   2.0000      -0.518496       -14.1090
  23   2.0000      -0.502658       -13.6780
  24   2.0000      -0.479442       -13.0463
  25   2.0000      -0.474686       -12.9169
  26   2.0000      -0.450816       -12.2673
  27   2.0000      -0.443119       -12.0579
  28   2.0000      -0.426540       -11.6067
  29   2.0000      -0.410142       -11.1605
  30   2.0000      -0.405507       -11.0344
  31   2.0000      -0.385136       -10.4801
  32   2.0000      -0.367145        -9.9905
  33   2.0000      -0.363565        -9.8931
  34   2.0000      -0.355068        -9.6619
  35   2.0000      -0.351174        -9.5559
  36   2.0000      -0.340053        -9.2533
  37   2.0000      -0.325576        -8.8594
  38   2.0000      -0.302477        -8.2308
  39   2.0000      -0.298617        -8.1258
  40   2.0000      -0.269112        -7.3229
  41   2.0000      -0.249662        -6.7937
  42   2.0000      -0.229849        -6.2545
  43   0.0000       0.080268         2.1842
  44   0.0000       0.095783         2.6064
  45   0.0000       0.100704         2.7403
  46   0.0000       0.116990         3.1835
  47   0.0000       0.122511         3.3337

MULLIKEN ATOMIC CHARGES
-----------------------
   0 C :    0.282602
   1 C :   -0.260743
   2 C :   -0.298986
   3 C :   -0.004947
   4 O :   -0.515310
   5 H :    0.139843
   6 H :    0.144054
   7 H :    0.155001
   8 H :    0.139956
   9 H :    0.168712
  10 H :    0.151523
  11 H :    0.141380
  12 C :    0.012395
  13 H :    0.117806
  14 C :    0.061430
  15 C :   -0.286635
  16 C :    0.003173
  17 O :   -0.522076
  18 H :    0.171758
  19 O :   -0.510963
  20 H :    0.130154
  21 H :    0.154651
  22 H :    0.139778
  23 H :    0.132716
  24 H :    0.152725
Sum of atomic charges:    0.0000000

LOEWDIN ATOMIC CHARGES
----------------------
   0 C :    0.171055
   1 C :   -0.215190
   2 C :   -0.215823
   3 C :   -0.028273
   4 O :   -0.334519
   5 H :    0.094223
   6 H :    0.113612
   7 H :    0.123293
   8 H :    0.112953
   9 H :    0.122335
  10 H :    0.107095
  11 H :    0.102018
  12 C :   -0.040707
  13 H :    0.089053
  14 C :    0.039099
  15 C :   -0.226952
  16 C :   -0.028429
  17 O :   -0.331467
  18 H :    0.124004
  19 O :   -0.318201
  20 H :    0.100675
  21 H :    0.123837
  22 H :    0.111986
  23 H :    0.096934
  24 H :    0.107391

  Mayer bond orders larger than 0.100000
B(  0-C ,  1-C ) :   0.9495 B(  0-C ,  4-O ) :   0.9014 B(  0-C ,  5-H ) :   0.9181
B(  0-C , 19-O ) :   0.8734 B(  1-C ,  2-C ) :   0.9574 B(  1-C ,  6-H ) :   0.9401
B(  1-C ,  7-H ) :   0.9366 B(  2-C ,  3-C ) :   0.9555 B(  2-C ,  8-H ) :   0.9452
B(  2-C ,  9-H ) :   0.9429 B(  3-C ,  4-O ) :   0.8360 B(  3-C , 10-H ) :   0.9342
B(  3-C , 11-H ) :   0.9406 B( 12-C , 13-H ) :   0.9124 B( 12-C , 14-C ) :   0.9226
B( 12-C , 17-O ) :   0.8681 B( 12-C , 18-H ) :   0.9276 B( 14-C , 15-C ) :   0.9546
B( 14-C , 19-O ) :   0.8221 B( 14-C , 20-H ) :   0.9185 B( 15-C , 16-C ) :   0.9478
B( 15-C , 21-H ) :   0.9389 B( 15-C , 22-H ) :   0.9412 B( 16-C , 17-O ) :   0.8583
B( 16-C , 23-H ) :   0.9331 B( 16-C , 24-H ) :   0.9362

FINAL SINGLE POINT ENERGY      -538.438755664136

DIPOLE MOMENT
-------------
                                X             Y             Z
Electronic contribution:     -0.38823      -1.82086       1.23534
Nuclear contribution   :      0.78906       1.84963      -2.13148
                        -----------------------------------------
Total Dipole Moment    :      0.40083       0.02877      -0.89614
                        -----------------------------------------
Magnitude (a.u.)       :      0.98212
Magnitude (Debye)      :      2.49634

Rotational constants in cm-1:     0.075298     0.021819     0.020788
Rotational constants in MHz :  2257.383441   654.117281   623.197164

                             ****ORCA TERMINATED NORMALLY****
TOTAL RUN TIME: 0 days 0 hours 5 minutes 46 seconds 477 msec
