                         Program Version 4.2.0 -  RELEASE  -
|  1> # Test redundant internal optimization
|  2> #
|  3> ! RKS B3LYP  Opt TightSCF SmallPrint
|  4>
|  5> %basis
|  6>         Basis "6-31G"
|  7> end
|  8>
|  9> %geom
| 10> Constraints
| 11> { D 4  0  15  12  0.0   C } # D for Dihedral angle
| 12> { D 0  15  12  16  180.0   C } # D for Dihedral angle
| 13> { D 0  4  3  2   C } # D for Dihedral angle
| 14> { D 4  3  2  1   C } # D for Dihedral angle
| 15> { D 3  2  1  0   C } # D for Dihedral angle
| 16> { D 2  1  0  4   C } # D for Dihedral angle
| 17> { D 1  0  4  3   C } # D for Dihedral angle
| 18> { D 16  20  19  18   C } # D for Dihedral angle
| 19> { D 20  19  18  17   C } # D for Dihedral angle
| 20> { D 19  18  17  16   C } # D for Dihedral angle
| 21> { D 18  17  16  20   C } # D for Dihedral angle
| 22> { D 17  16  20  19   C } # D for Dihedral angle
| 23> { D 15  12  16  20   C } # D for Dihedral angle
| 24> end
| 25> end
| 26>
| 27>
| 28> #%pal
| 29> #nprocs 8
| 30> #end
| 31>
| 32> * xyz 0 1
| 33> C  -21.048   26.222   46.251
| 34> C  -20.361   27.558   45.944
| 35> C  -20.329   28.222   47.341
| 36> C  -20.110   27.022   48.296
| 37> O  -20.473   25.807   47.535
| 38> H  -20.833   25.428   45.533
| 39> H  -19.344   27.382   45.576
| 40> H  -20.898   28.157   45.201
| 41> H  -19.543   28.978   47.434
| 42> H  -21.289   28.710   47.548
| 43> H  -20.733   27.082   49.195
| 44> H  -19.064   26.913   48.597
| 45> C  -23.172   26.101   47.783
| 46> H  -22.940   25.066   48.063
| 47> H  -22.724   26.767   48.532
| 48> O  -22.586   26.394   46.375
| 49> C  -24.713   26.290   47.844
| 50> C  -25.434   25.275   46.949
| 51> C  -25.400   24.002   47.828
| 52> C  -25.551   24.563   49.265
| 53> O  -25.212   26.001   49.193
| 54> H  -24.954   27.333   47.631
| 55> O  -26.897   25.731   46.699
| 56> H  -24.947   25.134   45.978
| 57> H  -26.191   23.290   47.573
| 58> H  -24.438   23.490   47.712
| 59> H  -24.882   24.072   49.979
| 60> H  -26.577   24.492   49.635
| 61> H  -27.407   25.879   47.659
| 62> *
| 63>
| 64>                          ****END OF INPUT****
 Total Charge           Charge          ....    0
 Multiplicity           Mult            ....    1
 Number of Electrons    NEL             ....  102
FINAL SINGLE POINT ENERGY      -652.835657168289
FINAL SINGLE POINT ENERGY      -652.858669754630
FINAL SINGLE POINT ENERGY      -652.862638978002
FINAL SINGLE POINT ENERGY      -652.863230818281
FINAL SINGLE POINT ENERGY      -652.863314967951
FINAL SINGLE POINT ENERGY      -652.863328187186
                    ***********************HURRAY********************

CARTESIAN COORDINATES (ANGSTROEM)
---------------------------------
  C    -21.153302   26.203892   46.375349
  C    -20.580316   27.559661   45.960949
  C    -20.367213   28.245453   47.330859
  C    -19.956084   27.074427   48.250962
  O    -20.387742   25.835580   47.542521
  H    -21.010191   25.402578   45.646749
  H    -19.626419   27.405937   45.442938
  H    -21.259314   28.107945   45.304460
  H    -19.605210   29.029997   47.295502
  H    -21.303902   28.699729   47.670695
  H    -20.434023   27.101717   49.233770
  H    -18.872841   26.994518   48.380397
  C    -23.110190   26.040623   47.943153
  H    -22.851398   25.026806   48.269258
  H    -22.712165   26.743403   48.684118
  O    -22.589539   26.306479   46.609707
  C    -24.623233   26.229720   47.856238
  C    -25.348798   25.254199   46.918661
  C    -25.440322   23.982947   47.799870
  C    -25.642829   24.554025   49.225337
  O    -25.216129   25.975571   49.174636
  H    -24.850616   27.265608   47.590478
  O    -26.667728   25.761348   46.569193
  H    -24.827097   25.103898   45.975491
  H    -26.266598   23.345495   47.475533
  H    -24.512144   23.405614   47.729393
  H    -25.049325   24.032512   49.982063
  H    -26.692058   24.544982   49.536910
  H    -27.093271   26.126335   47.373811

 Multiplicity           Mult            ....    1
 Number of Electrons    NEL             ....  102
 Basis Dimension        Dim             ....  149

ORBITAL ENERGIES
----------------

  NO   OCC          E(Eh)            E(eV)
   0   2.0000     -19.152709      -521.1717
   1   2.0000     -19.142542      -520.8950
   2   2.0000     -19.141730      -520.8730
   3   2.0000     -19.131458      -520.5934
   4   2.0000     -10.281845      -279.7832
   5   2.0000     -10.234444      -278.4934
   6   2.0000     -10.231627      -278.4167
   7   2.0000     -10.229797      -278.3669
   8   2.0000     -10.229159      -278.3496
   9   2.0000     -10.228173      -278.3227
  10   2.0000     -10.193154      -277.3698
  11   2.0000     -10.187865      -277.2259
  12   2.0000     -10.184181      -277.1256
  13   2.0000      -1.057621       -28.7793
  14   2.0000      -1.033157       -28.1136
  15   2.0000      -1.000972       -27.2378
  16   2.0000      -0.995012       -27.0757
  17   2.0000      -0.793594       -21.5948
  18   2.0000      -0.777478       -21.1562
  19   2.0000      -0.767666       -20.8892
  20   2.0000      -0.732871       -19.9424
  21   2.0000      -0.672213       -18.2918
  22   2.0000      -0.606059       -16.4917
  23   2.0000      -0.600897       -16.3512
  24   2.0000      -0.591934       -16.1074
  25   2.0000      -0.576143       -15.6776
  26   2.0000      -0.522391       -14.2150
  27   2.0000      -0.514634       -14.0039
  28   2.0000      -0.500954       -13.6316
  29   2.0000      -0.490756       -13.3541
  30   2.0000      -0.473163       -12.8754
  31   2.0000      -0.455889       -12.4054
  32   2.0000      -0.446270       -12.1436
  33   2.0000      -0.437465       -11.9040
  34   2.0000      -0.420489       -11.4421
  35   2.0000      -0.416397       -11.3307
  36   2.0000      -0.403298       -10.9743
  37   2.0000      -0.389253       -10.5921
  38   2.0000      -0.376566       -10.2469
  39   2.0000      -0.364257        -9.9119
  40   2.0000      -0.363171        -9.8824
  41   2.0000      -0.356376        -9.6975
  42   2.0000      -0.351167        -9.5557
  43   2.0000      -0.341980        -9.3057
  44   2.0000      -0.324412        -8.8277
  45   2.0000      -0.311720        -8.4823
  46   2.0000      -0.301495        -8.2041
  47   2.0000      -0.269070        -7.3218
  48   2.0000      -0.263759        -7.1773
  49   2.0000      -0.251146        -6.8340
  50   2.0000      -0.245482        -6.6799
  51   0.0000       0.067988         1.8500
  52   0.0000       0.069622         1.8945
  53   0.0000       0.095085         2.5874
  54   0.0000       0.099868         2.7175
  55   0.0000       0.101205         2.7539

MULLIKEN ATOMIC CHARGES
-----------------------
   0 C :    0.304553
   1 C :   -0.256365
   2 C :   -0.309795
   3 C :   -0.019905
   4 O :   -0.511920
   5 H :    0.156424
   6 H :    0.145332
   7 H :    0.162162
   8 H :    0.149304
   9 H :    0.157030
  10 H :    0.149273
  11 H :    0.152734
  12 C :    0.011754
  13 H :    0.140063
  14 H :    0.140884
  15 O :   -0.551711
  16 C :    0.056266
  17 C :    0.092504
  18 C :   -0.300434
  19 C :   -0.031563
  20 O :   -0.530970
  21 H :    0.161366
  22 O :   -0.605112
  23 H :    0.174325
  24 H :    0.162406
  25 H :    0.147244
  26 H :    0.148121
  27 H :    0.144879
  28 H :    0.361151
Sum of atomic charges:    0.0000000

LOEWDIN ATOMIC CHARGES
----------------------
   0 C :    0.183018
   1 C :   -0.220119
   2 C :   -0.219714
   3 C :   -0.033286
   4 O :   -0.318812
   5 H :    0.105178
   6 H :    0.114227
   7 H :    0.126381
   8 H :    0.118503
   9 H :    0.115287
  10 H :    0.104044
  11 H :    0.107770
  12 C :   -0.033903
  13 H :    0.099715
  14 H :    0.099747
  15 O :   -0.347758
  16 C :    0.018335
  17 C :    0.038855
  18 C :   -0.241714
  19 C :   -0.038371
  20 O :   -0.332811
  21 H :    0.116394
  22 O :   -0.416097
  23 H :    0.127107
  24 H :    0.126416
  25 H :    0.114794
  26 H :    0.104533
  27 H :    0.101891
  28 H :    0.280390

  Mayer bond orders larger than 0.100000
B(  0-C ,  1-C ) :   0.9327 B(  0-C ,  4-O ) :   0.9145 B(  0-C ,  5-H ) :   0.9299
B(  0-C , 15-O ) :   0.8339 B(  1-C ,  2-C ) :   0.9518 B(  1-C ,  6-H ) :   0.9351
B(  1-C ,  7-H ) :   0.9358 B(  2-C ,  3-C ) :   0.9534 B(  2-C ,  8-H ) :   0.9443
B(  2-C ,  9-H ) :   0.9448 B(  3-C ,  4-O ) :   0.8279 B(  3-C , 10-H ) :   0.9309
B(  3-C , 11-H ) :   0.9396 B( 12-C , 13-H ) :   0.9208 B( 12-C , 14-H ) :   0.9138
B( 12-C , 15-O ) :   0.8121 B( 12-C , 16-C ) :   0.9042 B( 16-C , 17-C ) :   0.9136
B( 16-C , 20-O ) :   0.8444 B( 16-C , 21-H ) :   0.9252 B( 17-C , 18-C ) :   0.9143
B( 17-C , 22-O ) :   0.8857 B( 17-C , 23-H ) :   0.9240 B( 18-C , 19-C ) :   0.9413
B( 18-C , 24-H ) :   0.9375 B( 18-C , 25-H ) :   0.9342 B( 19-C , 20-O ) :   0.8432
B( 19-C , 26-H ) :   0.9352 B( 19-C , 27-H ) :   0.9386 B( 22-O , 28-H ) :   0.7968

FINAL SINGLE POINT ENERGY      -652.863329470351

DIPOLE MOMENT
-------------
                                X             Y             Z
Electronic contribution:     -2.94653      -0.89039      -0.95897
Nuclear contribution   :      3.76091       1.05616       1.34114
                        -----------------------------------------
Total Dipole Moment    :      0.81438       0.16577       0.38217
                        -----------------------------------------
Magnitude (a.u.)       :      0.91474
Magnitude (Debye)      :      2.32508

Rotational constants in cm-1:     0.057964     0.012771     0.012048
Rotational constants in MHz :  1737.714175   382.860659   361.190012

                             ****ORCA TERMINATED NORMALLY****
TOTAL RUN TIME: 0 days 1 hours 9 minutes 34 seconds 827 msec
