                         Program Version 4.2.1 -  RELEASE  -
|  1> # Test redundant internal optimization
|  2> #
|  3> ! RKS B3LYP  Opt TightSCF SmallPrint
|  4>
|  5> %basis
|  6>         Basis "6-31G"
|  7> end
|  8>
|  9> %geom
| 10> Constraints
| 11> { D 4  0  19  14  225.0   C } # D for Dihedral angle
| 12> { D 0  19  14  12  240.0   C } # D for Dihedral angle
| 13> { D 0  4  3  2   C } # D for Dihedral angle
| 14> { D 4  3  2  1   C } # D for Dihedral angle
| 15> { D 3  2  1  0   C } # D for Dihedral angle
| 16> { D 2  1  0  4   C } # D for Dihedral angle
| 17> { D 1  0  4  3   C } # D for Dihedral angle
| 18> { D 14  15  16  17   C } # D for Dihedral angle
| 19> { D 15  16  17  12   C } # D for Dihedral angle
| 20> { D 16  17  12  14   C } # D for Dihedral angle
| 21> { D 17  12  14  15   C } # D for Dihedral angle
| 22> { D 12  14  15  16   C } # D for Dihedral angle
| 23> end
| 24> end
| 25>
| 26>
| 27> #%pal
| 28> #nprocs 8
| 29> #end
| 30>
| 31> * xyz 0 1
| 32> C  -21.048   26.222   46.251
| 33> C  -20.361   27.558   45.944
| 34> C  -20.329   28.222   47.341
| 35> C  -20.110   27.022   48.296
| 36> O  -20.473   25.807   47.535
| 37> H  -20.833   25.428   45.533
| 38> H  -19.344   27.382   45.576
| 39> H  -20.898   28.157   45.201
| 40> H  -19.543   28.978   47.434
| 41> H  -21.289   28.710   47.548
| 42> H  -20.733   27.082   49.195
| 43> H  -19.064   26.913   48.597
| 44> C  -24.040   26.883   44.573
| 45> H  -24.830   26.440   43.947
| 46> C  -23.222   25.800   45.287
| 47> C  -22.277   25.325   44.159
| 48> C  -21.996   26.624   43.364
| 49> O  -23.058   27.584   43.738
| 50> H  -24.483   27.626   45.237
| 51> O  -22.472   26.381   46.366
| 52> H  -23.840   24.992   45.692
| 53> H  -21.361   24.861   44.538
| 54> H  -22.787   24.587   43.526
| 55> H  -22.020   26.468   42.280
| 56> H  -21.039   27.081   43.634
| 57> *
| 58>
| 59>                          ****END OF INPUT****
 Total Charge           Charge          ....    0
 Multiplicity           Mult            ....    1
 Number of Electrons    NEL             ....   86
FINAL SINGLE POINT ENERGY      -538.397047563546
FINAL SINGLE POINT ENERGY      -538.425219756585
FINAL SINGLE POINT ENERGY      -538.426868781931
FINAL SINGLE POINT ENERGY      -538.427105848316
FINAL SINGLE POINT ENERGY      -538.427152546997
FINAL SINGLE POINT ENERGY      -538.427160513717
                    ***********************HURRAY********************

CARTESIAN COORDINATES (ANGSTROEM)
---------------------------------
  C    -20.815545   26.250047   46.267101
  C    -20.229247   27.647588   46.067704
  C    -20.408679   28.272295   47.472238
  C    -20.182957   27.071024   48.416291
  O    -20.353024   25.858119   47.575442
  H    -20.460505   25.489412   45.571028
  H    -19.166058   27.569231   45.809406
  H    -20.753880   28.198787   45.283468
  H    -19.708393   29.090899   47.661930
  H    -21.428255   28.655083   47.574013
  H    -20.901046   27.029324   49.239471
  H    -19.166394   27.031779   48.819791
  C    -23.917567   26.954444   44.641053
  H    -24.845914   26.603539   44.167020
  C    -23.121736   25.786905   45.227273
  C    -22.441784   25.214506   43.970872
  C    -22.149695   26.469747   43.113070
  O    -23.018242   27.545613   43.640301
  H    -24.139635   27.719596   45.384198
  O    -22.260291   26.334583   46.277465
  H    -23.766561   25.045301   45.712028
  H    -21.556618   24.607211   44.173404
  H    -23.167692   24.563660   43.469339
  H    -22.376147   26.312276   42.052634
  H    -21.114135   26.812029   43.205464

 Multiplicity           Mult            ....    1
 Number of Electrons    NEL             ....   86
 Basis Dimension        Dim             ....  127

ORBITAL ENERGIES
----------------

  NO   OCC          E(Eh)            E(eV)
   0   2.0000     -19.137324      -520.7531
   1   2.0000     -19.135189      -520.6950
   2   2.0000     -19.133223      -520.6415
   3   2.0000     -10.276198      -279.6296
   4   2.0000     -10.245021      -278.7812
   5   2.0000     -10.230939      -278.3980
   6   2.0000     -10.223099      -278.1847
   7   2.0000     -10.218949      -278.0717
   8   2.0000     -10.198129      -277.5052
   9   2.0000     -10.178890      -276.9817
  10   2.0000     -10.176620      -276.9199
  11   2.0000      -1.047216       -28.4962
  12   2.0000      -1.018636       -27.7185
  13   2.0000      -0.985127       -26.8067
  14   2.0000      -0.791189       -21.5294
  15   2.0000      -0.776088       -21.1184
  16   2.0000      -0.749352       -20.3909
  17   2.0000      -0.717662       -19.5286
  18   2.0000      -0.618030       -16.8174
  19   2.0000      -0.605267       -16.4702
  20   2.0000      -0.592217       -16.1151
  21   2.0000      -0.564931       -15.3726
  22   2.0000      -0.525804       -14.3079
  23   2.0000      -0.505304       -13.7500
  24   2.0000      -0.482996       -13.1430
  25   2.0000      -0.480858       -13.0848
  26   2.0000      -0.454904       -12.3786
  27   2.0000      -0.437682       -11.9099
  28   2.0000      -0.430431       -11.7126
  29   2.0000      -0.420821       -11.4511
  30   2.0000      -0.399456       -10.8697
  31   2.0000      -0.387219       -10.5368
  32   2.0000      -0.375698       -10.2233
  33   2.0000      -0.373315       -10.1584
  34   2.0000      -0.362379        -9.8608
  35   2.0000      -0.349211        -9.5025
  36   2.0000      -0.343046        -9.3347
  37   2.0000      -0.314218        -8.5503
  38   2.0000      -0.306753        -8.3472
  39   2.0000      -0.297968        -8.1081
  40   2.0000      -0.258317        -7.0292
  41   2.0000      -0.249492        -6.7890
  42   2.0000      -0.236706        -6.4411
  43   0.0000       0.073212         1.9922
  44   0.0000       0.089854         2.4450
  45   0.0000       0.098794         2.6883
  46   0.0000       0.108169         2.9434
  47   0.0000       0.113930         3.1002

MULLIKEN ATOMIC CHARGES
-----------------------
   0 C :    0.290824
   1 C :   -0.263994
   2 C :   -0.299174
   3 C :   -0.001740
   4 O :   -0.505461
   5 H :    0.135646
   6 H :    0.135111
   7 H :    0.169232
   8 H :    0.138486
   9 H :    0.161620
  10 H :    0.150453
  11 H :    0.138368
  12 C :   -0.002447
  13 H :    0.123592
  14 C :    0.100865
  15 C :   -0.339435
  16 C :   -0.005343
  17 O :   -0.521368
  18 H :    0.171279
  19 O :   -0.527360
  20 H :    0.145407
  21 H :    0.160861
  22 H :    0.154987
  23 H :    0.144598
  24 H :    0.144994
Sum of atomic charges:   -0.0000000

LOEWDIN ATOMIC CHARGES
----------------------
   0 C :    0.178526
   1 C :   -0.228577
   2 C :   -0.215782
   3 C :   -0.026794
   4 O :   -0.314995
   5 H :    0.095323
   6 H :    0.108668
   7 H :    0.126873
   8 H :    0.112799
   9 H :    0.118888
  10 H :    0.106907
  11 H :    0.100441
  12 C :   -0.040542
  13 H :    0.090549
  14 C :    0.048876
  15 C :   -0.241555
  16 C :   -0.033867
  17 O :   -0.332449
  18 H :    0.124041
  19 O :   -0.331514
  20 H :    0.106879
  21 H :    0.121820
  22 H :    0.122007
  23 H :    0.102619
  24 H :    0.100860

  Mayer bond orders larger than 0.100000
B(  0-C ,  1-C ) :   0.9370 B(  0-C ,  4-O ) :   0.9286 B(  0-C ,  5-H ) :   0.9128
B(  0-C , 19-O ) :   0.8399 B(  1-C ,  2-C ) :   0.9552 B(  1-C ,  6-H ) :   0.9366
B(  1-C ,  7-H ) :   0.9254 B(  2-C ,  3-C ) :   0.9540 B(  2-C ,  8-H ) :   0.9455
B(  2-C ,  9-H ) :   0.9437 B(  3-C ,  4-O ) :   0.8379 B(  3-C , 10-H ) :   0.9352
B(  3-C , 11-H ) :   0.9401 B( 12-C , 13-H ) :   0.9133 B( 12-C , 14-C ) :   0.9172
B( 12-C , 17-O ) :   0.8584 B( 12-C , 18-H ) :   0.9308 B( 14-C , 15-C ) :   0.9412
B( 14-C , 19-O ) :   0.8521 B( 14-C , 20-H ) :   0.9279 B( 15-C , 16-C ) :   0.9381
B( 15-C , 21-H ) :   0.9274 B( 15-C , 22-H ) :   0.9346 B( 16-C , 17-O ) :   0.8598
B( 16-C , 23-H ) :   0.9334 B( 16-C , 24-H ) :   0.9324

FINAL SINGLE POINT ENERGY      -538.427161772134

DIPOLE MOMENT
-------------
                                X             Y             Z
Electronic contribution:     -1.34952      -1.43140       1.07753
Nuclear contribution   :      1.43432       1.20293      -1.52594
                        -----------------------------------------
Total Dipole Moment    :      0.08480      -0.22847      -0.44842
                        -----------------------------------------
Magnitude (a.u.)       :      0.51036
Magnitude (Debye)      :      1.29723

Rotational constants in cm-1:     0.076549     0.022768     0.021709
Rotational constants in MHz :  2294.870489   682.568860   650.813469

                             ****ORCA TERMINATED NORMALLY****
TOTAL RUN TIME: 0 days 0 hours 9 minutes 3 seconds 408 msec
