                         Program Version 4.2.0 -  RELEASE  -
|  1> # Test redundant internal optimization
|  2> #
|  3> ! RKS B3LYP  Opt TightSCF SmallPrint
|  4>
|  5> %basis
|  6>         Basis "6-31G"
|  7> end
|  8>
|  9> %geom
| 10> Constraints
| 11> { D 4  0  15  12  315.0   C } # D for Dihedral angle
| 12> { D 0  15  12  16  300.0   C } # D for Dihedral angle
| 13> { D 0  4  3  2   C } # D for Dihedral angle
| 14> { D 4  3  2  1   C } # D for Dihedral angle
| 15> { D 3  2  1  0   C } # D for Dihedral angle
| 16> { D 2  1  0  4   C } # D for Dihedral angle
| 17> { D 1  0  4  3   C } # D for Dihedral angle
| 18> { D 16  20  19  18   C } # D for Dihedral angle
| 19> { D 20  19  18  17   C } # D for Dihedral angle
| 20> { D 19  18  17  16   C } # D for Dihedral angle
| 21> { D 18  17  16  20   C } # D for Dihedral angle
| 22> { D 17  16  20  19   C } # D for Dihedral angle
| 23> { D 15  12  16  20   C } # D for Dihedral angle
| 24> end
| 25> end
| 26>
| 27>
| 28> #%pal
| 29> #nprocs 8
| 30> #end
| 31>
| 32> * xyz 0 1
| 33> C  -21.048   26.222   46.251
| 34> C  -20.361   27.558   45.944
| 35> C  -20.329   28.222   47.341
| 36> C  -20.110   27.022   48.296
| 37> O  -20.473   25.807   47.535
| 38> H  -20.833   25.428   45.533
| 39> H  -19.344   27.382   45.576
| 40> H  -20.898   28.157   45.201
| 41> H  -19.543   28.978   47.434
| 42> H  -21.289   28.710   47.548
| 43> H  -20.733   27.082   49.195
| 44> H  -19.064   26.913   48.597
| 45> C  -23.319   25.255   47.135
| 46> H  -22.932   25.196   48.160
| 47> H  -24.396   25.458   47.186
| 48> O  -22.586   26.394   46.375
| 49> C  -23.131   23.867   46.462
| 50> C  -23.569   23.896   44.993
| 51> C  -22.346   24.561   44.316
| 52> C  -21.151   24.019   45.137
| 53> O  -21.710   23.510   46.409
| 54> H  -23.629   23.106   47.066
| 55> H  -23.708   22.875   44.622
| 56> O  -24.887   24.685   44.764
| 57> H  -22.266   24.318   43.251
| 58> H  -22.413   25.652   44.406
| 59> H  -20.406   24.792   45.356
| 60> H  -20.653   23.177   44.646
| 61> H  -24.770   25.711   45.129
| 62> *
| 63>
| 64>                          ****END OF INPUT****
 Total Charge           Charge          ....    0
 Multiplicity           Mult            ....    1
 Number of Electrons    NEL             ....  102
FINAL SINGLE POINT ENERGY      -652.698697851786
FINAL SINGLE POINT ENERGY      -652.761099211017
FINAL SINGLE POINT ENERGY      -652.799111228725
FINAL SINGLE POINT ENERGY      -652.821609120500
FINAL SINGLE POINT ENERGY      -652.834898270790
FINAL SINGLE POINT ENERGY      -652.842750507334
FINAL SINGLE POINT ENERGY      -652.847338550103
FINAL SINGLE POINT ENERGY      -652.849931330839
FINAL SINGLE POINT ENERGY      -652.851115136478
FINAL SINGLE POINT ENERGY      -652.851421025347
FINAL SINGLE POINT ENERGY      -652.853554736032
FINAL SINGLE POINT ENERGY      -652.854579892659
FINAL SINGLE POINT ENERGY      -652.855720924167
FINAL SINGLE POINT ENERGY      -652.856463880879
FINAL SINGLE POINT ENERGY      -652.856688165906
FINAL SINGLE POINT ENERGY      -652.856582903583
FINAL SINGLE POINT ENERGY      -652.856772669606
FINAL SINGLE POINT ENERGY      -652.856789066401
FINAL SINGLE POINT ENERGY      -652.856785645608
                    ***********************HURRAY********************

CARTESIAN COORDINATES (ANGSTROEM)
---------------------------------
  C    -20.928716   26.478573   46.304120
  C    -20.455782   27.926795   46.178443
  C    -20.451690   28.387368   47.654330
  C    -20.020397   27.116756   48.417816
  O    -20.250868   25.983596   47.480188
  H    -20.640789   25.822867   45.485737
  H    -19.444829   27.938474   45.755159
  H    -21.114967   28.523727   45.544351
  H    -19.773015   29.227360   47.830120
  H    -21.461055   28.690737   47.945780
  H    -20.598828   26.943497   49.329038
  H    -18.953920   27.105699   48.660901
  C    -23.088123   25.394152   47.046432
  H    -22.753245   25.292304   48.085315
  H    -24.133009   25.716471   47.044330
  O    -22.366841   26.521535   46.456876
  C    -23.042590   23.990551   46.416212
  C    -23.673440   23.880976   45.016783
  C    -22.442223   24.126907   44.086476
  C    -21.291509   23.459634   44.875360
  O    -21.764489   23.313912   46.273948
  H    -23.611737   23.377029   47.127582
  H    -24.078358   22.878000   44.865579
  O    -24.786620   24.772401   44.778986
  H    -22.578262   23.700012   43.089825
  H    -22.290230   25.208410   43.983646
  H    -20.357456   24.027856   44.867347
  H    -21.080193   22.449420   44.512115
  H    -24.463818   25.697981   44.751203

 Multiplicity           Mult            ....    1
 Number of Electrons    NEL             ....  102
 Basis Dimension        Dim             ....  149

ORBITAL ENERGIES
----------------

  NO   OCC          E(Eh)            E(eV)
   0   2.0000     -19.146417      -521.0005
   1   2.0000     -19.141883      -520.8771
   2   2.0000     -19.141378      -520.8634
   3   2.0000     -19.139188      -520.8038
   4   2.0000     -10.278270      -279.6859
   5   2.0000     -10.239205      -278.6229
   6   2.0000     -10.231157      -278.4039
   7   2.0000     -10.228574      -278.3337
   8   2.0000     -10.227569      -278.3063
   9   2.0000     -10.225975      -278.2629
  10   2.0000     -10.189891      -277.2810
  11   2.0000     -10.185995      -277.1750
  12   2.0000     -10.185713      -277.1674
  13   2.0000      -1.053938       -28.6791
  14   2.0000      -1.030151       -28.0318
  15   2.0000      -1.013156       -27.5694
  16   2.0000      -0.992086       -26.9960
  17   2.0000      -0.789820       -21.4921
  18   2.0000      -0.775630       -21.1060
  19   2.0000      -0.768340       -20.9076
  20   2.0000      -0.732899       -19.9432
  21   2.0000      -0.679382       -18.4869
  22   2.0000      -0.607972       -16.5438
  23   2.0000      -0.605652       -16.4806
  24   2.0000      -0.598348       -16.2819
  25   2.0000      -0.560317       -15.2470
  26   2.0000      -0.529808       -14.4168
  27   2.0000      -0.507646       -13.8137
  28   2.0000      -0.499879       -13.6024
  29   2.0000      -0.483249       -13.1499
  30   2.0000      -0.467997       -12.7348
  31   2.0000      -0.461873       -12.5682
  32   2.0000      -0.442055       -12.0289
  33   2.0000      -0.433464       -11.7952
  34   2.0000      -0.424389       -11.5482
  35   2.0000      -0.411589       -11.1999
  36   2.0000      -0.407040       -11.0761
  37   2.0000      -0.394061       -10.7229
  38   2.0000      -0.378228       -10.2921
  39   2.0000      -0.371543       -10.1102
  40   2.0000      -0.357880        -9.7384
  41   2.0000      -0.357176        -9.7193
  42   2.0000      -0.345606        -9.4044
  43   2.0000      -0.331616        -9.0237
  44   2.0000      -0.328073        -8.9273
  45   2.0000      -0.310014        -8.4359
  46   2.0000      -0.295580        -8.0431
  47   2.0000      -0.272214        -7.4073
  48   2.0000      -0.264151        -7.1879
  49   2.0000      -0.255814        -6.9610
  50   2.0000      -0.237668        -6.4673
  51   0.0000       0.066352         1.8055
  52   0.0000       0.080852         2.2001
  53   0.0000       0.092424         2.5150
  54   0.0000       0.096115         2.6154
  55   0.0000       0.101821         2.7707

MULLIKEN ATOMIC CHARGES
-----------------------
   0 C :    0.305627
   1 C :   -0.261277
   2 C :   -0.294911
   3 C :   -0.011116
   4 O :   -0.504352
   5 H :    0.135482
   6 H :    0.143523
   7 H :    0.153620
   8 H :    0.140811
   9 H :    0.159786
  10 H :    0.146544
  11 H :    0.146363
  12 C :   -0.034090
  13 H :    0.157815
  14 H :    0.156696
  15 O :   -0.549016
  16 C :    0.088735
  17 C :    0.091793
  18 C :   -0.321711
  19 C :   -0.017057
  20 O :   -0.509017
  21 H :    0.152950
  22 H :    0.163262
  23 O :   -0.606532
  24 H :    0.153309
  25 H :    0.146951
  26 H :    0.152216
  27 H :    0.147418
  28 H :    0.366178
Sum of atomic charges:   -0.0000000

LOEWDIN ATOMIC CHARGES
----------------------
   0 C :    0.174570
   1 C :   -0.215605
   2 C :   -0.216040
   3 C :   -0.029192
   4 O :   -0.317269
   5 H :    0.094941
   6 H :    0.112808
   7 H :    0.122585
   8 H :    0.113677
   9 H :    0.118052
  10 H :    0.104334
  11 H :    0.104604
  12 C :   -0.054558
  13 H :    0.110427
  14 H :    0.119383
  15 O :   -0.343184
  16 C :    0.006206
  17 C :    0.034966
  18 C :   -0.242808
  19 C :   -0.032078
  20 O :   -0.311863
  21 H :    0.118007
  22 H :    0.116558
  23 O :   -0.409222
  24 H :    0.121129
  25 H :    0.109943
  26 H :    0.100949
  27 H :    0.105316
  28 H :    0.283364

  Mayer bond orders larger than 0.100000
B(  0-C ,  1-C ) :   0.9444 B(  0-C ,  4-O ) :   0.9171 B(  0-C ,  5-H ) :   0.9020
B(  0-C , 15-O ) :   0.8389 B(  1-C ,  2-C ) :   0.9557 B(  1-C ,  6-H ) :   0.9401
B(  1-C ,  7-H ) :   0.9361 B(  2-C ,  3-C ) :   0.9540 B(  2-C ,  8-H ) :   0.9454
B(  2-C ,  9-H ) :   0.9445 B(  3-C ,  4-O ) :   0.8362 B(  3-C , 10-H ) :   0.9352
B(  3-C , 11-H ) :   0.9402 B( 12-C , 13-H ) :   0.9237 B( 12-C , 14-H ) :   0.9193
B( 12-C , 15-O ) :   0.8470 B( 12-C , 16-C ) :   0.8939 B( 16-C , 17-C ) :   0.8796
B( 16-C , 20-O ) :   0.8767 B( 16-C , 21-H ) :   0.9186 B( 17-C , 18-C ) :   0.9252
B( 17-C , 22-H ) :   0.9366 B( 17-C , 23-O ) :   0.9016 B( 18-C , 19-C ) :   0.9405
B( 18-C , 24-H ) :   0.9415 B( 18-C , 25-H ) :   0.9349 B( 19-C , 20-O ) :   0.8419
B( 19-C , 26-H ) :   0.9147 B( 19-C , 27-H ) :   0.9369 B( 23-O , 28-H ) :   0.7904

FINAL SINGLE POINT ENERGY      -652.856791837553

DIPOLE MOMENT
-------------
                                X             Y             Z
Electronic contribution:     -2.46646      -3.65728       0.39914
Nuclear contribution   :      2.97550       4.51437      -0.70511
                        -----------------------------------------
Total Dipole Moment    :      0.50904       0.85708      -0.30596
                        -----------------------------------------
Magnitude (a.u.)       :      1.04275
Magnitude (Debye)      :      2.65047

Rotational constants in cm-1:     0.050104     0.016487     0.015365
Rotational constants in MHz :  1502.091583   494.269889   460.644885

                             ****ORCA TERMINATED NORMALLY****
TOTAL RUN TIME: 0 days 1 hours 1 minutes 29 seconds 337 msec
