                         Program Version 4.2.0 -  RELEASE  -
|  1> # Test redundant internal optimization
|  2> #
|  3> ! RKS B3LYP  Opt TightSCF SmallPrint
|  4>
|  5> %basis
|  6>         Basis "6-31G"
|  7> end
|  8>
|  9> %geom
| 10> Constraints
| 11> { D 4  0  15  12  135.0   C } # D for Dihedral angle
| 12> { D 0  15  12  16  225.0   C } # D for Dihedral angle
| 13> { D 0  4  3  2   C } # D for Dihedral angle
| 14> { D 4  3  2  1   C } # D for Dihedral angle
| 15> { D 3  2  1  0   C } # D for Dihedral angle
| 16> { D 2  1  0  4   C } # D for Dihedral angle
| 17> { D 1  0  4  3   C } # D for Dihedral angle
| 18> { D 16  20  19  18   C } # D for Dihedral angle
| 19> { D 20  19  18  17   C } # D for Dihedral angle
| 20> { D 19  18  17  16   C } # D for Dihedral angle
| 21> { D 18  17  16  20   C } # D for Dihedral angle
| 22> { D 17  16  20  19   C } # D for Dihedral angle
| 23> { D 15  12  16  20   C } # D for Dihedral angle
| 24> end
| 25> end
| 26>
| 27>
| 28> #%pal
| 29> #nprocs 8
| 30> #end
| 31>
| 32> * xyz 0 1
| 33> C  -21.048   26.222   46.251
| 34> C  -20.361   27.558   45.944
| 35> C  -20.329   28.222   47.341
| 36> C  -20.110   27.022   48.296
| 37> O  -20.473   25.807   47.535
| 38> H  -20.833   25.428   45.533
| 39> H  -19.344   27.382   45.576
| 40> H  -20.898   28.157   45.201
| 41> H  -19.543   28.978   47.434
| 42> H  -21.289   28.710   47.548
| 43> H  -20.733   27.082   49.195
| 44> H  -19.064   26.913   48.597
| 45> C  -23.162   27.680   45.721
| 46> H  -22.341   28.375   45.504
| 47> H  -23.664   27.437   44.775
| 48> O  -22.586   26.394   46.375
| 49> C  -24.191   28.407   46.630
| 50> C  -23.529   28.934   47.908
| 51> C  -22.839   30.221   47.397
| 52> C  -23.826   30.747   46.325
| 53> O  -24.701   29.611   45.965
| 54> H  -25.045   27.750   46.800
| 55> H  -24.294   29.176   48.655
| 56> O  -22.531   27.925   48.539
| 57> H  -22.658   30.950   48.193
| 58> H  -21.872   29.974   46.943
| 59> H  -23.316   31.107   45.426
| 60> H  -24.472   31.543   46.708
| 61> H  -21.756   27.668   47.809
| 62> *
| 63>
| 64>                          ****END OF INPUT****
 Total Charge           Charge          ....    0
 Multiplicity           Mult            ....    1
 Number of Electrons    NEL             ....  102
FINAL SINGLE POINT ENERGY      -652.731219672025
FINAL SINGLE POINT ENERGY      -652.813549948027
FINAL SINGLE POINT ENERGY      -652.834608573211
FINAL SINGLE POINT ENERGY      -652.841594464088
FINAL SINGLE POINT ENERGY      -652.845306934464
FINAL SINGLE POINT ENERGY      -652.848466859798
FINAL SINGLE POINT ENERGY      -652.850793101478
FINAL SINGLE POINT ENERGY      -652.852367444926
FINAL SINGLE POINT ENERGY      -652.853381494048
FINAL SINGLE POINT ENERGY      -652.853833060963
FINAL SINGLE POINT ENERGY      -652.853914455998
FINAL SINGLE POINT ENERGY      -652.853938387370
                    ***********************HURRAY********************

CARTESIAN COORDINATES (ANGSTROEM)
---------------------------------
  C    -21.081805   26.297406   46.296058
  C    -20.052703   27.343405   45.857353
  C    -19.825879   28.143485   47.170281
  C    -19.944300   27.056918   48.260332
  O    -20.647526   25.908691   47.603980
  H    -21.023988   25.385440   45.695829
  H    -19.145048   26.803675   45.568792
  H    -20.357609   27.964831   45.011442
  H    -18.851872   28.642141   47.187374
  H    -20.602385   28.896456   47.309212
  H    -20.527306   27.384648   49.120636
  H    -18.974151   26.669587   48.582223
  C    -23.130307   27.778143   45.647531
  H    -22.368793   28.512020   45.361243
  H    -23.646861   27.449015   44.740593
  O    -22.520609   26.611652   46.294433
  C    -24.155183   28.429949   46.591782
  C    -23.668702   28.979265   47.941171
  C    -23.098337   30.366224   47.532830
  C    -24.049392   30.812348   46.400186
  O    -24.748636   29.587251   45.928723
  H    -24.971008   27.715272   46.743827
  H    -24.547171   29.125365   48.582913
  O    -22.711974   28.156466   48.640407
  H    -23.080620   31.067431   48.372089
  H    -22.072608   30.247910   47.173113
  H    -23.524764   31.270420   45.555428
  H    -24.825028   31.501244   46.747464
  H    -22.653434   27.273342   48.206756

 Multiplicity           Mult            ....    1
 Number of Electrons    NEL             ....  102
 Basis Dimension        Dim             ....  149

ORBITAL ENERGIES
----------------

  NO   OCC          E(Eh)            E(eV)
   0   2.0000     -19.153585      -521.1956
   1   2.0000     -19.148577      -521.0593
   2   2.0000     -19.145606      -520.9784
   3   2.0000     -19.130117      -520.5569
   4   2.0000     -10.287780      -279.9447
   5   2.0000     -10.239941      -278.6430
   6   2.0000     -10.239827      -278.6399
   7   2.0000     -10.237182      -278.5679
   8   2.0000     -10.233038      -278.4551
   9   2.0000     -10.223231      -278.1882
  10   2.0000     -10.199259      -277.5359
  11   2.0000     -10.190201      -277.2895
  12   2.0000     -10.188787      -277.2510
  13   2.0000      -1.056007       -28.7354
  14   2.0000      -1.031898       -28.0794
  15   2.0000      -1.007975       -27.4284
  16   2.0000      -0.998737       -27.1770
  17   2.0000      -0.792827       -21.5739
  18   2.0000      -0.779192       -21.2029
  19   2.0000      -0.772925       -21.0324
  20   2.0000      -0.736883       -20.0516
  21   2.0000      -0.684506       -18.6264
  22   2.0000      -0.607589       -16.5333
  23   2.0000      -0.603153       -16.4126
  24   2.0000      -0.596440       -16.2300
  25   2.0000      -0.577470       -15.7137
  26   2.0000      -0.530761       -14.4427
  27   2.0000      -0.508567       -13.8388
  28   2.0000      -0.506428       -13.7806
  29   2.0000      -0.500628       -13.6228
  30   2.0000      -0.471459       -12.8291
  31   2.0000      -0.455579       -12.3969
  32   2.0000      -0.448980       -12.2174
  33   2.0000      -0.441791       -12.0218
  34   2.0000      -0.433244       -11.7892
  35   2.0000      -0.416806       -11.3419
  36   2.0000      -0.411821       -11.2062
  37   2.0000      -0.390613       -10.6291
  38   2.0000      -0.384295       -10.4572
  39   2.0000      -0.374321       -10.1858
  40   2.0000      -0.367124        -9.9899
  41   2.0000      -0.360099        -9.7988
  42   2.0000      -0.348974        -9.4961
  43   2.0000      -0.341133        -9.2827
  44   2.0000      -0.321593        -8.7510
  45   2.0000      -0.304399        -8.2831
  46   2.0000      -0.295712        -8.0467
  47   2.0000      -0.279221        -7.5980
  48   2.0000      -0.265236        -7.2175
  49   2.0000      -0.257397        -7.0041
  50   2.0000      -0.245001        -6.6668
  51   0.0000       0.056475         1.5368
  52   0.0000       0.066331         1.8050
  53   0.0000       0.089620         2.4387
  54   0.0000       0.090760         2.4697
  55   0.0000       0.108330         2.9478

MULLIKEN ATOMIC CHARGES
-----------------------
   0 C :    0.322488
   1 C :   -0.302595
   2 C :   -0.321932
   3 C :   -0.028350
   4 O :   -0.506306
   5 H :    0.161522
   6 H :    0.161909
   7 H :    0.145015
   8 H :    0.141715
   9 H :    0.177597
  10 H :    0.186070
  11 H :    0.143219
  12 C :   -0.000672
  13 H :    0.128370
  14 H :    0.162832
  15 O :   -0.561155
  16 C :    0.049180
  17 C :    0.116522
  18 C :   -0.312104
  19 C :   -0.020044
  20 O :   -0.519734
  21 H :    0.165096
  22 H :    0.149691
  23 O :   -0.644103
  24 H :    0.156875
  25 H :    0.150907
  26 H :    0.142693
  27 H :    0.153042
  28 H :    0.402250
Sum of atomic charges:   -0.0000000

LOEWDIN ATOMIC CHARGES
----------------------
   0 C :    0.181691
   1 C :   -0.230823
   2 C :   -0.224122
   3 C :   -0.035695
   4 O :   -0.310628
   5 H :    0.104933
   6 H :    0.125733
   7 H :    0.114674
   8 H :    0.115333
   9 H :    0.116632
  10 H :    0.123126
  11 H :    0.103270
  12 C :   -0.037544
  13 H :    0.095920
  14 H :    0.113730
  15 O :   -0.350030
  16 C :    0.013853
  17 C :    0.041139
  18 C :   -0.234153
  19 C :   -0.031688
  20 O :   -0.320687
  21 H :    0.115533
  22 H :    0.103700
  23 O :   -0.429459
  24 H :    0.123102
  25 H :    0.110107
  26 H :    0.101730
  27 H :    0.107380
  28 H :    0.293243

  Mayer bond orders larger than 0.100000
B(  0-C ,  1-C ) :   0.9278 B(  0-C ,  4-O ) :   0.9325 B(  0-C ,  5-H ) :   0.9318
B(  0-C , 15-O ) :   0.8249 B(  1-C ,  2-C ) :   0.9524 B(  1-C ,  6-H ) :   0.9315
B(  1-C ,  7-H ) :   0.9294 B(  2-C ,  3-C ) :   0.9532 B(  2-C ,  8-H ) :   0.9456
B(  2-C ,  9-H ) :   0.9127 B(  3-C ,  4-O ) :   0.8178 B(  3-C , 10-H ) :   0.9176
B(  3-C , 11-H ) :   0.9391 B( 12-C , 13-H ) :   0.9175 B( 12-C , 14-H ) :   0.9266
B( 12-C , 15-O ) :   0.8057 B( 12-C , 16-C ) :   0.9023 B( 16-C , 17-C ) :   0.9133
B( 16-C , 20-O ) :   0.8526 B( 16-C , 21-H ) :   0.9277 B( 17-C , 18-C ) :   0.9182
B( 17-C , 22-H ) :   0.9229 B( 17-C , 23-O ) :   0.9079 B( 18-C , 19-C ) :   0.9392
B( 18-C , 24-H ) :   0.9434 B( 18-C , 25-H ) :   0.9299 B( 19-C , 20-O ) :   0.8362
B( 19-C , 26-H ) :   0.9339 B( 19-C , 27-H ) :   0.9372 B( 23-O , 28-H ) :   0.7189

FINAL SINGLE POINT ENERGY      -652.853942510048

DIPOLE MOMENT
-------------
                                X             Y             Z
Electronic contribution:     -4.12537      -4.91028       0.46608
Nuclear contribution   :      5.00586       5.89539      -1.08961
                        -----------------------------------------
Total Dipole Moment    :      0.88049       0.98510      -0.62353
                        -----------------------------------------
Magnitude (a.u.)       :      1.46099
Magnitude (Debye)      :      3.71353

Rotational constants in cm-1:     0.048011     0.017902     0.016610
Rotational constants in MHz :  1439.322430   536.676206   497.955393

                             ****ORCA TERMINATED NORMALLY****
TOTAL RUN TIME: 0 days 1 hours 18 minutes 52 seconds 918 msec
