                         Program Version 4.2.0 -  RELEASE  -
|  1> # Test redundant internal optimization
|  2> #
|  3> ! RKS B3LYP  Opt TightSCF SmallPrint
|  4>
|  5> %basis
|  6>         Basis "6-31G"
|  7> end
|  8>
|  9> %geom
| 10> Constraints
| 11> { D 4  0  15  12  255.0   C } # D for Dihedral angle
| 12> { D 0  15  12  16  315.0   C } # D for Dihedral angle
| 13> { D 0  4  3  2   C } # D for Dihedral angle
| 14> { D 4  3  2  1   C } # D for Dihedral angle
| 15> { D 3  2  1  0   C } # D for Dihedral angle
| 16> { D 2  1  0  4   C } # D for Dihedral angle
| 17> { D 1  0  4  3   C } # D for Dihedral angle
| 18> { D 16  20  19  18   C } # D for Dihedral angle
| 19> { D 20  19  18  17   C } # D for Dihedral angle
| 20> { D 19  18  17  16   C } # D for Dihedral angle
| 21> { D 18  17  16  20   C } # D for Dihedral angle
| 22> { D 17  16  20  19   C } # D for Dihedral angle
| 23> { D 15  12  16  20   C } # D for Dihedral angle
| 24> end
| 25> end
| 26>
| 27>
| 28> #%pal
| 29> #nprocs 8
| 30> #end
| 31>
| 32> * xyz 0 1
| 33> C  -21.048   26.222   46.251
| 34> C  -20.361   27.558   45.944
| 35> C  -20.329   28.222   47.341
| 36> C  -20.110   27.022   48.296
| 37> O  -20.473   25.807   47.535
| 38> H  -20.833   25.428   45.533
| 39> H  -19.344   27.382   45.576
| 40> H  -20.898   28.157   45.201
| 41> H  -19.543   28.978   47.434
| 42> H  -21.289   28.710   47.548
| 43> H  -20.733   27.082   49.195
| 44> H  -19.064   26.913   48.597
| 45> C  -23.431   25.260   45.734
| 46> H  -23.397   24.373   46.379
| 47> H  -24.479   25.571   45.634
| 48> O  -22.586   26.394   46.375
| 49> C  -22.922   24.856   44.322
| 50> C  -22.857   26.068   43.386
| 51> C  -21.539   26.742   43.837
| 52> C  -20.637   25.538   44.206
| 53> O  -21.537   24.380   44.394
| 54> H  -23.526   24.028   43.947
| 55> H  -22.784   25.735   42.345
| 56> O  -24.088   27.007   43.515
| 57> H  -21.096   27.373   43.060
| 58> H  -21.720   27.373   44.716
| 59> H  -20.070   25.706   45.128
| 60> H  -19.939   25.278   43.405
| 61> H  -24.180   27.352   44.551
| 62> *
| 63>
| 64>                          ****END OF INPUT****
 Total Charge           Charge          ....    0
 Multiplicity           Mult            ....    1
 Number of Electrons    NEL             ....  102
FINAL SINGLE POINT ENERGY      -652.590619424838
FINAL SINGLE POINT ENERGY      -652.699467260205
FINAL SINGLE POINT ENERGY      -652.760997007787
FINAL SINGLE POINT ENERGY      -652.798906272900
FINAL SINGLE POINT ENERGY      -652.821038697935
FINAL SINGLE POINT ENERGY      -652.833730211170
FINAL SINGLE POINT ENERGY      -652.840935414552
FINAL SINGLE POINT ENERGY      -652.845033584187
FINAL SINGLE POINT ENERGY      -652.847286307809
FINAL SINGLE POINT ENERGY      -652.848432932026
FINAL SINGLE POINT ENERGY      -652.849333554210
FINAL SINGLE POINT ENERGY      -652.849666176937
FINAL SINGLE POINT ENERGY      -652.849894241056
FINAL SINGLE POINT ENERGY      -652.850015964893
FINAL SINGLE POINT ENERGY      -652.850093263534
FINAL SINGLE POINT ENERGY      -652.850152707989
FINAL SINGLE POINT ENERGY      -652.850181941121
FINAL SINGLE POINT ENERGY      -652.850194989815
FINAL SINGLE POINT ENERGY      -652.850204288350
                    ***********************HURRAY********************

CARTESIAN COORDINATES (ANGSTROEM)
---------------------------------
  C    -20.870432   26.360828   46.521058
  C    -20.332287   27.789241   46.415662
  C    -20.507490   28.305504   47.865390
  C    -20.226248   27.044114   48.713828
  O    -20.370678   25.892063   47.794264
  H    -20.522860   25.636864   45.791689
  H    -19.271874   27.759228   46.138362
  H    -20.873274   28.392865   45.684275
  H    -19.828628   29.129474   48.103202
  H    -21.536413   28.647051   48.011465
  H    -20.927038   26.923872   49.544174
  H    -19.202371   27.013444   49.099445
  C    -23.136397   25.433083   45.849762
  H    -23.176845   24.539980   46.487632
  H    -24.137036   25.875186   45.826421
  O    -22.317218   26.426169   46.539444
  C    -22.848848   24.936219   44.418218
  C    -23.037342   25.945445   43.270063
  C    -21.584844   26.487701   43.079695
  C    -20.715557   25.245165   43.371391
  O    -21.582642   24.283120   44.111685
  H    -23.598087   24.138953   44.308290
  H    -23.376812   25.426607   42.371737
  O    -24.034340   26.961579   43.512223
  H    -21.419342   26.893146   42.078132
  H    -21.404206   27.286605   43.807438
  H    -19.824097   25.466376   43.964946
  H    -20.403900   24.733186   42.456927
  H    -23.745894   27.541931   44.248180

 Multiplicity           Mult            ....    1
 Number of Electrons    NEL             ....  102
 Basis Dimension        Dim             ....  149

ORBITAL ENERGIES
----------------

  NO   OCC          E(Eh)            E(eV)
   0   2.0000     -19.151291      -521.1331
   1   2.0000     -19.149292      -521.0787
   2   2.0000     -19.143350      -520.9170
   3   2.0000     -19.134946      -520.6884
   4   2.0000     -10.276660      -279.6421
   5   2.0000     -10.246983      -278.8346
   6   2.0000     -10.240017      -278.6450
   7   2.0000     -10.237899      -278.5874
   8   2.0000     -10.233401      -278.4650
   9   2.0000     -10.222283      -278.1625
  10   2.0000     -10.197135      -277.4782
  11   2.0000     -10.188708      -277.2488
  12   2.0000     -10.185895      -277.1723
  13   2.0000      -1.050380       -28.5823
  14   2.0000      -1.037382       -28.2286
  15   2.0000      -1.021294       -27.7908
  16   2.0000      -0.991170       -26.9711
  17   2.0000      -0.789215       -21.4756
  18   2.0000      -0.784205       -21.3393
  19   2.0000      -0.772951       -21.0331
  20   2.0000      -0.733362       -19.9558
  21   2.0000      -0.685645       -18.6573
  22   2.0000      -0.615981       -16.7617
  23   2.0000      -0.606989       -16.5170
  24   2.0000      -0.598262       -16.2795
  25   2.0000      -0.568553       -15.4711
  26   2.0000      -0.533078       -14.5058
  27   2.0000      -0.511137       -13.9087
  28   2.0000      -0.507695       -13.8151
  29   2.0000      -0.483174       -13.1478
  30   2.0000      -0.465040       -12.6544
  31   2.0000      -0.463174       -12.6036
  32   2.0000      -0.447225       -12.1696
  33   2.0000      -0.442044       -12.0286
  34   2.0000      -0.430989       -11.7278
  35   2.0000      -0.416005       -11.3201
  36   2.0000      -0.410203       -11.1622
  37   2.0000      -0.398337       -10.8393
  38   2.0000      -0.382852       -10.4179
  39   2.0000      -0.373262       -10.1570
  40   2.0000      -0.366781        -9.9806
  41   2.0000      -0.353839        -9.6284
  42   2.0000      -0.348382        -9.4800
  43   2.0000      -0.339607        -9.2412
  44   2.0000      -0.319114        -8.6835
  45   2.0000      -0.316337        -8.6080
  46   2.0000      -0.307512        -8.3678
  47   2.0000      -0.271777        -7.3954
  48   2.0000      -0.270367        -7.3571
  49   2.0000      -0.249548        -6.7905
  50   2.0000      -0.243379        -6.6227
  51   0.0000       0.054976         1.4960
  52   0.0000       0.069039         1.8786
  53   0.0000       0.077447         2.1074
  54   0.0000       0.091756         2.4968
  55   0.0000       0.100532         2.7356

MULLIKEN ATOMIC CHARGES
-----------------------
   0 C :    0.269010
   1 C :   -0.261848
   2 C :   -0.300054
   3 C :   -0.000463
   4 O :   -0.506248
   5 H :    0.177730
   6 H :    0.142997
   7 H :    0.143527
   8 H :    0.139925
   9 H :    0.161900
  10 H :    0.150434
  11 H :    0.139714
  12 C :   -0.034004
  13 H :    0.159543
  14 H :    0.157606
  15 O :   -0.537652
  16 C :    0.077484
  17 C :    0.092615
  18 C :   -0.317284
  19 C :   -0.031184
  20 O :   -0.514358
  21 H :    0.159348
  22 H :    0.167743
  23 O :   -0.602160
  24 H :    0.155776
  25 H :    0.146217
  26 H :    0.142359
  27 H :    0.156142
  28 H :    0.365186
Sum of atomic charges:   -0.0000000

LOEWDIN ATOMIC CHARGES
----------------------
   0 C :    0.168221
   1 C :   -0.221232
   2 C :   -0.215808
   3 C :   -0.027396
   4 O :   -0.318008
   5 H :    0.114855
   6 H :    0.112498
   7 H :    0.111919
   8 H :    0.113035
   9 H :    0.118855
  10 H :    0.106789
  11 H :    0.101105
  12 C :   -0.052016
  13 H :    0.110011
  14 H :    0.120861
  15 O :   -0.341750
  16 C :    0.000830
  17 C :    0.035373
  18 C :   -0.241787
  19 C :   -0.034777
  20 O :   -0.320617
  21 H :    0.121131
  22 H :    0.118821
  23 O :   -0.405588
  24 H :    0.122824
  25 H :    0.110107
  26 H :    0.099007
  27 H :    0.109198
  28 H :    0.283538

  Mayer bond orders larger than 0.100000
B(  0-C ,  1-C ) :   0.9395 B(  0-C ,  4-O ) :   0.9140 B(  0-C ,  5-H ) :   0.8986
B(  0-C , 15-O ) :   0.8343 B(  1-C ,  2-C ) :   0.9530 B(  1-C ,  6-H ) :   0.9390
B(  1-C ,  7-H ) :   0.9317 B(  2-C ,  3-C ) :   0.9538 B(  2-C ,  8-H ) :   0.9455
B(  2-C ,  9-H ) :   0.9440 B(  3-C ,  4-O ) :   0.8417 B(  3-C , 10-H ) :   0.9351
B(  3-C , 11-H ) :   0.9398 B( 12-C , 13-H ) :   0.9225 B( 12-C , 14-H ) :   0.9166
B( 12-C , 15-O ) :   0.8580 B( 12-C , 16-C ) :   0.9023 B( 16-C , 17-C ) :   0.8761
B( 16-C , 20-O ) :   0.8625 B( 16-C , 21-H ) :   0.9167 B( 17-C , 18-C ) :   0.9217
B( 17-C , 22-H ) :   0.9354 B( 17-C , 23-O ) :   0.9057 B( 18-C , 19-C ) :   0.9401
B( 18-C , 24-H ) :   0.9425 B( 18-C , 25-H ) :   0.9304 B( 19-C , 20-O ) :   0.8355
B( 19-C , 26-H ) :   0.9210 B( 19-C , 27-H ) :   0.9397 B( 23-O , 28-H ) :   0.7908

FINAL SINGLE POINT ENERGY      -652.850211672453

DIPOLE MOMENT
-------------
                                X             Y             Z
Electronic contribution:     -2.78464      -4.23174      -0.32700
Nuclear contribution   :      3.33126       5.20644      -0.01782
                        -----------------------------------------
Total Dipole Moment    :      0.54662       0.97470      -0.34482
                        -----------------------------------------
Magnitude (a.u.)       :      1.16951
Magnitude (Debye)      :      2.97265

Rotational constants in cm-1:     0.046958     0.016100     0.015573
Rotational constants in MHz :  1407.756217   482.657110   466.852426

                             ****ORCA TERMINATED NORMALLY****
TOTAL RUN TIME: 0 days 0 hours 52 minutes 13 seconds 430 msec
