                         Program Version 4.2.0 -  RELEASE  -
|  1> # Test redundant internal optimization
|  2> #
|  3> ! RKS B3LYP  Opt TightSCF SmallPrint
|  4>
|  5> %basis
|  6>         Basis "6-31G"
|  7> end
|  8>
|  9> %geom
| 10> Constraints
| 11> { D 4  0  15  12  150.0   C } # D for Dihedral angle
| 12> { D 0  15  12  16  165.0   C } # D for Dihedral angle
| 13> { D 0  4  3  2   C } # D for Dihedral angle
| 14> { D 4  3  2  1   C } # D for Dihedral angle
| 15> { D 3  2  1  0   C } # D for Dihedral angle
| 16> { D 2  1  0  4   C } # D for Dihedral angle
| 17> { D 1  0  4  3   C } # D for Dihedral angle
| 18> { D 16  20  19  18   C } # D for Dihedral angle
| 19> { D 20  19  18  17   C } # D for Dihedral angle
| 20> { D 19  18  17  16   C } # D for Dihedral angle
| 21> { D 18  17  16  20   C } # D for Dihedral angle
| 22> { D 17  16  20  19   C } # D for Dihedral angle
| 23> { D 15  12  16  20   C } # D for Dihedral angle
| 24> end
| 25> end
| 26>
| 27>
| 28> #%pal
| 29> #nprocs 8
| 30> #end
| 31>
| 32> * xyz 0 1
| 33> C  -21.048   26.222   46.251
| 34> C  -20.361   27.558   45.944
| 35> C  -20.329   28.222   47.341
| 36> C  -20.110   27.022   48.296
| 37> O  -20.473   25.807   47.535
| 38> H  -20.833   25.428   45.533
| 39> H  -19.344   27.382   45.576
| 40> H  -20.898   28.157   45.201
| 41> H  -19.543   28.978   47.434
| 42> H  -21.289   28.710   47.548
| 43> H  -20.733   27.082   49.195
| 44> H  -19.064   26.913   48.597
| 45> C  -23.210   27.459   45.431
| 46> H  -22.970   28.461   45.808
| 47> H  -22.796   27.364   44.419
| 48> O  -22.586   26.394   46.375
| 49> C  -24.755   27.334   45.324
| 50> C  -25.323   28.322   44.299
| 51> C  -25.017   27.600   42.965
| 52> C  -25.198   26.105   43.325
| 53> O  -25.128   26.016   44.799
| 54> H  -25.191   27.417   46.321
| 55> H  -26.404   28.432   44.440
| 56> O  -24.672   29.730   44.384
| 57> H  -25.677   27.916   42.150
| 58> H  -23.984   27.801   42.656
| 59> H  -24.416   25.471   42.891
| 60> H  -26.175   25.718   43.025
| 61> H  -23.589   29.646   44.244
| 62> *
| 63>
| 64>                          ****END OF INPUT****
 Total Charge           Charge          ....    0
 Multiplicity           Mult            ....    1
 Number of Electrons    NEL             ....  102
FINAL SINGLE POINT ENERGY      -652.819202040554
FINAL SINGLE POINT ENERGY      -652.843085251160
FINAL SINGLE POINT ENERGY      -652.847969452338
FINAL SINGLE POINT ENERGY      -652.848792923088
FINAL SINGLE POINT ENERGY      -652.848948184826
FINAL SINGLE POINT ENERGY      -652.848983474431
FINAL SINGLE POINT ENERGY      -652.848988712271
FINAL SINGLE POINT ENERGY      -652.848989372484
                    ***********************HURRAY********************

CARTESIAN COORDINATES (ANGSTROEM)
---------------------------------
  C    -21.065781   26.275339   46.212471
  C    -20.207307   27.519842   45.983034
  C    -20.260299   28.211082   47.371354
  C    -20.286080   27.011272   48.342464
  O    -20.695703   25.840625   47.529279
  H    -20.867122   25.441595   45.533625
  H    -19.185316   27.197381   45.753340
  H    -20.546053   28.162349   45.166621
  H    -19.403506   28.869645   47.542452
  H    -21.174010   28.807761   47.465045
  H    -20.998880   27.136173   49.161417
  H    -19.299299   26.777712   48.752952
  C    -23.056547   27.533720   45.345313
  H    -22.857196   28.546635   45.722985
  H    -22.624435   27.447111   44.335092
  O    -22.504330   26.525299   46.224439
  C    -24.567492   27.312635   45.296244
  C    -25.312510   28.285971   44.367834
  C    -25.137836   27.600622   42.979374
  C    -25.194325   26.098758   43.332332
  O    -24.934097   25.994519   44.790700
  H    -24.943528   27.349970   46.322697
  H    -26.367300   28.316317   44.648711
  O    -24.876124   29.666330   44.429013
  H    -25.910525   27.902352   42.267452
  H    -24.162232   27.877944   42.556742
  H    -24.450580   25.504577   42.792373
  H    -26.184393   25.668962   43.152731
  H    -24.043192   29.784503   43.928912

 Multiplicity           Mult            ....    1
 Number of Electrons    NEL             ....  102
 Basis Dimension        Dim             ....  149

ORBITAL ENERGIES
----------------

  NO   OCC          E(Eh)            E(eV)
   0   2.0000     -19.152456      -521.1648
   1   2.0000     -19.137407      -520.7553
   2   2.0000     -19.135952      -520.7157
   3   2.0000     -19.134882      -520.6866
   4   2.0000     -10.277794      -279.6730
   5   2.0000     -10.246480      -278.8209
   6   2.0000     -10.232982      -278.4536
   7   2.0000     -10.230339      -278.3817
   8   2.0000     -10.230152      -278.3766
   9   2.0000     -10.224750      -278.2296
  10   2.0000     -10.197815      -277.4967
  11   2.0000     -10.192196      -277.3438
  12   2.0000     -10.191272      -277.3186
  13   2.0000      -1.050500       -28.5856
  14   2.0000      -1.035123       -28.1671
  15   2.0000      -1.016194       -27.6520
  16   2.0000      -0.990202       -26.9448
  17   2.0000      -0.788964       -21.4688
  18   2.0000      -0.784200       -21.3392
  19   2.0000      -0.769737       -20.9456
  20   2.0000      -0.731778       -19.9127
  21   2.0000      -0.684025       -18.6133
  22   2.0000      -0.613172       -16.6853
  23   2.0000      -0.604202       -16.4412
  24   2.0000      -0.591422       -16.0934
  25   2.0000      -0.573189       -15.5973
  26   2.0000      -0.528502       -14.3813
  27   2.0000      -0.510250       -13.8846
  28   2.0000      -0.501660       -13.6509
  29   2.0000      -0.496385       -13.5073
  30   2.0000      -0.470455       -12.8017
  31   2.0000      -0.461360       -12.5542
  32   2.0000      -0.446171       -12.1409
  33   2.0000      -0.437875       -11.9152
  34   2.0000      -0.430544       -11.7157
  35   2.0000      -0.413615       -11.2550
  36   2.0000      -0.412170       -11.2157
  37   2.0000      -0.398784       -10.8515
  38   2.0000      -0.380480       -10.3534
  39   2.0000      -0.378053       -10.2873
  40   2.0000      -0.363381        -9.8881
  41   2.0000      -0.356123        -9.6906
  42   2.0000      -0.351367        -9.5612
  43   2.0000      -0.331466        -9.0196
  44   2.0000      -0.316399        -8.6097
  45   2.0000      -0.311374        -8.4729
  46   2.0000      -0.294561        -8.0154
  47   2.0000      -0.272654        -7.4193
  48   2.0000      -0.260203        -7.0805
  49   2.0000      -0.248721        -6.7680
  50   2.0000      -0.239586        -6.5195
  51   0.0000       0.046035         1.2527
  52   0.0000       0.071279         1.9396
  53   0.0000       0.084839         2.3086
  54   0.0000       0.090782         2.4703
  55   0.0000       0.104166         2.8345

MULLIKEN ATOMIC CHARGES
-----------------------
   0 C :    0.316333
   1 C :   -0.293061
   2 C :   -0.302948
   3 C :    0.000402
   4 O :   -0.495292
   5 H :    0.150243
   6 H :    0.151656
   7 H :    0.136933
   8 H :    0.144447
   9 H :    0.155776
  10 H :    0.154928
  11 H :    0.142575
  12 C :   -0.013578
  13 H :    0.129981
  14 H :    0.112918
  15 O :   -0.508857
  16 C :    0.096040
  17 C :    0.082185
  18 C :   -0.325028
  19 C :   -0.009339
  20 O :   -0.499652
  21 H :    0.168530
  22 H :    0.169661
  23 O :   -0.600413
  24 H :    0.160102
  25 H :    0.126669
  26 H :    0.145586
  27 H :    0.149048
  28 H :    0.354154
Sum of atomic charges:   -0.0000000

LOEWDIN ATOMIC CHARGES
----------------------
   0 C :    0.184724
   1 C :   -0.234732
   2 C :   -0.217761
   3 C :   -0.026437
   4 O :   -0.302835
   5 H :    0.102296
   6 H :    0.119233
   7 H :    0.110942
   8 H :    0.115369
   9 H :    0.113234
  10 H :    0.109633
  11 H :    0.102972
  12 C :   -0.052038
  13 H :    0.093948
  14 H :    0.082261
  15 O :   -0.323223
  16 C :    0.023716
  17 C :    0.034716
  18 C :   -0.241696
  19 C :   -0.030090
  20 O :   -0.308582
  21 H :    0.122543
  22 H :    0.120432
  23 O :   -0.408258
  24 H :    0.123173
  25 H :    0.100475
  26 H :    0.103299
  27 H :    0.106092
  28 H :    0.276593

  Mayer bond orders larger than 0.100000
B(  0-C ,  1-C ) :   0.9290 B(  0-C ,  4-O ) :   0.9340 B(  0-C ,  5-H ) :   0.9237
B(  0-C , 15-O ) :   0.8451 B(  1-C ,  2-C ) :   0.9500 B(  1-C ,  6-H ) :   0.9342
B(  1-C ,  7-H ) :   0.9290 B(  2-C ,  3-C ) :   0.9536 B(  2-C ,  8-H ) :   0.9453
B(  2-C ,  9-H ) :   0.9433 B(  3-C ,  4-O ) :   0.8394 B(  3-C , 10-H ) :   0.9339
B(  3-C , 11-H ) :   0.9396 B( 12-C , 13-H ) :   0.8949 B( 12-C , 14-H ) :   0.9136
B( 12-C , 15-O ) :   0.8543 B( 12-C , 16-C ) :   0.8996 B( 16-C , 17-C ) :   0.8731
B( 16-C , 20-O ) :   0.8747 B( 16-C , 21-H ) :   0.9283 B( 17-C , 18-C ) :   0.9245
B( 17-C , 22-H ) :   0.9329 B( 17-C , 23-O ) :   0.8935 B( 18-C , 19-C ) :   0.9373
B( 18-C , 24-H ) :   0.9414 B( 18-C , 25-H ) :   0.9408 B( 19-C , 20-O ) :   0.8534
B( 19-C , 26-H ) :   0.9311 B( 19-C , 27-H ) :   0.9375 B( 23-O , 28-H ) :   0.7997

FINAL SINGLE POINT ENERGY      -652.848989483953

DIPOLE MOMENT
-------------
                                X             Y             Z
Electronic contribution:     -2.91239      -3.58076       2.16076
Nuclear contribution   :      3.71292       4.76413      -3.45725
                        -----------------------------------------
Total Dipole Moment    :      0.80053       1.18337      -1.29649
                        -----------------------------------------
Magnitude (a.u.)       :      1.92927
Magnitude (Debye)      :      4.90383

Rotational constants in cm-1:     0.054580     0.012914     0.011614
Rotational constants in MHz :  1636.279979   387.163814   348.185512

                             ****ORCA TERMINATED NORMALLY****
TOTAL RUN TIME: 0 days 0 hours 49 minutes 42 seconds 633 msec
