                         Program Version 4.2.0 -  RELEASE  -
|  1> # Test redundant internal optimization
|  2> #
|  3> ! RKS B3LYP  Opt TightSCF SmallPrint
|  4>
|  5> %basis
|  6>         Basis "6-31G"
|  7> end
|  8>
|  9> %geom
| 10> Constraints
| 11> { D 4  0  15  12  210.0   C } # D for Dihedral angle
| 12> { D 0  15  12  16  150.0   C } # D for Dihedral angle
| 13> { D 0  4  3  2   C } # D for Dihedral angle
| 14> { D 4  3  2  1   C } # D for Dihedral angle
| 15> { D 3  2  1  0   C } # D for Dihedral angle
| 16> { D 2  1  0  4   C } # D for Dihedral angle
| 17> { D 1  0  4  3   C } # D for Dihedral angle
| 18> { D 16  20  19  18   C } # D for Dihedral angle
| 19> { D 20  19  18  17   C } # D for Dihedral angle
| 20> { D 19  18  17  16   C } # D for Dihedral angle
| 21> { D 18  17  16  20   C } # D for Dihedral angle
| 22> { D 17  16  20  19   C } # D for Dihedral angle
| 23> { D 15  12  16  20   C } # D for Dihedral angle
| 24> end
| 25> end
| 26>
| 27>
| 28> #%pal
| 29> #nprocs 8
| 30> #end
| 31>
| 32> * xyz 0 1
| 33> C  -21.048   26.222   46.251
| 34> C  -20.361   27.558   45.944
| 35> C  -20.329   28.222   47.341
| 36> C  -20.110   27.022   48.296
| 37> O  -20.473   25.807   47.535
| 38> H  -20.833   25.428   45.533
| 39> H  -19.344   27.382   45.576
| 40> H  -20.898   28.157   45.201
| 41> H  -19.543   28.978   47.434
| 42> H  -21.289   28.710   47.548
| 43> H  -20.733   27.082   49.195
| 44> H  -19.064   26.913   48.597
| 45> C  -23.389   26.110   45.076
| 46> H  -23.479   27.038   44.497
| 47> H  -22.869   25.368   44.457
| 48> O  -22.586   26.394   46.375
| 49> C  -24.818   25.571   45.359
| 50> C  -25.538   25.193   44.060
| 51> C  -24.913   23.814   43.744
| 52> C  -24.699   23.195   45.148
| 53> O  -24.752   24.314   46.113
| 54> H  -25.355   26.289   45.982
| 55> O  -27.064   25.058   44.316
| 56> H  -25.387   25.922   43.257
| 57> H  -25.553   23.193   43.108
| 58> H  -23.954   23.944   43.229
| 59> H  -23.732   22.687   45.240
| 60> H  -25.494   22.495   45.422
| 61> H  -27.240   24.331   45.118
| 62> *
| 63>
| 64>                          ****END OF INPUT****
 Total Charge           Charge          ....    0
 Multiplicity           Mult            ....    1
 Number of Electrons    NEL             ....  102
FINAL SINGLE POINT ENERGY      -652.829884927072
FINAL SINGLE POINT ENERGY      -652.853281226986
FINAL SINGLE POINT ENERGY      -652.857089173854
FINAL SINGLE POINT ENERGY      -652.857812197201
FINAL SINGLE POINT ENERGY      -652.857902748258
FINAL SINGLE POINT ENERGY      -652.857911915271
                    ***********************HURRAY********************

CARTESIAN COORDINATES (ANGSTROEM)
---------------------------------
  C    -21.068807   26.211195   46.156851
  C    -20.403924   27.568040   45.935277
  C    -20.486030   28.200022   47.345795
  C    -20.299379   26.984317   48.278190
  O    -20.581956   25.789734   47.438779
  H    -20.805143   25.432491   45.431969
  H    -19.359919   27.419735   45.633660
  H    -20.904857   28.165679   45.168225
  H    -19.727858   28.972066   47.506506
  H    -21.474207   28.646714   47.490762
  H    -20.986145   26.981650   49.127780
  H    -19.272050   26.876938   48.638820
  C    -23.242437   26.097677   44.999581
  H    -23.356764   27.027038   44.419464
  H    -22.692290   25.375038   44.375931
  O    -22.514133   26.344259   46.224300
  C    -24.622653   25.549221   45.357115
  C    -25.489589   25.200854   44.139092
  C    -24.970421   23.785018   43.774915
  C    -24.648898   23.165624   45.157394
  O    -24.546768   24.297242   46.111244
  H    -25.125310   26.268908   46.010552
  O    -26.898843   25.182785   44.494749
  H    -25.410273   25.913973   43.316656
  H    -25.729384   23.227000   43.220650
  H    -24.072421   23.858575   43.150606
  H    -23.707478   22.607747   45.164869
  H    -25.446080   22.508799   45.519429
  H    -27.002983   24.738664   45.362839

 Multiplicity           Mult            ....    1
 Number of Electrons    NEL             ....  102
 Basis Dimension        Dim             ....  149

ORBITAL ENERGIES
----------------

  NO   OCC          E(Eh)            E(eV)
   0   2.0000     -19.139850      -520.8218
   1   2.0000     -19.139153      -520.8028
   2   2.0000     -19.139111      -520.8017
   3   2.0000     -19.137098      -520.7469
   4   2.0000     -10.278594      -279.6948
   5   2.0000     -10.244005      -278.7535
   6   2.0000     -10.236595      -278.5519
   7   2.0000     -10.234157      -278.4856
   8   2.0000     -10.229597      -278.3615
   9   2.0000     -10.221973      -278.1540
  10   2.0000     -10.190820      -277.3063
  11   2.0000     -10.185183      -277.1529
  12   2.0000     -10.184335      -277.1298
  13   2.0000      -1.052384       -28.6368
  14   2.0000      -1.035888       -28.1879
  15   2.0000      -1.006463       -27.3872
  16   2.0000      -0.993215       -27.0268
  17   2.0000      -0.788020       -21.4431
  18   2.0000      -0.782289       -21.2872
  19   2.0000      -0.767950       -20.8970
  20   2.0000      -0.729821       -19.8594
  21   2.0000      -0.675301       -18.3759
  22   2.0000      -0.604590       -16.4517
  23   2.0000      -0.598703       -16.2915
  24   2.0000      -0.590111       -16.0577
  25   2.0000      -0.586501       -15.9595
  26   2.0000      -0.526412       -14.3244
  27   2.0000      -0.510917       -13.9028
  28   2.0000      -0.494562       -13.4577
  29   2.0000      -0.488490       -13.2925
  30   2.0000      -0.476019       -12.9531
  31   2.0000      -0.460057       -12.5188
  32   2.0000      -0.453224       -12.3328
  33   2.0000      -0.443439       -12.0666
  34   2.0000      -0.424443       -11.5497
  35   2.0000      -0.409887       -11.1536
  36   2.0000      -0.398432       -10.8419
  37   2.0000      -0.394048       -10.7226
  38   2.0000      -0.374023       -10.1777
  39   2.0000      -0.371573       -10.1110
  40   2.0000      -0.359310        -9.7773
  41   2.0000      -0.356057        -9.6888
  42   2.0000      -0.350543        -9.5388
  43   2.0000      -0.333169        -9.0660
  44   2.0000      -0.310630        -8.4527
  45   2.0000      -0.307615        -8.3706
  46   2.0000      -0.304531        -8.2867
  47   2.0000      -0.271784        -7.3956
  48   2.0000      -0.261153        -7.1063
  49   2.0000      -0.248750        -6.7688
  50   2.0000      -0.242372        -6.5953
  51   0.0000       0.063722         1.7340
  52   0.0000       0.082125         2.2347
  53   0.0000       0.086297         2.3483
  54   0.0000       0.096588         2.6283
  55   0.0000       0.108136         2.9425

MULLIKEN ATOMIC CHARGES
-----------------------
   0 C :    0.298597
   1 C :   -0.264116
   2 C :   -0.299552
   3 C :   -0.001322
   4 O :   -0.499165
   5 H :    0.135042
   6 H :    0.142534
   7 H :    0.141007
   8 H :    0.140995
   9 H :    0.161878
  10 H :    0.156884
  11 H :    0.140035
  12 C :   -0.001701
  13 H :    0.127760
  14 H :    0.119783
  15 O :   -0.502276
  16 C :    0.073019
  17 C :    0.074508
  18 C :   -0.299820
  19 C :   -0.030531
  20 O :   -0.504352
  21 H :    0.171553
  22 O :   -0.602594
  23 H :    0.150343
  24 H :    0.164393
  25 H :    0.141835
  26 H :    0.150407
  27 H :    0.147804
  28 H :    0.367053
Sum of atomic charges:   -0.0000000

LOEWDIN ATOMIC CHARGES
----------------------
   0 C :    0.180245
   1 C :   -0.228699
   2 C :   -0.216865
   3 C :   -0.025160
   4 O :   -0.303601
   5 H :    0.094384
   6 H :    0.112513
   7 H :    0.113703
   8 H :    0.113843
   9 H :    0.119074
  10 H :    0.110700
  11 H :    0.101548
  12 C :   -0.041100
  13 H :    0.093068
  14 H :    0.090222
  15 O :   -0.321939
  16 C :    0.017201
  17 C :    0.034245
  18 C :   -0.243080
  19 C :   -0.038429
  20 O :   -0.316403
  21 H :    0.121867
  22 O :   -0.414199
  23 H :    0.114355
  24 H :    0.127269
  25 H :    0.111255
  26 H :    0.106086
  27 H :    0.103262
  28 H :    0.284636

  Mayer bond orders larger than 0.100000
B(  0-C ,  1-C ) :   0.9310 B(  0-C ,  4-O ) :   0.9404 B(  0-C ,  5-H ) :   0.9175
B(  0-C , 15-O ) :   0.8350 B(  1-C ,  2-C ) :   0.9555 B(  1-C ,  6-H ) :   0.9346
B(  1-C ,  7-H ) :   0.9385 B(  2-C ,  3-C ) :   0.9550 B(  2-C ,  8-H ) :   0.9452
B(  2-C ,  9-H ) :   0.9438 B(  3-C ,  4-O ) :   0.8368 B(  3-C , 10-H ) :   0.9339
B(  3-C , 11-H ) :   0.9397 B( 12-C , 13-H ) :   0.9106 B( 12-C , 14-H ) :   0.9126
B( 12-C , 15-O ) :   0.8509 B( 12-C , 16-C ) :   0.8959 B( 16-C , 17-C ) :   0.8980
B( 16-C , 20-O ) :   0.8727 B( 16-C , 21-H ) :   0.9234 B( 17-C , 18-C ) :   0.9123
B( 17-C , 22-O ) :   0.8948 B( 17-C , 23-H ) :   0.9327 B( 18-C , 19-C ) :   0.9388
B( 18-C , 24-H ) :   0.9369 B( 18-C , 25-H ) :   0.9338 B( 19-C , 20-O ) :   0.8525
B( 19-C , 26-H ) :   0.9337 B( 19-C , 27-H ) :   0.9376 B( 22-O , 28-H ) :   0.7928

FINAL SINGLE POINT ENERGY      -652.857913729944

DIPOLE MOMENT
-------------
                                X             Y             Z
Electronic contribution:     -3.31722      -2.12585       2.21546
Nuclear contribution   :      4.02781       2.51468      -3.13477
                        -----------------------------------------
Total Dipole Moment    :      0.71059       0.38883      -0.91931
                        -----------------------------------------
Magnitude (a.u.)       :      1.22526
Magnitude (Debye)      :      3.11436

Rotational constants in cm-1:     0.067303     0.011312     0.010833
Rotational constants in MHz :  2017.693073   339.118412   324.774244

                             ****ORCA TERMINATED NORMALLY****
TOTAL RUN TIME: 0 days 1 hours 18 minutes 23 seconds 258 msec
