                         Program Version 4.2.1 -  RELEASE  -
|  1> # Test redundant internal optimization
|  2> #
|  3> ! RKS B3LYP  Opt TightSCF SmallPrint
|  4>
|  5> %basis
|  6>         Basis "6-31G"
|  7> end
|  8>
|  9> %geom
| 10> Constraints
| 11> { D 4  0  19  14  180.0   C } # D for Dihedral angle
| 12> { D 0  19  14  12  105.0   C } # D for Dihedral angle
| 13> { D 0  4  3  2   C } # D for Dihedral angle
| 14> { D 4  3  2  1   C } # D for Dihedral angle
| 15> { D 3  2  1  0   C } # D for Dihedral angle
| 16> { D 2  1  0  4   C } # D for Dihedral angle
| 17> { D 1  0  4  3   C } # D for Dihedral angle
| 18> { D 14  15  16  17   C } # D for Dihedral angle
| 19> { D 15  16  17  12   C } # D for Dihedral angle
| 20> { D 16  17  12  14   C } # D for Dihedral angle
| 21> { D 17  12  14  15   C } # D for Dihedral angle
| 22> { D 12  14  15  16   C } # D for Dihedral angle
| 23> end
| 24> end
| 25>
| 26>
| 27> #%pal
| 28> #nprocs 8
| 29> #end
| 30>
| 31> * xyz 0 1
| 32> C  -21.048   26.222   46.251
| 33> C  -20.361   27.558   45.944
| 34> C  -20.329   28.222   47.341
| 35> C  -20.110   27.022   48.296
| 36> O  -20.473   25.807   47.535
| 37> H  -20.833   25.428   45.533
| 38> H  -19.344   27.382   45.576
| 39> H  -20.898   28.157   45.201
| 40> H  -19.543   28.978   47.434
| 41> H  -21.289   28.710   47.548
| 42> H  -20.733   27.082   49.195
| 43> H  -19.064   26.913   48.597
| 44> C  -23.867   25.600   44.531
| 45> H  -24.124   25.794   43.478
| 46> C  -23.122   26.788   45.152
| 47> C  -24.284   27.763   45.454
| 48> C  -25.446   26.816   45.847
| 49> O  -25.084   25.474   45.340
| 50> H  -23.338   24.648   44.600
| 51> O  -22.472   26.381   46.366
| 52> H  -22.369   27.219   44.484
| 53> H  -24.043   28.479   46.245
| 54> H  -24.541   28.335   44.553
| 55> H  -26.402   27.120   45.409
| 56> H  -25.564   26.729   46.932
| 57> *
| 58>
| 59>                          ****END OF INPUT****
 Total Charge           Charge          ....    0
 Multiplicity           Mult            ....    1
 Number of Electrons    NEL             ....   86
FINAL SINGLE POINT ENERGY      -538.423930755102
FINAL SINGLE POINT ENERGY      -538.427652729963
FINAL SINGLE POINT ENERGY      -538.427923410702
FINAL SINGLE POINT ENERGY      -538.427975359725
FINAL SINGLE POINT ENERGY      -538.427987582031
                    ***********************HURRAY********************

CARTESIAN COORDINATES (ANGSTROEM)
---------------------------------
  C    -20.995968   26.225953   46.218352
  C    -20.255527   27.534415   45.945009
  C    -20.324669   28.239826   47.324102
  C    -20.217484   27.059951   48.312543
  O    -20.551007   25.844951   47.525601
  H    -20.756929   25.403117   45.536909
  H    -19.217844   27.303877   45.676644
  H    -20.687219   28.134146   45.139491
  H    -19.523860   28.973025   47.458975
  H    -21.285293   28.751516   47.433222
  H    -20.914717   27.133381   49.150613
  H    -19.202711   26.915554   48.694616
  C    -23.911168   25.617973   44.488594
  H    -24.226409   25.835137   43.455827
  C    -23.145142   26.801623   45.081180
  C    -24.294577   27.749027   45.479291
  C    -25.414047   26.780287   45.929421
  O    -25.065214   25.456032   45.370055
  H    -23.348332   24.682666   44.511386
  O    -22.443060   26.407033   46.298157
  H    -22.458215   27.259733   44.359494
  H    -23.982483   28.435525   46.269954
  H    -24.606133   28.336045   44.607215
  H    -26.400926   27.078624   45.559332
  H    -25.452065   26.667586   47.016017

 Multiplicity           Mult            ....    1
 Number of Electrons    NEL             ....   86
 Basis Dimension        Dim             ....  127

ORBITAL ENERGIES
----------------

  NO   OCC          E(Eh)            E(eV)
   0   2.0000     -19.140960      -520.8520
   1   2.0000     -19.138365      -520.7814
   2   2.0000     -19.125609      -520.4343
   3   2.0000     -10.281514      -279.7742
   4   2.0000     -10.242020      -278.6995
   5   2.0000     -10.226035      -278.2646
   6   2.0000     -10.221016      -278.1280
   7   2.0000     -10.218249      -278.0527
   8   2.0000     -10.191211      -277.3169
   9   2.0000     -10.189927      -277.2820
  10   2.0000     -10.186899      -277.1996
  11   2.0000      -1.054134       -28.6844
  12   2.0000      -1.013836       -27.5879
  13   2.0000      -0.988615       -26.9016
  14   2.0000      -0.789947       -21.4956
  15   2.0000      -0.781777       -21.2732
  16   2.0000      -0.738693       -20.1009
  17   2.0000      -0.725084       -19.7305
  18   2.0000      -0.615345       -16.7444
  19   2.0000      -0.601287       -16.3619
  20   2.0000      -0.595072       -16.1927
  21   2.0000      -0.571006       -15.5379
  22   2.0000      -0.526525       -14.3275
  23   2.0000      -0.502209       -13.6658
  24   2.0000      -0.490681       -13.3521
  25   2.0000      -0.479522       -13.0484
  26   2.0000      -0.451132       -12.2759
  27   2.0000      -0.443476       -12.0676
  28   2.0000      -0.434731       -11.8296
  29   2.0000      -0.419780       -11.4228
  30   2.0000      -0.406513       -11.0618
  31   2.0000      -0.380595       -10.3565
  32   2.0000      -0.374901       -10.2016
  33   2.0000      -0.364633        -9.9222
  34   2.0000      -0.364128        -9.9084
  35   2.0000      -0.355674        -9.6784
  36   2.0000      -0.353107        -9.6085
  37   2.0000      -0.315147        -8.5756
  38   2.0000      -0.302440        -8.2298
  39   2.0000      -0.301108        -8.1936
  40   2.0000      -0.258641        -7.0380
  41   2.0000      -0.253753        -6.9050
  42   2.0000      -0.230830        -6.2812
  43   0.0000       0.071121         1.9353
  44   0.0000       0.094504         2.5716
  45   0.0000       0.096952         2.6382
  46   0.0000       0.104496         2.8435
  47   0.0000       0.117631         3.2009

MULLIKEN ATOMIC CHARGES
-----------------------
   0 C :    0.304895
   1 C :   -0.282268
   2 C :   -0.298384
   3 C :    0.000046
   4 O :   -0.499124
   5 H :    0.140953
   6 H :    0.149166
   7 H :    0.142633
   8 H :    0.143038
   9 H :    0.156488
  10 H :    0.155430
  11 H :    0.142555
  12 C :    0.013531
  13 H :    0.118662
  14 C :    0.045532
  15 C :   -0.286629
  16 C :    0.006399
  17 O :   -0.516559
  18 H :    0.159240
  19 O :   -0.502115
  20 H :    0.121980
  21 H :    0.156092
  22 H :    0.138540
  23 H :    0.130715
  24 H :    0.159183
Sum of atomic charges:    0.0000000

LOEWDIN ATOMIC CHARGES
----------------------
   0 C :    0.182574
   1 C :   -0.233678
   2 C :   -0.216609
   3 C :   -0.024719
   4 O :   -0.300251
   5 H :    0.095975
   6 H :    0.116523
   7 H :    0.112101
   8 H :    0.114744
   9 H :    0.114972
  10 H :    0.110150
  11 H :    0.102921
  12 C :   -0.042068
  13 H :    0.088496
  14 C :    0.031366
  15 C :   -0.225554
  16 C :   -0.026779
  17 O :   -0.326538
  18 H :    0.117764
  19 O :   -0.327326
  20 H :    0.094208
  21 H :    0.123197
  22 H :    0.110856
  23 H :    0.096579
  24 H :    0.111096

  Mayer bond orders larger than 0.100000
B(  0-C ,  1-C ) :   0.9281 B(  0-C ,  4-O ) :   0.9396 B(  0-C ,  5-H ) :   0.9210
B(  0-C , 19-O ) :   0.8375 B(  1-C ,  2-C ) :   0.9506 B(  1-C ,  6-H ) :   0.9332
B(  1-C ,  7-H ) :   0.9302 B(  2-C ,  3-C ) :   0.9556 B(  2-C ,  8-H ) :   0.9448
B(  2-C ,  9-H ) :   0.9443 B(  3-C ,  4-O ) :   0.8356 B(  3-C , 10-H ) :   0.9342
B(  3-C , 11-H ) :   0.9396 B( 12-C , 13-H ) :   0.9104 B( 12-C , 14-C ) :   0.9157
B( 12-C , 17-O ) :   0.8757 B( 12-C , 18-H ) :   0.9335 B( 14-C , 15-C ) :   0.9525
B( 14-C , 19-O ) :   0.8355 B( 14-C , 20-H ) :   0.9133 B( 15-C , 16-C ) :   0.9482
B( 15-C , 21-H ) :   0.9380 B( 15-C , 22-H ) :   0.9412 B( 16-C , 17-O ) :   0.8577
B( 16-C , 23-H ) :   0.9334 B( 16-C , 24-H ) :   0.9351

FINAL SINGLE POINT ENERGY      -538.427989837166

DIPOLE MOMENT
-------------
                                X             Y             Z
Electronic contribution:     -1.05569      -5.18742       0.89026
Nuclear contribution   :      1.80356       6.81555      -1.60954
                        -----------------------------------------
Total Dipole Moment    :      0.74786       1.62813      -0.71928
                        -----------------------------------------
Magnitude (a.u.)       :      1.93067
Magnitude (Debye)      :      4.90737

Rotational constants in cm-1:     0.081360     0.020138     0.019581
Rotational constants in MHz :  2439.096926   603.708576   587.024403

                             ****ORCA TERMINATED NORMALLY****
TOTAL RUN TIME: 0 days 0 hours 6 minutes 48 seconds 939 msec
