                         Program Version 4.2.0 -  RELEASE  -
|  1> # Test redundant internal optimization
|  2> #
|  3> ! RKS B3LYP  Opt TightSCF SmallPrint
|  4>
|  5> %basis
|  6>         Basis "6-31G"
|  7> end
|  8>
|  9> %geom
| 10> Constraints
| 11> { D 4  0  15  12  270.0   C } # D for Dihedral angle
| 12> { D 0  15  12  16  240.0   C } # D for Dihedral angle
| 13> { D 0  4  3  2   C } # D for Dihedral angle
| 14> { D 4  3  2  1   C } # D for Dihedral angle
| 15> { D 3  2  1  0   C } # D for Dihedral angle
| 16> { D 2  1  0  4   C } # D for Dihedral angle
| 17> { D 1  0  4  3   C } # D for Dihedral angle
| 18> { D 16  20  19  18   C } # D for Dihedral angle
| 19> { D 20  19  18  17   C } # D for Dihedral angle
| 20> { D 19  18  17  16   C } # D for Dihedral angle
| 21> { D 18  17  16  20   C } # D for Dihedral angle
| 22> { D 17  16  20  19   C } # D for Dihedral angle
| 23> { D 15  12  16  20   C } # D for Dihedral angle
| 24> end
| 25> end
| 26>
| 27>
| 28> #%pal
| 29> #nprocs 8
| 30> #end
| 31>
| 32> * xyz 0 1
| 33> C  -21.048   26.222   46.251
| 34> C  -20.361   27.558   45.944
| 35> C  -20.329   28.222   47.341
| 36> C  -20.110   27.022   48.296
| 37> O  -20.473   25.807   47.535
| 38> H  -20.833   25.428   45.533
| 39> H  -19.344   27.382   45.576
| 40> H  -20.898   28.157   45.201
| 41> H  -19.543   28.978   47.434
| 42> H  -21.289   28.710   47.548
| 43> H  -20.733   27.082   49.195
| 44> H  -19.064   26.913   48.597
| 45> C  -23.420   25.119   46.072
| 46> H  -22.741   24.293   45.824
| 47> H  -24.008   24.827   46.952
| 48> O  -22.586   26.394   46.375
| 49> C  -24.406   25.313   44.887
| 50> C  -25.331   26.513   45.124
| 51> C  -24.409   27.698   44.752
| 52> C  -23.556   27.129   43.591
| 53> O  -23.675   25.656   43.663
| 54> H  -24.926   24.373   44.697
| 55> H  -26.190   26.464   44.446
| 56> O  -25.861   26.597   46.581
| 57> H  -24.965   28.595   44.460
| 58> H  -23.772   27.962   45.605
| 59> H  -22.500   27.408   43.669
| 60> H  -23.930   27.434   42.609
| 61> H  -25.017   26.647   47.278
| 62> *
| 63>
| 64>                          ****END OF INPUT****
 Total Charge           Charge          ....    0
 Multiplicity           Mult            ....    1
 Number of Electrons    NEL             ....  102
FINAL SINGLE POINT ENERGY      -652.836145075923
FINAL SINGLE POINT ENERGY      -652.859853842518
FINAL SINGLE POINT ENERGY      -652.864541549178
FINAL SINGLE POINT ENERGY      -652.866209060294
FINAL SINGLE POINT ENERGY      -652.866336258575
FINAL SINGLE POINT ENERGY      -652.866359800456
FINAL SINGLE POINT ENERGY      -652.866360251831
                    ***********************HURRAY********************

CARTESIAN COORDINATES (ANGSTROEM)
---------------------------------
  C    -21.032169   26.155115   46.257298
  C    -20.412625   27.524545   45.975809
  C    -20.387417   28.160162   47.387275
  C    -20.100048   26.949742   48.304560
  O    -20.427144   25.745496   47.502805
  H    -20.813886   25.372986   45.525768
  H    -19.395165   27.384575   45.593160
  H    -20.987257   28.101335   45.248821
  H    -19.630064   28.944045   47.483439
  H    -21.365450   28.594717   47.615298
  H    -20.708715   26.945470   49.212283
  H    -19.044063   26.866787   48.578431
  C    -23.293304   25.153130   46.119987
  H    -22.652237   24.297732   45.876423
  H    -23.852469   24.909899   47.031260
  O    -22.462539   26.325671   46.385923
  C    -24.272467   25.377380   44.972017
  C    -25.285149   26.520323   45.165977
  C    -24.472142   27.756460   44.676214
  C    -23.624301   27.170703   43.527224
  O    -23.622778   25.694824   43.705984
  H    -24.792714   24.423806   44.817215
  H    -26.161038   26.350104   44.536598
  O    -25.808424   26.636852   46.509972
  H    -25.121504   28.573053   44.347680
  H    -23.837038   28.105835   45.493702
  H    -22.590730   27.528641   43.534098
  H    -24.060937   27.368047   42.543271
  H    -25.104225   26.965564   47.107509

 Multiplicity           Mult            ....    1
 Number of Electrons    NEL             ....  102
 Basis Dimension        Dim             ....  149

ORBITAL ENERGIES
----------------

  NO   OCC          E(Eh)            E(eV)
   0   2.0000     -19.150638      -521.1153
   1   2.0000     -19.141112      -520.8561
   2   2.0000     -19.140091      -520.8283
   3   2.0000     -19.137787      -520.7657
   4   2.0000     -10.282836      -279.8102
   5   2.0000     -10.237568      -278.5784
   6   2.0000     -10.231230      -278.4059
   7   2.0000     -10.230343      -278.3818
   8   2.0000     -10.227616      -278.3076
   9   2.0000     -10.226267      -278.2709
  10   2.0000     -10.189744      -277.2770
  11   2.0000     -10.189625      -277.2738
  12   2.0000     -10.181865      -277.0626
  13   2.0000      -1.057164       -28.7669
  14   2.0000      -1.028419       -27.9847
  15   2.0000      -1.011221       -27.5167
  16   2.0000      -0.996780       -27.1238
  17   2.0000      -0.791630       -21.5414
  18   2.0000      -0.773669       -21.0526
  19   2.0000      -0.767521       -20.8853
  20   2.0000      -0.732981       -19.9454
  21   2.0000      -0.679207       -18.4822
  22   2.0000      -0.603909       -16.4332
  23   2.0000      -0.602608       -16.3978
  24   2.0000      -0.597187       -16.2503
  25   2.0000      -0.574564       -15.6347
  26   2.0000      -0.527525       -14.3547
  27   2.0000      -0.509484       -13.8638
  28   2.0000      -0.498587       -13.5672
  29   2.0000      -0.491681       -13.3793
  30   2.0000      -0.465797       -12.6750
  31   2.0000      -0.462094       -12.5742
  32   2.0000      -0.445837       -12.1318
  33   2.0000      -0.431825       -11.7505
  34   2.0000      -0.422300       -11.4914
  35   2.0000      -0.417244       -11.3538
  36   2.0000      -0.406486       -11.0610
  37   2.0000      -0.396107       -10.7786
  38   2.0000      -0.385327       -10.4853
  39   2.0000      -0.363763        -9.8985
  40   2.0000      -0.360643        -9.8136
  41   2.0000      -0.354834        -9.6555
  42   2.0000      -0.348320        -9.4783
  43   2.0000      -0.331529        -9.0214
  44   2.0000      -0.323005        -8.7894
  45   2.0000      -0.310190        -8.4407
  46   2.0000      -0.305547        -8.3144
  47   2.0000      -0.277596        -7.5538
  48   2.0000      -0.263100        -7.1593
  49   2.0000      -0.256021        -6.9667
  50   2.0000      -0.238943        -6.5020
  51   0.0000       0.063812         1.7364
  52   0.0000       0.074313         2.0222
  53   0.0000       0.086057         2.3417
  54   0.0000       0.097538         2.6541
  55   0.0000       0.102094         2.7781

MULLIKEN ATOMIC CHARGES
-----------------------
   0 C :    0.288553
   1 C :   -0.267872
   2 C :   -0.300954
   3 C :   -0.000969
   4 O :   -0.506616
   5 H :    0.157481
   6 H :    0.149715
   7 H :    0.154077
   8 H :    0.143504
   9 H :    0.155808
  10 H :    0.147769
  11 H :    0.143905
  12 C :   -0.028948
  13 H :    0.152753
  14 H :    0.151881
  15 O :   -0.537902
  16 C :    0.098801
  17 C :    0.088303
  18 C :   -0.311791
  19 C :   -0.006354
  20 O :   -0.526515
  21 H :    0.147477
  22 H :    0.162532
  23 O :   -0.606429
  24 H :    0.144588
  25 H :    0.160695
  26 H :    0.138945
  27 H :    0.141864
  28 H :    0.365695
Sum of atomic charges:    0.0000000

LOEWDIN ATOMIC CHARGES
----------------------
   0 C :    0.175410
   1 C :   -0.217146
   2 C :   -0.216597
   3 C :   -0.027176
   4 O :   -0.324942
   5 H :    0.105142
   6 H :    0.116592
   7 H :    0.118717
   8 H :    0.114459
   9 H :    0.115180
  10 H :    0.105813
  11 H :    0.103383
  12 C :   -0.044873
  13 H :    0.111819
  14 H :    0.110456
  15 O :   -0.339554
  16 C :    0.012779
  17 C :    0.037971
  18 C :   -0.242314
  19 C :   -0.025237
  20 O :   -0.327255
  21 H :    0.114069
  22 H :    0.116374
  23 O :   -0.410332
  24 H :    0.115398
  25 H :    0.118608
  26 H :    0.098249
  27 H :    0.101415
  28 H :    0.283593

  Mayer bond orders larger than 0.100000
B(  0-C ,  1-C ) :   0.9477 B(  0-C ,  4-O ) :   0.9175 B(  0-C ,  5-H ) :   0.9159
B(  0-C , 15-O ) :   0.8442 B(  1-C ,  2-C ) :   0.9554 B(  1-C ,  6-H ) :   0.9390
B(  1-C ,  7-H ) :   0.9326 B(  2-C ,  3-C ) :   0.9539 B(  2-C ,  8-H ) :   0.9451
B(  2-C ,  9-H ) :   0.9455 B(  3-C ,  4-O ) :   0.8390 B(  3-C , 10-H ) :   0.9355
B(  3-C , 11-H ) :   0.9400 B( 12-C , 13-H ) :   0.9232 B( 12-C , 14-H ) :   0.9155
B( 12-C , 15-O ) :   0.8360 B( 12-C , 16-C ) :   0.9024 B( 16-C , 17-C ) :   0.8876
B( 16-C , 20-O ) :   0.8724 B( 16-C , 21-H ) :   0.9248 B( 17-C , 18-C ) :   0.9302
B( 17-C , 22-H ) :   0.9361 B( 17-C , 23-O ) :   0.9044 B( 18-C , 19-C ) :   0.9443
B( 18-C , 24-H ) :   0.9414 B( 18-C , 25-H ) :   0.9276 B( 19-C , 20-O ) :   0.8396
B( 19-C , 26-H ) :   0.9280 B( 19-C , 27-H ) :   0.9378 B( 23-O , 28-H ) :   0.7920

FINAL SINGLE POINT ENERGY      -652.866358662802

DIPOLE MOMENT
-------------
                                X             Y             Z
Electronic contribution:     -2.56026      -4.65223      -0.16815
Nuclear contribution   :      3.20294       5.61466       0.17156
                        -----------------------------------------
Total Dipole Moment    :      0.64268       0.96243       0.00341
                        -----------------------------------------
Magnitude (a.u.)       :      1.15729
Magnitude (Debye)      :      2.94160

Rotational constants in cm-1:     0.047063     0.015647     0.014995
Rotational constants in MHz :  1410.919789   469.092977   449.535102

                             ****ORCA TERMINATED NORMALLY****
TOTAL RUN TIME: 0 days 0 hours 31 minutes 20 seconds 179 msec
