                         Program Version 4.2.0 -  RELEASE  -
|  1> # Test redundant internal optimization
|  2> #
|  3> ! RKS B3LYP  Opt TightSCF SmallPrint
|  4>
|  5> %basis
|  6>         Basis "6-31G"
|  7> end
|  8>
|  9> %geom
| 10> Constraints
| 11> { D 4  0  15  12  90.0   C } # D for Dihedral angle
| 12> { D 0  15  12  16  285.0   C } # D for Dihedral angle
| 13> { D 0  4  3  2   C } # D for Dihedral angle
| 14> { D 4  3  2  1   C } # D for Dihedral angle
| 15> { D 3  2  1  0   C } # D for Dihedral angle
| 16> { D 2  1  0  4   C } # D for Dihedral angle
| 17> { D 1  0  4  3   C } # D for Dihedral angle
| 18> { D 16  20  19  18   C } # D for Dihedral angle
| 19> { D 20  19  18  17   C } # D for Dihedral angle
| 20> { D 19  18  17  16   C } # D for Dihedral angle
| 21> { D 18  17  16  20   C } # D for Dihedral angle
| 22> { D 17  16  20  19   C } # D for Dihedral angle
| 23> { D 15  12  16  20   C } # D for Dihedral angle
| 24> end
| 25> end
| 26>
| 27>
| 28> #%pal
| 29> #nprocs 8
| 30> #end
| 31>
| 32> * xyz 0 1
| 33> C  -21.048   26.222   46.251
| 34> C  -20.361   27.558   45.944
| 35> C  -20.329   28.222   47.341
| 36> C  -20.110   27.022   48.296
| 37> O  -20.473   25.807   47.535
| 38> H  -20.833   25.428   45.533
| 39> H  -19.344   27.382   45.576
| 40> H  -20.898   28.157   45.201
| 41> H  -19.543   28.978   47.434
| 42> H  -21.289   28.710   47.548
| 43> H  -20.733   27.082   49.195
| 44> H  -19.064   26.913   48.597
| 45> C  -23.061   27.816   46.783
| 46> H  -22.517   28.563   46.192
| 47> H  -24.134   27.934   46.583
| 48> O  -22.586   26.394   46.375
| 49> C  -22.824   28.118   48.289
| 50> C  -23.408   29.480   48.681
| 51> C  -24.912   29.147   48.825
| 52> C  -24.900   27.707   49.396
| 53> O  -23.553   27.159   49.125
| 54> H  -21.763   27.999   48.515
| 55> H  -22.991   29.807   49.640
| 56> O  -23.136   30.587   47.626
| 57> H  -25.442   29.850   49.477
| 58> H  -25.399   29.169   47.843
| 59> H  -25.651   27.063   48.925
| 60> H  -25.044   27.686   50.480
| 61> H  -23.546   30.283   46.657
| 62> *
| 63>
| 64>                          ****END OF INPUT****
 Total Charge           Charge          ....    0
 Multiplicity           Mult            ....    1
 Number of Electrons    NEL             ....  102
FINAL SINGLE POINT ENERGY      -652.757070951520
FINAL SINGLE POINT ENERGY      -652.815079575955
FINAL SINGLE POINT ENERGY      -652.837439430921
FINAL SINGLE POINT ENERGY      -652.843622782193
FINAL SINGLE POINT ENERGY      -652.844715986746
FINAL SINGLE POINT ENERGY      -652.845041903885
FINAL SINGLE POINT ENERGY      -652.845100298035
FINAL SINGLE POINT ENERGY      -652.845119465378
FINAL SINGLE POINT ENERGY      -652.845121659245
FINAL SINGLE POINT ENERGY      -652.845120965045
                    ***********************HURRAY********************

CARTESIAN COORDINATES (ANGSTROEM)
---------------------------------
  C    -21.109933   26.334476   46.359443
  C    -20.164555   27.443794   45.877155
  C    -19.759220   28.130913   47.213548
  C    -19.709031   26.936057   48.201837
  O    -20.476507   25.841620   47.560855
  H    -21.118995   25.474164   45.687192
  H    -19.296549   26.972333   45.405970
  H    -20.622623   28.126810   45.155949
  H    -18.789705   28.634126   47.141312
  H    -20.494903   28.884277   47.504631
  H    -20.151001   27.157567   49.178248
  H    -18.690702   26.565736   48.350851
  C    -23.103190   27.879217   46.846545
  H    -22.646598   28.700654   46.274003
  H    -24.147536   27.782615   46.534545
  O    -22.526424   26.604950   46.456517
  C    -23.027486   28.219604   48.339784
  C    -23.713372   29.551921   48.689861
  C    -25.208765   29.124622   48.798712
  C    -25.111140   27.702753   49.396806
  O    -23.718828   27.239721   49.172150
  H    -21.992918   28.205728   48.679474
  H    -23.348585   29.901114   49.658591
  O    -23.442897   30.649040   47.781191
  H    -25.789603   29.810049   49.421629
  H    -25.662720   29.109987   47.798726
  H    -25.802346   26.995242   48.928643
  H    -25.279659   27.697216   50.477781
  H    -23.986209   30.566694   46.971050

 Multiplicity           Mult            ....    1
 Number of Electrons    NEL             ....  102
 Basis Dimension        Dim             ....  149

ORBITAL ENERGIES
----------------

  NO   OCC          E(Eh)            E(eV)
   0   2.0000     -19.155432      -521.2458
   1   2.0000     -19.139203      -520.8042
   2   2.0000     -19.136687      -520.7357
   3   2.0000     -19.134518      -520.6767
   4   2.0000     -10.273321      -279.5513
   5   2.0000     -10.249541      -278.9042
   6   2.0000     -10.232844      -278.4498
   7   2.0000     -10.231805      -278.4216
   8   2.0000     -10.231124      -278.4030
   9   2.0000     -10.224101      -278.2119
  10   2.0000     -10.199212      -277.5347
  11   2.0000     -10.190064      -277.2857
  12   2.0000     -10.189925      -277.2820
  13   2.0000      -1.044735       -28.4287
  14   2.0000      -1.036510       -28.2049
  15   2.0000      -1.016933       -27.6721
  16   2.0000      -0.991761       -26.9872
  17   2.0000      -0.786179       -21.3930
  18   2.0000      -0.785512       -21.3749
  19   2.0000      -0.771717       -20.9995
  20   2.0000      -0.731814       -19.9137
  21   2.0000      -0.685878       -18.6637
  22   2.0000      -0.614554       -16.7229
  23   2.0000      -0.608097       -16.5472
  24   2.0000      -0.598762       -16.2931
  25   2.0000      -0.564456       -15.3596
  26   2.0000      -0.526733       -14.3331
  27   2.0000      -0.509253       -13.8575
  28   2.0000      -0.505155       -13.7460
  29   2.0000      -0.495435       -13.4815
  30   2.0000      -0.465419       -12.6647
  31   2.0000      -0.450303       -12.2534
  32   2.0000      -0.449162       -12.2223
  33   2.0000      -0.433346       -11.7919
  34   2.0000      -0.430444       -11.7130
  35   2.0000      -0.424491       -11.5510
  36   2.0000      -0.412795       -11.2327
  37   2.0000      -0.402705       -10.9581
  38   2.0000      -0.380433       -10.3521
  39   2.0000      -0.377265       -10.2659
  40   2.0000      -0.358741        -9.7618
  41   2.0000      -0.356109        -9.6902
  42   2.0000      -0.346339        -9.4244
  43   2.0000      -0.332731        -9.0541
  44   2.0000      -0.319309        -8.6889
  45   2.0000      -0.308859        -8.4045
  46   2.0000      -0.292955        -7.9717
  47   2.0000      -0.274888        -7.4801
  48   2.0000      -0.266327        -7.2471
  49   2.0000      -0.252497        -6.8708
  50   2.0000      -0.234985        -6.3943
  51   0.0000       0.046661         1.2697
  52   0.0000       0.075102         2.0436
  53   0.0000       0.080275         2.1844
  54   0.0000       0.086951         2.3660
  55   0.0000       0.098949         2.6925

MULLIKEN ATOMIC CHARGES
-----------------------
   0 C :    0.307705
   1 C :   -0.293838
   2 C :   -0.321963
   3 C :   -0.014273
   4 O :   -0.494551
   5 H :    0.165184
   6 H :    0.158520
   7 H :    0.147170
   8 H :    0.145292
   9 H :    0.159373
  10 H :    0.155054
  11 H :    0.145284
  12 C :   -0.015459
  13 H :    0.121669
  14 H :    0.147574
  15 O :   -0.511509
  16 C :    0.085619
  17 C :    0.079264
  18 C :   -0.329627
  19 C :   -0.011260
  20 O :   -0.501829
  21 H :    0.156891
  22 H :    0.165834
  23 O :   -0.600437
  24 H :    0.160117
  25 H :    0.134924
  26 H :    0.150540
  27 H :    0.151267
  28 H :    0.357465
Sum of atomic charges:    0.0000000

LOEWDIN ATOMIC CHARGES
----------------------
   0 C :    0.174465
   1 C :   -0.230614
   2 C :   -0.226530
   3 C :   -0.035926
   4 O :   -0.314481
   5 H :    0.111784
   6 H :    0.123613
   7 H :    0.115921
   8 H :    0.115852
   9 H :    0.111881
  10 H :    0.104496
  11 H :    0.104687
  12 C :   -0.049062
  13 H :    0.091502
  14 H :    0.110611
  15 O :   -0.307855
  16 C :    0.006277
  17 C :    0.033530
  18 C :   -0.242995
  19 C :   -0.029845
  20 O :   -0.310366
  21 H :    0.114238
  22 H :    0.118430
  23 O :   -0.409362
  24 H :    0.123536
  25 H :    0.104496
  26 H :    0.106209
  27 H :    0.106859
  28 H :    0.278649

  Mayer bond orders larger than 0.100000
B(  0-C ,  1-C ) :   0.9197 B(  0-C ,  4-O ) :   0.9052 B(  0-C ,  5-H ) :   0.9373
B(  0-C , 15-O ) :   0.9013 B(  1-C ,  2-C ) :   0.9536 B(  1-C ,  6-H ) :   0.9355
B(  1-C ,  7-H ) :   0.9344 B(  2-C ,  3-C ) :   0.9461 B(  2-C ,  8-H ) :   0.9452
B(  2-C ,  9-H ) :   0.9328 B(  3-C ,  4-O ) :   0.8493 B(  3-C , 10-H ) :   0.9234
B(  3-C , 11-H ) :   0.9373 B( 12-C , 13-H ) :   0.8995 B( 12-C , 14-H ) :   0.9394
B( 12-C , 15-O ) :   0.8728 B( 12-C , 16-C ) :   0.8808 B( 16-C , 17-C ) :   0.8659
B( 16-C , 20-O ) :   0.8669 B( 16-C , 21-H ) :   0.9160 B( 17-C , 18-C ) :   0.9273
B( 17-C , 22-H ) :   0.9329 B( 17-C , 23-O ) :   0.8955 B( 18-C , 19-C ) :   0.9394
B( 18-C , 24-H ) :   0.9410 B( 18-C , 25-H ) :   0.9398 B( 19-C , 20-O ) :   0.8519
B( 19-C , 26-H ) :   0.9301 B( 19-C , 27-H ) :   0.9372 B( 23-O , 28-H ) :   0.7977

FINAL SINGLE POINT ENERGY      -652.845119680628

DIPOLE MOMENT
-------------
                                X             Y             Z
Electronic contribution:     -0.87485      -3.64904       0.22473
Nuclear contribution   :      0.54500       4.97441      -0.65052
                        -----------------------------------------
Total Dipole Moment    :     -0.32986       1.32537      -0.42579
                        -----------------------------------------
Magnitude (a.u.)       :      1.43063
Magnitude (Debye)      :      3.63638

Rotational constants in cm-1:     0.046024     0.016438     0.015020
Rotational constants in MHz :  1379.767742   492.795434   450.273614

                             ****ORCA TERMINATED NORMALLY****
TOTAL RUN TIME: 0 days 0 hours 49 minutes 10 seconds 788 msec
