                         Program Version 4.2.0 -  RELEASE  -
|  1> # Test redundant internal optimization
|  2> #
|  3> ! RKS B3LYP  Opt TightSCF SmallPrint
|  4>
|  5> %basis
|  6>         Basis "6-31G"
|  7> end
|  8>
|  9> %geom
| 10> Constraints
| 11> { D 4  0  15  12  255.0   C } # D for Dihedral angle
| 12> { D 0  15  12  16  300.0   C } # D for Dihedral angle
| 13> { D 0  4  3  2   C } # D for Dihedral angle
| 14> { D 4  3  2  1   C } # D for Dihedral angle
| 15> { D 3  2  1  0   C } # D for Dihedral angle
| 16> { D 2  1  0  4   C } # D for Dihedral angle
| 17> { D 1  0  4  3   C } # D for Dihedral angle
| 18> { D 16  20  19  18   C } # D for Dihedral angle
| 19> { D 20  19  18  17   C } # D for Dihedral angle
| 20> { D 19  18  17  16   C } # D for Dihedral angle
| 21> { D 18  17  16  20   C } # D for Dihedral angle
| 22> { D 17  16  20  19   C } # D for Dihedral angle
| 23> { D 15  12  16  20   C } # D for Dihedral angle
| 24> end
| 25> end
| 26>
| 27>
| 28> #%pal
| 29> #nprocs 8
| 30> #end
| 31>
| 32> * xyz 0 1
| 33> C  -21.048   26.222   46.251
| 34> C  -20.361   27.558   45.944
| 35> C  -20.329   28.222   47.341
| 36> C  -20.110   27.022   48.296
| 37> O  -20.473   25.807   47.535
| 38> H  -20.833   25.428   45.533
| 39> H  -19.344   27.382   45.576
| 40> H  -20.898   28.157   45.201
| 41> H  -19.543   28.978   47.434
| 42> H  -21.289   28.710   47.548
| 43> H  -20.733   27.082   49.195
| 44> H  -19.064   26.913   48.597
| 45> C  -23.431   25.260   45.734
| 46> H  -23.188   24.307   46.221
| 47> H  -24.503   25.453   45.874
| 48> O  -22.586   26.394   46.375
| 49> C  -23.174   25.108   44.209
| 50> C  -23.408   26.431   43.470
| 51> C  -22.096   27.194   43.772
| 52> C  -21.030   26.070   43.785
| 53> O  -21.764   24.797   43.955
| 54> H  -23.760   24.269   43.829
| 55> O  -23.553   26.172   41.946
| 56> H  -24.299   26.966   43.816
| 57> H  -21.875   27.969   43.031
| 58> H  -22.159   27.678   44.754
| 59> H  -20.311   26.182   44.603
| 60> H  -20.483   26.002   42.840
| 61> H  -22.671   25.637   41.577
| 62> *
| 63>
| 64>                          ****END OF INPUT****
 Total Charge           Charge          ....    0
 Multiplicity           Mult            ....    1
 Number of Electrons    NEL             ....  102
FINAL SINGLE POINT ENERGY      -652.748968772929
FINAL SINGLE POINT ENERGY      -652.828574987162
FINAL SINGLE POINT ENERGY      -652.849938270737
FINAL SINGLE POINT ENERGY      -652.855212082532
FINAL SINGLE POINT ENERGY      -652.856297157978
FINAL SINGLE POINT ENERGY      -652.856620715449
FINAL SINGLE POINT ENERGY      -652.856706512353
FINAL SINGLE POINT ENERGY      -652.856762431715
FINAL SINGLE POINT ENERGY      -652.856778518916
                    ***********************HURRAY********************

CARTESIAN COORDINATES (ANGSTROEM)
---------------------------------
  C    -20.896812   26.290618   46.432735
  C    -20.268811   27.681697   46.327925
  C    -20.401459   28.204404   47.780802
  C    -20.196420   26.923936   48.622435
  O    -20.420420   25.788011   47.700322
  H    -20.612759   25.552490   45.685481
  H    -19.213096   27.581034   46.048218
  H    -20.767633   28.324003   45.600861
  H    -19.669351   28.982079   48.016781
  H    -21.405902   28.610221   47.933303
  H    -20.897943   26.845700   49.457259
  H    -19.174107   26.826583   49.001291
  C    -23.172494   25.474282   45.774635
  H    -23.021502   24.494109   46.249231
  H    -24.198903   25.792568   45.982828
  O    -22.344655   26.447161   46.474355
  C    -23.047382   25.257407   44.256100
  C    -23.449793   26.397723   43.307323
  C    -22.100810   27.139845   43.120624
  C    -21.059024   25.994533   43.144297
  O    -21.735870   24.823666   43.765309
  H    -23.721925   24.410800   44.064955
  O    -23.967184   25.871409   42.054652
  H    -24.240500   27.036492   43.701207
  H    -22.089327   27.707790   42.186825
  H    -21.953045   27.828333   43.957021
  H    -20.162558   26.241550   43.720078
  H    -20.750833   25.683209   42.141944
  H    -23.375482   25.158346   41.733204

 Multiplicity           Mult            ....    1
 Number of Electrons    NEL             ....  102
 Basis Dimension        Dim             ....  149

ORBITAL ENERGIES
----------------

  NO   OCC          E(Eh)            E(eV)
   0   2.0000     -19.155004      -521.2342
   1   2.0000     -19.142759      -520.9009
   2   2.0000     -19.141766      -520.8739
   3   2.0000     -19.134108      -520.6655
   4   2.0000     -10.273580      -279.5583
   5   2.0000     -10.245634      -278.7979
   6   2.0000     -10.241500      -278.6854
   7   2.0000     -10.238655      -278.6080
   8   2.0000     -10.234518      -278.4954
   9   2.0000     -10.221248      -278.1343
  10   2.0000     -10.192600      -277.3548
  11   2.0000     -10.186511      -277.1891
  12   2.0000     -10.184302      -277.1289
  13   2.0000      -1.050402       -28.5829
  14   2.0000      -1.041497       -28.3406
  15   2.0000      -1.012225       -27.5441
  16   2.0000      -0.990284       -26.9470
  17   2.0000      -0.788819       -21.4648
  18   2.0000      -0.784281       -21.3414
  19   2.0000      -0.772537       -21.0218
  20   2.0000      -0.731415       -19.9028
  21   2.0000      -0.680869       -18.5274
  22   2.0000      -0.609888       -16.5959
  23   2.0000      -0.605888       -16.4871
  24   2.0000      -0.596900       -16.2425
  25   2.0000      -0.574852       -15.6425
  26   2.0000      -0.528133       -14.3712
  27   2.0000      -0.509175       -13.8554
  28   2.0000      -0.506166       -13.7735
  29   2.0000      -0.481952       -13.1146
  30   2.0000      -0.472691       -12.8626
  31   2.0000      -0.462356       -12.5813
  32   2.0000      -0.450625       -12.2621
  33   2.0000      -0.442341       -12.0367
  34   2.0000      -0.425837       -11.5876
  35   2.0000      -0.415121       -11.2960
  36   2.0000      -0.404116       -10.9966
  37   2.0000      -0.395424       -10.7600
  38   2.0000      -0.379135       -10.3168
  39   2.0000      -0.375116       -10.2074
  40   2.0000      -0.363931        -9.9031
  41   2.0000      -0.353130        -9.6092
  42   2.0000      -0.347575        -9.4580
  43   2.0000      -0.338636        -9.2148
  44   2.0000      -0.318700        -8.6723
  45   2.0000      -0.312564        -8.5053
  46   2.0000      -0.308646        -8.3987
  47   2.0000      -0.274021        -7.4565
  48   2.0000      -0.272699        -7.4205
  49   2.0000      -0.250982        -6.8296
  50   2.0000      -0.241108        -6.5609
  51   0.0000       0.057147         1.5550
  52   0.0000       0.080724         2.1966
  53   0.0000       0.082415         2.2426
  54   0.0000       0.098474         2.6796
  55   0.0000       0.100791         2.7427

MULLIKEN ATOMIC CHARGES
-----------------------
   0 C :    0.263710
   1 C :   -0.267833
   2 C :   -0.302526
   3 C :    0.001121
   4 O :   -0.507987
   5 H :    0.183165
   6 H :    0.143432
   7 H :    0.149590
   8 H :    0.139968
   9 H :    0.163604
  10 H :    0.149581
  11 H :    0.138783
  12 C :   -0.016195
  13 H :    0.154110
  14 H :    0.150574
  15 O :   -0.523681
  16 C :    0.063133
  17 C :    0.080125
  18 C :   -0.301141
  19 C :   -0.041108
  20 O :   -0.523093
  21 H :    0.161161
  22 O :   -0.600353
  23 H :    0.159578
  24 H :    0.161221
  25 H :    0.163532
  26 H :    0.143151
  27 H :    0.150206
  28 H :    0.364171
Sum of atomic charges:   -0.0000000

LOEWDIN ATOMIC CHARGES
----------------------
   0 C :    0.166035
   1 C :   -0.221816
   2 C :   -0.216370
   3 C :   -0.027023
   4 O :   -0.318554
   5 H :    0.117566
   6 H :    0.112170
   7 H :    0.114425
   8 H :    0.112910
   9 H :    0.119617
  10 H :    0.106425
  11 H :    0.100652
  12 C :   -0.040152
  13 H :    0.107379
  14 H :    0.118749
  15 O :   -0.335991
  16 C :   -0.000726
  17 C :    0.037204
  18 C :   -0.241284
  19 C :   -0.040241
  20 O :   -0.330600
  21 H :    0.119379
  22 O :   -0.414030
  23 H :    0.119544
  24 H :    0.125954
  25 H :    0.120521
  26 H :    0.100906
  27 H :    0.104632
  28 H :    0.282721

  Mayer bond orders larger than 0.100000
B(  0-C ,  1-C ) :   0.9396 B(  0-C ,  4-O ) :   0.9095 B(  0-C ,  5-H ) :   0.8979
B(  0-C , 15-O ) :   0.8325 B(  1-C ,  2-C ) :   0.9531 B(  1-C ,  6-H ) :   0.9380
B(  1-C ,  7-H ) :   0.9276 B(  2-C ,  3-C ) :   0.9544 B(  2-C ,  8-H ) :   0.9454
B(  2-C ,  9-H ) :   0.9433 B(  3-C ,  4-O ) :   0.8412 B(  3-C , 10-H ) :   0.9351
B(  3-C , 11-H ) :   0.9400 B( 12-C , 13-H ) :   0.9183 B( 12-C , 14-H ) :   0.9303
B( 12-C , 15-O ) :   0.8793 B( 12-C , 16-C ) :   0.8899 B( 16-C , 17-C ) :   0.9017
B( 16-C , 20-O ) :   0.8529 B( 16-C , 21-H ) :   0.9127 B( 17-C , 18-C ) :   0.9204
B( 17-C , 22-O ) :   0.8940 B( 17-C , 23-H ) :   0.9346 B( 18-C , 19-C ) :   0.9430
B( 18-C , 24-H ) :   0.9367 B( 18-C , 25-H ) :   0.9165 B( 19-C , 20-O ) :   0.8372
B( 19-C , 26-H ) :   0.9252 B( 19-C , 27-H ) :   0.9395 B( 22-O , 28-H ) :   0.7957

FINAL SINGLE POINT ENERGY      -652.856781789573

DIPOLE MOMENT
-------------
                                X             Y             Z
Electronic contribution:     -2.63046      -4.86275      -1.27723
Nuclear contribution   :      3.10013       5.69250       1.08371
                        -----------------------------------------
Total Dipole Moment    :      0.46967       0.82975      -0.19351
                        -----------------------------------------
Magnitude (a.u.)       :      0.97290
Magnitude (Debye)      :      2.47290

Rotational constants in cm-1:     0.059630     0.014553     0.013887
Rotational constants in MHz :  1787.674842   436.275919   416.331824

                             ****ORCA TERMINATED NORMALLY****
TOTAL RUN TIME: 0 days 0 hours 23 minutes 11 seconds 991 msec
