                         Program Version 4.2.0 -  RELEASE  -
|  1> # Test redundant internal optimization
|  2> #
|  3> ! RKS B3LYP  Opt TightSCF SmallPrint
|  4>
|  5> %basis
|  6>         Basis "6-31G"
|  7> end
|  8>
|  9> %geom
| 10> Constraints
| 11> { D 4  0  15  12  30.0   C } # D for Dihedral angle
| 12> { D 0  15  12  16  255.0   C } # D for Dihedral angle
| 13> { D 0  4  3  2   C } # D for Dihedral angle
| 14> { D 4  3  2  1   C } # D for Dihedral angle
| 15> { D 3  2  1  0   C } # D for Dihedral angle
| 16> { D 2  1  0  4   C } # D for Dihedral angle
| 17> { D 1  0  4  3   C } # D for Dihedral angle
| 18> { D 16  20  19  18   C } # D for Dihedral angle
| 19> { D 20  19  18  17   C } # D for Dihedral angle
| 20> { D 19  18  17  16   C } # D for Dihedral angle
| 21> { D 18  17  16  20   C } # D for Dihedral angle
| 22> { D 17  16  20  19   C } # D for Dihedral angle
| 23> { D 15  12  16  20   C } # D for Dihedral angle
| 24> end
| 25> end
| 26>
| 27>
| 28> #%pal
| 29> #nprocs 8
| 30> #end
| 31>
| 32> * xyz 0 1
| 33> C  -21.048   26.222   46.251
| 34> C  -20.361   27.558   45.944
| 35> C  -20.329   28.222   47.341
| 36> C  -20.110   27.022   48.296
| 37> O  -20.473   25.807   47.535
| 38> H  -20.833   25.428   45.533
| 39> H  -19.344   27.382   45.576
| 40> H  -20.898   28.157   45.201
| 41> H  -19.543   28.978   47.434
| 42> H  -21.289   28.710   47.548
| 43> H  -20.733   27.082   49.195
| 44> H  -19.064   26.913   48.597
| 45> C  -23.091   26.824   47.779
| 46> H  -22.245   27.198   48.370
| 47> H  -23.831   27.630   47.691
| 48> O  -22.586   26.394   46.375
| 49> C  -23.755   25.657   48.562
| 50> C  -22.742   24.553   48.880
| 51> C  -21.998   25.151   50.098
| 52> C  -23.113   25.923   50.846
| 53> O  -24.213   26.118   49.877
| 54> H  -24.638   25.318   48.017
| 55> O  -23.484   23.247   49.277
| 56> H  -22.073   24.327   48.042
| 57> H  -21.527   24.387   50.724
| 58> H  -21.213   25.837   49.759
| 59> H  -22.777   26.900   51.208
| 60> H  -23.521   25.356   51.688
| 61> H  -24.160   23.449   50.117
| 62> *
| 63>
| 64>                          ****END OF INPUT****
 Total Charge           Charge          ....    0
 Multiplicity           Mult            ....    1
 Number of Electrons    NEL             ....  102
FINAL SINGLE POINT ENERGY      -652.812617806747
FINAL SINGLE POINT ENERGY      -652.841458267178
FINAL SINGLE POINT ENERGY      -652.856573265624
FINAL SINGLE POINT ENERGY      -652.858866859860
FINAL SINGLE POINT ENERGY      -652.859292382497
FINAL SINGLE POINT ENERGY      -652.859346024391
FINAL SINGLE POINT ENERGY      -652.859350087469
FINAL SINGLE POINT ENERGY      -652.859353028745
                    ***********************HURRAY********************

CARTESIAN COORDINATES (ANGSTROEM)
---------------------------------
  C    -21.089789   26.309272   46.378297
  C    -20.435155   27.594029   45.856118
  C    -20.115702   28.348916   47.175082
  C    -19.754190   27.203933   48.149840
  O    -20.301816   25.959401   47.541054
  H    -20.996288   25.471369   45.684857
  H    -19.514582   27.334300   45.321665
  H    -21.095575   28.147424   45.185487
  H    -19.295525   29.064482   47.063247
  H    -20.995926   28.901531   47.520274
  H    -20.180465   27.332514   49.148918
  H    -18.674375   27.054706   48.241758
  C    -23.118144   26.806469   47.855020
  H    -22.401532   27.314913   48.508317
  H    -23.921952   27.507260   47.616400
  O    -22.516613   26.409158   46.587766
  C    -23.716867   25.592775   48.582334
  C    -22.764489   24.461571   48.995061
  C    -22.145231   25.031573   50.298801
  C    -23.320855   25.818394   50.930679
  O    -24.307804   26.048717   49.847407
  H    -24.532916   25.186825   47.976437
  O    -23.516718   23.239616   49.244241
  H    -22.019957   24.210342   48.245032
  H    -21.784150   24.222442   50.938662
  H    -21.302053   25.681484   50.055350
  H    -23.015835   26.784979   51.344566
  H    -23.831748   25.251507   51.715268
  H    -24.325745   23.460097   49.753064

 Multiplicity           Mult            ....    1
 Number of Electrons    NEL             ....  102
 Basis Dimension        Dim             ....  149

ORBITAL ENERGIES
----------------

  NO   OCC          E(Eh)            E(eV)
   0   2.0000     -19.159183      -521.3479
   1   2.0000     -19.143882      -520.9315
   2   2.0000     -19.140966      -520.8522
   3   2.0000     -19.128311      -520.5078
   4   2.0000     -10.285733      -279.8890
   5   2.0000     -10.241444      -278.6839
   6   2.0000     -10.233087      -278.4565
   7   2.0000     -10.227842      -278.3137
   8   2.0000     -10.227308      -278.2992
   9   2.0000     -10.226471      -278.2764
  10   2.0000     -10.199754      -277.5494
  11   2.0000     -10.192472      -277.3513
  12   2.0000     -10.179985      -277.0115
  13   2.0000      -1.060227       -28.8502
  14   2.0000      -1.031195       -28.0602
  15   2.0000      -1.001326       -27.2475
  16   2.0000      -0.996849       -27.1257
  17   2.0000      -0.796710       -21.6796
  18   2.0000      -0.775628       -21.1059
  19   2.0000      -0.766776       -20.8650
  20   2.0000      -0.736668       -20.0458
  21   2.0000      -0.677466       -18.4348
  22   2.0000      -0.612086       -16.6557
  23   2.0000      -0.600039       -16.3279
  24   2.0000      -0.596024       -16.2186
  25   2.0000      -0.573835       -15.6148
  26   2.0000      -0.526089       -14.3156
  27   2.0000      -0.509815       -13.8728
  28   2.0000      -0.509587       -13.8666
  29   2.0000      -0.485133       -13.2011
  30   2.0000      -0.477813       -13.0019
  31   2.0000      -0.456675       -12.4268
  32   2.0000      -0.453831       -12.3494
  33   2.0000      -0.433331       -11.7915
  34   2.0000      -0.423325       -11.5192
  35   2.0000      -0.416066       -11.3217
  36   2.0000      -0.409744       -11.1497
  37   2.0000      -0.386473       -10.5165
  38   2.0000      -0.383185       -10.4270
  39   2.0000      -0.369272       -10.0484
  40   2.0000      -0.360569        -9.8116
  41   2.0000      -0.357669        -9.7327
  42   2.0000      -0.351725        -9.5709
  43   2.0000      -0.335160        -9.1202
  44   2.0000      -0.323488        -8.8026
  45   2.0000      -0.314022        -8.5450
  46   2.0000      -0.300213        -8.1692
  47   2.0000      -0.274874        -7.4797
  48   2.0000      -0.266685        -7.2569
  49   2.0000      -0.257780        -7.0145
  50   2.0000      -0.236469        -6.4346
  51   0.0000       0.057205         1.5566
  52   0.0000       0.070072         1.9068
  53   0.0000       0.088027         2.3953
  54   0.0000       0.093991         2.5576
  55   0.0000       0.107688         2.9303

MULLIKEN ATOMIC CHARGES
-----------------------
   0 C :    0.302714
   1 C :   -0.261109
   2 C :   -0.315574
   3 C :   -0.020381
   4 O :   -0.514277
   5 H :    0.167730
   6 H :    0.150367
   7 H :    0.161148
   8 H :    0.151430
   9 H :    0.154726
  10 H :    0.139506
  11 H :    0.156845
  12 C :   -0.013708
  13 H :    0.126957
  14 H :    0.164181
  15 O :   -0.533975
  16 C :    0.057552
  17 C :    0.089674
  18 C :   -0.303884
  19 C :   -0.033761
  20 O :   -0.529319
  21 H :    0.164383
  22 O :   -0.605051
  23 H :    0.184183
  24 H :    0.159215
  25 H :    0.154860
  26 H :    0.138920
  27 H :    0.146057
  28 H :    0.360590
Sum of atomic charges:    0.0000000

LOEWDIN ATOMIC CHARGES
----------------------
   0 C :    0.179328
   1 C :   -0.223987
   2 C :   -0.222352
   3 C :   -0.036317
   4 O :   -0.322274
   5 H :    0.112178
   6 H :    0.117548
   7 H :    0.125628
   8 H :    0.119433
   9 H :    0.112761
  10 H :    0.096686
  11 H :    0.109375
  12 C :   -0.036813
  13 H :    0.095681
  14 H :    0.118287
  15 O :   -0.332449
  16 C :    0.009807
  17 C :    0.038791
  18 C :   -0.241748
  19 C :   -0.040354
  20 O :   -0.333806
  21 H :    0.116539
  22 O :   -0.416867
  23 H :    0.131179
  24 H :    0.125590
  25 H :    0.116699
  26 H :    0.099834
  27 H :    0.101956
  28 H :    0.279668

  Mayer bond orders larger than 0.100000
B(  0-C ,  1-C ) :   0.9209 B(  0-C ,  4-O ) :   0.8887 B(  0-C ,  5-H ) :   0.9333
B(  0-C , 15-O ) :   0.8743 B(  1-C ,  2-C ) :   0.9533 B(  1-C ,  6-H ) :   0.9345
B(  1-C ,  7-H ) :   0.9371 B(  2-C ,  3-C ) :   0.9496 B(  2-C ,  8-H ) :   0.9436
B(  2-C ,  9-H ) :   0.9433 B(  3-C ,  4-O ) :   0.8337 B(  3-C , 10-H ) :   0.9232
B(  3-C , 11-H ) :   0.9384 B( 12-C , 13-H ) :   0.9195 B( 12-C , 14-H ) :   0.9323
B( 12-C , 15-O ) :   0.8260 B( 12-C , 16-C ) :   0.8891 B( 16-C , 17-C ) :   0.9167
B( 16-C , 20-O ) :   0.8329 B( 16-C , 21-H ) :   0.9259 B( 17-C , 18-C ) :   0.9152
B( 17-C , 22-O ) :   0.8800 B( 17-C , 23-H ) :   0.9180 B( 18-C , 19-C ) :   0.9417
B( 18-C , 24-H ) :   0.9383 B( 18-C , 25-H ) :   0.9227 B( 19-C , 20-O ) :   0.8426
B( 19-C , 26-H ) :   0.9363 B( 19-C , 27-H ) :   0.9380 B( 22-O , 28-H ) :   0.7964

FINAL SINGLE POINT ENERGY      -652.859353470919

DIPOLE MOMENT
-------------
                                X             Y             Z
Electronic contribution:     -4.37324      -4.49078      -1.47861
Nuclear contribution   :      5.39125       5.86026       1.73725
                        -----------------------------------------
Total Dipole Moment    :      1.01801       1.36948       0.25865
                        -----------------------------------------
Magnitude (a.u.)       :      1.72589
Magnitude (Debye)      :      4.38688

Rotational constants in cm-1:     0.048773     0.016269     0.015862
Rotational constants in MHz :  1462.184710   487.742282   475.521398

                             ****ORCA TERMINATED NORMALLY****
TOTAL RUN TIME: 0 days 2 hours 37 minutes 22 seconds 295 msec
