                         Program Version 4.2.0 -  RELEASE  -
|  1> # Test redundant internal optimization
|  2> #
|  3> ! RKS B3LYP  Opt TightSCF SmallPrint
|  4>
|  5> %basis
|  6>         Basis "6-31G"
|  7> end
|  8>
|  9> %geom
| 10> Constraints
| 11> { D 4  0  15  12  15.0   C } # D for Dihedral angle
| 12> { D 0  15  12  16  270.0   C } # D for Dihedral angle
| 13> { D 0  4  3  2   C } # D for Dihedral angle
| 14> { D 4  3  2  1   C } # D for Dihedral angle
| 15> { D 3  2  1  0   C } # D for Dihedral angle
| 16> { D 2  1  0  4   C } # D for Dihedral angle
| 17> { D 1  0  4  3   C } # D for Dihedral angle
| 18> { D 16  20  19  18   C } # D for Dihedral angle
| 19> { D 20  19  18  17   C } # D for Dihedral angle
| 20> { D 19  18  17  16   C } # D for Dihedral angle
| 21> { D 18  17  16  20   C } # D for Dihedral angle
| 22> { D 17  16  20  19   C } # D for Dihedral angle
| 23> { D 15  12  16  20   C } # D for Dihedral angle
| 24> end
| 25> end
| 26>
| 27>
| 28> #%pal
| 29> #nprocs 8
| 30> #end
| 31>
| 32> * xyz 0 1
| 33> C  -21.048   26.222   46.251
| 34> C  -20.361   27.558   45.944
| 35> C  -20.329   28.222   47.341
| 36> C  -20.110   27.022   48.296
| 37> O  -20.473   25.807   47.535
| 38> H  -20.833   25.428   45.533
| 39> H  -19.344   27.382   45.576
| 40> H  -20.898   28.157   45.201
| 41> H  -19.543   28.978   47.434
| 42> H  -21.289   28.710   47.548
| 43> H  -20.733   27.082   49.195
| 44> H  -19.064   26.913   48.597
| 45> C  -23.128   26.462   47.829
| 46> H  -22.365   26.910   48.479
| 47> H  -24.028   27.089   47.875
| 48> O  -22.586   26.394   46.375
| 49> C  -23.496   25.064   48.399
| 50> C  -24.495   24.338   47.490
| 51> C  -23.569   23.807   46.369
| 52> C  -22.260   23.467   47.125
| 53> O  -22.319   24.190   48.414
| 54> H  -23.825   25.175   49.434
| 55> O  -25.155   23.161   48.258
| 56> H  -25.288   24.992   47.112
| 57> H  -23.988   22.940   45.848
| 58> H  -23.392   24.593   45.624
| 59> H  -21.366   23.781   46.577
| 60> H  -22.177   22.401   47.357
| 61> H  -24.378   22.492   48.646
| 62> *
| 63>
| 64>                          ****END OF INPUT****
 Total Charge           Charge          ....    0
 Multiplicity           Mult            ....    1
 Number of Electrons    NEL             ....  102
FINAL SINGLE POINT ENERGY      -652.817085693784
FINAL SINGLE POINT ENERGY      -652.843766879293
FINAL SINGLE POINT ENERGY      -652.853108948806
FINAL SINGLE POINT ENERGY      -652.855436203849
FINAL SINGLE POINT ENERGY      -652.855813982295
FINAL SINGLE POINT ENERGY      -652.855869019472
FINAL SINGLE POINT ENERGY      -652.855872919450
                    ***********************HURRAY********************

CARTESIAN COORDINATES (ANGSTROEM)
---------------------------------
  C    -21.040112   26.384488   46.297859
  C    -20.446292   27.761861   45.997514
  C    -20.220497   28.332626   47.421167
  C    -19.826909   27.078534   48.235135
  O    -20.280434   25.915649   47.423914
  H    -20.902084   25.653442   45.499083
  H    -19.492499   27.636529   45.471497
  H    -21.113185   28.372557   45.385298
  H    -19.443400   29.102640   47.447070
  H    -21.146128   28.777617   47.801355
  H    -20.300104   27.023708   49.218835
  H    -18.744391   26.972308   48.351913
  C    -23.144506   26.412025   47.777398
  H    -22.520184   26.884837   48.544384
  H    -24.052079   27.014142   47.657069
  O    -22.487292   26.465852   46.479859
  C    -23.544104   25.017147   48.286587
  C    -24.528517   24.256650   47.387377
  C    -23.572017   23.574528   46.372126
  C    -22.329559   23.245882   47.238537
  O    -22.428231   24.094301   48.447631
  H    -23.983009   25.162522   49.282044
  O    -25.289608   23.284714   48.161826
  H    -25.276900   24.893360   46.914596
  H    -24.036699   22.687141   45.934900
  H    -23.321391   24.285263   45.581412
  H    -21.383276   23.465159   46.738851
  H    -22.316133   22.204760   47.578764
  H    -24.670460   22.776760   48.727999

 Multiplicity           Mult            ....    1
 Number of Electrons    NEL             ....  102
 Basis Dimension        Dim             ....  149

ORBITAL ENERGIES
----------------

  NO   OCC          E(Eh)            E(eV)
   0   2.0000     -19.148967      -521.0699
   1   2.0000     -19.141248      -520.8598
   2   2.0000     -19.131685      -520.5996
   3   2.0000     -19.129839      -520.5494
   4   2.0000     -10.282199      -279.7929
   5   2.0000     -10.233636      -278.4714
   6   2.0000     -10.232362      -278.4367
   7   2.0000     -10.230847      -278.3955
   8   2.0000     -10.227769      -278.3117
   9   2.0000     -10.217775      -278.0398
  10   2.0000     -10.193494      -277.3791
  11   2.0000     -10.187438      -277.2143
  12   2.0000     -10.173519      -276.8355
  13   2.0000      -1.054706       -28.7000
  14   2.0000      -1.027834       -27.9688
  15   2.0000      -0.998660       -27.1749
  16   2.0000      -0.992160       -26.9981
  17   2.0000      -0.791405       -21.5352
  18   2.0000      -0.775204       -21.0944
  19   2.0000      -0.761697       -20.7268
  20   2.0000      -0.734010       -19.9734
  21   2.0000      -0.672939       -18.3116
  22   2.0000      -0.605864       -16.4864
  23   2.0000      -0.603016       -16.4089
  24   2.0000      -0.592554       -16.1242
  25   2.0000      -0.563319       -15.3287
  26   2.0000      -0.524705       -14.2780
  27   2.0000      -0.507560       -13.8114
  28   2.0000      -0.494243       -13.4490
  29   2.0000      -0.482044       -13.1171
  30   2.0000      -0.473478       -12.8840
  31   2.0000      -0.460109       -12.5202
  32   2.0000      -0.445363       -12.1189
  33   2.0000      -0.432513       -11.7693
  34   2.0000      -0.418523       -11.3886
  35   2.0000      -0.415161       -11.2971
  36   2.0000      -0.395455       -10.7609
  37   2.0000      -0.383545       -10.4368
  38   2.0000      -0.377657       -10.2766
  39   2.0000      -0.366797        -9.9810
  40   2.0000      -0.361282        -9.8310
  41   2.0000      -0.357409        -9.7256
  42   2.0000      -0.348174        -9.4743
  43   2.0000      -0.329621        -8.9694
  44   2.0000      -0.321076        -8.7369
  45   2.0000      -0.308932        -8.4065
  46   2.0000      -0.293355        -7.9826
  47   2.0000      -0.266471        -7.2510
  48   2.0000      -0.260091        -7.0774
  49   2.0000      -0.257463        -7.0059
  50   2.0000      -0.228833        -6.2269
  51   0.0000       0.067331         1.8322
  52   0.0000       0.079019         2.1502
  53   0.0000       0.093410         2.5418
  54   0.0000       0.102278         2.7831
  55   0.0000       0.107647         2.9292

MULLIKEN ATOMIC CHARGES
-----------------------
   0 C :    0.308939
   1 C :   -0.259192
   2 C :   -0.313812
   3 C :   -0.016546
   4 O :   -0.498217
   5 H :    0.153492
   6 H :    0.146144
   7 H :    0.157343
   8 H :    0.149381
   9 H :    0.151549
  10 H :    0.152770
  11 H :    0.151600
  12 C :   -0.010146
  13 H :    0.138916
  14 H :    0.147036
  15 O :   -0.544860
  16 C :    0.080067
  17 C :    0.078860
  18 C :   -0.291244
  19 C :   -0.024255
  20 O :   -0.514725
  21 H :    0.146826
  22 O :   -0.606907
  23 H :    0.149419
  24 H :    0.147631
  25 H :    0.167758
  26 H :    0.156321
  27 H :    0.134425
  28 H :    0.361426
Sum of atomic charges:   -0.0000000

LOEWDIN ATOMIC CHARGES
----------------------
   0 C :    0.180961
   1 C :   -0.222172
   2 C :   -0.221705
   3 C :   -0.032249
   4 O :   -0.305540
   5 H :    0.103676
   6 H :    0.114441
   7 H :    0.123626
   8 H :    0.118117
   9 H :    0.111903
  10 H :    0.105445
  11 H :    0.107333
  12 C :   -0.035634
  13 H :    0.100854
  14 H :    0.112451
  15 O :   -0.344866
  16 C :    0.005504
  17 C :    0.037422
  18 C :   -0.242056
  19 C :   -0.034608
  20 O :   -0.320533
  21 H :    0.112824
  22 O :   -0.419674
  23 H :    0.114450
  24 H :    0.118716
  25 H :    0.125680
  26 H :    0.108799
  27 H :    0.095997
  28 H :    0.280837

  Mayer bond orders larger than 0.100000
B(  0-C ,  1-C ) :   0.9291 B(  0-C ,  4-O ) :   0.9223 B(  0-C ,  5-H ) :   0.9305
B(  0-C , 15-O ) :   0.8325 B(  1-C ,  2-C ) :   0.9541 B(  1-C ,  6-H ) :   0.9349
B(  1-C ,  7-H ) :   0.9367 B(  2-C ,  3-C ) :   0.9500 B(  2-C ,  8-H ) :   0.9444
B(  2-C ,  9-H ) :   0.9449 B(  3-C ,  4-O ) :   0.8313 B(  3-C , 10-H ) :   0.9293
B(  3-C , 11-H ) :   0.9390 B( 12-C , 13-H ) :   0.9183 B( 12-C , 14-H ) :   0.9284
B( 12-C , 15-O ) :   0.8592 B( 12-C , 16-C ) :   0.8768 B( 16-C , 17-C ) :   0.9113
B( 16-C , 20-O ) :   0.8822 B( 16-C , 21-H ) :   0.9162 B( 17-C , 18-C ) :   0.9220
B( 17-C , 22-O ) :   0.8874 B( 17-C , 23-H ) :   0.9359 B( 18-C , 19-C ) :   0.9445
B( 18-C , 24-H ) :   0.9373 B( 18-C , 25-H ) :   0.9217 B( 19-C , 20-O ) :   0.8389
B( 19-C , 26-H ) :   0.9272 B( 19-C , 27-H ) :   0.9385 B( 22-O , 28-H ) :   0.7965

FINAL SINGLE POINT ENERGY      -652.855871784645

DIPOLE MOMENT
-------------
                                X             Y             Z
Electronic contribution:     -2.39147      -3.59179       1.36476
Nuclear contribution   :      3.17275       4.58266      -1.57294
                        -----------------------------------------
Total Dipole Moment    :      0.78128       0.99086      -0.20818
                        -----------------------------------------
Magnitude (a.u.)       :      1.27888
Magnitude (Debye)      :      3.25067

Rotational constants in cm-1:     0.061040     0.015400     0.015097
Rotational constants in MHz :  1829.939634   461.680700   452.596634

                             ****ORCA TERMINATED NORMALLY****
TOTAL RUN TIME: 0 days 0 hours 28 minutes 25 seconds 2 msec
