                         Program Version 4.2.0 -  RELEASE  -
|  1> # Test redundant internal optimization
|  2> #
|  3> ! RKS B3LYP  Opt TightSCF SmallPrint
|  4>
|  5> %basis
|  6>         Basis "6-31G"
|  7> end
|  8>
|  9> %geom
| 10> Constraints
| 11> { D 4  0  15  12  255.0   C } # D for Dihedral angle
| 12> { D 0  15  12  16  135.0   C } # D for Dihedral angle
| 13> { D 0  4  3  2   C } # D for Dihedral angle
| 14> { D 4  3  2  1   C } # D for Dihedral angle
| 15> { D 3  2  1  0   C } # D for Dihedral angle
| 16> { D 2  1  0  4   C } # D for Dihedral angle
| 17> { D 1  0  4  3   C } # D for Dihedral angle
| 18> { D 16  20  19  18   C } # D for Dihedral angle
| 19> { D 20  19  18  17   C } # D for Dihedral angle
| 20> { D 19  18  17  16   C } # D for Dihedral angle
| 21> { D 18  17  16  20   C } # D for Dihedral angle
| 22> { D 17  16  20  19   C } # D for Dihedral angle
| 23> { D 15  12  16  20   C } # D for Dihedral angle
| 24> end
| 25> end
| 26>
| 27>
| 28> #%pal
| 29> #nprocs 8
| 30> #end
| 31>
| 32> * xyz 0 1
| 33> C  -21.048   26.222   46.251
| 34> C  -20.361   27.558   45.944
| 35> C  -20.329   28.222   47.341
| 36> C  -20.110   27.022   48.296
| 37> O  -20.473   25.807   47.535
| 38> H  -20.833   25.428   45.533
| 39> H  -19.344   27.382   45.576
| 40> H  -20.898   28.157   45.201
| 41> H  -19.543   28.978   47.434
| 42> H  -21.289   28.710   47.548
| 43> H  -20.733   27.082   49.195
| 44> H  -19.064   26.913   48.597
| 45> C  -23.431   25.260   45.734
| 46> H  -23.860   25.617   44.789
| 47> H  -22.801   24.387   45.516
| 48> O  -22.586   26.394   46.375
| 49> C  -24.594   24.786   46.649
| 50> C  -25.333   23.591   46.037
| 51> C  -24.380   22.422   46.381
| 52> C  -23.819   22.824   47.768
| 53> O  -24.070   24.273   47.919
| 54> H  -25.232   25.639   46.887
| 55> H  -26.304   23.457   46.527
| 56> O  -25.574   23.741   44.509
| 57> H  -24.888   21.452   46.402
| 58> H  -23.574   22.363   45.641
| 59> H  -22.743   22.636   47.855
| 60> H  -24.335   22.320   48.590
| 61> H  -24.616   23.876   43.996
| 62> *
| 63>
| 64>                          ****END OF INPUT****
 Total Charge           Charge          ....    0
 Multiplicity           Mult            ....    1
 Number of Electrons    NEL             ....  102
FINAL SINGLE POINT ENERGY      -652.827016968384
FINAL SINGLE POINT ENERGY      -652.850636025473
FINAL SINGLE POINT ENERGY      -652.855201607382
FINAL SINGLE POINT ENERGY      -652.855962699767
FINAL SINGLE POINT ENERGY      -652.856110783907
FINAL SINGLE POINT ENERGY      -652.856152828863
FINAL SINGLE POINT ENERGY      -652.856160330485
FINAL SINGLE POINT ENERGY      -652.856161753673
                    ***********************HURRAY********************

CARTESIAN COORDINATES (ANGSTROEM)
---------------------------------
  C    -21.003481   26.179776   46.184622
  C    -20.440707   27.584809   45.970731
  C    -20.505099   28.176099   47.399677
  C    -20.197263   26.952772   48.292202
  O    -20.431978   25.760839   47.440947
  H    -20.714590   25.431071   45.440223
  H    -19.402133   27.513377   45.625925
  H    -21.020261   28.153436   45.240671
  H    -19.793696   28.993521   47.550300
  H    -21.514080   28.550329   47.595794
  H    -20.846106   26.887900   49.168611
  H    -19.150590   26.910776   48.609413
  C    -23.245567   25.255348   45.638766
  H    -23.686541   25.649562   44.713846
  H    -22.611802   24.391425   45.389035
  O    -22.442641   26.289002   46.262439
  C    -24.367110   24.846353   46.594724
  C    -25.259668   23.715749   46.057179
  C    -24.429067   22.449164   46.421850
  C    -23.782405   22.845226   47.767881
  O    -23.864855   24.324832   47.859790
  H    -24.940662   25.742809   46.847472
  H    -26.208614   23.716458   46.597222
  O    -25.634185   23.824081   44.660888
  H    -25.051545   21.553340   46.493993
  H    -23.670367   22.271543   45.647765
  H    -22.733462   22.544260   47.845697
  H    -24.330391   22.440137   48.623663
  H    -24.886136   23.565004   44.084675

 Multiplicity           Mult            ....    1
 Number of Electrons    NEL             ....  102
 Basis Dimension        Dim             ....  149

ORBITAL ENERGIES
----------------

  NO   OCC          E(Eh)            E(eV)
   0   2.0000     -19.148990      -521.0705
   1   2.0000     -19.136611      -520.7337
   2   2.0000     -19.132234      -520.6145
   3   2.0000     -19.130191      -520.5590
   4   2.0000     -10.275223      -279.6030
   5   2.0000     -10.243451      -278.7385
   6   2.0000     -10.230540      -278.3872
   7   2.0000     -10.226989      -278.2905
   8   2.0000     -10.226301      -278.2718
   9   2.0000     -10.216418      -278.0029
  10   2.0000     -10.194506      -277.4066
  11   2.0000     -10.179454      -276.9970
  12   2.0000     -10.178435      -276.9693
  13   2.0000      -1.046869       -28.4868
  14   2.0000      -1.031486       -28.0682
  15   2.0000      -1.012578       -27.5536
  16   2.0000      -0.988431       -26.8966
  17   2.0000      -0.783577       -21.3222
  18   2.0000      -0.778987       -21.1973
  19   2.0000      -0.763508       -20.7761
  20   2.0000      -0.725365       -19.7382
  21   2.0000      -0.677342       -18.4314
  22   2.0000      -0.609533       -16.5862
  23   2.0000      -0.591346       -16.0914
  24   2.0000      -0.586362       -15.9557
  25   2.0000      -0.578679       -15.7467
  26   2.0000      -0.527577       -14.3561
  27   2.0000      -0.509334       -13.8597
  28   2.0000      -0.494156       -13.4467
  29   2.0000      -0.482962       -13.1421
  30   2.0000      -0.465100       -12.6560
  31   2.0000      -0.455159       -12.3855
  32   2.0000      -0.444978       -12.1085
  33   2.0000      -0.429261       -11.6808
  34   2.0000      -0.424434       -11.5494
  35   2.0000      -0.417505       -11.3609
  36   2.0000      -0.401425       -10.9233
  37   2.0000      -0.393877       -10.7179
  38   2.0000      -0.377948       -10.2845
  39   2.0000      -0.367711       -10.0059
  40   2.0000      -0.350094        -9.5265
  41   2.0000      -0.346588        -9.4311
  42   2.0000      -0.343066        -9.3353
  43   2.0000      -0.328390        -8.9359
  44   2.0000      -0.314249        -8.5511
  45   2.0000      -0.311988        -8.4896
  46   2.0000      -0.299493        -8.1496
  47   2.0000      -0.269865        -7.3434
  48   2.0000      -0.261377        -7.1124
  49   2.0000      -0.244235        -6.6460
  50   2.0000      -0.233014        -6.3406
  51   0.0000       0.050499         1.3742
  52   0.0000       0.076855         2.0913
  53   0.0000       0.089495         2.4353
  54   0.0000       0.099888         2.7181
  55   0.0000       0.110314         3.0018

MULLIKEN ATOMIC CHARGES
-----------------------
   0 C :    0.285566
   1 C :   -0.253991
   2 C :   -0.299374
   3 C :    0.000912
   4 O :   -0.501056
   5 H :    0.132575
   6 H :    0.139524
   7 H :    0.147730
   8 H :    0.137387
   9 H :    0.165299
  10 H :    0.157038
  11 H :    0.136139
  12 C :   -0.006381
  13 H :    0.137193
  14 H :    0.116168
  15 O :   -0.513584
  16 C :    0.098434
  17 C :    0.081594
  18 C :   -0.328541
  19 C :   -0.006537
  20 O :   -0.500849
  21 H :    0.164266
  22 H :    0.168549
  23 O :   -0.599526
  24 H :    0.157576
  25 H :    0.131307
  26 H :    0.151540
  27 H :    0.147129
  28 H :    0.353910
Sum of atomic charges:   -0.0000000

LOEWDIN ATOMIC CHARGES
----------------------
   0 C :    0.176050
   1 C :   -0.218965
   2 C :   -0.216026
   3 C :   -0.025974
   4 O :   -0.319317
   5 H :    0.093798
   6 H :    0.110661
   7 H :    0.119168
   8 H :    0.111748
   9 H :    0.120692
  10 H :    0.110716
  11 H :    0.099455
  12 C :   -0.045550
  13 H :    0.100824
  14 H :    0.089061
  15 O :   -0.321710
  16 C :    0.018744
  17 C :    0.033593
  18 C :   -0.242675
  19 C :   -0.028817
  20 O :   -0.310112
  21 H :    0.119667
  22 H :    0.119734
  23 O :   -0.408326
  24 H :    0.122263
  25 H :    0.102644
  26 H :    0.106959
  27 H :    0.105108
  28 H :    0.276589

  Mayer bond orders larger than 0.100000
B(  0-C ,  1-C ) :   0.9456 B(  0-C ,  4-O ) :   0.9282 B(  0-C ,  5-H ) :   0.9198
B(  0-C , 15-O ) :   0.8556 B(  1-C ,  2-C ) :   0.9591 B(  1-C ,  6-H ) :   0.9391
B(  1-C ,  7-H ) :   0.9382 B(  2-C ,  3-C ) :   0.9546 B(  2-C ,  8-H ) :   0.9456
B(  2-C ,  9-H ) :   0.9433 B(  3-C ,  4-O ) :   0.8382 B(  3-C , 10-H ) :   0.9338
B(  3-C , 11-H ) :   0.9402 B( 12-C , 13-H ) :   0.9119 B( 12-C , 14-H ) :   0.9181
B( 12-C , 15-O ) :   0.8498 B( 12-C , 16-C ) :   0.9024 B( 16-C , 17-C ) :   0.8715
B( 16-C , 20-O ) :   0.8757 B( 16-C , 21-H ) :   0.9299 B( 17-C , 18-C ) :   0.9243
B( 17-C , 22-H ) :   0.9323 B( 17-C , 23-O ) :   0.8944 B( 18-C , 19-C ) :   0.9394
B( 18-C , 24-H ) :   0.9420 B( 18-C , 25-H ) :   0.9403 B( 19-C , 20-O ) :   0.8498
B( 19-C , 26-H ) :   0.9303 B( 19-C , 27-H ) :   0.9382 B( 23-O , 28-H ) :   0.7995

FINAL SINGLE POINT ENERGY      -652.856161796807

DIPOLE MOMENT
-------------
                                X             Y             Z
Electronic contribution:     -2.68055      -0.90968       0.11567
Nuclear contribution   :      3.22678       0.55823      -0.77708
                        -----------------------------------------
Total Dipole Moment    :      0.54623      -0.35145      -0.66141
                        -----------------------------------------
Magnitude (a.u.)       :      0.92701
Magnitude (Debye)      :      2.35627

Rotational constants in cm-1:     0.056851     0.013316     0.011882
Rotational constants in MHz :  1704.348843   399.200888   356.227759

                             ****ORCA TERMINATED NORMALLY****
TOTAL RUN TIME: 0 days 0 hours 24 minutes 17 seconds 872 msec
