                         Program Version 4.2.1 -  RELEASE  -
|  1> # Test redundant internal optimization
|  2> #
|  3> ! RKS B3LYP  Opt TightSCF SmallPrint
|  4>
|  5> %basis
|  6>         Basis "6-31G"
|  7> end
|  8>
|  9> %geom
| 10> Constraints
| 11> { D 4  0  19  14  165.0   C } # D for Dihedral angle
| 12> { D 0  19  14  12  15.0   C } # D for Dihedral angle
| 13> { D 0  4  3  2   C } # D for Dihedral angle
| 14> { D 4  3  2  1   C } # D for Dihedral angle
| 15> { D 3  2  1  0   C } # D for Dihedral angle
| 16> { D 2  1  0  4   C } # D for Dihedral angle
| 17> { D 1  0  4  3   C } # D for Dihedral angle
| 18> { D 14  15  16  17   C } # D for Dihedral angle
| 19> { D 15  16  17  12   C } # D for Dihedral angle
| 20> { D 16  17  12  14   C } # D for Dihedral angle
| 21> { D 17  12  14  15   C } # D for Dihedral angle
| 22> { D 12  14  15  16   C } # D for Dihedral angle
| 23> end
| 24> end
| 25>
| 26>
| 27> #%pal
| 28> #nprocs 8
| 29> #end
| 30>
| 31> * xyz 0 1
| 32> C  -21.048   26.222   46.251
| 33> C  -20.361   27.558   45.944
| 34> C  -20.329   28.222   47.341
| 35> C  -20.110   27.022   48.296
| 36> O  -20.473   25.807   47.535
| 37> H  -20.833   25.428   45.533
| 38> H  -19.344   27.382   45.576
| 39> H  -20.898   28.157   45.201
| 40> H  -19.543   28.978   47.434
| 41> H  -21.289   28.710   47.548
| 42> H  -20.733   27.082   49.195
| 43> H  -19.064   26.913   48.597
| 44> C  -22.102   27.191   44.101
| 45> H  -22.411   27.966   43.383
| 46> C  -23.077   27.101   45.280
| 47> C  -24.239   26.287   44.665
| 48> C  -23.516   25.306   43.710
| 49> O  -22.165   25.864   43.479
| 50> H  -21.062   27.361   44.385
| 51> O  -22.472   26.381   46.366
| 52> H  -23.395   28.082   45.651
| 53> H  -24.841   25.769   45.419
| 54> H  -24.908   26.950   44.102
| 55> H  -24.029   25.199   42.748
| 56> H  -23.382   24.314   44.152
| 57> *
| 58>
| 59>                          ****END OF INPUT****
 Total Charge           Charge          ....    0
 Multiplicity           Mult            ....    1
 Number of Electrons    NEL             ....   86
FINAL SINGLE POINT ENERGY      -538.357397039101
FINAL SINGLE POINT ENERGY      -538.414600915880
FINAL SINGLE POINT ENERGY      -538.419089149054
FINAL SINGLE POINT ENERGY      -538.419600081964
FINAL SINGLE POINT ENERGY      -538.419718039315
FINAL SINGLE POINT ENERGY      -538.419756190621
                    ***********************HURRAY********************

CARTESIAN COORDINATES (ANGSTROEM)
---------------------------------
  C    -20.864033   26.213843   46.270037
  C    -20.000398   27.461262   46.062787
  C    -20.194580   28.224515   47.406313
  C    -20.299752   27.066737   48.422353
  O    -20.614746   25.856808   47.635235
  H    -20.605054   25.358726   45.642588
  H    -18.957657   27.138439   45.954869
  H    -20.249938   28.073902   45.199836
  H    -19.364282   28.902175   47.625127
  H    -21.121180   28.805891   47.378528
  H    -21.088752   27.216602   49.164131
  H    -19.353642   26.870205   48.936550
  C    -22.394426   27.356188   43.799935
  H    -22.994761   28.079165   43.226380
  C    -23.071685   27.125662   45.152055
  C    -24.213535   26.165626   44.766154
  C    -23.594548   25.297557   43.646392
  O    -22.407848   26.039140   43.153519
  H    -21.363155   27.692940   43.808716
  O    -22.306770   26.451964   46.206639
  H    -23.443817   28.064656   45.579284
  H    -24.527657   25.587765   45.636944
  H    -25.072116   26.736804   44.392485
  H    -24.282379   25.132910   42.810384
  H    -23.237290   24.332518   44.014759

 Multiplicity           Mult            ....    1
 Number of Electrons    NEL             ....   86
 Basis Dimension        Dim             ....  127

ORBITAL ENERGIES
----------------

  NO   OCC          E(Eh)            E(eV)
   0   2.0000     -19.136809      -520.7391
   1   2.0000     -19.134650      -520.6803
   2   2.0000     -19.130404      -520.5648
   3   2.0000     -10.278858      -279.7020
   4   2.0000     -10.243395      -278.7369
   5   2.0000     -10.229580      -278.3610
   6   2.0000     -10.223424      -278.1935
   7   2.0000     -10.222030      -278.1556
   8   2.0000     -10.188336      -277.2387
   9   2.0000     -10.187838      -277.2252
  10   2.0000     -10.183074      -277.0955
  11   2.0000      -1.048594       -28.5337
  12   2.0000      -1.017323       -27.6828
  13   2.0000      -0.980873       -26.6909
  14   2.0000      -0.787842       -21.4383
  15   2.0000      -0.781446       -21.2642
  16   2.0000      -0.740269       -20.1437
  17   2.0000      -0.727671       -19.8009
  18   2.0000      -0.619708       -16.8631
  19   2.0000      -0.603900       -16.4330
  20   2.0000      -0.594846       -16.1866
  21   2.0000      -0.565612       -15.3911
  22   2.0000      -0.517088       -14.0707
  23   2.0000      -0.499164       -13.5829
  24   2.0000      -0.492237       -13.3944
  25   2.0000      -0.486619       -13.2416
  26   2.0000      -0.451210       -12.2781
  27   2.0000      -0.448706       -12.2099
  28   2.0000      -0.432573       -11.7709
  29   2.0000      -0.412043       -11.2123
  30   2.0000      -0.407916       -11.1000
  31   2.0000      -0.386014       -10.5040
  32   2.0000      -0.372408       -10.1337
  33   2.0000      -0.367821       -10.0089
  34   2.0000      -0.363931        -9.9031
  35   2.0000      -0.351480        -9.5643
  36   2.0000      -0.349489        -9.5101
  37   2.0000      -0.316535        -8.6133
  38   2.0000      -0.306031        -8.3275
  39   2.0000      -0.286332        -7.7915
  40   2.0000      -0.256730        -6.9860
  41   2.0000      -0.246549        -6.7090
  42   2.0000      -0.240388        -6.5413
  43   0.0000       0.073941         2.0120
  44   0.0000       0.090825         2.4715
  45   0.0000       0.097280         2.6471
  46   0.0000       0.106642         2.9019
  47   0.0000       0.115666         3.1474

MULLIKEN ATOMIC CHARGES
-----------------------
   0 C :    0.317977
   1 C :   -0.285925
   2 C :   -0.302168
   3 C :    0.002531
   4 O :   -0.496907
   5 H :    0.158452
   6 H :    0.151366
   7 H :    0.138891
   8 H :    0.142396
   9 H :    0.153193
  10 H :    0.151279
  11 H :    0.142536
  12 C :   -0.032623
  13 H :    0.133068
  14 C :    0.096522
  15 C :   -0.283715
  16 C :   -0.010379
  17 O :   -0.526903
  18 H :    0.156437
  19 O :   -0.541042
  20 H :    0.131703
  21 H :    0.173929
  22 H :    0.134107
  23 H :    0.140227
  24 H :    0.155047
Sum of atomic charges:    0.0000000

LOEWDIN ATOMIC CHARGES
----------------------
   0 C :    0.192046
   1 C :   -0.233697
   2 C :   -0.217718
   3 C :   -0.026398
   4 O :   -0.300638
   5 H :    0.106204
   6 H :    0.118581
   7 H :    0.110929
   8 H :    0.114483
   9 H :    0.113167
  10 H :    0.107649
  11 H :    0.102292
  12 C :   -0.053840
  13 H :    0.097653
  14 C :    0.045142
  15 C :   -0.225101
  16 C :   -0.030792
  17 O :   -0.336670
  18 H :    0.112697
  19 O :   -0.346851
  20 H :    0.099716
  21 H :    0.133590
  22 H :    0.108186
  23 H :    0.100705
  24 H :    0.108663

  Mayer bond orders larger than 0.100000
B(  0-C ,  1-C ) :   0.9288 B(  0-C ,  4-O ) :   0.9283 B(  0-C ,  5-H ) :   0.9206
B(  0-C , 19-O ) :   0.8277 B(  1-C ,  2-C ) :   0.9471 B(  1-C ,  6-H ) :   0.9332
B(  1-C ,  7-H ) :   0.9226 B(  2-C ,  3-C ) :   0.9545 B(  2-C ,  8-H ) :   0.9447
B(  2-C ,  9-H ) :   0.9465 B(  3-C ,  4-O ) :   0.8363 B(  3-C , 10-H ) :   0.9351
B(  3-C , 11-H ) :   0.9394 B( 12-C , 13-H ) :   0.9093 B( 12-C , 14-C ) :   0.9206
B( 12-C , 17-O ) :   0.8628 B( 12-C , 18-H ) :   0.9185 B( 14-C , 15-C ) :   0.9385
B( 14-C , 19-O ) :   0.8460 B( 14-C , 20-H ) :   0.9259 B( 15-C , 16-C ) :   0.9476
B( 15-C , 21-H ) :   0.9345 B( 15-C , 22-H ) :   0.9390 B( 16-C , 17-O ) :   0.8470
B( 16-C , 23-H ) :   0.9339 B( 16-C , 24-H ) :   0.9366

FINAL SINGLE POINT ENERGY      -538.419758515810

DIPOLE MOMENT
-------------
                                X             Y             Z
Electronic contribution:      0.12038      -3.39751       0.09844
Nuclear contribution   :     -0.25438       4.57855      -0.15492
                        -----------------------------------------
Total Dipole Moment    :     -0.13399       1.18104      -0.05648
                        -----------------------------------------
Magnitude (a.u.)       :      1.18996
Magnitude (Debye)      :      3.02464

Rotational constants in cm-1:     0.083065     0.021547     0.020384
Rotational constants in MHz :  2490.226871   645.975319   611.096062

                             ****ORCA TERMINATED NORMALLY****
TOTAL RUN TIME: 0 days 0 hours 8 minutes 6 seconds 889 msec
