                         Program Version 4.2.0 -  RELEASE  -
|  1> # Test redundant internal optimization
|  2> #
|  3> ! RKS B3LYP  Opt TightSCF SmallPrint
|  4>
|  5> %basis
|  6>         Basis "6-31G"
|  7> end
|  8>
|  9> %geom
| 10> Constraints
| 11> { D 4  0  15  12  120.0   C } # D for Dihedral angle
| 12> { D 0  15  12  16  225.0   C } # D for Dihedral angle
| 13> { D 0  4  3  2   C } # D for Dihedral angle
| 14> { D 4  3  2  1   C } # D for Dihedral angle
| 15> { D 3  2  1  0   C } # D for Dihedral angle
| 16> { D 2  1  0  4   C } # D for Dihedral angle
| 17> { D 1  0  4  3   C } # D for Dihedral angle
| 18> { D 16  20  19  18   C } # D for Dihedral angle
| 19> { D 20  19  18  17   C } # D for Dihedral angle
| 20> { D 19  18  17  16   C } # D for Dihedral angle
| 21> { D 18  17  16  20   C } # D for Dihedral angle
| 22> { D 17  16  20  19   C } # D for Dihedral angle
| 23> { D 15  12  16  20   C } # D for Dihedral angle
| 24> end
| 25> end
| 26>
| 27>
| 28> #%pal
| 29> #nprocs 8
| 30> #end
| 31>
| 32> * xyz 0 1
| 33> C  -21.048   26.222   46.251
| 34> C  -20.361   27.558   45.944
| 35> C  -20.329   28.222   47.341
| 36> C  -20.110   27.022   48.296
| 37> O  -20.473   25.807   47.535
| 38> H  -20.833   25.428   45.533
| 39> H  -19.344   27.382   45.576
| 40> H  -20.898   28.157   45.201
| 41> H  -19.543   28.978   47.434
| 42> H  -21.289   28.710   47.548
| 43> H  -20.733   27.082   49.195
| 44> H  -19.064   26.913   48.597
| 45> C  -23.119   27.818   46.058
| 46> H  -22.280   28.525   46.049
| 47> H  -23.595   27.838   45.069
| 48> O  -22.586   26.394   46.375
| 49> C  -24.164   28.314   47.096
| 50> C  -23.534   28.479   48.484
| 51> C  -22.806   29.837   48.338
| 52> C  -23.750   30.644   47.412
| 53> O  -24.632   29.660   46.749
| 54> H  -25.034   27.655   47.070
| 55> H  -24.317   28.540   49.247
| 56> O  -22.573   27.317   48.860
| 57> H  -22.638   30.333   49.299
| 58> H  -21.829   29.690   47.861
| 59> H  -23.206   31.210   46.649
| 60> H  -24.394   31.330   47.969
| 61> H  -21.780   27.238   48.109
| 62> *
| 63>
| 64>                          ****END OF INPUT****
 Total Charge           Charge          ....    0
 Multiplicity           Mult            ....    1
 Number of Electrons    NEL             ....  102
FINAL SINGLE POINT ENERGY      -652.738922845086
FINAL SINGLE POINT ENERGY      -652.812578053488
FINAL SINGLE POINT ENERGY      -652.835342778453
FINAL SINGLE POINT ENERGY      -652.844137599432
FINAL SINGLE POINT ENERGY      -652.848123015818
FINAL SINGLE POINT ENERGY      -652.851099239640
FINAL SINGLE POINT ENERGY      -652.853170243937
FINAL SINGLE POINT ENERGY      -652.854715218233
FINAL SINGLE POINT ENERGY      -652.855697553791
FINAL SINGLE POINT ENERGY      -652.856172346542
FINAL SINGLE POINT ENERGY      -652.856271239490
FINAL SINGLE POINT ENERGY      -652.856302508689
FINAL SINGLE POINT ENERGY      -652.856308001922
FINAL SINGLE POINT ENERGY      -652.856307948084
                    ***********************HURRAY********************

CARTESIAN COORDINATES (ANGSTROEM)
---------------------------------
  C    -21.098746   26.312864   46.307944
  C    -20.081215   27.352024   45.826132
  C    -19.786673   28.142018   47.130537
  C    -19.863954   27.050679   48.222526
  O    -20.606949   25.911235   47.596577
  H    -21.086561   25.401645   45.705936
  H    -19.189925   26.812315   45.490985
  H    -20.431217   27.977045   45.000217
  H    -18.808756   28.632553   47.107096
  H    -20.544555   28.911430   47.296863
  H    -20.411017   27.369121   49.108800
  H    -18.880631   26.657879   48.493663
  C    -23.103847   27.952760   46.010020
  H    -22.331488   28.727586   45.933760
  H    -23.606088   27.871841   45.041453
  O    -22.520522   26.652243   46.351926
  C    -24.139550   28.341670   47.077823
  C    -23.670708   28.514883   48.532071
  C    -23.087133   29.958543   48.507990
  C    -24.020577   30.689801   47.519657
  O    -24.717690   29.636992   46.733911
  H    -24.959814   27.617566   47.025282
  H    -24.561720   28.497195   49.172644
  O    -22.721092   27.554904   49.033512
  H    -23.080954   30.415046   49.501546
  H    -22.055487   29.920516   48.149243
  H    -23.485510   31.351106   46.830516
  H    -24.798767   31.267638   48.026747
  H    -22.610855   26.801900   48.409623

 Multiplicity           Mult            ....    1
 Number of Electrons    NEL             ....  102
 Basis Dimension        Dim             ....  149

ORBITAL ENERGIES
----------------

  NO   OCC          E(Eh)            E(eV)
   0   2.0000     -19.154218      -521.2128
   1   2.0000     -19.149060      -521.0724
   2   2.0000     -19.144331      -520.9437
   3   2.0000     -19.125205      -520.4233
   4   2.0000     -10.288417      -279.9621
   5   2.0000     -10.240120      -278.6478
   6   2.0000     -10.237514      -278.5769
   7   2.0000     -10.236214      -278.5416
   8   2.0000     -10.231106      -278.4025
   9   2.0000     -10.223326      -278.1908
  10   2.0000     -10.200758      -277.5767
  11   2.0000     -10.195748      -277.4404
  12   2.0000     -10.186271      -277.1825
  13   2.0000      -1.057244       -28.7691
  14   2.0000      -1.030096       -28.0303
  15   2.0000      -1.004306       -27.3285
  16   2.0000      -0.999640       -27.2016
  17   2.0000      -0.795519       -21.6472
  18   2.0000      -0.777437       -21.1551
  19   2.0000      -0.773016       -21.0348
  20   2.0000      -0.736339       -20.0368
  21   2.0000      -0.684570       -18.6281
  22   2.0000      -0.609275       -16.5792
  23   2.0000      -0.601832       -16.3767
  24   2.0000      -0.597202       -16.2507
  25   2.0000      -0.576737       -15.6938
  26   2.0000      -0.530991       -14.4490
  27   2.0000      -0.509147       -13.8546
  28   2.0000      -0.508205       -13.8290
  29   2.0000      -0.498904       -13.5759
  30   2.0000      -0.472295       -12.8518
  31   2.0000      -0.455805       -12.4031
  32   2.0000      -0.445881       -12.1330
  33   2.0000      -0.440443       -11.9851
  34   2.0000      -0.432886       -11.7794
  35   2.0000      -0.417474       -11.3601
  36   2.0000      -0.412339       -11.2203
  37   2.0000      -0.390310       -10.6209
  38   2.0000      -0.385837       -10.4992
  39   2.0000      -0.373949       -10.1757
  40   2.0000      -0.366024        -9.9600
  41   2.0000      -0.361705        -9.8425
  42   2.0000      -0.347740        -9.4625
  43   2.0000      -0.339893        -9.2490
  44   2.0000      -0.323916        -8.8142
  45   2.0000      -0.302738        -8.2379
  46   2.0000      -0.294867        -8.0237
  47   2.0000      -0.279221        -7.5980
  48   2.0000      -0.265251        -7.2179
  49   2.0000      -0.254139        -6.9155
  50   2.0000      -0.244979        -6.6662
  51   0.0000       0.058502         1.5919
  52   0.0000       0.066733         1.8159
  53   0.0000       0.087969         2.3938
  54   0.0000       0.092205         2.5090
  55   0.0000       0.106683         2.9030

MULLIKEN ATOMIC CHARGES
-----------------------
   0 C :    0.318866
   1 C :   -0.303378
   2 C :   -0.319134
   3 C :   -0.030292
   4 O :   -0.507760
   5 H :    0.165629
   6 H :    0.163572
   7 H :    0.150048
   8 H :    0.146211
   9 H :    0.161147
  10 H :    0.191784
  11 H :    0.143222
  12 C :   -0.004980
  13 H :    0.130148
  14 H :    0.161851
  15 O :   -0.561314
  16 C :    0.052190
  17 C :    0.119694
  18 C :   -0.317786
  19 C :   -0.012826
  20 O :   -0.522096
  21 H :    0.165228
  22 H :    0.148208
  23 O :   -0.640795
  24 H :    0.154622
  25 H :    0.154721
  26 H :    0.139560
  27 H :    0.150627
  28 H :    0.403033
Sum of atomic charges:   -0.0000000

LOEWDIN ATOMIC CHARGES
----------------------
   0 C :    0.179538
   1 C :   -0.230780
   2 C :   -0.221383
   3 C :   -0.039419
   4 O :   -0.315197
   5 H :    0.108568
   6 H :    0.126692
   7 H :    0.117049
   8 H :    0.117209
   9 H :    0.108456
  10 H :    0.126217
  11 H :    0.103362
  12 C :   -0.038314
  13 H :    0.096663
  14 H :    0.113444
  15 O :   -0.346799
  16 C :    0.014660
  17 C :    0.041700
  18 C :   -0.234216
  19 C :   -0.030693
  20 O :   -0.321694
  21 H :    0.115628
  22 H :    0.103224
  23 O :   -0.426784
  24 H :    0.122225
  25 H :    0.109564
  26 H :    0.100703
  27 H :    0.106460
  28 H :    0.293920

  Mayer bond orders larger than 0.100000
B(  0-C ,  1-C ) :   0.9298 B(  0-C ,  4-O ) :   0.9220 B(  0-C ,  5-H ) :   0.9325
B(  0-C , 15-O ) :   0.8422 B(  1-C ,  2-C ) :   0.9508 B(  1-C ,  6-H ) :   0.9324
B(  1-C ,  7-H ) :   0.9314 B(  2-C ,  3-C ) :   0.9532 B(  2-C ,  8-H ) :   0.9452
B(  2-C ,  9-H ) :   0.9213 B(  3-C ,  4-O ) :   0.8180 B(  3-C , 10-H ) :   0.9101
B(  3-C , 11-H ) :   0.9383 B( 12-C , 13-H ) :   0.9166 B( 12-C , 14-H ) :   0.9282
B( 12-C , 15-O ) :   0.8023 B( 12-C , 16-C ) :   0.9027 B( 16-C , 17-C ) :   0.9100
B( 16-C , 20-O ) :   0.8510 B( 16-C , 21-H ) :   0.9280 B( 17-C , 18-C ) :   0.9168
B( 17-C , 22-H ) :   0.9221 B( 17-C , 23-O ) :   0.9162 B( 18-C , 19-C ) :   0.9398
B( 18-C , 24-H ) :   0.9430 B( 18-C , 25-H ) :   0.9279 B( 19-C , 20-O ) :   0.8360
B( 19-C , 26-H ) :   0.9344 B( 19-C , 27-H ) :   0.9380 B( 23-O , 28-H ) :   0.7198

FINAL SINGLE POINT ENERGY      -652.856307894106

DIPOLE MOMENT
-------------
                                X             Y             Z
Electronic contribution:     -4.12548      -4.95230      -0.04583
Nuclear contribution   :      5.06081       5.95969      -0.54318
                        -----------------------------------------
Total Dipole Moment    :      0.93533       1.00739      -0.58902
                        -----------------------------------------
Magnitude (a.u.)       :      1.49553
Magnitude (Debye)      :      3.80134

Rotational constants in cm-1:     0.046393     0.018253     0.017130
Rotational constants in MHz :  1390.824529   547.219373   513.543242

                             ****ORCA TERMINATED NORMALLY****
TOTAL RUN TIME: 0 days 1 hours 34 minutes 3 seconds 757 msec
