                         Program Version 4.2.0 -  RELEASE  -
|  1> # Test redundant internal optimization
|  2> #
|  3> ! RKS B3LYP  Opt TightSCF SmallPrint
|  4>
|  5> %basis
|  6>         Basis "6-31G"
|  7> end
|  8>
|  9> %geom
| 10> Constraints
| 11> { D 4  0  15  12  240.0   C } # D for Dihedral angle
| 12> { D 0  15  12  16  150.0   C } # D for Dihedral angle
| 13> { D 0  4  3  2   C } # D for Dihedral angle
| 14> { D 4  3  2  1   C } # D for Dihedral angle
| 15> { D 3  2  1  0   C } # D for Dihedral angle
| 16> { D 2  1  0  4   C } # D for Dihedral angle
| 17> { D 1  0  4  3   C } # D for Dihedral angle
| 18> { D 16  20  19  18   C } # D for Dihedral angle
| 19> { D 20  19  18  17   C } # D for Dihedral angle
| 20> { D 19  18  17  16   C } # D for Dihedral angle
| 21> { D 18  17  16  20   C } # D for Dihedral angle
| 22> { D 17  16  20  19   C } # D for Dihedral angle
| 23> { D 15  12  16  20   C } # D for Dihedral angle
| 24> end
| 25> end
| 26>
| 27>
| 28> #%pal
| 29> #nprocs 8
| 30> #end
| 31>
| 32> * xyz 0 1
| 33> C  -21.048   26.222   46.251
| 34> C  -20.361   27.558   45.944
| 35> C  -20.329   28.222   47.341
| 36> C  -20.110   27.022   48.296
| 37> O  -20.473   25.807   47.535
| 38> H  -20.833   25.428   45.533
| 39> H  -19.344   27.382   45.576
| 40> H  -20.898   28.157   45.201
| 41> H  -19.543   28.978   47.434
| 42> H  -21.289   28.710   47.548
| 43> H  -20.733   27.082   49.195
| 44> H  -19.064   26.913   48.597
| 45> C  -23.430   25.483   45.442
| 46> H  -23.596   25.997   44.488
| 47> H  -22.898   24.545   45.238
| 48> O  -22.586   26.394   46.375
| 49> C  -24.813   25.119   46.049
| 50> C  -24.663   24.474   47.432
| 51> C  -24.422   25.712   48.330
| 52> C  -25.304   26.801   47.671
| 53> O  -25.598   26.332   46.299
| 54> H  -25.373   24.518   45.329
| 55> H  -25.592   23.968   47.713
| 56> O  -23.502   23.445   47.503
| 57> H  -24.689   25.536   49.376
| 58> H  -23.365   26.000   48.298
| 59> H  -24.802   27.773   47.618
| 60> H  -26.264   26.926   48.180
| 61> H  -22.561   23.931   47.224
| 62> *
| 63>
| 64>                          ****END OF INPUT****
 Total Charge           Charge          ....    0
 Multiplicity           Mult            ....    1
 Number of Electrons    NEL             ....  102
FINAL SINGLE POINT ENERGY      -652.834698248377
FINAL SINGLE POINT ENERGY      -652.858110109644
FINAL SINGLE POINT ENERGY      -652.863230973512
FINAL SINGLE POINT ENERGY      -652.865434538647
FINAL SINGLE POINT ENERGY      -652.865708957293
FINAL SINGLE POINT ENERGY      -652.865766799945
FINAL SINGLE POINT ENERGY      -652.865767589709
                    ***********************HURRAY********************

CARTESIAN COORDINATES (ANGSTROEM)
---------------------------------
  C    -21.065768   26.189866   46.172714
  C    -20.386254   27.532535   45.898564
  C    -20.423934   28.197630   47.294802
  C    -20.230887   27.003584   48.256911
  O    -20.549379   25.786958   47.462811
  H    -20.824326   25.388760   45.467807
  H    -19.353819   27.358722   45.573786
  H    -20.908396   28.109297   45.132007
  H    -19.649598   28.960144   47.420261
  H    -21.400150   28.666310   47.451261
  H    -20.893662   27.039097   49.125231
  H    -19.196837   26.892461   48.595498
  C    -23.322425   25.524135   45.403244
  H    -23.481499   26.039100   44.447675
  H    -22.823628   24.563683   45.213922
  O    -22.497761   26.362547   46.267504
  C    -24.671271   25.239174   46.051055
  C    -24.590032   24.505516   47.402286
  C    -24.402315   25.691407   48.401735
  C    -25.255647   26.807379   47.761428
  O    -25.470758   26.420384   46.342432
  H    -25.249186   24.657364   45.321839
  H    -25.521019   23.966264   47.590833
  O    -23.540915   23.507987   47.473907
  H    -24.738015   25.432480   49.410400
  H    -23.347223   25.967917   48.426363
  H    -24.760926   27.782491   47.784760
  H    -26.246604   26.893460   48.217414
  H    -22.680768   23.948346   47.647549

 Multiplicity           Mult            ....    1
 Number of Electrons    NEL             ....  102
 Basis Dimension        Dim             ....  149

ORBITAL ENERGIES
----------------

  NO   OCC          E(Eh)            E(eV)
   0   2.0000     -19.151495      -521.1387
   1   2.0000     -19.150746      -521.1183
   2   2.0000     -19.131486      -520.5942
   3   2.0000     -19.130708      -520.5730
   4   2.0000     -10.288674      -279.9691
   5   2.0000     -10.233751      -278.4745
   6   2.0000     -10.231743      -278.4199
   7   2.0000     -10.231650      -278.4173
   8   2.0000     -10.227132      -278.2944
   9   2.0000     -10.218519      -278.0601
  10   2.0000     -10.192597      -277.3547
  11   2.0000     -10.192213      -277.3442
  12   2.0000     -10.175064      -276.8776
  13   2.0000      -1.062586       -28.9144
  14   2.0000      -1.022284       -27.8178
  15   2.0000      -1.003663       -27.3111
  16   2.0000      -0.999775       -27.2052
  17   2.0000      -0.794188       -21.6110
  18   2.0000      -0.771260       -20.9871
  19   2.0000      -0.762326       -20.7440
  20   2.0000      -0.734977       -19.9998
  21   2.0000      -0.676211       -18.4006
  22   2.0000      -0.606367       -16.5001
  23   2.0000      -0.601220       -16.3600
  24   2.0000      -0.596157       -16.2223
  25   2.0000      -0.572276       -15.5724
  26   2.0000      -0.527191       -14.3456
  27   2.0000      -0.505561       -13.7570
  28   2.0000      -0.500864       -13.6292
  29   2.0000      -0.488219       -13.2851
  30   2.0000      -0.474212       -12.9040
  31   2.0000      -0.456423       -12.4199
  32   2.0000      -0.446106       -12.1392
  33   2.0000      -0.431342       -11.7374
  34   2.0000      -0.421665       -11.4741
  35   2.0000      -0.411162       -11.1883
  36   2.0000      -0.404752       -11.0139
  37   2.0000      -0.398913       -10.8550
  38   2.0000      -0.373828       -10.1724
  39   2.0000      -0.368865       -10.0373
  40   2.0000      -0.363406        -9.8888
  41   2.0000      -0.355778        -9.6812
  42   2.0000      -0.348876        -9.4934
  43   2.0000      -0.327723        -8.9178
  44   2.0000      -0.319616        -8.6972
  45   2.0000      -0.311896        -8.4871
  46   2.0000      -0.304088        -8.2746
  47   2.0000      -0.276546        -7.5252
  48   2.0000      -0.257517        -7.0074
  49   2.0000      -0.256621        -6.9830
  50   2.0000      -0.234840        -6.3903
  51   0.0000       0.066090         1.7984
  52   0.0000       0.083255         2.2655
  53   0.0000       0.084911         2.3105
  54   0.0000       0.097015         2.6399
  55   0.0000       0.108415         2.9501

MULLIKEN ATOMIC CHARGES
-----------------------
   0 C :    0.277178
   1 C :   -0.250299
   2 C :   -0.302704
   3 C :   -0.005856
   4 O :   -0.515126
   5 H :    0.148590
   6 H :    0.146075
   7 H :    0.154759
   8 H :    0.145752
   9 H :    0.165175
  10 H :    0.149260
  11 H :    0.147013
  12 C :   -0.017321
  13 H :    0.147610
  14 H :    0.143042
  15 O :   -0.525925
  16 C :    0.088963
  17 C :    0.093353
  18 C :   -0.320677
  19 C :   -0.000233
  20 O :   -0.522426
  21 H :    0.148800
  22 H :    0.156880
  23 O :   -0.619609
  24 H :    0.138637
  25 H :    0.175507
  26 H :    0.141350
  27 H :    0.139735
  28 H :    0.372496
Sum of atomic charges:    0.0000000

LOEWDIN ATOMIC CHARGES
----------------------
   0 C :    0.171638
   1 C :   -0.218918
   2 C :   -0.216251
   3 C :   -0.027988
   4 O :   -0.327182
   5 H :    0.101623
   6 H :    0.114589
   7 H :    0.123026
   8 H :    0.116258
   9 H :    0.120178
  10 H :    0.105549
  11 H :    0.105041
  12 C :   -0.044420
  13 H :    0.104617
  14 H :    0.105255
  15 O :   -0.332901
  16 C :    0.017195
  17 C :    0.039835
  18 C :   -0.244294
  19 C :   -0.023928
  20 O :   -0.323854
  21 H :    0.113851
  22 H :    0.113633
  23 O :   -0.418685
  24 H :    0.112736
  25 H :    0.124532
  26 H :    0.102708
  27 H :    0.100162
  28 H :    0.285995

  Mayer bond orders larger than 0.100000
B(  0-C ,  1-C ) :   0.9442 B(  0-C ,  4-O ) :   0.9047 B(  0-C ,  5-H ) :   0.9169
B(  0-C , 15-O ) :   0.8490 B(  1-C ,  2-C ) :   0.9551 B(  1-C ,  6-H ) :   0.9358
B(  1-C ,  7-H ) :   0.9375 B(  2-C ,  3-C ) :   0.9547 B(  2-C ,  8-H ) :   0.9447
B(  2-C ,  9-H ) :   0.9429 B(  3-C ,  4-O ) :   0.8312 B(  3-C , 10-H ) :   0.9337
B(  3-C , 11-H ) :   0.9398 B( 12-C , 13-H ) :   0.9241 B( 12-C , 14-H ) :   0.9004
B( 12-C , 15-O ) :   0.8270 B( 12-C , 16-C ) :   0.9174 B( 16-C , 17-C ) :   0.8834
B( 16-C , 20-O ) :   0.8818 B( 16-C , 21-H ) :   0.9273 B( 17-C , 18-C ) :   0.9366
B( 17-C , 22-H ) :   0.9372 B( 17-C , 23-O ) :   0.9030 B( 18-C , 19-C ) :   0.9458
B( 18-C , 24-H ) :   0.9416 B( 18-C , 25-H ) :   0.9209 B( 19-C , 20-O ) :   0.8392
B( 19-C , 26-H ) :   0.9334 B( 19-C , 27-H ) :   0.9383 B( 23-O , 28-H ) :   0.7793

FINAL SINGLE POINT ENERGY      -652.865753079548

DIPOLE MOMENT
-------------
                                X             Y             Z
Electronic contribution:     -2.53182      -3.78977      -1.61738
Nuclear contribution   :      3.46210       4.70403       1.62636
                        -----------------------------------------
Total Dipole Moment    :      0.93028       0.91426       0.00898
                        -----------------------------------------
Magnitude (a.u.)       :      1.30437
Magnitude (Debye)      :      3.31544

Rotational constants in cm-1:     0.044078     0.017074     0.016505
Rotational constants in MHz :  1321.422242   511.868878   494.794069

                             ****ORCA TERMINATED NORMALLY****
TOTAL RUN TIME: 0 days 0 hours 41 minutes 51 seconds 154 msec
