                         Program Version 4.2.1 -  RELEASE  -
|  1> # Test redundant internal optimization
|  2> #
|  3> ! RKS B3LYP  Opt TightSCF SmallPrint
|  4>
|  5> %basis
|  6>         Basis "6-31G"
|  7> end
|  8>
|  9> %geom
| 10> Constraints
| 11> { D 4  0  19  14  210.0   C } # D for Dihedral angle
| 12> { D 0  19  14  12  60.0   C } # D for Dihedral angle
| 13> { D 0  4  3  2   C } # D for Dihedral angle
| 14> { D 4  3  2  1   C } # D for Dihedral angle
| 15> { D 3  2  1  0   C } # D for Dihedral angle
| 16> { D 2  1  0  4   C } # D for Dihedral angle
| 17> { D 1  0  4  3   C } # D for Dihedral angle
| 18> { D 14  15  16  17   C } # D for Dihedral angle
| 19> { D 15  16  17  12   C } # D for Dihedral angle
| 20> { D 16  17  12  14   C } # D for Dihedral angle
| 21> { D 17  12  14  15   C } # D for Dihedral angle
| 22> { D 12  14  15  16   C } # D for Dihedral angle
| 23> end
| 24> end
| 25>
| 26>
| 27> #%pal
| 28> #nprocs 8
| 29> #end
| 30>
| 31> * xyz 0 1
| 32> C  -21.048   26.222   46.251
| 33> C  -20.361   27.558   45.944
| 34> C  -20.329   28.222   47.341
| 35> C  -20.110   27.022   48.296
| 36> O  -20.473   25.807   47.535
| 37> H  -20.833   25.428   45.533
| 38> H  -19.344   27.382   45.576
| 39> H  -20.898   28.157   45.201
| 40> H  -19.543   28.978   47.434
| 41> H  -21.289   28.710   47.548
| 42> H  -20.733   27.082   49.195
| 43> H  -19.064   26.913   48.597
| 44> C  -22.952   24.670   44.702
| 45> H  -23.246   24.524   43.651
| 46> C  -23.197   26.114   45.155
| 47> C  -24.721   26.105   45.421
| 48> C  -24.973   24.680   45.975
| 49> O  -23.800   23.865   45.588
| 50> H  -21.927   24.322   44.838
| 51> O  -22.472   26.381   46.366
| 52> H  -22.902   26.856   44.405
| 53> H  -25.035   26.886   46.121
| 54> H  -25.269   26.257   44.483
| 55> H  -25.879   24.223   45.563
| 56> H  -25.032   24.661   47.067
| 57> *
| 58>
| 59>                          ****END OF INPUT****
 Total Charge           Charge          ....    0
 Multiplicity           Mult            ....    1
 Number of Electrons    NEL             ....   86
FINAL SINGLE POINT ENERGY      -538.423472465908
FINAL SINGLE POINT ENERGY      -538.429037035419
FINAL SINGLE POINT ENERGY      -538.429552889993
FINAL SINGLE POINT ENERGY      -538.429673205299
FINAL SINGLE POINT ENERGY      -538.429691059505
FINAL SINGLE POINT ENERGY      -538.429695430457
                    ***********************HURRAY********************

CARTESIAN COORDINATES (ANGSTROEM)
---------------------------------
  C    -20.954853   26.198652   46.237235
  C    -20.276981   27.540087   45.963276
  C    -20.387937   28.241908   47.338463
  C    -20.229734   27.073691   48.334656
  O    -20.499176   25.838827   47.552004
  H    -20.670528   25.387022   45.564927
  H    -19.227517   27.371912   45.693112
  H    -20.757648   28.101243   45.156487
  H    -19.628944   29.017420   47.478205
  H    -21.376341   28.700192   47.436947
  H    -20.934853   27.119026   49.168370
  H    -19.211537   26.980777   48.724169
  C    -23.048000   24.636032   44.562653
  H    -23.467796   24.572870   43.546602
  C    -23.175380   26.069266   45.076170
  C    -24.652766   26.113942   45.508113
  C    -24.911521   24.688071   46.049353
  O    -23.824866   23.838653   45.511190
  H    -22.038057   24.223420   44.550116
  O    -22.399410   26.358300   46.277680
  H    -22.942755   26.807921   44.294746
  H    -24.808902   26.891884   46.258768
  H    -25.284741   26.330748   44.639318
  H    -25.876309   24.284206   45.724256
  H    -24.843447   24.638930   47.139182

 Multiplicity           Mult            ....    1
 Number of Electrons    NEL             ....   86
 Basis Dimension        Dim             ....  127

ORBITAL ENERGIES
----------------

  NO   OCC          E(Eh)            E(eV)
   0   2.0000     -19.139289      -520.8065
   1   2.0000     -19.136715      -520.7365
   2   2.0000     -19.127677      -520.4906
   3   2.0000     -10.277309      -279.6598
   4   2.0000     -10.243146      -278.7302
   5   2.0000     -10.225583      -278.2523
   6   2.0000     -10.222344      -278.1641
   7   2.0000     -10.218251      -278.0527
   8   2.0000     -10.185485      -277.1611
   9   2.0000     -10.185480      -277.1610
  10   2.0000     -10.184656      -277.1386
  11   2.0000      -1.051138       -28.6029
  12   2.0000      -1.013907       -27.5898
  13   2.0000      -0.988106       -26.8877
  14   2.0000      -0.789346       -21.4792
  15   2.0000      -0.778283       -21.1782
  16   2.0000      -0.737058       -20.0564
  17   2.0000      -0.724760       -19.7217
  18   2.0000      -0.616988       -16.7891
  19   2.0000      -0.598869       -16.2961
  20   2.0000      -0.592228       -16.1154
  21   2.0000      -0.568011       -15.4564
  22   2.0000      -0.527522       -14.3546
  23   2.0000      -0.497875       -13.5479
  24   2.0000      -0.489736       -13.3264
  25   2.0000      -0.477593       -12.9960
  26   2.0000      -0.449691       -12.2367
  27   2.0000      -0.447586       -12.1794
  28   2.0000      -0.430499       -11.7145
  29   2.0000      -0.417398       -11.3580
  30   2.0000      -0.401266       -10.9190
  31   2.0000      -0.376163       -10.2359
  32   2.0000      -0.372207       -10.1283
  33   2.0000      -0.364126        -9.9084
  34   2.0000      -0.363378        -9.8880
  35   2.0000      -0.354958        -9.6589
  36   2.0000      -0.348849        -9.4927
  37   2.0000      -0.312186        -8.4950
  38   2.0000      -0.308764        -8.4019
  39   2.0000      -0.298066        -8.1108
  40   2.0000      -0.259464        -7.0604
  41   2.0000      -0.247421        -6.7327
  42   2.0000      -0.234826        -6.3899
  43   0.0000       0.076521         2.0822
  44   0.0000       0.098783         2.6880
  45   0.0000       0.101634         2.7656
  46   0.0000       0.108202         2.9443
  47   0.0000       0.117336         3.1929

MULLIKEN ATOMIC CHARGES
-----------------------
   0 C :    0.295761
   1 C :   -0.262461
   2 C :   -0.297535
   3 C :   -0.001333
   4 O :   -0.498807
   5 H :    0.137969
   6 H :    0.143313
   7 H :    0.139934
   8 H :    0.140579
   9 H :    0.159565
  10 H :    0.153023
  11 H :    0.140788
  12 C :   -0.013311
  13 H :    0.125213
  14 C :    0.074763
  15 C :   -0.295195
  16 C :    0.004179
  17 O :   -0.515637
  18 H :    0.160212
  19 O :   -0.513758
  20 H :    0.121821
  21 H :    0.166352
  22 H :    0.140480
  23 H :    0.131592
  24 H :    0.162494
Sum of atomic charges:   -0.0000000

LOEWDIN ATOMIC CHARGES
----------------------
   0 C :    0.178449
   1 C :   -0.227266
   2 C :   -0.216669
   3 C :   -0.025852
   4 O :   -0.305103
   5 H :    0.096673
   6 H :    0.112560
   7 H :    0.113260
   8 H :    0.113588
   9 H :    0.117875
  10 H :    0.108622
  11 H :    0.101885
  12 C :   -0.049434
  13 H :    0.093158
  14 C :    0.037865
  15 C :   -0.222820
  16 C :   -0.026573
  17 O :   -0.326981
  18 H :    0.114138
  19 O :   -0.327785
  20 H :    0.089865
  21 H :    0.129803
  22 H :    0.111110
  23 H :    0.096990
  24 H :    0.112641

  Mayer bond orders larger than 0.100000
B(  0-C ,  1-C ) :   0.9327 B(  0-C ,  4-O ) :   0.9372 B(  0-C ,  5-H ) :   0.9142
B(  0-C , 19-O ) :   0.8325 B(  1-C ,  2-C ) :   0.9547 B(  1-C ,  6-H ) :   0.9350
B(  1-C ,  7-H ) :   0.9381 B(  2-C ,  3-C ) :   0.9547 B(  2-C ,  8-H ) :   0.9452
B(  2-C ,  9-H ) :   0.9443 B(  3-C ,  4-O ) :   0.8386 B(  3-C , 10-H ) :   0.9344
B(  3-C , 11-H ) :   0.9397 B( 12-C , 13-H ) :   0.9082 B( 12-C , 14-C ) :   0.9104
B( 12-C , 17-O ) :   0.8775 B( 12-C , 18-H ) :   0.9250 B( 14-C , 15-C ) :   0.9571
B( 14-C , 19-O ) :   0.8434 B( 14-C , 20-H ) :   0.9178 B( 15-C , 16-C ) :   0.9461
B( 15-C , 21-H ) :   0.9354 B( 15-C , 22-H ) :   0.9421 B( 16-C , 17-O ) :   0.8536
B( 16-C , 23-H ) :   0.9338 B( 16-C , 24-H ) :   0.9350

FINAL SINGLE POINT ENERGY      -538.429695878814

DIPOLE MOMENT
-------------
                                X             Y             Z
Electronic contribution:      0.09371      -4.10865       0.90039
Nuclear contribution   :     -0.03019       5.51619      -1.66316
                        -----------------------------------------
Total Dipole Moment    :      0.06352       1.40753      -0.76278
                        -----------------------------------------
Magnitude (a.u.)       :      1.60219
Magnitude (Debye)      :      4.07244

Rotational constants in cm-1:     0.082082     0.020134     0.019728
Rotational constants in MHz :  2460.770950   603.616718   591.431957

                             ****ORCA TERMINATED NORMALLY****
TOTAL RUN TIME: 0 days 0 hours 8 minutes 11 seconds 75 msec
