                         Program Version 4.2.0 -  RELEASE  -
|  1> # Test redundant internal optimization
|  2> #
|  3> ! RKS B3LYP  Opt TightSCF SmallPrint
|  4>
|  5> %basis
|  6>         Basis "6-31G"
|  7> end
|  8>
|  9> %geom
| 10> Constraints
| 11> { D 4  0  15  12  345.0   C } # D for Dihedral angle
| 12> { D 0  15  12  16  255.0   C } # D for Dihedral angle
| 13> { D 0  4  3  2   C } # D for Dihedral angle
| 14> { D 4  3  2  1   C } # D for Dihedral angle
| 15> { D 3  2  1  0   C } # D for Dihedral angle
| 16> { D 2  1  0  4   C } # D for Dihedral angle
| 17> { D 1  0  4  3   C } # D for Dihedral angle
| 18> { D 16  20  19  18   C } # D for Dihedral angle
| 19> { D 20  19  18  17   C } # D for Dihedral angle
| 20> { D 19  18  17  16   C } # D for Dihedral angle
| 21> { D 18  17  16  20   C } # D for Dihedral angle
| 22> { D 17  16  20  19   C } # D for Dihedral angle
| 23> { D 15  12  16  20   C } # D for Dihedral angle
| 24> end
| 25> end
| 26>
| 27>
| 28> #%pal
| 29> #nprocs 8
| 30> #end
| 31>
| 32> * xyz 0 1
| 33> C  -21.048   26.222   46.251
| 34> C  -20.361   27.558   45.944
| 35> C  -20.329   28.222   47.341
| 36> C  -20.110   27.022   48.296
| 37> O  -20.473   25.807   47.535
| 38> H  -20.833   25.428   45.533
| 39> H  -19.344   27.382   45.576
| 40> H  -20.898   28.157   45.201
| 41> H  -19.543   28.978   47.434
| 42> H  -21.289   28.710   47.548
| 43> H  -20.733   27.082   49.195
| 44> H  -19.064   26.913   48.597
| 45> C  -23.221   25.764   47.645
| 46> H  -22.430   25.543   48.373
| 47> H  -23.928   26.464   48.109
| 48> O  -22.586   26.394   46.375
| 49> C  -23.989   24.448   47.343
| 50> C  -24.698   23.917   48.594
| 51> C  -25.954   24.819   48.649
| 52> C  -26.295   25.038   47.154
| 53> O  -25.076   24.696   46.390
| 54> H  -23.308   23.736   46.873
| 55> H  -24.981   22.868   48.451
| 56> O  -23.827   24.018   49.877
| 57> H  -26.780   24.362   49.204
| 58> H  -25.712   25.772   49.134
| 59> H  -26.577   26.074   46.936
| 60> H  -27.091   24.373   46.806
| 61> H  -23.532   25.060   50.042
| 62> *
| 63>
| 64>                          ****END OF INPUT****
 Total Charge           Charge          ....    0
 Multiplicity           Mult            ....    1
 Number of Electrons    NEL             ....  102
FINAL SINGLE POINT ENERGY      -652.827167928535
FINAL SINGLE POINT ENERGY      -652.850144189036
FINAL SINGLE POINT ENERGY      -652.854651437188
FINAL SINGLE POINT ENERGY      -652.855353014245
FINAL SINGLE POINT ENERGY      -652.855474996398
FINAL SINGLE POINT ENERGY      -652.855500225362
FINAL SINGLE POINT ENERGY      -652.855502417866
                    ***********************HURRAY********************

CARTESIAN COORDINATES (ANGSTROEM)
---------------------------------
  C    -21.080811   26.187587   46.330974
  C    -20.474436   27.536686   45.945826
  C    -20.319275   28.217137   47.324358
  C    -19.965076   27.043211   48.262342
  O    -20.375607   25.807861   47.533568
  H    -20.911181   25.379848   45.614533
  H    -19.499805   27.373286   45.471593
  H    -21.118708   28.091407   45.260792
  H    -19.549244   28.994831   47.326513
  H    -21.268850   28.675881   47.617527
  H    -20.491528   27.078286   49.220217
  H    -18.891159   26.949378   48.445683
  C    -23.162229   25.823362   47.697668
  H    -22.409687   25.600525   48.460766
  H    -23.829994   26.617757   48.051446
  O    -22.521145   26.351054   46.502937
  C    -23.944981   24.546139   47.384544
  C    -24.690128   23.961202   48.597389
  C    -25.997709   24.811315   48.611076
  C    -26.270089   25.034950   47.107154
  O    -24.997717   24.759377   46.395272
  H    -23.258084   23.819577   46.940114
  H    -24.922607   22.911071   48.408193
  O    -23.953469   23.947940   49.844314
  H    -26.817377   24.300372   49.123314
  H    -25.813835   25.760511   49.132418
  H    -26.592875   26.055768   46.879143
  H    -27.014602   24.335758   46.714416
  H    -23.867792   24.854924   50.201911

 Multiplicity           Mult            ....    1
 Number of Electrons    NEL             ....  102
 Basis Dimension        Dim             ....  149

ORBITAL ENERGIES
----------------

  NO   OCC          E(Eh)            E(eV)
   0   2.0000     -19.150506      -521.1118
   1   2.0000     -19.146677      -521.0076
   2   2.0000     -19.134139      -520.6664
   3   2.0000     -19.131520      -520.5951
   4   2.0000     -10.276666      -279.6423
   5   2.0000     -10.241247      -278.6785
   6   2.0000     -10.232655      -278.4447
   7   2.0000     -10.226195      -278.2689
   8   2.0000     -10.224005      -278.2093
   9   2.0000     -10.223448      -278.1942
  10   2.0000     -10.192405      -277.3494
  11   2.0000     -10.189757      -277.2774
  12   2.0000     -10.184096      -277.1233
  13   2.0000      -1.053388       -28.6642
  14   2.0000      -1.029758       -28.0212
  15   2.0000      -1.011298       -27.5188
  16   2.0000      -0.988507       -26.8986
  17   2.0000      -0.790707       -21.5162
  18   2.0000      -0.778235       -21.1768
  19   2.0000      -0.764007       -20.7897
  20   2.0000      -0.732613       -19.9354
  21   2.0000      -0.675971       -18.3941
  22   2.0000      -0.607479       -16.5303
  23   2.0000      -0.603125       -16.4119
  24   2.0000      -0.595650       -16.2085
  25   2.0000      -0.563949       -15.3458
  26   2.0000      -0.525454       -14.2983
  27   2.0000      -0.508731       -13.8433
  28   2.0000      -0.497936       -13.5495
  29   2.0000      -0.496147       -13.5009
  30   2.0000      -0.468584       -12.7508
  31   2.0000      -0.456542       -12.4231
  32   2.0000      -0.441224       -12.0063
  33   2.0000      -0.428450       -11.6587
  34   2.0000      -0.422430       -11.4949
  35   2.0000      -0.415588       -11.3087
  36   2.0000      -0.410300       -11.1648
  37   2.0000      -0.396074       -10.7777
  38   2.0000      -0.372536       -10.1372
  39   2.0000      -0.372204       -10.1282
  40   2.0000      -0.359943        -9.7945
  41   2.0000      -0.350819        -9.5463
  42   2.0000      -0.348410        -9.4807
  43   2.0000      -0.334520        -9.1028
  44   2.0000      -0.325985        -8.8705
  45   2.0000      -0.310539        -8.4502
  46   2.0000      -0.297076        -8.0838
  47   2.0000      -0.268062        -7.2944
  48   2.0000      -0.264155        -7.1880
  49   2.0000      -0.257782        -7.0146
  50   2.0000      -0.228471        -6.2170
  51   0.0000       0.052513         1.4290
  52   0.0000       0.077817         2.1175
  53   0.0000       0.087801         2.3892
  54   0.0000       0.094068         2.5597
  55   0.0000       0.106810         2.9065

MULLIKEN ATOMIC CHARGES
-----------------------
   0 C :    0.296090
   1 C :   -0.257057
   2 C :   -0.304524
   3 C :   -0.014937
   4 O :   -0.511950
   5 H :    0.157012
   6 H :    0.143532
   7 H :    0.164700
   8 H :    0.146293
   9 H :    0.155505
  10 H :    0.139307
  11 H :    0.152554
  12 C :   -0.033709
  13 H :    0.159651
  14 H :    0.128038
  15 O :   -0.522508
  16 C :    0.093720
  17 C :    0.081219
  18 C :   -0.325689
  19 C :   -0.004692
  20 O :   -0.505913
  21 H :    0.161257
  22 H :    0.168534
  23 O :   -0.597897
  24 H :    0.156263
  25 H :    0.132486
  26 H :    0.141176
  27 H :    0.147684
  28 H :    0.353855
Sum of atomic charges:    0.0000000

LOEWDIN ATOMIC CHARGES
----------------------
   0 C :    0.181360
   1 C :   -0.217455
   2 C :   -0.218751
   3 C :   -0.031662
   4 O :   -0.319983
   5 H :    0.103092
   6 H :    0.113157
   7 H :    0.127960
   8 H :    0.116640
   9 H :    0.115407
  10 H :    0.100107
  11 H :    0.107862
  12 C :   -0.057633
  13 H :    0.113457
  14 H :    0.097179
  15 O :   -0.328661
  16 C :    0.013369
  17 C :    0.033420
  18 C :   -0.242797
  19 C :   -0.029215
  20 O :   -0.315581
  21 H :    0.117423
  22 H :    0.119829
  23 O :   -0.406777
  24 H :    0.121895
  25 H :    0.103163
  26 H :    0.101942
  27 H :    0.105026
  28 H :    0.276223

  Mayer bond orders larger than 0.100000
B(  0-C ,  1-C ) :   0.9367 B(  0-C ,  4-O ) :   0.9031 B(  0-C ,  5-H ) :   0.9250
B(  0-C , 15-O ) :   0.8496 B(  1-C ,  2-C ) :   0.9534 B(  1-C ,  6-H ) :   0.9365
B(  1-C ,  7-H ) :   0.9351 B(  2-C ,  3-C ) :   0.9542 B(  2-C ,  8-H ) :   0.9449
B(  2-C ,  9-H ) :   0.9455 B(  3-C ,  4-O ) :   0.8303 B(  3-C , 10-H ) :   0.9346
B(  3-C , 11-H ) :   0.9407 B( 12-C , 13-H ) :   0.8893 B( 12-C , 14-H ) :   0.9352
B( 12-C , 15-O ) :   0.8554 B( 12-C , 16-C ) :   0.8941 B( 16-C , 17-C ) :   0.8713
B( 16-C , 20-O ) :   0.8681 B( 16-C , 21-H ) :   0.9324 B( 17-C , 18-C ) :   0.9237
B( 17-C , 22-H ) :   0.9321 B( 17-C , 23-O ) :   0.8969 B( 18-C , 19-C ) :   0.9376
B( 18-C , 24-H ) :   0.9425 B( 18-C , 25-H ) :   0.9414 B( 19-C , 20-O ) :   0.8530
B( 19-C , 26-H ) :   0.9322 B( 19-C , 27-H ) :   0.9378 B( 23-O , 28-H ) :   0.7985

FINAL SINGLE POINT ENERGY      -652.855502660314

DIPOLE MOMENT
-------------
                                X             Y             Z
Electronic contribution:     -0.28627      -4.30045      -1.65089
Nuclear contribution   :      0.24849       5.45939       2.33967
                        -----------------------------------------
Total Dipole Moment    :     -0.03778       1.15894       0.68878
                        -----------------------------------------
Magnitude (a.u.)       :      1.34870
Magnitude (Debye)      :      3.42813

Rotational constants in cm-1:     0.053341     0.013619     0.012080
Rotational constants in MHz :  1599.109993   408.284484   362.150755

                             ****ORCA TERMINATED NORMALLY****
TOTAL RUN TIME: 0 days 1 hours 31 minutes 15 seconds 318 msec
