                         Program Version 4.2.0 -  RELEASE  -
|  1> # Test redundant internal optimization
|  2> #
|  3> ! RKS B3LYP  Opt TightSCF SmallPrint
|  4>
|  5> %basis
|  6>         Basis "6-31G"
|  7> end
|  8>
|  9> %geom
| 10> Constraints
| 11> { D 4  0  15  12  45.0   C } # D for Dihedral angle
| 12> { D 0  15  12  16  165.0   C } # D for Dihedral angle
| 13> { D 0  4  3  2   C } # D for Dihedral angle
| 14> { D 4  3  2  1   C } # D for Dihedral angle
| 15> { D 3  2  1  0   C } # D for Dihedral angle
| 16> { D 2  1  0  4   C } # D for Dihedral angle
| 17> { D 1  0  4  3   C } # D for Dihedral angle
| 18> { D 16  20  19  18   C } # D for Dihedral angle
| 19> { D 20  19  18  17   C } # D for Dihedral angle
| 20> { D 19  18  17  16   C } # D for Dihedral angle
| 21> { D 18  17  16  20   C } # D for Dihedral angle
| 22> { D 17  16  20  19   C } # D for Dihedral angle
| 23> { D 15  12  16  20   C } # D for Dihedral angle
| 24> end
| 25> end
| 26>
| 27>
| 28> #%pal
| 29> #nprocs 8
| 30> #end
| 31>
| 32> * xyz 0 1
| 33> C  -21.048   26.222   46.251
| 34> C  -20.361   27.558   45.944
| 35> C  -20.329   28.222   47.341
| 36> C  -20.110   27.022   48.296
| 37> O  -20.473   25.807   47.535
| 38> H  -20.833   25.428   45.533
| 39> H  -19.344   27.382   45.576
| 40> H  -20.898   28.157   45.201
| 41> H  -19.543   28.978   47.434
| 42> H  -21.289   28.710   47.548
| 43> H  -20.733   27.082   49.195
| 44> H  -19.064   26.913   48.597
| 45> C  -23.065   27.161   47.638
| 46> H  -22.970   26.510   48.515
| 47> H  -22.446   28.053   47.803
| 48> O  -22.586   26.394   46.375
| 49> C  -24.544   27.626   47.533
| 50> C  -25.500   26.430   47.469
| 51> C  -25.576   26.010   48.957
| 52> C  -25.492   27.362   49.708
| 53> O  -24.943   28.343   48.749
| 54> H  -24.641   28.327   46.702
| 55> O  -26.893   26.888   46.957
| 56> H  -25.141   25.626   46.818
| 57> H  -26.489   25.456   49.195
| 58> H  -24.721   25.372   49.211
| 59> H  -24.839   27.314   50.586
| 60> H  -26.474   27.729   50.019
| 61> H  -27.274   27.694   47.595
| 62> *
| 63>
| 64>                          ****END OF INPUT****
 Total Charge           Charge          ....    0
 Multiplicity           Mult            ....    1
 Number of Electrons    NEL             ....  102
FINAL SINGLE POINT ENERGY      -652.817677386043
FINAL SINGLE POINT ENERGY      -652.844820892293
FINAL SINGLE POINT ENERGY      -652.858161286582
FINAL SINGLE POINT ENERGY      -652.860066979016
FINAL SINGLE POINT ENERGY      -652.860382299759
FINAL SINGLE POINT ENERGY      -652.860429975040
FINAL SINGLE POINT ENERGY      -652.860424805248
                    ***********************HURRAY********************

CARTESIAN COORDINATES (ANGSTROEM)
---------------------------------
  C    -21.233027   26.351850   46.432854
  C    -20.444447   27.561600   45.911752
  C    -20.013848   28.261324   47.234012
  C    -19.768738   27.063981   48.185296
  O    -20.466346   25.902984   47.573756
  H    -21.243386   25.521005   45.724921
  H    -19.570040   27.197568   45.361757
  H    -21.039960   28.198410   45.253162
  H    -19.109766   28.865701   47.107601
  H    -20.801134   28.923708   47.601759
  H    -20.162530   27.223512   49.193409
  H    -18.710571   26.795108   48.252719
  C    -23.104035   27.238973   47.887194
  H    -22.982315   26.590791   48.763403
  H    -22.565410   28.172671   48.071696
  O    -22.640446   26.546972   46.692778
  C    -24.571241   27.585895   47.641291
  C    -25.504996   26.381493   47.460900
  C    -25.739956   25.946438   48.929794
  C    -25.751588   27.289428   49.701416
  O    -25.105935   28.289833   48.812736
  H    -24.645492   28.267557   46.789482
  O    -26.744574   26.784387   46.813460
  H    -25.078440   25.602264   46.832015
  H    -26.678232   25.393876   49.023017
  H    -24.924366   25.297920   49.268179
  H    -25.199861   27.245151   50.645240
  H    -26.764679   27.648781   49.906512
  H    -27.053641   27.626822   47.208888

 Multiplicity           Mult            ....    1
 Number of Electrons    NEL             ....  102
 Basis Dimension        Dim             ....  149

ORBITAL ENERGIES
----------------

  NO   OCC          E(Eh)            E(eV)
   0   2.0000     -19.147982      -521.0431
   1   2.0000     -19.146253      -520.9960
   2   2.0000     -19.144572      -520.9503
   3   2.0000     -19.132568      -520.6236
   4   2.0000     -10.281387      -279.7708
   5   2.0000     -10.233751      -278.4745
   6   2.0000     -10.232654      -278.4447
   7   2.0000     -10.232090      -278.4293
   8   2.0000     -10.231325      -278.4085
   9   2.0000     -10.230742      -278.3927
  10   2.0000     -10.195567      -277.4355
  11   2.0000     -10.191375      -277.3214
  12   2.0000     -10.185256      -277.1549
  13   2.0000      -1.056114       -28.7383
  14   2.0000      -1.034590       -28.1526
  15   2.0000      -1.002413       -27.2770
  16   2.0000      -0.998217       -27.1629
  17   2.0000      -0.791805       -21.5461
  18   2.0000      -0.780732       -21.2448
  19   2.0000      -0.769940       -20.9511
  20   2.0000      -0.733404       -19.9569
  21   2.0000      -0.677297       -18.4302
  22   2.0000      -0.607299       -16.5254
  23   2.0000      -0.602836       -16.4040
  24   2.0000      -0.595614       -16.2075
  25   2.0000      -0.576160       -15.6781
  26   2.0000      -0.523284       -14.2393
  27   2.0000      -0.514537       -14.0013
  28   2.0000      -0.504289       -13.7224
  29   2.0000      -0.489254       -13.3133
  30   2.0000      -0.472883       -12.8678
  31   2.0000      -0.460086       -12.5196
  32   2.0000      -0.448058       -12.1923
  33   2.0000      -0.438912       -11.9434
  34   2.0000      -0.422622       -11.5001
  35   2.0000      -0.418030       -11.3752
  36   2.0000      -0.407933       -11.1004
  37   2.0000      -0.390293       -10.6204
  38   2.0000      -0.382543       -10.4095
  39   2.0000      -0.365924        -9.9573
  40   2.0000      -0.363371        -9.8878
  41   2.0000      -0.358535        -9.7562
  42   2.0000      -0.350742        -9.5442
  43   2.0000      -0.331528        -9.0213
  44   2.0000      -0.323619        -8.8061
  45   2.0000      -0.314337        -8.5535
  46   2.0000      -0.302780        -8.2391
  47   2.0000      -0.269575        -7.3355
  48   2.0000      -0.265732        -7.2309
  49   2.0000      -0.254254        -6.9186
  50   2.0000      -0.246195        -6.6993
  51   0.0000       0.066231         1.8022
  52   0.0000       0.068847         1.8734
  53   0.0000       0.092370         2.5135
  54   0.0000       0.096917         2.6373
  55   0.0000       0.102226         2.7817

MULLIKEN ATOMIC CHARGES
-----------------------
   0 C :    0.302401
   1 C :   -0.266485
   2 C :   -0.320368
   3 C :   -0.013709
   4 O :   -0.509406
   5 H :    0.166118
   6 H :    0.153518
   7 H :    0.154737
   8 H :    0.147597
   9 H :    0.156366
  10 H :    0.145407
  11 H :    0.151489
  12 C :   -0.005096
  13 H :    0.144907
  14 H :    0.140836
  15 O :   -0.535171
  16 C :    0.054864
  17 C :    0.089769
  18 C :   -0.301652
  19 C :   -0.033131
  20 O :   -0.529606
  21 H :    0.162629
  22 O :   -0.604461
  23 H :    0.180486
  24 H :    0.162309
  25 H :    0.150973
  26 H :    0.146467
  27 H :    0.146460
  28 H :    0.361752
Sum of atomic charges:   -0.0000000

LOEWDIN ATOMIC CHARGES
----------------------
   0 C :    0.177613
   1 C :   -0.226846
   2 C :   -0.223963
   3 C :   -0.033973
   4 O :   -0.321292
   5 H :    0.112809
   6 H :    0.120238
   7 H :    0.122133
   8 H :    0.116756
   9 H :    0.111190
  10 H :    0.103120
  11 H :    0.106880
  12 C :   -0.041423
  13 H :    0.101177
  14 H :    0.100620
  15 O :   -0.329302
  16 C :    0.018078
  17 C :    0.038783
  18 C :   -0.241925
  19 C :   -0.038614
  20 O :   -0.333275
  21 H :    0.116799
  22 O :   -0.415771
  23 H :    0.129905
  24 H :    0.126729
  25 H :    0.116435
  26 H :    0.103845
  27 H :    0.102542
  28 H :    0.280732

  Mayer bond orders larger than 0.100000
B(  0-C ,  1-C ) :   0.9168 B(  0-C ,  4-O ) :   0.9053 B(  0-C ,  5-H ) :   0.9361
B(  0-C , 15-O ) :   0.8781 B(  1-C ,  2-C ) :   0.9542 B(  1-C ,  6-H ) :   0.9344
B(  1-C ,  7-H ) :   0.9370 B(  2-C ,  3-C ) :   0.9485 B(  2-C ,  8-H ) :   0.9440
B(  2-C ,  9-H ) :   0.9379 B(  3-C ,  4-O ) :   0.8396 B(  3-C , 10-H ) :   0.9336
B(  3-C , 11-H ) :   0.9390 B( 12-C , 13-H ) :   0.9203 B( 12-C , 14-H ) :   0.9023
B( 12-C , 15-O ) :   0.8188 B( 12-C , 16-C ) :   0.9054 B( 16-C , 17-C ) :   0.9146
B( 16-C , 20-O ) :   0.8467 B( 16-C , 21-H ) :   0.9254 B( 17-C , 18-C ) :   0.9125
B( 17-C , 22-O ) :   0.8884 B( 17-C , 23-H ) :   0.9225 B( 18-C , 19-C ) :   0.9429
B( 18-C , 24-H ) :   0.9376 B( 18-C , 25-H ) :   0.9339 B( 19-C , 20-O ) :   0.8413
B( 19-C , 26-H ) :   0.9354 B( 19-C , 27-H ) :   0.9383 B( 22-O , 28-H ) :   0.7964

FINAL SINGLE POINT ENERGY      -652.860423404005

DIPOLE MOMENT
-------------
                                X             Y             Z
Electronic contribution:     -3.33479      -1.56925      -2.04677
Nuclear contribution   :      4.17023       2.15203       2.61416
                        -----------------------------------------
Total Dipole Moment    :      0.83543       0.58278       0.56739
                        -----------------------------------------
Magnitude (a.u.)       :      1.16598
Magnitude (Debye)      :      2.96368

Rotational constants in cm-1:     0.056410     0.012826     0.012220
Rotational constants in MHz :  1691.130999   384.501832   366.336400

                             ****ORCA TERMINATED NORMALLY****
TOTAL RUN TIME: 0 days 1 hours 30 minutes 7 seconds 644 msec
