                         Program Version 4.2.0 -  RELEASE  -
|  1> # Test redundant internal optimization
|  2> #
|  3> ! RKS B3LYP  Opt TightSCF SmallPrint
|  4>
|  5> %basis
|  6>         Basis "6-31G"
|  7> end
|  8>
|  9> %geom
| 10> Constraints
| 11> { D 4  0  15  12  90.0   C } # D for Dihedral angle
| 12> { D 0  15  12  16  270.0   C } # D for Dihedral angle
| 13> { D 0  4  3  2   C } # D for Dihedral angle
| 14> { D 4  3  2  1   C } # D for Dihedral angle
| 15> { D 3  2  1  0   C } # D for Dihedral angle
| 16> { D 2  1  0  4   C } # D for Dihedral angle
| 17> { D 1  0  4  3   C } # D for Dihedral angle
| 18> { D 16  20  19  18   C } # D for Dihedral angle
| 19> { D 20  19  18  17   C } # D for Dihedral angle
| 20> { D 19  18  17  16   C } # D for Dihedral angle
| 21> { D 18  17  16  20   C } # D for Dihedral angle
| 22> { D 17  16  20  19   C } # D for Dihedral angle
| 23> { D 15  12  16  20   C } # D for Dihedral angle
| 24> end
| 25> end
| 26>
| 27>
| 28> #%pal
| 29> #nprocs 8
| 30> #end
| 31>
| 32> * xyz 0 1
| 33> C  -21.048   26.222   46.251
| 34> C  -20.361   27.558   45.944
| 35> C  -20.329   28.222   47.341
| 36> C  -20.110   27.022   48.296
| 37> O  -20.473   25.807   47.535
| 38> H  -20.833   25.428   45.533
| 39> H  -19.344   27.382   45.576
| 40> H  -20.898   28.157   45.201
| 41> H  -19.543   28.978   47.434
| 42> H  -21.289   28.710   47.548
| 43> H  -20.733   27.082   49.195
| 44> H  -19.064   26.913   48.597
| 45> C  -23.061   27.816   46.783
| 46> H  -22.348   28.558   46.403
| 47> H  -24.046   28.031   46.349
| 48> O  -22.586   26.394   46.375
| 49> C  -23.175   27.992   48.323
| 50> C  -23.755   29.363   48.685
| 51> C  -25.266   29.138   48.444
| 52> C  -25.475   27.665   48.873
| 53> O  -24.138   27.035   48.878
| 54> H  -22.207   27.775   48.780
| 55> H  -23.561   29.588   49.739
| 56> O  -23.173   30.518   47.824
| 57> H  -25.895   29.832   49.012
| 58> H  -25.501   29.268   47.380
| 59> H  -26.128   27.116   48.185
| 60> H  -25.877   27.578   49.887
| 61> H  -23.356   30.316   46.763
| 62> *
| 63>
| 64>                          ****END OF INPUT****
 Total Charge           Charge          ....    0
 Multiplicity           Mult            ....    1
 Number of Electrons    NEL             ....  102
FINAL SINGLE POINT ENERGY      -652.793060236212
FINAL SINGLE POINT ENERGY      -652.824512991077
FINAL SINGLE POINT ENERGY      -652.842559995535
FINAL SINGLE POINT ENERGY      -652.846626926661
FINAL SINGLE POINT ENERGY      -652.847365835399
FINAL SINGLE POINT ENERGY      -652.847548986073
FINAL SINGLE POINT ENERGY      -652.847569089686
FINAL SINGLE POINT ENERGY      -652.847573218425
                    ***********************HURRAY********************

CARTESIAN COORDINATES (ANGSTROEM)
---------------------------------
  C    -21.126148   26.319613   46.366929
  C    -20.204677   27.459807   45.907890
  C    -19.874191   28.175776   47.252835
  C    -19.817453   26.990217   48.251933
  O    -20.518198   25.863271   47.596455
  H    -21.099890   25.452361   45.705505
  H    -19.300862   27.019495   45.475697
  H    -20.660055   28.116608   45.161137
  H    -18.921486   28.713021   47.209567
  H    -20.646058   28.901157   47.524518
  H    -20.303790   27.208901   49.207804
  H    -18.793380   26.658126   48.445776
  C    -23.098491   27.872575   46.799537
  H    -22.479685   28.693312   46.418735
  H    -24.058761   27.899633   46.273843
  O    -22.547063   26.577928   46.442234
  C    -23.326732   28.046119   48.304623
  C    -23.962933   29.395546   48.676511
  C    -25.474671   29.117385   48.424109
  C    -25.622382   27.636805   48.840274
  O    -24.255091   27.058060   48.845308
  H    -22.387512   27.883862   48.837668
  H    -23.785233   29.600692   49.734512
  O    -23.415962   30.545771   47.981737
  H    -26.120841   29.787522   48.996716
  H    -25.700631   29.258850   47.358521
  H    -26.251314   27.061258   48.154231
  H    -26.018455   27.530412   49.854566
  H    -23.801053   30.619918   47.084828

 Multiplicity           Mult            ....    1
 Number of Electrons    NEL             ....  102
 Basis Dimension        Dim             ....  149

ORBITAL ENERGIES
----------------

  NO   OCC          E(Eh)            E(eV)
   0   2.0000     -19.155694      -521.2529
   1   2.0000     -19.139164      -520.8031
   2   2.0000     -19.136012      -520.7174
   3   2.0000     -19.134925      -520.6878
   4   2.0000     -10.274031      -279.5706
   5   2.0000     -10.248484      -278.8754
   6   2.0000     -10.231206      -278.4053
   7   2.0000     -10.230670      -278.3907
   8   2.0000     -10.230571      -278.3880
   9   2.0000     -10.224714      -278.2286
  10   2.0000     -10.198943      -277.5273
  11   2.0000     -10.190856      -277.3073
  12   2.0000     -10.190281      -277.2916
  13   2.0000      -1.046101       -28.4659
  14   2.0000      -1.036558       -28.2062
  15   2.0000      -1.016530       -27.6612
  16   2.0000      -0.992063       -26.9954
  17   2.0000      -0.785842       -21.3838
  18   2.0000      -0.785380       -21.3713
  19   2.0000      -0.771100       -20.9827
  20   2.0000      -0.731627       -19.9086
  21   2.0000      -0.685504       -18.6535
  22   2.0000      -0.614379       -16.7181
  23   2.0000      -0.605920       -16.4879
  24   2.0000      -0.598508       -16.2862
  25   2.0000      -0.565297       -15.3825
  26   2.0000      -0.525350       -14.2955
  27   2.0000      -0.514382       -13.9970
  28   2.0000      -0.504377       -13.7248
  29   2.0000      -0.495941       -13.4952
  30   2.0000      -0.464033       -12.6270
  31   2.0000      -0.452611       -12.3162
  32   2.0000      -0.445531       -12.1235
  33   2.0000      -0.432894       -11.7796
  34   2.0000      -0.430946       -11.7266
  35   2.0000      -0.424327       -11.5465
  36   2.0000      -0.413668       -11.2565
  37   2.0000      -0.400289       -10.8924
  38   2.0000      -0.379626       -10.3302
  39   2.0000      -0.378231       -10.2922
  40   2.0000      -0.360171        -9.8008
  41   2.0000      -0.358111        -9.7447
  42   2.0000      -0.345030        -9.3887
  43   2.0000      -0.331980        -9.0336
  44   2.0000      -0.319680        -8.6989
  45   2.0000      -0.309668        -8.4265
  46   2.0000      -0.293566        -7.9883
  47   2.0000      -0.274764        -7.4767
  48   2.0000      -0.267684        -7.2841
  49   2.0000      -0.251725        -6.8498
  50   2.0000      -0.234717        -6.3870
  51   0.0000       0.046117         1.2549
  52   0.0000       0.076194         2.0733
  53   0.0000       0.079706         2.1689
  54   0.0000       0.087820         2.3897
  55   0.0000       0.098543         2.6815

MULLIKEN ATOMIC CHARGES
-----------------------
   0 C :    0.305826
   1 C :   -0.295324
   2 C :   -0.322725
   3 C :   -0.012297
   4 O :   -0.495561
   5 H :    0.165159
   6 H :    0.157898
   7 H :    0.146004
   8 H :    0.145898
   9 H :    0.162729
  10 H :    0.147836
  11 H :    0.145697
  12 C :   -0.023994
  13 H :    0.126653
  14 H :    0.142923
  15 O :   -0.506043
  16 C :    0.088390
  17 C :    0.080953
  18 C :   -0.324660
  19 C :   -0.011308
  20 O :   -0.499367
  21 H :    0.163244
  22 H :    0.167835
  23 O :   -0.602511
  24 H :    0.159273
  25 H :    0.130871
  26 H :    0.150800
  27 H :    0.149269
  28 H :    0.356531
Sum of atomic charges:   -0.0000000

LOEWDIN ATOMIC CHARGES
----------------------
   0 C :    0.174458
   1 C :   -0.231757
   2 C :   -0.227134
   3 C :   -0.034694
   4 O :   -0.316221
   5 H :    0.112337
   6 H :    0.123708
   7 H :    0.114974
   8 H :    0.116213
   9 H :    0.113565
  10 H :    0.100988
  11 H :    0.104232
  12 C :   -0.051533
  13 H :    0.095160
  14 H :    0.106725
  15 O :   -0.305377
  16 C :    0.010799
  17 C :    0.032598
  18 C :   -0.240866
  19 C :   -0.029923
  20 O :   -0.308961
  21 H :    0.115720
  22 H :    0.119065
  23 O :   -0.410681
  24 H :    0.123202
  25 H :    0.102991
  26 H :    0.106081
  27 H :    0.106243
  28 H :    0.278087

  Mayer bond orders larger than 0.100000
B(  0-C ,  1-C ) :   0.9225 B(  0-C ,  4-O ) :   0.9037 B(  0-C ,  5-H ) :   0.9366
B(  0-C , 15-O ) :   0.9024 B(  1-C ,  2-C ) :   0.9520 B(  1-C ,  6-H ) :   0.9351
B(  1-C ,  7-H ) :   0.9333 B(  2-C ,  3-C ) :   0.9450 B(  2-C ,  8-H ) :   0.9460
B(  2-C ,  9-H ) :   0.9340 B(  3-C ,  4-O ) :   0.8503 B(  3-C , 10-H ) :   0.9252
B(  3-C , 11-H ) :   0.9385 B( 12-C , 13-H ) :   0.8976 B( 12-C , 14-H ) :   0.9390
B( 12-C , 15-O ) :   0.8708 B( 12-C , 16-C ) :   0.8819 B( 16-C , 17-C ) :   0.8681
B( 16-C , 20-O ) :   0.8702 B( 16-C , 21-H ) :   0.9224 B( 17-C , 18-C ) :   0.9268
B( 17-C , 22-H ) :   0.9325 B( 17-C , 23-O ) :   0.8905 B( 18-C , 19-C ) :   0.9391
B( 18-C , 24-H ) :   0.9408 B( 18-C , 25-H ) :   0.9413 B( 19-C , 20-O ) :   0.8519
B( 19-C , 26-H ) :   0.9303 B( 19-C , 27-H ) :   0.9375 B( 23-O , 28-H ) :   0.7986

FINAL SINGLE POINT ENERGY      -652.847562040349

DIPOLE MOMENT
-------------
                                X             Y             Z
Electronic contribution:     -0.91190      -4.00569       0.54967
Nuclear contribution   :      0.65756       5.48598      -1.13214
                        -----------------------------------------
Total Dipole Moment    :     -0.25434       1.48030      -0.58247
                        -----------------------------------------
Magnitude (a.u.)       :      1.61097
Magnitude (Debye)      :      4.09477

Rotational constants in cm-1:     0.046931     0.016233     0.014598
Rotational constants in MHz :  1406.959529   486.660032   437.625592

                             ****ORCA TERMINATED NORMALLY****
TOTAL RUN TIME: 0 days 1 hours 23 minutes 25 seconds 573 msec
