                         Program Version 4.2.0 -  RELEASE  -
|  1> # Test redundant internal optimization
|  2> #
|  3> ! RKS B3LYP  Opt TightSCF SmallPrint
|  4>
|  5> %basis
|  6>         Basis "6-31G"
|  7> end
|  8>
|  9> %geom
| 10> Constraints
| 11> { D 4  0  15  12  15.0   C } # D for Dihedral angle
| 12> { D 0  15  12  16  120.0   C } # D for Dihedral angle
| 13> { D 0  4  3  2   C } # D for Dihedral angle
| 14> { D 4  3  2  1   C } # D for Dihedral angle
| 15> { D 3  2  1  0   C } # D for Dihedral angle
| 16> { D 2  1  0  4   C } # D for Dihedral angle
| 17> { D 1  0  4  3   C } # D for Dihedral angle
| 18> { D 16  20  19  18   C } # D for Dihedral angle
| 19> { D 20  19  18  17   C } # D for Dihedral angle
| 20> { D 19  18  17  16   C } # D for Dihedral angle
| 21> { D 18  17  16  20   C } # D for Dihedral angle
| 22> { D 17  16  20  19   C } # D for Dihedral angle
| 23> { D 15  12  16  20   C } # D for Dihedral angle
| 24> end
| 25> end
| 26>
| 27>
| 28> #%pal
| 29> #nprocs 8
| 30> #end
| 31>
| 32> * xyz 0 1
| 33> C  -21.048   26.222   46.251
| 34> C  -20.361   27.558   45.944
| 35> C  -20.329   28.222   47.341
| 36> C  -20.110   27.022   48.296
| 37> O  -20.473   25.807   47.535
| 38> H  -20.833   25.428   45.533
| 39> H  -19.344   27.382   45.576
| 40> H  -20.898   28.157   45.201
| 41> H  -19.543   28.978   47.434
| 42> H  -21.289   28.710   47.548
| 43> H  -20.733   27.082   49.195
| 44> H  -19.064   26.913   48.597
| 45> C  -23.128   26.462   47.829
| 46> H  -23.829   25.634   47.994
| 47> H  -22.306   26.364   48.550
| 48> O  -22.586   26.394   46.375
| 49> C  -23.867   27.795   48.133
| 50> C  -25.134   27.935   47.282
| 51> C  -26.128   27.030   48.049
| 52> C  -25.721   27.237   49.530
| 53> O  -24.356   27.806   49.515
| 54> H  -23.163   28.624   48.036
| 55> H  -25.477   28.976   47.287
| 56> O  -24.931   27.493   45.807
| 57> H  -27.173   27.294   47.863
| 58> H  -25.989   25.983   47.753
| 59> H  -25.714   26.301   50.098
| 60> H  -26.365   27.957   50.043
| 61> H  -24.588   26.453   45.779
| 62> *
| 63>
| 64>                          ****END OF INPUT****
 Total Charge           Charge          ....    0
 Multiplicity           Mult            ....    1
 Number of Electrons    NEL             ....  102
FINAL SINGLE POINT ENERGY      -652.825519257026
FINAL SINGLE POINT ENERGY      -652.850339824850
FINAL SINGLE POINT ENERGY      -652.857177757615
FINAL SINGLE POINT ENERGY      -652.860681682152
FINAL SINGLE POINT ENERGY      -652.862023336515
FINAL SINGLE POINT ENERGY      -652.862811045391
FINAL SINGLE POINT ENERGY      -652.863097134041
FINAL SINGLE POINT ENERGY      -652.863158731798
FINAL SINGLE POINT ENERGY      -652.863166823459
                    ***********************HURRAY********************

CARTESIAN COORDINATES (ANGSTROEM)
---------------------------------
  C    -21.138110   26.235351   46.395864
  C    -20.504086   27.553181   45.946481
  C    -20.223573   28.251341   47.301597
  C    -19.853930   27.074480   48.230517
  O    -20.369541   25.849039   47.546752
  H    -21.042808   25.425785   45.669975
  H    -19.570815   27.333404   45.416136
  H    -21.160350   28.129370   45.290065
  H    -19.417665   28.988250   47.232796
  H    -21.118371   28.770537   47.657422
  H    -20.304695   27.140352   49.223960
  H    -18.774423   26.934544   48.332526
  C    -23.148594   26.390411   47.983999
  H    -23.813554   25.525934   48.084604
  H    -22.363476   26.297266   48.735665
  O    -22.581363   26.340587   46.631344
  C    -23.921113   27.701310   48.167700
  C    -25.138344   27.866035   47.242138
  C    -26.205271   26.995692   47.968180
  C    -25.877740   27.210145   49.460394
  O    -24.482869   27.745610   49.515887
  H    -23.234825   28.549165   48.088051
  H    -25.454661   28.915071   47.259769
  O    -24.931263   27.507647   45.862469
  H    -27.221409   27.304007   47.709054
  H    -26.084171   25.951220   47.662377
  H    -25.922338   26.290935   50.051983
  H    -26.517659   27.963814   49.928763
  H    -24.102984   26.978516   45.777529

 Multiplicity           Mult            ....    1
 Number of Electrons    NEL             ....  102
 Basis Dimension        Dim             ....  149

ORBITAL ENERGIES
----------------

  NO   OCC          E(Eh)            E(eV)
   0   2.0000     -19.162410      -521.4357
   1   2.0000     -19.158117      -521.3189
   2   2.0000     -19.140635      -520.8432
   3   2.0000     -19.113534      -520.1057
   4   2.0000     -10.292809      -280.0816
   5   2.0000     -10.241461      -278.6843
   6   2.0000     -10.234991      -278.5083
   7   2.0000     -10.233447      -278.4662
   8   2.0000     -10.229839      -278.3681
   9   2.0000     -10.226414      -278.2749
  10   2.0000     -10.200391      -277.5667
  11   2.0000     -10.196350      -277.4568
  12   2.0000     -10.178170      -276.9621
  13   2.0000      -1.066602       -29.0237
  14   2.0000      -1.025678       -27.9101
  15   2.0000      -1.006747       -27.3950
  16   2.0000      -0.991542       -26.9812
  17   2.0000      -0.799818       -21.7642
  18   2.0000      -0.776753       -21.1365
  19   2.0000      -0.768120       -20.9016
  20   2.0000      -0.738984       -20.1088
  21   2.0000      -0.679724       -18.4962
  22   2.0000      -0.613806       -16.7025
  23   2.0000      -0.600510       -16.3407
  24   2.0000      -0.595863       -16.2142
  25   2.0000      -0.577732       -15.7209
  26   2.0000      -0.536108       -14.5882
  27   2.0000      -0.511782       -13.9263
  28   2.0000      -0.508902       -13.8479
  29   2.0000      -0.488917       -13.3041
  30   2.0000      -0.476830       -12.9752
  31   2.0000      -0.459924       -12.5152
  32   2.0000      -0.446825       -12.1587
  33   2.0000      -0.428221       -11.6525
  34   2.0000      -0.425922       -11.5899
  35   2.0000      -0.422178       -11.4880
  36   2.0000      -0.411916       -11.2088
  37   2.0000      -0.387225       -10.5369
  38   2.0000      -0.385342       -10.4857
  39   2.0000      -0.370297       -10.0763
  40   2.0000      -0.367642       -10.0040
  41   2.0000      -0.358797        -9.7634
  42   2.0000      -0.356060        -9.6889
  43   2.0000      -0.344177        -9.3655
  44   2.0000      -0.329569        -8.9680
  45   2.0000      -0.320717        -8.7271
  46   2.0000      -0.286414        -7.7937
  47   2.0000      -0.275638        -7.5005
  48   2.0000      -0.274349        -7.4654
  49   2.0000      -0.247252        -6.7281
  50   2.0000      -0.239344        -6.5129
  51   0.0000       0.059113         1.6086
  52   0.0000       0.068125         1.8538
  53   0.0000       0.086056         2.3417
  54   0.0000       0.094508         2.5717
  55   0.0000       0.099514         2.7079

MULLIKEN ATOMIC CHARGES
-----------------------
   0 C :    0.314499
   1 C :   -0.265109
   2 C :   -0.317574
   3 C :   -0.029527
   4 O :   -0.506123
   5 H :    0.167858
   6 H :    0.153505
   7 H :    0.163056
   8 H :    0.154554
   9 H :    0.160715
  10 H :    0.157263
  11 H :    0.158561
  12 C :   -0.030669
  13 H :    0.152723
  14 H :    0.176373
  15 O :   -0.574333
  16 C :    0.045960
  17 C :    0.121714
  18 C :   -0.295490
  19 C :   -0.025829
  20 O :   -0.521998
  21 H :    0.153929
  22 H :    0.143174
  23 O :   -0.642466
  24 H :    0.149197
  25 H :    0.147258
  26 H :    0.144627
  27 H :    0.149974
  28 H :    0.394177
Sum of atomic charges:    0.0000000

LOEWDIN ATOMIC CHARGES
----------------------
   0 C :    0.186927
   1 C :   -0.223517
   2 C :   -0.221545
   3 C :   -0.033897
   4 O :   -0.311149
   5 H :    0.111557
   6 H :    0.119244
   7 H :    0.126373
   8 H :    0.121392
   9 H :    0.113616
  10 H :    0.107845
  11 H :    0.110753
  12 C :   -0.044960
  13 H :    0.108084
  14 H :    0.121887
  15 O :   -0.351043
  16 C :    0.008555
  17 C :    0.042059
  18 C :   -0.235704
  19 C :   -0.033294
  20 O :   -0.326463
  21 H :    0.105974
  22 H :    0.103582
  23 O :   -0.435537
  24 H :    0.120639
  25 H :    0.112292
  26 H :    0.102992
  27 H :    0.106032
  28 H :    0.287307

  Mayer bond orders larger than 0.100000
B(  0-C ,  1-C ) :   0.9264 B(  0-C ,  4-O ) :   0.9314 B(  0-C ,  5-H ) :   0.9321
B(  0-C , 15-O ) :   0.8053 B(  1-C ,  2-C ) :   0.9524 B(  1-C ,  6-H ) :   0.9332
B(  1-C ,  7-H ) :   0.9348 B(  2-C ,  3-C ) :   0.9510 B(  2-C ,  8-H ) :   0.9433
B(  2-C ,  9-H ) :   0.9335 B(  3-C ,  4-O ) :   0.8226 B(  3-C , 10-H ) :   0.9298
B(  3-C , 11-H ) :   0.9396 B( 12-C , 13-H ) :   0.9327 B( 12-C , 14-H ) :   0.9140
B( 12-C , 15-O ) :   0.7836 B( 12-C , 16-C ) :   0.8914 B( 16-C , 17-C ) :   0.9103
B( 16-C , 20-O ) :   0.8522 B( 16-C , 21-H ) :   0.9208 B( 17-C , 18-C ) :   0.9005
B( 17-C , 22-H ) :   0.9320 B( 17-C , 23-O ) :   0.9355 B( 18-C , 19-C ) :   0.9394
B( 18-C , 24-H ) :   0.9452 B( 18-C , 25-H ) :   0.9428 B( 19-C , 20-O ) :   0.8326
B( 19-C , 26-H ) :   0.9337 B( 19-C , 27-H ) :   0.9378 B( 23-O , 28-H ) :   0.7225

FINAL SINGLE POINT ENERGY      -652.863168221889

DIPOLE MOMENT
-------------
                                X             Y             Z
Electronic contribution:     -0.33542      -2.10716      -0.95937
Nuclear contribution   :      1.13648       2.37185       1.22905
                        -----------------------------------------
Total Dipole Moment    :      0.80106       0.26469       0.26968
                        -----------------------------------------
Magnitude (a.u.)       :      0.88571
Magnitude (Debye)      :      2.25131

Rotational constants in cm-1:     0.051108     0.015482     0.013923
Rotational constants in MHz :  1532.173209   464.131629   417.414936

                             ****ORCA TERMINATED NORMALLY****
TOTAL RUN TIME: 0 days 0 hours 44 minutes 37 seconds 717 msec
