                         Program Version 4.2.1 -  RELEASE  -
|  1> # Test redundant internal optimization
|  2> #
|  3> ! RKS B3LYP  Opt TightSCF SmallPrint
|  4>
|  5> %basis
|  6>         Basis "6-31G"
|  7> end
|  8>
|  9> %geom
| 10> Constraints
| 11> { D 4  0  19  14  270.0   C } # D for Dihedral angle
| 12> { D 0  19  14  12  225.0   C } # D for Dihedral angle
| 13> { D 0  4  3  2   C } # D for Dihedral angle
| 14> { D 4  3  2  1   C } # D for Dihedral angle
| 15> { D 3  2  1  0   C } # D for Dihedral angle
| 16> { D 2  1  0  4   C } # D for Dihedral angle
| 17> { D 1  0  4  3   C } # D for Dihedral angle
| 18> { D 14  15  16  17   C } # D for Dihedral angle
| 19> { D 15  16  17  12   C } # D for Dihedral angle
| 20> { D 16  17  12  14   C } # D for Dihedral angle
| 21> { D 17  12  14  15   C } # D for Dihedral angle
| 22> { D 12  14  15  16   C } # D for Dihedral angle
| 23> end
| 24> end
| 25>
| 26>
| 27> #%pal
| 28> #nprocs 8
| 29> #end
| 30>
| 31> * xyz 0 1
| 32> C  -21.048   26.222   46.251
| 33> C  -20.361   27.558   45.944
| 34> C  -20.329   28.222   47.341
| 35> C  -20.110   27.022   48.296
| 36> O  -20.473   25.807   47.535
| 37> H  -20.833   25.428   45.533
| 38> H  -19.344   27.382   45.576
| 39> H  -20.898   28.157   45.201
| 40> H  -19.543   28.978   47.434
| 41> H  -21.289   28.710   47.548
| 42> H  -20.733   27.082   49.195
| 43> H  -19.064   26.913   48.597
| 44> C  -24.417   25.527   45.177
| 45> H  -25.162   24.717   45.179
| 46> C  -23.226   25.191   46.082
| 47> C  -22.411   24.229   45.187
| 48> C  -22.634   24.799   43.763
| 49> O  -23.825   25.674   43.842
| 50> H  -24.912   26.470   45.412
| 51> O  -22.472   26.381   46.366
| 52> H  -23.524   24.736   47.033
| 53> H  -21.352   24.189   45.459
| 54> H  -22.815   23.211   45.262
| 55> H  -22.813   24.016   43.019
| 56> H  -21.799   25.423   43.428
| 57> *
| 58>
| 59>                          ****END OF INPUT****
 Total Charge           Charge          ....    0
 Multiplicity           Mult            ....    1
 Number of Electrons    NEL             ....   86
FINAL SINGLE POINT ENERGY      -538.410113900876
FINAL SINGLE POINT ENERGY      -538.429530624384
FINAL SINGLE POINT ENERGY      -538.431379565808
FINAL SINGLE POINT ENERGY      -538.431732174971
FINAL SINGLE POINT ENERGY      -538.431770135323
FINAL SINGLE POINT ENERGY      -538.431776254628
                    ***********************HURRAY********************

CARTESIAN COORDINATES (ANGSTROEM)
---------------------------------
  C    -20.859898   26.252290   46.222461
  C    -20.376199   27.687584   46.004548
  C    -20.452207   28.269461   47.436842
  C    -20.066168   27.062178   48.322216
  O    -20.246102   25.858506   47.475218
  H    -20.524196   25.533998   45.474554
  H    -19.341101   27.669669   45.644000
  H    -20.998674   28.221734   45.284538
  H    -19.782472   29.122323   47.581646
  H    -21.476204   28.590821   47.647359
  H    -20.695102   26.966725   49.211320
  H    -19.014742   27.078461   48.625558
  C    -24.294968   25.662385   45.161731
  H    -25.165666   24.993800   45.224347
  C    -23.147097   25.147540   46.028852
  C    -22.549981   24.048756   45.133782
  C    -22.726997   24.613207   43.702725
  O    -23.745983   25.680693   43.801000
  H    -24.585121   26.681618   45.416515
  O    -22.291891   26.304481   46.317152
  H    -23.489857   24.745149   46.988712
  H    -21.519666   23.782273   45.378982
  H    -23.155569   23.145763   45.269726
  H    -23.068097   23.851437   42.992913
  H    -21.813039   25.073149   43.313302

 Multiplicity           Mult            ....    1
 Number of Electrons    NEL             ....   86
 Basis Dimension        Dim             ....  127

ORBITAL ENERGIES
----------------

  NO   OCC          E(Eh)            E(eV)
   0   2.0000     -19.139775      -520.8197
   1   2.0000     -19.133527      -520.6497
   2   2.0000     -19.131276      -520.5885
   3   2.0000     -10.276151      -279.6283
   4   2.0000     -10.241495      -278.6853
   5   2.0000     -10.226426      -278.2752
   6   2.0000     -10.220869      -278.1240
   7   2.0000     -10.220710      -278.1197
   8   2.0000     -10.192781      -277.3597
   9   2.0000     -10.180466      -277.0246
  10   2.0000     -10.179987      -277.0115
  11   2.0000      -1.049379       -28.5551
  12   2.0000      -1.014787       -27.6138
  13   2.0000      -0.986434       -26.8422
  14   2.0000      -0.791926       -21.5494
  15   2.0000      -0.774923       -21.0867
  16   2.0000      -0.747096       -20.3295
  17   2.0000      -0.717230       -19.5168
  18   2.0000      -0.615595       -16.7512
  19   2.0000      -0.602562       -16.3966
  20   2.0000      -0.592597       -16.1254
  21   2.0000      -0.564888       -15.3714
  22   2.0000      -0.528459       -14.3801
  23   2.0000      -0.500569       -13.6212
  24   2.0000      -0.483878       -13.1670
  25   2.0000      -0.477089       -12.9823
  26   2.0000      -0.455812       -12.4033
  27   2.0000      -0.436424       -11.8757
  28   2.0000      -0.426864       -11.6155
  29   2.0000      -0.418629       -11.3915
  30   2.0000      -0.400947       -10.9103
  31   2.0000      -0.389680       -10.6037
  32   2.0000      -0.371748       -10.1158
  33   2.0000      -0.367473        -9.9995
  34   2.0000      -0.359222        -9.7749
  35   2.0000      -0.351441        -9.5632
  36   2.0000      -0.341859        -9.3025
  37   2.0000      -0.320063        -8.7093
  38   2.0000      -0.305199        -8.3049
  39   2.0000      -0.295188        -8.0325
  40   2.0000      -0.264897        -7.2082
  41   2.0000      -0.246262        -6.7011
  42   2.0000      -0.236985        -6.4487
  43   0.0000       0.075497         2.0544
  44   0.0000       0.097799         2.6612
  45   0.0000       0.101180         2.7532
  46   0.0000       0.111671         3.0387
  47   0.0000       0.115636         3.1466

MULLIKEN ATOMIC CHARGES
-----------------------
   0 C :    0.285736
   1 C :   -0.254695
   2 C :   -0.296091
   3 C :   -0.001257
   4 O :   -0.513644
   5 H :    0.140339
   6 H :    0.140338
   7 H :    0.160313
   8 H :    0.137803
   9 H :    0.161506
  10 H :    0.145461
  11 H :    0.139453
  12 C :    0.003263
  13 H :    0.123450
  14 C :    0.102957
  15 C :   -0.334770
  16 C :   -0.003948
  17 O :   -0.520989
  18 H :    0.166585
  19 O :   -0.528251
  20 H :    0.141194
  21 H :    0.165519
  22 H :    0.152772
  23 H :    0.142080
  24 H :    0.144875
Sum of atomic charges:   -0.0000000

LOEWDIN ATOMIC CHARGES
----------------------
   0 C :    0.171762
   1 C :   -0.214837
   2 C :   -0.215589
   3 C :   -0.027459
   4 O :   -0.332812
   5 H :    0.096467
   6 H :    0.111158
   7 H :    0.125559
   8 H :    0.112011
   9 H :    0.118838
  10 H :    0.104281
  11 H :    0.100840
  12 C :   -0.035919
  13 H :    0.090474
  14 C :    0.046927
  15 C :   -0.240493
  16 C :   -0.032598
  17 O :   -0.331375
  18 H :    0.122873
  19 O :   -0.322820
  20 H :    0.104393
  21 H :    0.124832
  22 H :    0.121311
  23 H :    0.101196
  24 H :    0.100980

  Mayer bond orders larger than 0.100000
B(  0-C ,  1-C ) :   0.9447 B(  0-C ,  4-O ) :   0.9098 B(  0-C ,  5-H ) :   0.9111
B(  0-C , 19-O ) :   0.8629 B(  1-C ,  2-C ) :   0.9581 B(  1-C ,  6-H ) :   0.9410
B(  1-C ,  7-H ) :   0.9356 B(  2-C ,  3-C ) :   0.9543 B(  2-C ,  8-H ) :   0.9458
B(  2-C ,  9-H ) :   0.9442 B(  3-C ,  4-O ) :   0.8405 B(  3-C , 10-H ) :   0.9358
B(  3-C , 11-H ) :   0.9403 B( 12-C , 13-H ) :   0.9141 B( 12-C , 14-C ) :   0.9245
B( 12-C , 17-O ) :   0.8657 B( 12-C , 18-H ) :   0.9310 B( 14-C , 15-C ) :   0.9429
B( 14-C , 19-O ) :   0.8330 B( 14-C , 20-H ) :   0.9268 B( 15-C , 16-C ) :   0.9381
B( 15-C , 21-H ) :   0.9278 B( 15-C , 22-H ) :   0.9350 B( 16-C , 17-O ) :   0.8623
B( 16-C , 23-H ) :   0.9317 B( 16-C , 24-H ) :   0.9343

FINAL SINGLE POINT ENERGY      -538.431776718808

DIPOLE MOMENT
-------------
                                X             Y             Z
Electronic contribution:     -1.46222      -0.92141      -0.31278
Nuclear contribution   :      1.72599       0.70670       0.56846
                        -----------------------------------------
Total Dipole Moment    :      0.26377      -0.21472       0.25568
                        -----------------------------------------
Magnitude (a.u.)       :      0.42550
Magnitude (Debye)      :      1.08154

Rotational constants in cm-1:     0.082735     0.020894     0.020141
Rotational constants in MHz :  2480.325150   626.401149   603.814019

                             ****ORCA TERMINATED NORMALLY****
TOTAL RUN TIME: 0 days 0 hours 7 minutes 9 seconds 680 msec
