                         Program Version 4.2.0 -  RELEASE  -
|  1> # Test redundant internal optimization
|  2> #
|  3> ! RKS B3LYP  Opt TightSCF SmallPrint
|  4>
|  5> %basis
|  6>         Basis "6-31G"
|  7> end
|  8>
|  9> %geom
| 10> Constraints
| 11> { D 4  0  15  12  255.0   C } # D for Dihedral angle
| 12> { D 0  15  12  16  120.0   C } # D for Dihedral angle
| 13> { D 0  4  3  2   C } # D for Dihedral angle
| 14> { D 4  3  2  1   C } # D for Dihedral angle
| 15> { D 3  2  1  0   C } # D for Dihedral angle
| 16> { D 2  1  0  4   C } # D for Dihedral angle
| 17> { D 1  0  4  3   C } # D for Dihedral angle
| 18> { D 16  20  19  18   C } # D for Dihedral angle
| 19> { D 20  19  18  17   C } # D for Dihedral angle
| 20> { D 19  18  17  16   C } # D for Dihedral angle
| 21> { D 18  17  16  20   C } # D for Dihedral angle
| 22> { D 17  16  20  19   C } # D for Dihedral angle
| 23> { D 15  12  16  20   C } # D for Dihedral angle
| 24> end
| 25> end
| 26>
| 27>
| 28> #%pal
| 29> #nprocs 8
| 30> #end
| 31>
| 32> * xyz 0 1
| 33> C  -21.048   26.222   46.251
| 34> C  -20.361   27.558   45.944
| 35> C  -20.329   28.222   47.341
| 36> C  -20.110   27.022   48.296
| 37> O  -20.473   25.807   47.535
| 38> H  -20.833   25.428   45.533
| 39> H  -19.344   27.382   45.576
| 40> H  -20.898   28.157   45.201
| 41> H  -19.543   28.978   47.434
| 42> H  -21.289   28.710   47.548
| 43> H  -20.733   27.082   49.195
| 44> H  -19.064   26.913   48.597
| 45> C  -23.431   25.260   45.734
| 46> H  -24.069   25.683   44.947
| 47> H  -22.778   24.506   45.276
| 48> O  -22.586   26.394   46.375
| 49> C  -24.342   24.534   46.762
| 50> C  -25.072   23.349   46.121
| 51> C  -23.965   22.269   46.106
| 52> C  -23.182   22.550   47.413
| 53> O  -23.533   23.927   47.824
| 54> H  -24.998   25.266   47.238
| 55> H  -25.911   23.036   46.753
| 56> O  -25.622   23.667   44.703
| 57> H  -24.366   21.250   46.072
| 58> H  -23.319   22.404   45.231
| 59> H  -22.097   22.483   47.274
| 60> H  -23.477   21.885   48.229
| 61> H  -24.801   23.982   44.051
| 62> *
| 63>
| 64>                          ****END OF INPUT****
 Total Charge           Charge          ....    0
 Multiplicity           Mult            ....    1
 Number of Electrons    NEL             ....  102
FINAL SINGLE POINT ENERGY      -652.827054502582
FINAL SINGLE POINT ENERGY      -652.850444725564
FINAL SINGLE POINT ENERGY      -652.855050970240
FINAL SINGLE POINT ENERGY      -652.855793175612
FINAL SINGLE POINT ENERGY      -652.855918006357
FINAL SINGLE POINT ENERGY      -652.855951350386
FINAL SINGLE POINT ENERGY      -652.855957207908
FINAL SINGLE POINT ENERGY      -652.855958756447
                    ***********************HURRAY********************

CARTESIAN COORDINATES (ANGSTROEM)
---------------------------------
  C    -21.001034   26.190684   46.190229
  C    -20.433779   27.592891   45.970119
  C    -20.480264   28.185650   47.399641
  C    -20.168923   26.960580   48.288603
  O    -20.418651   25.770504   47.439648
  H    -20.723043   25.440228   45.443181
  H    -19.398946   27.515924   45.615269
  H    -21.017559   28.164102   45.245540
  H    -19.763393   28.999686   47.542637
  H    -21.485292   28.565215   47.605984
  H    -20.807819   26.898116   49.172464
  H    -19.119062   26.913643   48.594437
  C    -23.257528   25.283507   45.650039
  H    -23.896313   25.764629   44.899072
  H    -22.611570   24.548311   45.144567
  O    -22.440344   26.308240   46.269071
  C    -24.144021   24.606657   46.697343
  C    -25.015102   23.471302   46.135992
  C    -24.023175   22.270276   46.145298
  C    -23.181575   22.536674   47.413201
  O    -23.377183   23.967383   47.759077
  H    -24.740056   25.382782   47.186176
  H    -25.847107   23.282923   46.817711
  O    -25.644197   23.739227   44.858000
  H    -24.540065   21.307424   46.168922
  H    -23.403303   22.298340   45.238779
  H    -22.113145   22.350998   47.268363
  H    -23.528499   21.950313   48.269424
  H    -24.993049   23.659792   44.131213

 Multiplicity           Mult            ....    1
 Number of Electrons    NEL             ....  102
 Basis Dimension        Dim             ....  149

ORBITAL ENERGIES
----------------

  NO   OCC          E(Eh)            E(eV)
   0   2.0000     -19.148983      -521.0703
   1   2.0000     -19.137146      -520.7482
   2   2.0000     -19.132092      -520.6107
   3   2.0000     -19.129439      -520.5385
   4   2.0000     -10.274963      -279.5960
   5   2.0000     -10.243049      -278.7275
   6   2.0000     -10.231185      -278.4047
   7   2.0000     -10.226311      -278.2721
   8   2.0000     -10.225895      -278.2608
   9   2.0000     -10.216043      -277.9927
  10   2.0000     -10.194376      -277.4031
  11   2.0000     -10.179097      -276.9873
  12   2.0000     -10.178408      -276.9686
  13   2.0000      -1.046356       -28.4728
  14   2.0000      -1.031317       -28.0636
  15   2.0000      -1.012341       -27.5472
  16   2.0000      -0.988617       -26.9016
  17   2.0000      -0.783215       -21.3124
  18   2.0000      -0.778819       -21.1927
  19   2.0000      -0.763058       -20.7639
  20   2.0000      -0.725501       -19.7419
  21   2.0000      -0.677439       -18.4340
  22   2.0000      -0.609482       -16.5849
  23   2.0000      -0.591145       -16.0859
  24   2.0000      -0.587189       -15.9782
  25   2.0000      -0.578009       -15.7284
  26   2.0000      -0.526922       -14.3383
  27   2.0000      -0.509352       -13.8602
  28   2.0000      -0.494567       -13.4578
  29   2.0000      -0.482877       -13.1398
  30   2.0000      -0.463573       -12.6145
  31   2.0000      -0.454227       -12.3601
  32   2.0000      -0.446015       -12.1367
  33   2.0000      -0.428363       -11.6564
  34   2.0000      -0.424987       -11.5645
  35   2.0000      -0.416721       -11.3396
  36   2.0000      -0.402697       -10.9580
  37   2.0000      -0.392623       -10.6838
  38   2.0000      -0.378437       -10.2978
  39   2.0000      -0.366194        -9.9646
  40   2.0000      -0.349746        -9.5171
  41   2.0000      -0.346952        -9.4410
  42   2.0000      -0.342981        -9.3330
  43   2.0000      -0.328661        -8.9433
  44   2.0000      -0.313443        -8.5292
  45   2.0000      -0.311321        -8.4715
  46   2.0000      -0.299708        -8.1555
  47   2.0000      -0.269356        -7.3296
  48   2.0000      -0.261903        -7.1268
  49   2.0000      -0.246307        -6.7024
  50   2.0000      -0.230198        -6.2640
  51   0.0000       0.050204         1.3661
  52   0.0000       0.074300         2.0218
  53   0.0000       0.090302         2.4572
  54   0.0000       0.099886         2.7180
  55   0.0000       0.109537         2.9807

MULLIKEN ATOMIC CHARGES
-----------------------
   0 C :    0.289618
   1 C :   -0.254912
   2 C :   -0.299552
   3 C :    0.000870
   4 O :   -0.496547
   5 H :    0.132418
   6 H :    0.139475
   7 H :    0.147314
   8 H :    0.137447
   9 H :    0.163862
  10 H :    0.155847
  11 H :    0.136230
  12 C :   -0.012648
  13 H :    0.143094
  14 H :    0.109534
  15 O :   -0.514049
  16 C :    0.103454
  17 C :    0.081234
  18 C :   -0.320370
  19 C :   -0.014652
  20 O :   -0.499031
  21 H :    0.163368
  22 H :    0.168408
  23 O :   -0.600323
  24 H :    0.155427
  25 H :    0.128437
  26 H :    0.153442
  27 H :    0.149121
  28 H :    0.353485
Sum of atomic charges:    0.0000000

LOEWDIN ATOMIC CHARGES
----------------------
   0 C :    0.177126
   1 C :   -0.219574
   2 C :   -0.216322
   3 C :   -0.026064
   4 O :   -0.315568
   5 H :    0.093151
   6 H :    0.110661
   7 H :    0.118840
   8 H :    0.111727
   9 H :    0.119941
  10 H :    0.110097
  11 H :    0.099500
  12 C :   -0.045283
  13 H :    0.105330
  14 H :    0.086105
  15 O :   -0.321300
  16 C :    0.016152
  17 C :    0.033245
  18 C :   -0.240722
  19 C :   -0.030709
  20 O :   -0.309204
  21 H :    0.119286
  22 H :    0.119625
  23 O :   -0.408465
  24 H :    0.121728
  25 H :    0.101230
  26 H :    0.107277
  27 H :    0.105804
  28 H :    0.276388

  Mayer bond orders larger than 0.100000
B(  0-C ,  1-C ) :   0.9448 B(  0-C ,  4-O ) :   0.9320 B(  0-C ,  5-H ) :   0.9189
B(  0-C , 15-O ) :   0.8512 B(  1-C ,  2-C ) :   0.9594 B(  1-C ,  6-H ) :   0.9390
B(  1-C ,  7-H ) :   0.9383 B(  2-C ,  3-C ) :   0.9540 B(  2-C ,  8-H ) :   0.9456
B(  2-C ,  9-H ) :   0.9437 B(  3-C ,  4-O ) :   0.8397 B(  3-C , 10-H ) :   0.9339
B(  3-C , 11-H ) :   0.9402 B( 12-C , 13-H ) :   0.9163 B( 12-C , 14-H ) :   0.9195
B( 12-C , 15-O ) :   0.8575 B( 12-C , 16-C ) :   0.8949 B( 16-C , 17-C ) :   0.8692
B( 16-C , 20-O ) :   0.8776 B( 16-C , 21-H ) :   0.9307 B( 17-C , 18-C ) :   0.9229
B( 17-C , 22-H ) :   0.9325 B( 17-C , 23-O ) :   0.8938 B( 18-C , 19-C ) :   0.9390
B( 18-C , 24-H ) :   0.9426 B( 18-C , 25-H ) :   0.9413 B( 19-C , 20-O ) :   0.8506
B( 19-C , 26-H ) :   0.9294 B( 19-C , 27-H ) :   0.9375 B( 23-O , 28-H ) :   0.7999

FINAL SINGLE POINT ENERGY      -652.855959041795

DIPOLE MOMENT
-------------
                                X             Y             Z
Electronic contribution:     -2.78643      -1.10975       0.62507
Nuclear contribution   :      3.34177       0.86281      -1.45491
                        -----------------------------------------
Total Dipole Moment    :      0.55534      -0.24695      -0.82984
                        -----------------------------------------
Magnitude (a.u.)       :      1.02860
Magnitude (Debye)      :      2.61450

Rotational constants in cm-1:     0.057509     0.013532     0.012049
Rotational constants in MHz :  1724.084448   405.666337   361.214815

                             ****ORCA TERMINATED NORMALLY****
TOTAL RUN TIME: 0 days 2 hours 43 minutes 10 seconds 161 msec
