                         Program Version 4.2.1 -  RELEASE  -
|  1> # Test redundant internal optimization
|  2> #
|  3> ! RKS B3LYP  Opt TightSCF SmallPrint
|  4>
|  5> %basis
|  6>         Basis "6-31G"
|  7> end
|  8>
|  9> %geom
| 10> Constraints
| 11> { D 4  0  19  14  240.0   C } # D for Dihedral angle
| 12> { D 0  19  14  12  345.0   C } # D for Dihedral angle
| 13> { D 0  4  3  2   C } # D for Dihedral angle
| 14> { D 4  3  2  1   C } # D for Dihedral angle
| 15> { D 3  2  1  0   C } # D for Dihedral angle
| 16> { D 2  1  0  4   C } # D for Dihedral angle
| 17> { D 1  0  4  3   C } # D for Dihedral angle
| 18> { D 14  15  16  17   C } # D for Dihedral angle
| 19> { D 15  16  17  12   C } # D for Dihedral angle
| 20> { D 16  17  12  14   C } # D for Dihedral angle
| 21> { D 17  12  14  15   C } # D for Dihedral angle
| 22> { D 12  14  15  16   C } # D for Dihedral angle
| 23> end
| 24> end
| 25>
| 26>
| 27> #%pal
| 28> #nprocs 8
| 29> #end
| 30>
| 31> * xyz 0 1
| 32> C  -21.048   26.222   46.251
| 33> C  -20.361   27.558   45.944
| 34> C  -20.329   28.222   47.341
| 35> C  -20.110   27.022   48.296
| 36> O  -20.473   25.807   47.535
| 37> H  -20.833   25.428   45.533
| 38> H  -19.344   27.382   45.576
| 39> H  -20.898   28.157   45.201
| 40> H  -19.543   28.978   47.434
| 41> H  -21.289   28.710   47.548
| 42> H  -20.733   27.082   49.195
| 43> H  -19.064   26.913   48.597
| 44> C  -22.328   24.940   44.410
| 45> H  -22.917   24.530   43.575
| 46> C  -23.235   25.530   45.496
| 47> C  -23.698   24.258   46.244
| 48> C  -22.454   23.337   46.177
| 49> O  -21.596   23.868   45.094
| 50> H  -21.584   25.633   44.016
| 51> O  -22.472   26.381   46.366
| 52> H  -24.070   26.111   45.089
| 53> H  -24.013   24.461   47.272
| 54> H  -24.546   23.800   45.719
| 55> H  -22.713   22.297   45.952
| 56> H  -21.864   23.364   47.098
| 57> *
| 58>
| 59>                          ****END OF INPUT****
 Total Charge           Charge          ....    0
 Multiplicity           Mult            ....    1
 Number of Electrons    NEL             ....   86
FINAL SINGLE POINT ENERGY      -538.411779201865
FINAL SINGLE POINT ENERGY      -538.429271159177
FINAL SINGLE POINT ENERGY      -538.431027788165
FINAL SINGLE POINT ENERGY      -538.431405901087
FINAL SINGLE POINT ENERGY      -538.431461426063
FINAL SINGLE POINT ENERGY      -538.431475964074
FINAL SINGLE POINT ENERGY      -538.431477446655
                    ***********************HURRAY********************

CARTESIAN COORDINATES (ANGSTROEM)
---------------------------------
  C    -20.824929   26.238525   46.238728
  C    -20.257420   27.639047   46.003390
  C    -20.405746   28.282928   47.403250
  C    -20.143051   27.095940   48.357750
  O    -20.322432   25.870332   47.543269
  H    -20.500187   25.455459   45.555587
  H    -19.201052   27.561223   45.719394
  H    -20.796667   28.179138   45.221847
  H    -19.708908   29.110778   47.564355
  H    -21.426402   28.656642   47.527097
  H    -20.837639   27.064728   49.201715
  H    -19.115975   27.075932   48.735552
  C    -22.471587   24.785490   44.284110
  H    -23.232221   24.450727   43.563865
  C    -23.147786   25.495147   45.459412
  C    -23.649583   24.300277   46.295329
  C    -22.550355   23.231683   46.099000
  O    -21.784402   23.643417   44.890079
  H    -21.725886   25.383032   43.755411
  O    -22.275841   26.327423   46.292091
  H    -23.956768   26.158122   45.140440
  H    -23.776737   24.594999   47.338539
  H    -24.614240   23.949680   45.908686
  H    -22.952319   22.227670   45.933223
  H    -21.836868   23.212660   46.926880

 Multiplicity           Mult            ....    1
 Number of Electrons    NEL             ....   86
 Basis Dimension        Dim             ....  127

ORBITAL ENERGIES
----------------

  NO   OCC          E(Eh)            E(eV)
   0   2.0000     -19.137211      -520.7500
   1   2.0000     -19.133543      -520.6502
   2   2.0000     -19.130483      -520.5669
   3   2.0000     -10.268545      -279.4213
   4   2.0000     -10.242129      -278.7025
   5   2.0000     -10.230800      -278.3942
   6   2.0000     -10.220498      -278.1139
   7   2.0000     -10.217675      -278.0371
   8   2.0000     -10.181388      -277.0497
   9   2.0000     -10.179140      -276.9885
  10   2.0000     -10.178607      -276.9740
  11   2.0000      -1.044348       -28.4181
  12   2.0000      -1.016880       -27.6707
  13   2.0000      -0.982350       -26.7311
  14   2.0000      -0.787292       -21.4233
  15   2.0000      -0.772514       -21.0212
  16   2.0000      -0.739560       -20.1244
  17   2.0000      -0.719736       -19.5850
  18   2.0000      -0.616897       -16.7866
  19   2.0000      -0.597589       -16.2612
  20   2.0000      -0.590624       -16.0717
  21   2.0000      -0.562419       -15.3042
  22   2.0000      -0.523654       -14.2493
  23   2.0000      -0.501012       -13.6332
  24   2.0000      -0.478396       -13.0178
  25   2.0000      -0.475632       -12.9426
  26   2.0000      -0.450159       -12.2495
  27   2.0000      -0.446520       -12.1504
  28   2.0000      -0.419979       -11.4282
  29   2.0000      -0.413504       -11.2520
  30   2.0000      -0.396027       -10.7765
  31   2.0000      -0.386048       -10.5049
  32   2.0000      -0.370553       -10.0832
  33   2.0000      -0.367123        -9.9899
  34   2.0000      -0.356180        -9.6921
  35   2.0000      -0.349796        -9.5184
  36   2.0000      -0.341950        -9.3049
  37   2.0000      -0.316251        -8.6056
  38   2.0000      -0.307834        -8.3766
  39   2.0000      -0.294827        -8.0227
  40   2.0000      -0.259825        -7.0702
  41   2.0000      -0.241295        -6.5660
  42   2.0000      -0.237481        -6.4622
  43   0.0000       0.080010         2.1772
  44   0.0000       0.098978         2.6933
  45   0.0000       0.104487         2.8432
  46   0.0000       0.108694         2.9577
  47   0.0000       0.118528         3.2253

MULLIKEN ATOMIC CHARGES
-----------------------
   0 C :    0.267244
   1 C :   -0.249917
   2 C :   -0.298265
   3 C :   -0.000418
   4 O :   -0.509914
   5 H :    0.185671
   6 H :    0.141552
   7 H :    0.140633
   8 H :    0.137183
   9 H :    0.160335
  10 H :    0.145870
  11 H :    0.138235
  12 C :   -0.046111
  13 H :    0.138353
  14 C :    0.089673
  15 C :   -0.276778
  16 C :   -0.021645
  17 O :   -0.521991
  18 H :    0.155631
  19 O :   -0.535457
  20 H :    0.143980
  21 H :    0.168965
  22 H :    0.132884
  23 H :    0.139462
  24 H :    0.174826
Sum of atomic charges:   -0.0000000

LOEWDIN ATOMIC CHARGES
----------------------
   0 C :    0.167765
   1 C :   -0.221193
   2 C :   -0.216507
   3 C :   -0.028056
   4 O :   -0.319203
   5 H :    0.118743
   6 H :    0.111599
   7 H :    0.115280
   8 H :    0.111724
   9 H :    0.118249
  10 H :    0.104542
  11 H :    0.100190
  12 C :   -0.055715
  13 H :    0.101397
  14 C :    0.045295
  15 C :   -0.230277
  16 C :   -0.033952
  17 O :   -0.335688
  18 H :    0.112237
  19 O :   -0.334967
  20 H :    0.109585
  21 H :    0.130813
  22 H :    0.108302
  23 H :    0.102001
  24 H :    0.117837

  Mayer bond orders larger than 0.100000
B(  0-C ,  1-C ) :   0.9398 B(  0-C ,  4-O ) :   0.9078 B(  0-C ,  5-H ) :   0.8948
B(  0-C , 19-O ) :   0.8270 B(  1-C ,  2-C ) :   0.9560 B(  1-C ,  6-H ) :   0.9376
B(  1-C ,  7-H ) :   0.9398 B(  2-C ,  3-C ) :   0.9547 B(  2-C ,  8-H ) :   0.9459
B(  2-C ,  9-H ) :   0.9439 B(  3-C ,  4-O ) :   0.8431 B(  3-C , 10-H ) :   0.9354
B(  3-C , 11-H ) :   0.9400 B( 12-C , 13-H ) :   0.9153 B( 12-C , 14-C ) :   0.9263
B( 12-C , 17-O ) :   0.8560 B( 12-C , 18-H ) :   0.9287 B( 14-C , 15-C ) :   0.9295
B( 14-C , 19-O ) :   0.8624 B( 14-C , 20-H ) :   0.9317 B( 15-C , 16-C ) :   0.9481
B( 15-C , 21-H ) :   0.9361 B( 15-C , 22-H ) :   0.9379 B( 16-C , 17-O ) :   0.8344
B( 16-C , 23-H ) :   0.9357 B( 16-C , 24-H ) :   0.9300

FINAL SINGLE POINT ENERGY      -538.431477931915

DIPOLE MOMENT
-------------
                                X             Y             Z
Electronic contribution:      0.41973      -2.32811      -0.64104
Nuclear contribution   :     -0.99418       2.99173       0.39751
                        -----------------------------------------
Total Dipole Moment    :     -0.57445       0.66362      -0.24352
                        -----------------------------------------
Magnitude (a.u.)       :      0.91087
Magnitude (Debye)      :      2.31525

Rotational constants in cm-1:     0.077019     0.023094     0.022035
Rotational constants in MHz :  2308.983481   692.329635   660.601898

                             ****ORCA TERMINATED NORMALLY****
TOTAL RUN TIME: 0 days 0 hours 8 minutes 27 seconds 520 msec
