                         Program Version 4.2.0 -  RELEASE  -
|  1> # Test redundant internal optimization
|  2> #
|  3> ! RKS B3LYP  Opt TightSCF SmallPrint
|  4>
|  5> %basis
|  6>         Basis "6-31G"
|  7> end
|  8>
|  9> %geom
| 10> Constraints
| 11> { D 4  0  15  12  300.0   C } # D for Dihedral angle
| 12> { D 0  15  12  16  15.0   C } # D for Dihedral angle
| 13> { D 0  4  3  2   C } # D for Dihedral angle
| 14> { D 4  3  2  1   C } # D for Dihedral angle
| 15> { D 3  2  1  0   C } # D for Dihedral angle
| 16> { D 2  1  0  4   C } # D for Dihedral angle
| 17> { D 1  0  4  3   C } # D for Dihedral angle
| 18> { D 16  20  19  18   C } # D for Dihedral angle
| 19> { D 20  19  18  17   C } # D for Dihedral angle
| 20> { D 19  18  17  16   C } # D for Dihedral angle
| 21> { D 18  17  16  20   C } # D for Dihedral angle
| 22> { D 17  16  20  19   C } # D for Dihedral angle
| 23> { D 15  12  16  20   C } # D for Dihedral angle
| 24> end
| 25> end
| 26>
| 27>
| 28> #%pal
| 29> #nprocs 8
| 30> #end
| 31>
| 32> * xyz 0 1
| 33> C  -21.048   26.222   46.251
| 34> C  -20.361   27.558   45.944
| 35> C  -20.329   28.222   47.341
| 36> C  -20.110   27.022   48.296
| 37> O  -20.473   25.807   47.535
| 38> H  -20.833   25.428   45.533
| 39> H  -19.344   27.382   45.576
| 40> H  -20.898   28.157   45.201
| 41> H  -19.543   28.978   47.434
| 42> H  -21.289   28.710   47.548
| 43> H  -20.733   27.082   49.195
| 44> H  -19.064   26.913   48.597
| 45> C  -23.362   25.116   46.798
| 46> H  -24.101   25.379   47.565
| 47> H  -23.895   24.689   45.939
| 48> O  -22.586   26.394   46.375
| 49> C  -22.432   24.012   47.373
| 50> C  -23.212   22.727   47.670
| 51> C  -23.338   22.103   46.260
| 52> C  -22.000   22.491   45.583
| 53> O  -21.438   23.607   46.373
| 54> H  -21.882   24.415   48.226
| 55> O  -22.383   21.805   48.606
| 56> H  -24.184   22.913   48.141
| 57> H  -23.493   21.019   46.288
| 58> H  -24.185   22.548   45.726
| 59> H  -22.135   22.818   44.546
| 60> H  -21.269   21.678   45.607
| 61> H  -21.405   21.605   48.154
| 62> *
| 63>
| 64>                          ****END OF INPUT****
 Total Charge           Charge          ....    0
 Multiplicity           Mult            ....    1
 Number of Electrons    NEL             ....  102
FINAL SINGLE POINT ENERGY      -652.827238904904
FINAL SINGLE POINT ENERGY      -652.849550669797
FINAL SINGLE POINT ENERGY      -652.857980827507
FINAL SINGLE POINT ENERGY      -652.859994115999
FINAL SINGLE POINT ENERGY      -652.860350364149
FINAL SINGLE POINT ENERGY      -652.860409779634
FINAL SINGLE POINT ENERGY      -652.860414415641
                    ***********************HURRAY********************

CARTESIAN COORDINATES (ANGSTROEM)
---------------------------------
  C    -20.908815   26.261723   46.217159
  C    -20.469160   27.706861   45.974193
  C    -20.462784   28.279489   47.410311
  C    -19.996336   27.080858   48.265928
  O    -20.206650   25.871981   47.426642
  H    -20.622581   25.525840   45.466488
  H    -19.462070   27.705349   45.541891
  H    -21.147527   28.235676   45.301695
  H    -19.803158   29.146281   47.516532
  H    -21.477198   28.579547   47.687350
  H    -20.563106   26.973131   49.195135
  H    -18.928169   27.116102   48.500549
  C    -23.115471   25.115358   46.770266
  H    -23.827692   25.469036   47.525853
  H    -23.690486   24.810422   45.884721
  O    -22.344105   26.294311   46.386876
  C    -22.366983   23.905071   47.334219
  C    -23.283100   22.708624   47.638241
  C    -23.431148   22.059845   46.234851
  C    -22.040707   22.295361   45.592133
  O    -21.388600   23.374061   46.373654
  H    -21.787534   24.201489   48.209083
  O    -22.651972   21.805275   48.585476
  H    -24.237912   22.981957   48.089549
  H    -23.685492   21.000885   46.324147
  H    -24.224086   22.558914   45.667096
  H    -22.106424   22.602148   44.543370
  H    -21.394457   21.414548   45.657458
  H    -21.701277   21.719858   48.360131

 Multiplicity           Mult            ....    1
 Number of Electrons    NEL             ....  102
 Basis Dimension        Dim             ....  149

ORBITAL ENERGIES
----------------

  NO   OCC          E(Eh)            E(eV)
   0   2.0000     -19.142263      -520.8875
   1   2.0000     -19.137966      -520.7705
   2   2.0000     -19.135069      -520.6917
   3   2.0000     -19.132563      -520.6235
   4   2.0000     -10.267179      -279.3842
   5   2.0000     -10.243252      -278.7331
   6   2.0000     -10.230837      -278.3952
   7   2.0000     -10.230669      -278.3907
   8   2.0000     -10.230400      -278.3833
   9   2.0000     -10.219216      -278.0790
  10   2.0000     -10.189811      -277.2789
  11   2.0000     -10.178817      -276.9797
  12   2.0000     -10.177778      -276.9514
  13   2.0000      -1.045297       -28.4440
  14   2.0000      -1.033500       -28.1230
  15   2.0000      -1.005103       -27.3502
  16   2.0000      -0.983688       -26.7675
  17   2.0000      -0.787536       -21.4299
  18   2.0000      -0.779121       -21.2009
  19   2.0000      -0.762337       -20.7443
  20   2.0000      -0.727954       -19.8086
  21   2.0000      -0.671217       -18.2648
  22   2.0000      -0.603991       -16.4354
  23   2.0000      -0.599456       -16.3120
  24   2.0000      -0.591142       -16.0858
  25   2.0000      -0.567748       -15.4492
  26   2.0000      -0.522167       -14.2089
  27   2.0000      -0.507930       -13.8215
  28   2.0000      -0.493431       -13.4269
  29   2.0000      -0.476794       -12.9742
  30   2.0000      -0.473797       -12.8927
  31   2.0000      -0.456410       -12.4195
  32   2.0000      -0.444632       -12.0991
  33   2.0000      -0.438458       -11.9311
  34   2.0000      -0.413902       -11.2628
  35   2.0000      -0.407606       -11.0915
  36   2.0000      -0.394192       -10.7265
  37   2.0000      -0.393100       -10.6968
  38   2.0000      -0.374894       -10.2014
  39   2.0000      -0.366041        -9.9605
  40   2.0000      -0.360655        -9.8139
  41   2.0000      -0.350725        -9.5437
  42   2.0000      -0.341315        -9.2876
  43   2.0000      -0.334279        -9.0962
  44   2.0000      -0.321306        -8.7432
  45   2.0000      -0.306165        -8.3312
  46   2.0000      -0.290094        -7.8939
  47   2.0000      -0.272651        -7.4192
  48   2.0000      -0.258547        -7.0354
  49   2.0000      -0.248185        -6.7534
  50   2.0000      -0.237110        -6.4521
  51   0.0000       0.065613         1.7854
  52   0.0000       0.087096         2.3700
  53   0.0000       0.092052         2.5049
  54   0.0000       0.099112         2.6970
  55   0.0000       0.105831         2.8798

MULLIKEN ATOMIC CHARGES
-----------------------
   0 C :    0.303214
   1 C :   -0.260768
   2 C :   -0.295534
   3 C :   -0.009481
   4 O :   -0.509595
   5 H :    0.166195
   6 H :    0.143639
   7 H :    0.155255
   8 H :    0.136852
   9 H :    0.158631
  10 H :    0.139199
  11 H :    0.142966
  12 C :    0.018459
  13 H :    0.143711
  14 H :    0.131266
  15 O :   -0.547986
  16 C :    0.041088
  17 C :    0.081863
  18 C :   -0.293497
  19 C :   -0.035497
  20 O :   -0.515838
  21 H :    0.188537
  22 O :   -0.602331
  23 H :    0.149515
  24 H :    0.162406
  25 H :    0.141934
  26 H :    0.147384
  27 H :    0.150186
  28 H :    0.368226
Sum of atomic charges:   -0.0000000

LOEWDIN ATOMIC CHARGES
----------------------
   0 C :    0.177508
   1 C :   -0.214549
   2 C :   -0.216043
   3 C :   -0.032464
   4 O :   -0.322986
   5 H :    0.108376
   6 H :    0.113165
   7 H :    0.123504
   8 H :    0.111301
   9 H :    0.117397
  10 H :    0.100618
  11 H :    0.102488
  12 C :   -0.035973
  13 H :    0.109472
  14 H :    0.096048
  15 O :   -0.335152
  16 C :    0.001578
  17 C :    0.038725
  18 C :   -0.241251
  19 C :   -0.041456
  20 O :   -0.323023
  21 H :    0.129530
  22 O :   -0.413589
  23 H :    0.114805
  24 H :    0.126478
  25 H :    0.111816
  26 H :    0.104086
  27 H :    0.104127
  28 H :    0.285465

  Mayer bond orders larger than 0.100000
B(  0-C ,  1-C ) :   0.9437 B(  0-C ,  4-O ) :   0.8853 B(  0-C ,  5-H ) :   0.9142
B(  0-C , 15-O ) :   0.8438 B(  1-C ,  2-C ) :   0.9551 B(  1-C ,  6-H ) :   0.9410
B(  1-C ,  7-H ) :   0.9368 B(  2-C ,  3-C ) :   0.9552 B(  2-C ,  8-H ) :   0.9458
B(  2-C ,  9-H ) :   0.9447 B(  3-C ,  4-O ) :   0.8429 B(  3-C , 10-H ) :   0.9360
B(  3-C , 11-H ) :   0.9403 B( 12-C , 13-H ) :   0.9244 B( 12-C , 14-H ) :   0.9263
B( 12-C , 15-O ) :   0.8464 B( 12-C , 16-C ) :   0.9038 B( 16-C , 17-C ) :   0.8943
B( 16-C , 20-O ) :   0.8346 B( 16-C , 21-H ) :   0.9088 B( 17-C , 18-C ) :   0.9091
B( 17-C , 22-O ) :   0.8959 B( 17-C , 23-H ) :   0.9343 B( 18-C , 19-C ) :   0.9408
B( 18-C , 24-H ) :   0.9379 B( 18-C , 25-H ) :   0.9333 B( 19-C , 20-O ) :   0.8476
B( 19-C , 26-H ) :   0.9340 B( 19-C , 27-H ) :   0.9374 B( 22-O , 28-H ) :   0.7921

FINAL SINGLE POINT ENERGY      -652.860414862222

DIPOLE MOMENT
-------------
                                X             Y             Z
Electronic contribution:      0.53436      -2.71989       1.12671
Nuclear contribution   :     -0.77060       2.99883      -1.64403
                        -----------------------------------------
Total Dipole Moment    :     -0.23624       0.27894      -0.51732
                        -----------------------------------------
Magnitude (a.u.)       :      0.63343
Magnitude (Debye)      :      1.61005

Rotational constants in cm-1:     0.059460     0.014264     0.013594
Rotational constants in MHz :  1782.577946   427.611342   407.536956

                             ****ORCA TERMINATED NORMALLY****
TOTAL RUN TIME: 0 days 0 hours 29 minutes 51 seconds 750 msec
