                         Program Version 4.2.0 -  RELEASE  -
|  1> # Test redundant internal optimization
|  2> #
|  3> ! RKS B3LYP  Opt TightSCF SmallPrint
|  4>
|  5> %basis
|  6>         Basis "6-31G"
|  7> end
|  8>
|  9> %geom
| 10> Constraints
| 11> { D 4  0  15  12  210.0   C } # D for Dihedral angle
| 12> { D 0  15  12  16  135.0   C } # D for Dihedral angle
| 13> { D 0  4  3  2   C } # D for Dihedral angle
| 14> { D 4  3  2  1   C } # D for Dihedral angle
| 15> { D 3  2  1  0   C } # D for Dihedral angle
| 16> { D 2  1  0  4   C } # D for Dihedral angle
| 17> { D 1  0  4  3   C } # D for Dihedral angle
| 18> { D 16  20  19  18   C } # D for Dihedral angle
| 19> { D 20  19  18  17   C } # D for Dihedral angle
| 20> { D 19  18  17  16   C } # D for Dihedral angle
| 21> { D 18  17  16  20   C } # D for Dihedral angle
| 22> { D 17  16  20  19   C } # D for Dihedral angle
| 23> { D 15  12  16  20   C } # D for Dihedral angle
| 24> end
| 25> end
| 26>
| 27>
| 28> #%pal
| 29> #nprocs 8
| 30> #end
| 31>
| 32> * xyz 0 1
| 33> C  -21.048   26.222   46.251
| 34> C  -20.361   27.558   45.944
| 35> C  -20.329   28.222   47.341
| 36> C  -20.110   27.022   48.296
| 37> O  -20.473   25.807   47.535
| 38> H  -20.833   25.428   45.533
| 39> H  -19.344   27.382   45.576
| 40> H  -20.898   28.157   45.201
| 41> H  -19.543   28.978   47.434
| 42> H  -21.289   28.710   47.548
| 43> H  -20.733   27.082   49.195
| 44> H  -19.064   26.913   48.597
| 45> C  -23.389   26.110   45.076
| 46> H  -23.711   27.062   44.634
| 47> H  -22.762   25.587   44.343
| 48> O  -22.586   26.394   46.375
| 49> C  -24.650   25.238   45.328
| 50> C  -24.287   23.924   46.029
| 51> C  -24.125   24.386   47.497
| 52> C  -25.199   25.494   47.638
| 53> O  -25.558   25.908   46.264
| 54> H  -25.192   25.114   44.389
| 55> O  -25.456   22.911   45.900
| 56> H  -23.380   23.458   45.629
| 57> H  -24.266   23.574   48.217
| 58> H  -23.121   24.800   47.653
| 59> H  -24.834   26.365   48.192
| 60> H  -26.114   25.129   48.113
| 61> H  -26.376   23.356   46.296
| 62> *
| 63>
| 64>                          ****END OF INPUT****
 Total Charge           Charge          ....    0
 Multiplicity           Mult            ....    1
 Number of Electrons    NEL             ....  102
FINAL SINGLE POINT ENERGY      -652.835140112826
FINAL SINGLE POINT ENERGY      -652.857733930613
FINAL SINGLE POINT ENERGY      -652.861629330694
FINAL SINGLE POINT ENERGY      -652.862997539092
FINAL SINGLE POINT ENERGY      -652.863120531896
FINAL SINGLE POINT ENERGY      -652.863140799211
FINAL SINGLE POINT ENERGY      -652.863141451133
                    ***********************HURRAY********************

CARTESIAN COORDINATES (ANGSTROEM)
---------------------------------
  C    -21.069641   26.217867   46.190308
  C    -20.364871   27.541635   45.899767
  C    -20.405795   28.235577   47.282178
  C    -20.244301   27.057825   48.266073
  O    -20.577418   25.834875   47.484546
  H    -20.843092   25.402630   45.494227
  H    -19.331629   27.344309   45.589982
  H    -20.860057   28.119698   45.114865
  H    -19.619823   28.987549   47.398841
  H    -21.375867   28.722009   47.420015
  H    -20.917888   27.115248   49.124135
  H    -19.216151   26.931693   48.617063
  C    -23.298666   26.126243   45.097634
  H    -23.617603   27.080359   44.661704
  H    -22.695824   25.587013   44.349909
  O    -22.508087   26.397788   46.290131
  C    -24.539568   25.299420   45.431811
  C    -24.306123   23.920002   46.066860
  C    -24.142051   24.284941   47.567968
  C    -25.122254   25.469976   47.745791
  O    -25.408960   25.987867   46.385052
  H    -25.116566   25.188987   44.504909
  O    -25.448388   23.049895   45.824508
  H    -23.449575   23.383987   45.656538
  H    -24.393571   23.427569   48.199437
  H    -23.115813   24.597552   47.764749
  H    -24.691340   26.278799   48.341358
  H    -26.081499   25.172332   48.182751
  H    -26.268580   23.527355   46.070890

 Multiplicity           Mult            ....    1
 Number of Electrons    NEL             ....  102
 Basis Dimension        Dim             ....  149

ORBITAL ENERGIES
----------------

  NO   OCC          E(Eh)            E(eV)
   0   2.0000     -19.148189      -521.0487
   1   2.0000     -19.147012      -521.0167
   2   2.0000     -19.133713      -520.6548
   3   2.0000     -19.131743      -520.6012
   4   2.0000     -10.287158      -279.9278
   5   2.0000     -10.236246      -278.5424
   6   2.0000     -10.232866      -278.4504
   7   2.0000     -10.230793      -278.3940
   8   2.0000     -10.230243      -278.3791
   9   2.0000     -10.217296      -278.0267
  10   2.0000     -10.190867      -277.3076
  11   2.0000     -10.190097      -277.2866
  12   2.0000     -10.168729      -276.7052
  13   2.0000      -1.060023       -28.8447
  14   2.0000      -1.028837       -27.9961
  15   2.0000      -1.003080       -27.2952
  16   2.0000      -0.994477       -27.0611
  17   2.0000      -0.791717       -21.5437
  18   2.0000      -0.774204       -21.0672
  19   2.0000      -0.759874       -20.6772
  20   2.0000      -0.734722       -19.9928
  21   2.0000      -0.674347       -18.3499
  22   2.0000      -0.604815       -16.4579
  23   2.0000      -0.599429       -16.3113
  24   2.0000      -0.591594       -16.0981
  25   2.0000      -0.576294       -15.6818
  26   2.0000      -0.527379       -14.3507
  27   2.0000      -0.502296       -13.6682
  28   2.0000      -0.501046       -13.6341
  29   2.0000      -0.488408       -13.2902
  30   2.0000      -0.474096       -12.9008
  31   2.0000      -0.452926       -12.3247
  32   2.0000      -0.448916       -12.2156
  33   2.0000      -0.437464       -11.9040
  34   2.0000      -0.426904       -11.6167
  35   2.0000      -0.409951       -11.1553
  36   2.0000      -0.402575       -10.9546
  37   2.0000      -0.382516       -10.4088
  38   2.0000      -0.376069       -10.2333
  39   2.0000      -0.363980        -9.9044
  40   2.0000      -0.360886        -9.8202
  41   2.0000      -0.354049        -9.6342
  42   2.0000      -0.353308        -9.6140
  43   2.0000      -0.326848        -8.8940
  44   2.0000      -0.317682        -8.6446
  45   2.0000      -0.313162        -8.5216
  46   2.0000      -0.299242        -8.1428
  47   2.0000      -0.269856        -7.3432
  48   2.0000      -0.262240        -7.1359
  49   2.0000      -0.258002        -7.0206
  50   2.0000      -0.235537        -6.4093
  51   0.0000       0.067410         1.8343
  52   0.0000       0.080548         2.1918
  53   0.0000       0.088912         2.4194
  54   0.0000       0.105031         2.8580
  55   0.0000       0.111861         3.0439

MULLIKEN ATOMIC CHARGES
-----------------------
   0 C :    0.292352
   1 C :   -0.259538
   2 C :   -0.300032
   3 C :   -0.003915
   4 O :   -0.506222
   5 H :    0.139956
   6 H :    0.144784
   7 H :    0.147552
   8 H :    0.144183
   9 H :    0.165839
  10 H :    0.154257
  11 H :    0.144483
  12 C :   -0.003865
  13 H :    0.151021
  14 H :    0.122167
  15 O :   -0.516423
  16 C :    0.076656
  17 C :    0.070935
  18 C :   -0.293476
  19 C :   -0.019252
  20 O :   -0.528317
  21 H :    0.151559
  22 O :   -0.604249
  23 H :    0.145896
  24 H :    0.145186
  25 H :    0.190668
  26 H :    0.152606
  27 H :    0.132522
  28 H :    0.362667
Sum of atomic charges:    0.0000000

LOEWDIN ATOMIC CHARGES
----------------------
   0 C :    0.177322
   1 C :   -0.226084
   2 C :   -0.216435
   3 C :   -0.025313
   4 O :   -0.310132
   5 H :    0.095961
   6 H :    0.113885
   7 H :    0.117507
   8 H :    0.115614
   9 H :    0.121132
  10 H :    0.109313
  11 H :    0.103817
  12 C :   -0.037530
  13 H :    0.107848
  14 H :    0.095410
  15 O :   -0.332015
  16 C :    0.011804
  17 C :    0.038442
  18 C :   -0.244098
  19 C :   -0.032606
  20 O :   -0.331664
  21 H :    0.113707
  22 O :   -0.418073
  23 H :    0.112943
  24 H :    0.116946
  25 H :    0.137185
  26 H :    0.108691
  27 H :    0.094534
  28 H :    0.281889

  Mayer bond orders larger than 0.100000
B(  0-C ,  1-C ) :   0.9344 B(  0-C ,  4-O ) :   0.9250 B(  0-C ,  5-H ) :   0.9168
B(  0-C , 15-O ) :   0.8307 B(  1-C ,  2-C ) :   0.9539 B(  1-C ,  6-H ) :   0.9340
B(  1-C ,  7-H ) :   0.9381 B(  2-C ,  3-C ) :   0.9554 B(  2-C ,  8-H ) :   0.9448
B(  2-C ,  9-H ) :   0.9429 B(  3-C ,  4-O ) :   0.8311 B(  3-C , 10-H ) :   0.9349
B(  3-C , 11-H ) :   0.9396 B( 12-C , 13-H ) :   0.9224 B( 12-C , 14-H ) :   0.9095
B( 12-C , 15-O ) :   0.8460 B( 12-C , 16-C ) :   0.9013 B( 16-C , 17-C ) :   0.9070
B( 16-C , 20-O ) :   0.8765 B( 16-C , 21-H ) :   0.9199 B( 17-C , 18-C ) :   0.9250
B( 17-C , 22-O ) :   0.8903 B( 17-C , 23-H ) :   0.9371 B( 18-C , 19-C ) :   0.9438
B( 18-C , 24-H ) :   0.9376 B( 18-C , 25-H ) :   0.9090 B( 19-C , 20-O ) :   0.8352
B( 19-C , 26-H ) :   0.9345 B( 19-C , 27-H ) :   0.9380 B( 22-O , 28-H ) :   0.7962

FINAL SINGLE POINT ENERGY      -652.863139642460

DIPOLE MOMENT
-------------
                                X             Y             Z
Electronic contribution:     -3.65069      -3.10673      -1.30204
Nuclear contribution   :      4.57991       4.05199       1.14805
                        -----------------------------------------
Total Dipole Moment    :      0.92922       0.94526      -0.15399
                        -----------------------------------------
Magnitude (a.u.)       :      1.33442
Magnitude (Debye)      :      3.39183

Rotational constants in cm-1:     0.055577     0.014206     0.013727
Rotational constants in MHz :  1666.161390   425.882733   411.525082

                             ****ORCA TERMINATED NORMALLY****
TOTAL RUN TIME: 0 days 0 hours 24 minutes 23 seconds 784 msec
