                         Program Version 4.2.0 -  RELEASE  -
|  1> # Test redundant internal optimization
|  2> #
|  3> ! RKS B3LYP  Opt TightSCF SmallPrint
|  4>
|  5> %basis
|  6>         Basis "6-31G"
|  7> end
|  8>
|  9> %geom
| 10> Constraints
| 11> { D 4  0  15  12  180.0   C } # D for Dihedral angle
| 12> { D 0  15  12  16  120.0   C } # D for Dihedral angle
| 13> { D 0  4  3  2   C } # D for Dihedral angle
| 14> { D 4  3  2  1   C } # D for Dihedral angle
| 15> { D 3  2  1  0   C } # D for Dihedral angle
| 16> { D 2  1  0  4   C } # D for Dihedral angle
| 17> { D 1  0  4  3   C } # D for Dihedral angle
| 18> { D 16  20  19  18   C } # D for Dihedral angle
| 19> { D 20  19  18  17   C } # D for Dihedral angle
| 20> { D 19  18  17  16   C } # D for Dihedral angle
| 21> { D 18  17  16  20   C } # D for Dihedral angle
| 22> { D 17  16  20  19   C } # D for Dihedral angle
| 23> { D 15  12  16  20   C } # D for Dihedral angle
| 24> end
| 25> end
| 26>
| 27>
| 28> #%pal
| 29> #nprocs 8
| 30> #end
| 31>
| 32> * xyz 0 1
| 33> C  -21.048   26.222   46.251
| 34> C  -20.361   27.558   45.944
| 35> C  -20.329   28.222   47.341
| 36> C  -20.110   27.022   48.296
| 37> O  -20.473   25.807   47.535
| 38> H  -20.833   25.428   45.533
| 39> H  -19.344   27.382   45.576
| 40> H  -20.898   28.157   45.201
| 41> H  -19.543   28.978   47.434
| 42> H  -21.289   28.710   47.548
| 43> H  -20.733   27.082   49.195
| 44> H  -19.064   26.913   48.597
| 45> C  -23.309   26.834   45.072
| 46> H  -23.809   27.795   45.242
| 47> H  -22.585   26.963   44.257
| 48> O  -22.586   26.394   46.375
| 49> C  -24.374   25.806   44.600
| 50> C  -25.520   25.689   45.611
| 51> C  -26.361   26.944   45.279
| 52> C  -26.206   27.075   43.743
| 53> O  -25.024   26.270   43.370
| 54> H  -23.880   24.861   44.365
| 55> O  -26.337   24.395   45.342
| 56> H  -25.177   25.669   46.651
| 57> H  -27.407   26.848   45.587
| 58> H  -25.942   27.822   45.787
| 59> H  -26.050   28.111   43.424
| 60> H  -27.061   26.664   43.201
| 61> H  -26.692   24.392   44.305
| 62> *
| 63>
| 64>                          ****END OF INPUT****
 Total Charge           Charge          ....    0
 Multiplicity           Mult            ....    1
 Number of Electrons    NEL             ....  102
FINAL SINGLE POINT ENERGY      -652.834517225304
FINAL SINGLE POINT ENERGY      -652.856847370899
FINAL SINGLE POINT ENERGY      -652.860106513004
FINAL SINGLE POINT ENERGY      -652.860660492689
FINAL SINGLE POINT ENERGY      -652.860748745339
FINAL SINGLE POINT ENERGY      -652.860759565853
FINAL SINGLE POINT ENERGY      -652.860762175258
                    ***********************HURRAY********************

CARTESIAN COORDINATES (ANGSTROEM)
---------------------------------
  C    -21.130214   26.227182   46.150081
  C    -20.348410   27.516552   45.908270
  C    -20.396892   28.189823   47.302707
  C    -20.328927   26.986079   48.264186
  O    -20.700688   25.800367   47.446673
  H    -20.926935   25.414040   45.446321
  H    -19.318201   27.262066   45.632778
  H    -20.766255   28.143908   45.116220
  H    -19.574240   28.894611   47.455615
  H    -21.341636   28.728330   47.423288
  H    -21.025452   27.061163   49.102515
  H    -19.320347   26.798074   48.643240
  C    -23.239011   26.911699   45.013651
  H    -23.681176   27.896441   45.204218
  H    -22.539561   27.011720   44.174481
  O    -22.571257   26.463760   46.230318
  C    -24.310335   25.888791   44.632915
  C    -25.438574   25.720703   45.660660
  C    -26.339164   26.939202   45.338082
  C    -26.212393   27.079382   43.801137
  O    -24.994657   26.323649   43.408406
  H    -23.837718   24.926506   44.415498
  O    -26.142595   24.463979   45.453197
  H    -25.075976   25.693495   46.686575
  H    -27.365544   26.757894   45.666180
  H    -25.968813   27.833043   45.851958
  H    -26.106109   28.118229   43.474181
  H    -27.054803   26.630387   43.266100
  H    -26.289115   24.331926   44.492548

 Multiplicity           Mult            ....    1
 Number of Electrons    NEL             ....  102
 Basis Dimension        Dim             ....  149

ORBITAL ENERGIES
----------------

  NO   OCC          E(Eh)            E(eV)
   0   2.0000     -19.145111      -520.9650
   1   2.0000     -19.143580      -520.9233
   2   2.0000     -19.143231      -520.9138
   3   2.0000     -19.133006      -520.6356
   4   2.0000     -10.283191      -279.8199
   5   2.0000     -10.233731      -278.4740
   6   2.0000     -10.233444      -278.4662
   7   2.0000     -10.232042      -278.4280
   8   2.0000     -10.231598      -278.4159
   9   2.0000     -10.227385      -278.3013
  10   2.0000     -10.191029      -277.3120
  11   2.0000     -10.190188      -277.2891
  12   2.0000     -10.186337      -277.1843
  13   2.0000      -1.055823       -28.7304
  14   2.0000      -1.034915       -28.1615
  15   2.0000      -1.002536       -27.2804
  16   2.0000      -0.996217       -27.1085
  17   2.0000      -0.790144       -21.5009
  18   2.0000      -0.778922       -21.1956
  19   2.0000      -0.767672       -20.8894
  20   2.0000      -0.733112       -19.9490
  21   2.0000      -0.677432       -18.4339
  22   2.0000      -0.604645       -16.4532
  23   2.0000      -0.602453       -16.3936
  24   2.0000      -0.596806       -16.2399
  25   2.0000      -0.576407       -15.6848
  26   2.0000      -0.521341       -14.1864
  27   2.0000      -0.518713       -14.1149
  28   2.0000      -0.498351       -13.5608
  29   2.0000      -0.492696       -13.4069
  30   2.0000      -0.471430       -12.8283
  31   2.0000      -0.458192       -12.4680
  32   2.0000      -0.454950       -12.3798
  33   2.0000      -0.440310       -11.9814
  34   2.0000      -0.425651       -11.5826
  35   2.0000      -0.411939       -11.2094
  36   2.0000      -0.404859       -11.0168
  37   2.0000      -0.391023       -10.6403
  38   2.0000      -0.378899       -10.3104
  39   2.0000      -0.367318        -9.9952
  40   2.0000      -0.361001        -9.8233
  41   2.0000      -0.359048        -9.7702
  42   2.0000      -0.355744        -9.6803
  43   2.0000      -0.331532        -9.0215
  44   2.0000      -0.316681        -8.6173
  45   2.0000      -0.309319        -8.4170
  46   2.0000      -0.300452        -8.1757
  47   2.0000      -0.274878        -7.4798
  48   2.0000      -0.260917        -7.0999
  49   2.0000      -0.259454        -7.0601
  50   2.0000      -0.241296        -6.5660
  51   0.0000       0.065320         1.7774
  52   0.0000       0.072289         1.9671
  53   0.0000       0.095517         2.5992
  54   0.0000       0.099729         2.7138
  55   0.0000       0.102871         2.7993

MULLIKEN ATOMIC CHARGES
-----------------------
   0 C :    0.302413
   1 C :   -0.278986
   2 C :   -0.297874
   3 C :   -0.001249
   4 O :   -0.500077
   5 H :    0.145874
   6 H :    0.149016
   7 H :    0.145555
   8 H :    0.143791
   9 H :    0.157196
  10 H :    0.155793
  11 H :    0.143702
  12 C :   -0.027771
  13 H :    0.137948
  14 H :    0.144465
  15 O :   -0.515138
  16 C :    0.061539
  17 C :    0.093532
  18 C :   -0.297824
  19 C :   -0.030017
  20 O :   -0.529516
  21 H :    0.160598
  22 O :   -0.603314
  23 H :    0.182104
  24 H :    0.161722
  25 H :    0.144470
  26 H :    0.143717
  27 H :    0.147054
  28 H :    0.361277
Sum of atomic charges:   -0.0000000

LOEWDIN ATOMIC CHARGES
----------------------
   0 C :    0.182450
   1 C :   -0.232904
   2 C :   -0.216460
   3 C :   -0.024487
   4 O :   -0.300357
   5 H :    0.099060
   6 H :    0.116562
   7 H :    0.114649
   8 H :    0.115215
   9 H :    0.116333
  10 H :    0.110345
  11 H :    0.103627
  12 C :   -0.045626
  13 H :    0.100701
  14 H :    0.105096
  15 O :   -0.340529
  16 C :    0.012298
  17 C :    0.039346
  18 C :   -0.241088
  19 C :   -0.038225
  20 O :   -0.334560
  21 H :    0.116030
  22 O :   -0.414614
  23 H :    0.130904
  24 H :    0.126733
  25 H :    0.113281
  26 H :    0.102663
  27 H :    0.102892
  28 H :    0.280665

  Mayer bond orders larger than 0.100000
B(  0-C ,  1-C ) :   0.9290 B(  0-C ,  4-O ) :   0.9443 B(  0-C ,  5-H ) :   0.9209
B(  0-C , 15-O ) :   0.8258 B(  1-C ,  2-C ) :   0.9504 B(  1-C ,  6-H ) :   0.9336
B(  1-C ,  7-H ) :   0.9320 B(  2-C ,  3-C ) :   0.9561 B(  2-C ,  8-H ) :   0.9449
B(  2-C ,  9-H ) :   0.9454 B(  3-C ,  4-O ) :   0.8333 B(  3-C , 10-H ) :   0.9344
B(  3-C , 11-H ) :   0.9397 B( 12-C , 13-H ) :   0.9314 B( 12-C , 14-H ) :   0.9171
B( 12-C , 15-O ) :   0.8342 B( 12-C , 16-C ) :   0.8869 B( 16-C , 17-C ) :   0.9161
B( 16-C , 20-O ) :   0.8397 B( 16-C , 21-H ) :   0.9278 B( 17-C , 18-C ) :   0.9117
B( 17-C , 22-O ) :   0.8890 B( 17-C , 23-H ) :   0.9225 B( 18-C , 19-C ) :   0.9395
B( 18-C , 24-H ) :   0.9381 B( 18-C , 25-H ) :   0.9349 B( 19-C , 20-O ) :   0.8441
B( 19-C , 26-H ) :   0.9363 B( 19-C , 27-H ) :   0.9379 B( 22-O , 28-H ) :   0.7964

FINAL SINGLE POINT ENERGY      -652.860762673732

DIPOLE MOMENT
-------------
                                X             Y             Z
Electronic contribution:     -1.48741      -5.75703      -0.72201
Nuclear contribution   :      1.88635       7.31963       0.31921
                        -----------------------------------------
Total Dipole Moment    :      0.39894       1.56260      -0.40280
                        -----------------------------------------
Magnitude (a.u.)       :      1.66226
Magnitude (Debye)      :      4.22514

Rotational constants in cm-1:     0.059683     0.011894     0.011211
Rotational constants in MHz :  1789.246581   356.579999   336.108419

                             ****ORCA TERMINATED NORMALLY****
TOTAL RUN TIME: 0 days 0 hours 19 minutes 30 seconds 362 msec
