                         Program Version 4.2.1 -  RELEASE  -
|  1> # Test redundant internal optimization
|  2> #
|  3> ! RKS B3LYP  Opt TightSCF SmallPrint
|  4>
|  5> %basis
|  6>         Basis "6-31G"
|  7> end
|  8>
|  9> %geom
| 10> Constraints
| 11> { D 4  0  19  14  315.0   C } # D for Dihedral angle
| 12> { D 0  19  14  12  90.0   C } # D for Dihedral angle
| 13> { D 0  4  3  2   C } # D for Dihedral angle
| 14> { D 4  3  2  1   C } # D for Dihedral angle
| 15> { D 3  2  1  0   C } # D for Dihedral angle
| 16> { D 2  1  0  4   C } # D for Dihedral angle
| 17> { D 1  0  4  3   C } # D for Dihedral angle
| 18> { D 14  15  16  17   C } # D for Dihedral angle
| 19> { D 15  16  17  12   C } # D for Dihedral angle
| 20> { D 16  17  12  14   C } # D for Dihedral angle
| 21> { D 17  12  14  15   C } # D for Dihedral angle
| 22> { D 12  14  15  16   C } # D for Dihedral angle
| 23> end
| 24> end
| 25>
| 26>
| 27> #%pal
| 28> #nprocs 8
| 29> #end
| 30>
| 31> * xyz 0 1
| 32> C  -21.048   26.222   46.251
| 33> C  -20.361   27.558   45.944
| 34> C  -20.329   28.222   47.341
| 35> C  -20.110   27.022   48.296
| 36> O  -20.473   25.807   47.535
| 37> H  -20.833   25.428   45.533
| 38> H  -19.344   27.382   45.576
| 39> H  -20.898   28.157   45.201
| 40> H  -19.543   28.978   47.434
| 41> H  -21.289   28.710   47.548
| 42> H  -20.733   27.082   49.195
| 43> H  -19.064   26.913   48.597
| 44> C  -23.193   25.640   48.569
| 45> H  -23.421   24.741   49.164
| 46> C  -23.132   25.318   47.072
| 47> C  -24.632   25.263   46.700
| 48> C  -25.259   26.353   47.604
| 49> O  -24.281   26.618   48.683
| 50> H  -22.295   26.114   48.968
| 51> O  -22.472   26.381   46.366
| 52> H  -22.606   24.381   46.855
| 53> H  -24.813   25.448   45.636
| 54> H  -25.045   24.276   46.943
| 55> H  -26.208   26.036   48.050
| 56> H  -25.415   27.297   47.074
| 57> *
| 58>
| 59>                          ****END OF INPUT****
 Total Charge           Charge          ....    0
 Multiplicity           Mult            ....    1
 Number of Electrons    NEL             ....   86
FINAL SINGLE POINT ENERGY      -538.432744502040
FINAL SINGLE POINT ENERGY      -538.436743551274
FINAL SINGLE POINT ENERGY      -538.437583393665
FINAL SINGLE POINT ENERGY      -538.437765081316
FINAL SINGLE POINT ENERGY      -538.437781970273
FINAL SINGLE POINT ENERGY      -538.437788081105
                    ***********************HURRAY********************

CARTESIAN COORDINATES (ANGSTROEM)
---------------------------------
  C    -21.003564   26.189850   46.292911
  C    -20.442378   27.567844   45.941296
  C    -20.373614   28.241035   47.329338
  C    -20.005864   27.076772   48.274669
  O    -20.329827   25.828685   47.524568
  H    -20.759816   25.384865   45.589972
  H    -19.444127   27.447806   45.505587
  H    -21.080776   28.102301   45.234776
  H    -19.641168   29.053176   47.368817
  H    -21.356543   28.645770   47.587674
  H    -20.571712   27.090405   49.209758
  H    -18.936944   27.029097   48.501661
  C    -23.273642   25.546627   48.630454
  H    -23.602076   24.641719   49.165199
  C    -23.141365   25.248182   47.138402
  C    -24.608526   25.308550   46.676986
  C    -25.216539   26.423345   47.561184
  O    -24.292017   26.596806   48.702325
  H    -22.365102   25.926416   49.089509
  O    -22.438451   26.302314   46.408196
  H    -22.666299   24.278152   46.944203
  H    -24.673940   25.526608   45.608721
  H    -25.093295   24.343871   46.868202
  H    -26.210945   26.163711   47.940514
  H    -25.268471   27.383095   47.040078

 Multiplicity           Mult            ....    1
 Number of Electrons    NEL             ....   86
 Basis Dimension        Dim             ....  127

ORBITAL ENERGIES
----------------

  NO   OCC          E(Eh)            E(eV)
   0   2.0000     -19.145016      -520.9624
   1   2.0000     -19.141319      -520.8618
   2   2.0000     -19.123893      -520.3876
   3   2.0000     -10.278106      -279.6815
   4   2.0000     -10.236715      -278.5552
   5   2.0000     -10.226702      -278.2827
   6   2.0000     -10.216381      -278.0019
   7   2.0000     -10.215256      -277.9712
   8   2.0000     -10.184525      -277.1350
   9   2.0000     -10.183880      -277.1175
  10   2.0000     -10.182011      -277.0666
  11   2.0000      -1.054209       -28.6865
  12   2.0000      -1.010512       -27.4974
  13   2.0000      -0.989039       -26.9131
  14   2.0000      -0.792539       -21.5661
  15   2.0000      -0.775245       -21.0955
  16   2.0000      -0.736147       -20.0316
  17   2.0000      -0.719061       -19.5666
  18   2.0000      -0.611198       -16.6315
  19   2.0000      -0.598266       -16.2796
  20   2.0000      -0.591506       -16.0957
  21   2.0000      -0.570378       -15.5208
  22   2.0000      -0.515251       -14.0207
  23   2.0000      -0.503424       -13.6989
  24   2.0000      -0.483393       -13.1538
  25   2.0000      -0.479265       -13.0415
  26   2.0000      -0.451251       -12.2792
  27   2.0000      -0.442438       -12.0393
  28   2.0000      -0.423686       -11.5291
  29   2.0000      -0.409891       -11.1537
  30   2.0000      -0.406851       -11.0710
  31   2.0000      -0.382641       -10.4122
  32   2.0000      -0.366727        -9.9791
  33   2.0000      -0.364530        -9.9194
  34   2.0000      -0.357531        -9.7289
  35   2.0000      -0.351638        -9.5686
  36   2.0000      -0.341107        -9.2820
  37   2.0000      -0.328591        -8.9414
  38   2.0000      -0.303233        -8.2514
  39   2.0000      -0.298029        -8.1098
  40   2.0000      -0.263645        -7.1741
  41   2.0000      -0.255782        -6.9602
  42   2.0000      -0.230666        -6.2767
  43   0.0000       0.081709         2.2234
  44   0.0000       0.092681         2.5220
  45   0.0000       0.102185         2.7806
  46   0.0000       0.113576         3.0906
  47   0.0000       0.120822         3.2877

MULLIKEN ATOMIC CHARGES
-----------------------
   0 C :    0.296446
   1 C :   -0.263947
   2 C :   -0.300741
   3 C :   -0.016503
   4 O :   -0.518424
   5 H :    0.144391
   6 H :    0.144371
   7 H :    0.160442
   8 H :    0.142149
   9 H :    0.172302
  10 H :    0.148333
  11 H :    0.146689
  12 C :    0.001051
  13 H :    0.121562
  14 C :    0.078719
  15 C :   -0.295334
  16 C :    0.008761
  17 O :   -0.525537
  18 H :    0.167313
  19 O :   -0.526330
  20 H :    0.131774
  21 H :    0.161310
  22 H :    0.139663
  23 H :    0.132106
  24 H :    0.149434
Sum of atomic charges:   -0.0000000

LOEWDIN ATOMIC CHARGES
----------------------
   0 C :    0.175236
   1 C :   -0.214401
   2 C :   -0.216728
   3 C :   -0.031251
   4 O :   -0.332210
   5 H :    0.094413
   6 H :    0.113838
   7 H :    0.126100
   8 H :    0.114599
   9 H :    0.124073
  10 H :    0.103032
  11 H :    0.104573
  12 C :   -0.042390
  13 H :    0.091083
  14 C :    0.042201
  15 C :   -0.225801
  16 C :   -0.026415
  17 O :   -0.334526
  18 H :    0.119739
  19 O :   -0.326967
  20 H :    0.100941
  21 H :    0.126866
  22 H :    0.111342
  23 H :    0.096422
  24 H :    0.106230

  Mayer bond orders larger than 0.100000
B(  0-C ,  1-C ) :   0.9480 B(  0-C ,  4-O ) :   0.8943 B(  0-C ,  5-H ) :   0.9219
B(  0-C , 19-O ) :   0.8634 B(  1-C ,  2-C ) :   0.9557 B(  1-C ,  6-H ) :   0.9390
B(  1-C ,  7-H ) :   0.9357 B(  2-C ,  3-C ) :   0.9561 B(  2-C ,  8-H ) :   0.9446
B(  2-C ,  9-H ) :   0.9413 B(  3-C ,  4-O ) :   0.8329 B(  3-C , 10-H ) :   0.9263
B(  3-C , 11-H ) :   0.9410 B( 12-C , 13-H ) :   0.9118 B( 12-C , 14-C ) :   0.9176
B( 12-C , 17-O ) :   0.8695 B( 12-C , 18-H ) :   0.9224 B( 14-C , 15-C ) :   0.9563
B( 14-C , 19-O ) :   0.8184 B( 14-C , 20-H ) :   0.9213 B( 15-C , 16-C ) :   0.9461
B( 15-C , 21-H ) :   0.9375 B( 15-C , 22-H ) :   0.9431 B( 16-C , 17-O ) :   0.8539
B( 16-C , 23-H ) :   0.9335 B( 16-C , 24-H ) :   0.9374

FINAL SINGLE POINT ENERGY      -538.437788246847

DIPOLE MOMENT
-------------
                                X             Y             Z
Electronic contribution:     -0.05427      -1.54796       0.33594
Nuclear contribution   :      0.32826       1.43032      -0.87960
                        -----------------------------------------
Total Dipole Moment    :      0.27398      -0.11763      -0.54366
                        -----------------------------------------
Magnitude (a.u.)       :      0.62006
Magnitude (Debye)      :      1.57606

Rotational constants in cm-1:     0.071697     0.024009     0.022722
Rotational constants in MHz :  2149.407661   719.775008   681.178402

                             ****ORCA TERMINATED NORMALLY****
TOTAL RUN TIME: 0 days 0 hours 7 minutes 0 seconds 372 msec
