                         Program Version 4.2.0 -  RELEASE  -
|  1> # Test redundant internal optimization
|  2> #
|  3> ! RKS B3LYP  Opt TightSCF SmallPrint
|  4>
|  5> %basis
|  6>         Basis "6-31G"
|  7> end
|  8>
|  9> %geom
| 10> Constraints
| 11> { D 4  0  15  12  0.0   C } # D for Dihedral angle
| 12> { D 0  15  12  16  150.0   C } # D for Dihedral angle
| 13> { D 0  4  3  2   C } # D for Dihedral angle
| 14> { D 4  3  2  1   C } # D for Dihedral angle
| 15> { D 3  2  1  0   C } # D for Dihedral angle
| 16> { D 2  1  0  4   C } # D for Dihedral angle
| 17> { D 1  0  4  3   C } # D for Dihedral angle
| 18> { D 16  20  19  18   C } # D for Dihedral angle
| 19> { D 20  19  18  17   C } # D for Dihedral angle
| 20> { D 19  18  17  16   C } # D for Dihedral angle
| 21> { D 18  17  16  20   C } # D for Dihedral angle
| 22> { D 17  16  20  19   C } # D for Dihedral angle
| 23> { D 15  12  16  20   C } # D for Dihedral angle
| 24> end
| 25> end
| 26>
| 27>
| 28> #%pal
| 29> #nprocs 8
| 30> #end
| 31>
| 32> * xyz 0 1
| 33> C  -21.048   26.222   46.251
| 34> C  -20.361   27.558   45.944
| 35> C  -20.329   28.222   47.341
| 36> C  -20.110   27.022   48.296
| 37> O  -20.473   25.807   47.535
| 38> H  -20.833   25.428   45.533
| 39> H  -19.344   27.382   45.576
| 40> H  -20.898   28.157   45.201
| 41> H  -19.543   28.978   47.434
| 42> H  -21.289   28.710   47.548
| 43> H  -20.733   27.082   49.195
| 44> H  -19.064   26.913   48.597
| 45> C  -23.172   26.101   47.783
| 46> H  -23.432   25.037   47.853
| 47> H  -22.431   26.324   48.562
| 48> O  -22.586   26.394   46.375
| 49> C  -24.445   26.937   48.090
| 50> C  -24.180   28.437   47.924
| 51> C  -24.256   28.601   46.387
| 52> C  -25.353   27.586   45.979
| 53> O  -25.498   26.645   47.111
| 54> H  -24.832   26.652   49.070
| 55> H  -24.971   29.015   48.413
| 56> O  -22.813   28.884   48.509
| 57> H  -24.498   29.623   46.079
| 58> H  -23.294   28.333   45.932
| 59> H  -25.091   27.024   45.076
| 60> H  -26.327   28.061   45.829
| 61> H  -22.005   28.318   48.033
| 62> *
| 63>
| 64>                          ****END OF INPUT****
 Total Charge           Charge          ....    0
 Multiplicity           Mult            ....    1
 Number of Electrons    NEL             ....  102
FINAL SINGLE POINT ENERGY      -652.786398348400
FINAL SINGLE POINT ENERGY      -652.829321382612
FINAL SINGLE POINT ENERGY      -652.848228293650
FINAL SINGLE POINT ENERGY      -652.852261290188
FINAL SINGLE POINT ENERGY      -652.852791125627
FINAL SINGLE POINT ENERGY      -652.852950093205
FINAL SINGLE POINT ENERGY      -652.852979157642
FINAL SINGLE POINT ENERGY      -652.852990219558
FINAL SINGLE POINT ENERGY      -652.852993696237
FINAL SINGLE POINT ENERGY      -652.852994972780
                    ***********************HURRAY********************

CARTESIAN COORDINATES (ANGSTROEM)
---------------------------------
  C    -21.072056   26.186492   46.391940
  C    -20.369175   27.462508   45.921601
  C    -20.120904   28.202014   47.260641
  C    -19.836298   27.047196   48.249134
  O    -20.365360   25.816659   47.594704
  H    -20.928088   25.348571   45.703383
  H    -19.422520   27.181699   45.448199
  H    -20.966588   28.036635   45.210190
  H    -19.279129   28.898960   47.201720
  H    -20.998846   28.791045   47.537738
  H    -20.319986   27.168422   49.224124
  H    -18.767089   26.881696   48.404643
  C    -23.179885   26.073105   47.813339
  H    -23.471081   25.017372   47.864541
  H    -22.494635   26.260564   48.649252
  O    -22.519184   26.312011   46.530439
  C    -24.453636   26.909084   47.971053
  C    -24.340857   28.440666   47.930919
  C    -24.366493   28.724748   46.398572
  C    -25.329285   27.641110   45.870013
  O    -25.419613   26.600180   46.926559
  H    -24.905828   26.579766   48.915822
  H    -25.230160   28.869875   48.399328
  O    -23.237351   29.004963   48.676864
  H    -24.709196   29.739836   46.178344
  H    -23.363974   28.588234   45.989113
  H    -24.969009   27.171569   44.951391
  H    -26.343733   28.019595   45.712109
  H    -22.429044   28.478426   48.530328

 Multiplicity           Mult            ....    1
 Number of Electrons    NEL             ....  102
 Basis Dimension        Dim             ....  149

ORBITAL ENERGIES
----------------

  NO   OCC          E(Eh)            E(eV)
   0   2.0000     -19.160781      -521.3914
   1   2.0000     -19.147238      -521.0228
   2   2.0000     -19.146492      -521.0025
   3   2.0000     -19.131461      -520.5935
   4   2.0000     -10.288173      -279.9554
   5   2.0000     -10.244517      -278.7675
   6   2.0000     -10.238441      -278.6021
   7   2.0000     -10.233508      -278.4679
   8   2.0000     -10.233147      -278.4581
   9   2.0000     -10.218822      -278.0683
  10   2.0000     -10.204030      -277.6658
  11   2.0000     -10.197980      -277.5011
  12   2.0000     -10.176785      -276.9244
  13   2.0000      -1.062619       -28.9153
  14   2.0000      -1.031313       -28.0635
  15   2.0000      -1.013159       -27.5695
  16   2.0000      -0.997590       -27.1458
  17   2.0000      -0.802414       -21.8348
  18   2.0000      -0.775399       -21.0997
  19   2.0000      -0.768418       -20.9097
  20   2.0000      -0.741072       -20.1656
  21   2.0000      -0.680982       -18.5305
  22   2.0000      -0.616623       -16.7792
  23   2.0000      -0.605263       -16.4700
  24   2.0000      -0.598111       -16.2754
  25   2.0000      -0.569775       -15.5044
  26   2.0000      -0.526226       -14.3193
  27   2.0000      -0.522576       -14.2200
  28   2.0000      -0.509562       -13.8659
  29   2.0000      -0.494505       -13.4562
  30   2.0000      -0.475440       -12.9374
  31   2.0000      -0.461401       -12.5554
  32   2.0000      -0.444521       -12.0960
  33   2.0000      -0.429822       -11.6960
  34   2.0000      -0.425715       -11.5843
  35   2.0000      -0.415611       -11.3094
  36   2.0000      -0.407041       -11.0761
  37   2.0000      -0.398029       -10.8309
  38   2.0000      -0.384470       -10.4620
  39   2.0000      -0.375138       -10.2080
  40   2.0000      -0.373632       -10.1670
  41   2.0000      -0.360427        -9.8077
  42   2.0000      -0.352194        -9.5837
  43   2.0000      -0.343045        -9.3347
  44   2.0000      -0.330275        -8.9872
  45   2.0000      -0.313755        -8.5377
  46   2.0000      -0.300648        -8.1810
  47   2.0000      -0.275978        -7.5098
  48   2.0000      -0.265847        -7.2341
  49   2.0000      -0.255372        -6.9490
  50   2.0000      -0.236751        -6.4423
  51   0.0000       0.040064         1.0902
  52   0.0000       0.078755         2.1430
  53   0.0000       0.087064         2.3691
  54   0.0000       0.095018         2.5856
  55   0.0000       0.097163         2.6439

MULLIKEN ATOMIC CHARGES
-----------------------
   0 C :    0.309944
   1 C :   -0.266489
   2 C :   -0.328491
   3 C :   -0.030055
   4 O :   -0.507721
   5 H :    0.161820
   6 H :    0.154952
   7 H :    0.162480
   8 H :    0.157806
   9 H :    0.147422
  10 H :    0.146621
  11 H :    0.161007
  12 C :   -0.005583
  13 H :    0.161155
  14 H :    0.131020
  15 O :   -0.546373
  16 C :    0.074546
  17 C :    0.082961
  18 C :   -0.296145
  19 C :    0.001008
  20 O :   -0.518999
  21 H :    0.148393
  22 H :    0.161016
  23 O :   -0.614479
  24 H :    0.138118
  25 H :    0.157965
  26 H :    0.148832
  27 H :    0.138755
  28 H :    0.368513
Sum of atomic charges:   -0.0000000

LOEWDIN ATOMIC CHARGES
----------------------
   0 C :    0.183831
   1 C :   -0.220455
   2 C :   -0.226781
   3 C :   -0.037309
   4 O :   -0.316366
   5 H :    0.104742
   6 H :    0.120290
   7 H :    0.124836
   8 H :    0.123390
   9 H :    0.108360
  10 H :    0.100743
  11 H :    0.112504
  12 C :   -0.041897
  13 H :    0.114490
  14 H :    0.098190
  15 O :   -0.345998
  16 C :    0.014550
  17 C :    0.038557
  18 C :   -0.238075
  19 C :   -0.022949
  20 O :   -0.321747
  21 H :    0.113679
  22 H :    0.115400
  23 O :   -0.409539
  24 H :    0.112874
  25 H :    0.116615
  26 H :    0.107402
  27 H :    0.099932
  28 H :    0.270731

  Mayer bond orders larger than 0.100000
B(  0-C ,  1-C ) :   0.9247 B(  0-C ,  4-O ) :   0.9066 B(  0-C ,  5-H ) :   0.9295
B(  0-C , 15-O ) :   0.8487 B(  1-C ,  2-C ) :   0.9510 B(  1-C ,  6-H ) :   0.9345
B(  1-C ,  7-H ) :   0.9332 B(  2-C ,  3-C ) :   0.9481 B(  2-C ,  8-H ) :   0.9422
B(  2-C ,  9-H ) :   0.9122 B(  3-C ,  4-O ) :   0.8324 B(  3-C , 10-H ) :   0.9284
B(  3-C , 11-H ) :   0.9382 B( 12-C , 13-H ) :   0.9225 B( 12-C , 14-H ) :   0.8981
B( 12-C , 15-O ) :   0.8297 B( 12-C , 16-C ) :   0.9112 B( 16-C , 17-C ) :   0.8986
B( 16-C , 20-O ) :   0.8755 B( 16-C , 21-H ) :   0.9244 B( 17-C , 18-C ) :   0.9180
B( 17-C , 22-H ) :   0.9340 B( 17-C , 23-O ) :   0.9001 B( 18-C , 19-C ) :   0.9421
B( 18-C , 24-H ) :   0.9439 B( 18-C , 25-H ) :   0.9306 B( 19-C , 20-O ) :   0.8349
B( 19-C , 26-H ) :   0.9326 B( 19-C , 27-H ) :   0.9378 B( 23-O , 28-H ) :   0.7563

FINAL SINGLE POINT ENERGY      -652.852995332148

DIPOLE MOMENT
-------------
                                X             Y             Z
Electronic contribution:     -2.66169      -3.93547       1.06448
Nuclear contribution   :      3.69998       4.53640      -1.31837
                        -----------------------------------------
Total Dipole Moment    :      1.03829       0.60093      -0.25388
                        -----------------------------------------
Magnitude (a.u.)       :      1.22622
Magnitude (Debye)      :      3.11681

Rotational constants in cm-1:     0.045374     0.018130     0.016881
Rotational constants in MHz :  1360.266441   543.532025   506.068132

                             ****ORCA TERMINATED NORMALLY****
TOTAL RUN TIME: 0 days 0 hours 39 minutes 19 seconds 655 msec
