                         Program Version 4.2.0 -  RELEASE  -
|  1> # Test redundant internal optimization
|  2> #
|  3> ! RKS B3LYP  Opt TightSCF SmallPrint
|  4>
|  5> %basis
|  6>         Basis "6-31G"
|  7> end
|  8>
|  9> %geom
| 10> Constraints
| 11> { D 4  0  15  12  15.0   C } # D for Dihedral angle
| 12> { D 0  15  12  16  240.0   C } # D for Dihedral angle
| 13> { D 0  4  3  2   C } # D for Dihedral angle
| 14> { D 4  3  2  1   C } # D for Dihedral angle
| 15> { D 3  2  1  0   C } # D for Dihedral angle
| 16> { D 2  1  0  4   C } # D for Dihedral angle
| 17> { D 1  0  4  3   C } # D for Dihedral angle
| 18> { D 16  20  19  18   C } # D for Dihedral angle
| 19> { D 20  19  18  17   C } # D for Dihedral angle
| 20> { D 19  18  17  16   C } # D for Dihedral angle
| 21> { D 18  17  16  20   C } # D for Dihedral angle
| 22> { D 17  16  20  19   C } # D for Dihedral angle
| 23> { D 15  12  16  20   C } # D for Dihedral angle
| 24> end
| 25> end
| 26>
| 27>
| 28> #%pal
| 29> #nprocs 8
| 30> #end
| 31>
| 32> * xyz 0 1
| 33> C  -21.048   26.222   46.251
| 34> C  -20.361   27.558   45.944
| 35> C  -20.329   28.222   47.341
| 36> C  -20.110   27.022   48.296
| 37> O  -20.473   25.807   47.535
| 38> H  -20.833   25.428   45.533
| 39> H  -19.344   27.382   45.576
| 40> H  -20.898   28.157   45.201
| 41> H  -19.543   28.978   47.434
| 42> H  -21.289   28.710   47.548
| 43> H  -20.733   27.082   49.195
| 44> H  -19.064   26.913   48.597
| 45> C  -23.128   26.462   47.829
| 46> H  -22.289   26.382   48.532
| 47> H  -23.633   27.421   48.006
| 48> O  -22.586   26.394   46.375
| 49> C  -24.142   25.328   48.146
| 50> C  -23.471   23.951   48.089
| 51> C  -22.748   23.897   49.456
| 52> C  -23.719   24.653   50.397
| 53> O  -24.620   25.440   49.528
| 54> H  -25.012   25.435   47.497
| 55> H  -24.233   23.165   48.023
| 56> O  -22.501   23.794   46.886
| 57> H  -22.552   22.874   49.792
| 58> H  -21.786   24.418   49.392
| 59> H  -23.197   25.330   51.081
| 60> H  -24.346   23.974   50.982
| 61> H  -21.730   24.571   46.932
| 62> *
| 63>
| 64>                          ****END OF INPUT****
 Total Charge           Charge          ....    0
 Multiplicity           Mult            ....    1
 Number of Electrons    NEL             ....  102
FINAL SINGLE POINT ENERGY      -652.814861354783
FINAL SINGLE POINT ENERGY      -652.844138793872
FINAL SINGLE POINT ENERGY      -652.854993994910
FINAL SINGLE POINT ENERGY      -652.857437962349
FINAL SINGLE POINT ENERGY      -652.857904064815
FINAL SINGLE POINT ENERGY      -652.857976367168
FINAL SINGLE POINT ENERGY      -652.857993502622
FINAL SINGLE POINT ENERGY      -652.857995899056
                    ***********************HURRAY********************

CARTESIAN COORDINATES (ANGSTROEM)
---------------------------------
  C    -21.090132   26.319405   46.346643
  C    -20.454390   27.649188   45.928764
  C    -20.217244   28.332139   47.299496
  C    -19.862526   27.145016   48.226494
  O    -20.344310   25.922228   47.522819
  H    -20.968610   25.519340   45.612821
  H    -19.505445   27.452215   45.416844
  H    -21.108604   28.219613   45.266715
  H    -19.418352   29.078907   47.267568
  H    -21.132487   28.830548   47.635736
  H    -20.341003   27.201284   49.207850
  H    -18.784402   27.018216   48.358788
  C    -23.119634   26.482715   47.880198
  H    -22.355779   26.456138   48.662850
  H    -23.674743   27.422645   47.965669
  O    -22.512987   26.431078   46.557455
  C    -24.093627   25.312389   48.079592
  C    -23.466323   23.902051   48.065362
  C    -22.839901   23.810556   49.498801
  C    -23.856249   24.598518   50.353559
  O    -24.663390   25.425623   49.421770
  H    -24.919846   25.394444   47.369488
  H    -24.271653   23.170471   47.957683
  O    -22.525692   23.575136   47.023715
  H    -22.719256   22.774706   49.825127
  H    -21.852942   24.286796   49.487012
  H    -23.382097   25.256708   51.089375
  H    -24.555717   23.938927   50.876288
  H    -21.680658   24.043001   47.189518

 Multiplicity           Mult            ....    1
 Number of Electrons    NEL             ....  102
 Basis Dimension        Dim             ....  149

ORBITAL ENERGIES
----------------

  NO   OCC          E(Eh)            E(eV)
   0   2.0000     -19.166006      -521.5335
   1   2.0000     -19.139244      -520.8053
   2   2.0000     -19.136718      -520.7366
   3   2.0000     -19.127013      -520.4725
   4   2.0000     -10.287705      -279.9427
   5   2.0000     -10.244502      -278.7671
   6   2.0000     -10.231995      -278.4267
   7   2.0000     -10.228438      -278.3299
   8   2.0000     -10.226006      -278.2638
   9   2.0000     -10.224108      -278.2121
  10   2.0000     -10.199993      -277.5559
  11   2.0000     -10.192439      -277.3504
  12   2.0000     -10.183084      -277.0958
  13   2.0000      -1.065764       -29.0009
  14   2.0000      -1.024069       -27.8663
  15   2.0000      -1.003547       -27.3079
  16   2.0000      -0.998800       -27.1787
  17   2.0000      -0.798285       -21.7224
  18   2.0000      -0.773493       -21.0478
  19   2.0000      -0.766972       -20.8704
  20   2.0000      -0.735334       -20.0095
  21   2.0000      -0.677408       -18.4332
  22   2.0000      -0.612963       -16.6796
  23   2.0000      -0.606023       -16.4907
  24   2.0000      -0.596163       -16.2224
  25   2.0000      -0.567617       -15.4456
  26   2.0000      -0.525120       -14.2892
  27   2.0000      -0.519091       -14.1252
  28   2.0000      -0.504614       -13.7312
  29   2.0000      -0.489511       -13.3203
  30   2.0000      -0.474382       -12.9086
  31   2.0000      -0.460013       -12.5176
  32   2.0000      -0.443313       -12.0632
  33   2.0000      -0.429764       -11.6945
  34   2.0000      -0.423681       -11.5289
  35   2.0000      -0.413611       -11.2549
  36   2.0000      -0.408358       -11.1120
  37   2.0000      -0.401441       -10.9238
  38   2.0000      -0.382269       -10.4021
  39   2.0000      -0.369431       -10.0527
  40   2.0000      -0.363619        -9.8946
  41   2.0000      -0.357981        -9.7412
  42   2.0000      -0.350704        -9.5431
  43   2.0000      -0.338967        -9.2238
  44   2.0000      -0.323325        -8.7981
  45   2.0000      -0.313112        -8.5202
  46   2.0000      -0.300879        -8.1873
  47   2.0000      -0.277551        -7.5525
  48   2.0000      -0.262086        -7.1317
  49   2.0000      -0.254856        -6.9350
  50   2.0000      -0.228432        -6.2160
  51   0.0000       0.058380         1.5886
  52   0.0000       0.075922         2.0659
  53   0.0000       0.087164         2.3719
  54   0.0000       0.095032         2.5859
  55   0.0000       0.100954         2.7471

MULLIKEN ATOMIC CHARGES
-----------------------
   0 C :    0.284632
   1 C :   -0.255358
   2 C :   -0.311236
   3 C :   -0.021898
   4 O :   -0.536527
   5 H :    0.171973
   6 H :    0.147356
   7 H :    0.165648
   8 H :    0.152569
   9 H :    0.158922
  10 H :    0.148847
  11 H :    0.157464
  12 C :   -0.022713
  13 H :    0.139454
  14 H :    0.152655
  15 O :   -0.531752
  16 C :    0.084326
  17 C :    0.102519
  18 C :   -0.336560
  19 C :   -0.009179
  20 O :   -0.523374
  21 H :    0.160926
  22 H :    0.160010
  23 O :   -0.609597
  24 H :    0.153720
  25 H :    0.152599
  26 H :    0.135020
  27 H :    0.147900
  28 H :    0.381650
Sum of atomic charges:   -0.0000000

LOEWDIN ATOMIC CHARGES
----------------------
   0 C :    0.174237
   1 C :   -0.220358
   2 C :   -0.219666
   3 C :   -0.032785
   4 O :   -0.335349
   5 H :    0.110845
   6 H :    0.115509
   7 H :    0.128410
   8 H :    0.120270
   9 H :    0.116335
  10 H :    0.102964
  11 H :    0.109896
  12 C :   -0.044439
  13 H :    0.100136
  14 H :    0.109320
  15 O :   -0.334342
  16 C :    0.018531
  17 C :    0.039672
  18 C :   -0.246461
  19 C :   -0.031912
  20 O :   -0.324524
  21 H :    0.116450
  22 H :    0.114525
  23 O :   -0.406866
  24 H :    0.121556
  25 H :    0.112496
  26 H :    0.097891
  27 H :    0.105111
  28 H :    0.282549

  Mayer bond orders larger than 0.100000
B(  0-C ,  1-C ) :   0.9265 B(  0-C ,  4-O ) :   0.8722 B(  0-C ,  5-H ) :   0.9225
B(  0-C , 15-O ) :   0.8660 B(  1-C ,  2-C ) :   0.9508 B(  1-C ,  6-H ) :   0.9343
B(  1-C ,  7-H ) :   0.9364 B(  2-C ,  3-C ) :   0.9529 B(  2-C ,  8-H ) :   0.9440
B(  2-C ,  9-H ) :   0.9441 B(  3-C ,  4-O ) :   0.8171 B(  3-C , 10-H ) :   0.9302
B(  3-C , 11-H ) :   0.9399 B( 12-C , 13-H ) :   0.9140 B( 12-C , 14-H ) :   0.9318
B( 12-C , 15-O ) :   0.8217 B( 12-C , 16-C ) :   0.8996 B( 16-C , 17-C ) :   0.8834
B( 16-C , 20-O ) :   0.8381 B( 16-C , 21-H ) :   0.9324 B( 17-C , 18-C ) :   0.9203
B( 17-C , 22-H ) :   0.9342 B( 17-C , 23-O ) :   0.9274 B( 18-C , 19-C ) :   0.9399
B( 18-C , 24-H ) :   0.9423 B( 18-C , 25-H ) :   0.9351 B( 19-C , 20-O ) :   0.8386
B( 19-C , 26-H ) :   0.9346 B( 19-C , 27-H ) :   0.9389 B( 23-O , 28-H ) :   0.7619

FINAL SINGLE POINT ENERGY      -652.857996297132

DIPOLE MOMENT
-------------
                                X             Y             Z
Electronic contribution:     -3.46207      -2.91011      -2.55518
Nuclear contribution   :      4.69180       3.83587       3.19522
                        -----------------------------------------
Total Dipole Moment    :      1.22973       0.92576       0.64005
                        -----------------------------------------
Magnitude (a.u.)       :      1.66701
Magnitude (Debye)      :      4.23721

Rotational constants in cm-1:     0.048534     0.016621     0.016025
Rotational constants in MHz :  1455.011598   498.272914   480.421255

                             ****ORCA TERMINATED NORMALLY****
TOTAL RUN TIME: 0 days 0 hours 40 minutes 44 seconds 741 msec
