                         Program Version 4.2.0 -  RELEASE  -
|  1> # Test redundant internal optimization
|  2> #
|  3> ! RKS B3LYP  Opt TightSCF SmallPrint
|  4>
|  5> %basis
|  6>         Basis "6-31G"
|  7> end
|  8>
|  9> %geom
| 10> Constraints
| 11> { D 4  0  15  12  255.0   C } # D for Dihedral angle
| 12> { D 0  15  12  16  75.0   C } # D for Dihedral angle
| 13> { D 0  4  3  2   C } # D for Dihedral angle
| 14> { D 4  3  2  1   C } # D for Dihedral angle
| 15> { D 3  2  1  0   C } # D for Dihedral angle
| 16> { D 2  1  0  4   C } # D for Dihedral angle
| 17> { D 1  0  4  3   C } # D for Dihedral angle
| 18> { D 16  20  19  18   C } # D for Dihedral angle
| 19> { D 20  19  18  17   C } # D for Dihedral angle
| 20> { D 19  18  17  16   C } # D for Dihedral angle
| 21> { D 18  17  16  20   C } # D for Dihedral angle
| 22> { D 17  16  20  19   C } # D for Dihedral angle
| 23> { D 15  12  16  20   C } # D for Dihedral angle
| 24> end
| 25> end
| 26>
| 27>
| 28> #%pal
| 29> #nprocs 8
| 30> #end
| 31>
| 32> * xyz 0 1
| 33> C  -21.048   26.222   46.251
| 34> C  -20.361   27.558   45.944
| 35> C  -20.329   28.222   47.341
| 36> C  -20.110   27.022   48.296
| 37> O  -20.473   25.807   47.535
| 38> H  -20.833   25.428   45.533
| 39> H  -19.344   27.382   45.576
| 40> H  -20.898   28.157   45.201
| 41> H  -19.543   28.978   47.434
| 42> H  -21.289   28.710   47.548
| 43> H  -20.733   27.082   49.195
| 44> H  -19.064   26.913   48.597
| 45> C  -23.431   25.260   45.734
| 46> H  -24.469   25.598   45.626
| 47> H  -23.047   25.011   44.736
| 48> O  -22.586   26.394   46.375
| 49> C  -23.428   23.956   46.580
| 50> C  -24.173   22.825   45.863
| 51> C  -23.113   22.349   44.841
| 52> C  -21.780   22.525   45.611
| 53> O  -22.060   23.448   46.731
| 54> H  -23.800   24.179   47.582
| 55> H  -24.415   22.025   46.571
| 56> O  -25.491   23.295   45.187
| 57> H  -23.273   21.316   44.514
| 58> H  -23.133   22.989   43.951
| 59> H  -20.988   22.951   44.985
| 60> H  -21.422   21.587   46.046
| 61> H  -25.274   24.096   44.472
| 62> *
| 63>
| 64>                          ****END OF INPUT****
 Total Charge           Charge          ....    0
 Multiplicity           Mult            ....    1
 Number of Electrons    NEL             ....  102
FINAL SINGLE POINT ENERGY      -652.826421500475
FINAL SINGLE POINT ENERGY      -652.849959304448
FINAL SINGLE POINT ENERGY      -652.855040948981
FINAL SINGLE POINT ENERGY      -652.855796139429
FINAL SINGLE POINT ENERGY      -652.855928549867
FINAL SINGLE POINT ENERGY      -652.855962074696
FINAL SINGLE POINT ENERGY      -652.855965928701
                    ***********************HURRAY********************

CARTESIAN COORDINATES (ANGSTROEM)
---------------------------------
  C    -20.967829   26.227144   46.217509
  C    -20.410625   27.629433   45.972022
  C    -20.450572   28.243071   47.393098
  C    -20.125690   27.034461   48.297519
  O    -20.373637   25.828843   47.469639
  H    -20.696630   25.467088   45.481919
  H    -19.377983   27.550927   45.611302
  H    -21.001656   28.187794   45.243029
  H    -19.738782   29.064593   47.518950
  H    -21.456669   28.619966   47.599816
  H    -20.755907   26.984663   49.189083
  H    -19.073573   26.999321   48.597148
  C    -23.252291   25.320164   45.726549
  H    -24.252300   25.762703   45.695718
  H    -22.923187   25.130742   44.690265
  O    -22.411001   26.344958   46.311334
  C    -23.314286   24.009436   46.514427
  C    -24.186269   22.924534   45.859004
  C    -23.193634   22.289963   44.837914
  C    -21.843472   22.366093   45.583540
  O    -22.010054   23.369847   46.667829
  H    -23.644515   24.242574   47.530847
  H    -24.477753   22.191170   46.613450
  O    -25.437784   23.386198   45.294276
  H    -23.474945   21.269160   44.567638
  H    -23.180341   22.890823   43.918863
  H    -21.013996   22.670610   44.937203
  H    -21.581678   21.419395   46.064484
  H    -25.280941   23.859326   44.451626

 Multiplicity           Mult            ....    1
 Number of Electrons    NEL             ....  102
 Basis Dimension        Dim             ....  149

ORBITAL ENERGIES
----------------

  NO   OCC          E(Eh)            E(eV)
   0   2.0000     -19.150608      -521.1145
   1   2.0000     -19.136945      -520.7428
   2   2.0000     -19.136478      -520.7300
   3   2.0000     -19.125348      -520.4272
   4   2.0000     -10.269484      -279.4469
   5   2.0000     -10.245664      -278.7987
   6   2.0000     -10.231561      -278.4149
   7   2.0000     -10.230445      -278.3846
   8   2.0000     -10.227218      -278.2967
   9   2.0000     -10.213679      -277.9283
  10   2.0000     -10.196444      -277.4594
  11   2.0000     -10.176849      -276.9262
  12   2.0000     -10.176609      -276.9196
  13   2.0000      -1.043556       -28.3966
  14   2.0000      -1.032661       -28.1001
  15   2.0000      -1.014727       -27.6121
  16   2.0000      -0.985958       -26.8293
  17   2.0000      -0.783917       -21.3315
  18   2.0000      -0.778745       -21.1907
  19   2.0000      -0.762842       -20.7580
  20   2.0000      -0.725379       -19.7386
  21   2.0000      -0.677919       -18.4471
  22   2.0000      -0.612298       -16.6615
  23   2.0000      -0.591954       -16.1079
  24   2.0000      -0.588528       -16.0147
  25   2.0000      -0.571023       -15.5383
  26   2.0000      -0.527446       -14.3525
  27   2.0000      -0.509171       -13.8552
  28   2.0000      -0.495853       -13.4928
  29   2.0000      -0.480043       -13.0626
  30   2.0000      -0.462773       -12.5927
  31   2.0000      -0.452407       -12.3106
  32   2.0000      -0.445426       -12.1207
  33   2.0000      -0.429453       -11.6860
  34   2.0000      -0.426124       -11.5954
  35   2.0000      -0.416169       -11.3245
  36   2.0000      -0.406090       -11.0503
  37   2.0000      -0.389013       -10.5856
  38   2.0000      -0.381491       -10.3809
  39   2.0000      -0.362726        -9.8703
  40   2.0000      -0.354495        -9.6463
  41   2.0000      -0.347448        -9.4545
  42   2.0000      -0.340765        -9.2727
  43   2.0000      -0.329822        -8.9749
  44   2.0000      -0.314912        -8.5692
  45   2.0000      -0.310070        -8.4374
  46   2.0000      -0.292659        -7.9637
  47   2.0000      -0.270731        -7.3670
  48   2.0000      -0.263309        -7.1650
  49   2.0000      -0.248813        -6.7706
  50   2.0000      -0.228139        -6.2080
  51   0.0000       0.049657         1.3512
  52   0.0000       0.068996         1.8775
  53   0.0000       0.091406         2.4873
  54   0.0000       0.099627         2.7110
  55   0.0000       0.108809         2.9608

MULLIKEN ATOMIC CHARGES
-----------------------
   0 C :    0.301924
   1 C :   -0.255517
   2 C :   -0.299038
   3 C :   -0.001461
   4 O :   -0.489256
   5 H :    0.136964
   6 H :    0.139747
   7 H :    0.144577
   8 H :    0.136221
   9 H :    0.160949
  10 H :    0.147216
  11 H :    0.136774
  12 C :   -0.028614
  13 H :    0.158344
  14 H :    0.107805
  15 O :   -0.519331
  16 C :    0.098284
  17 C :    0.081627
  18 C :   -0.321443
  19 C :   -0.012839
  20 O :   -0.496201
  21 H :    0.164835
  22 H :    0.170728
  23 O :   -0.599512
  24 H :    0.157265
  25 H :    0.130197
  26 H :    0.141543
  27 H :    0.152076
  28 H :    0.356134
Sum of atomic charges:   -0.0000000

LOEWDIN ATOMIC CHARGES
----------------------
   0 C :    0.178322
   1 C :   -0.219830
   2 C :   -0.216925
   3 C :   -0.028570
   4 O :   -0.307697
   5 H :    0.097955
   6 H :    0.110722
   7 H :    0.117443
   8 H :    0.110990
   9 H :    0.118447
  10 H :    0.105453
  11 H :    0.099630
  12 C :   -0.047637
  13 H :    0.118372
  14 H :    0.080963
  15 O :   -0.325600
  16 C :    0.009028
  17 C :    0.034547
  18 C :   -0.241747
  19 C :   -0.031606
  20 O :   -0.307793
  21 H :    0.120686
  22 H :    0.120799
  23 O :   -0.407357
  24 H :    0.122784
  25 H :    0.102391
  26 H :    0.100617
  27 H :    0.107631
  28 H :    0.277983

  Mayer bond orders larger than 0.100000
B(  0-C ,  1-C ) :   0.9433 B(  0-C ,  4-O ) :   0.9260 B(  0-C ,  5-H ) :   0.9208
B(  0-C , 15-O ) :   0.8319 B(  1-C ,  2-C ) :   0.9582 B(  1-C ,  6-H ) :   0.9396
B(  1-C ,  7-H ) :   0.9384 B(  2-C ,  3-C ) :   0.9525 B(  2-C ,  8-H ) :   0.9459
B(  2-C ,  9-H ) :   0.9442 B(  3-C ,  4-O ) :   0.8469 B(  3-C , 10-H ) :   0.9350
B(  3-C , 11-H ) :   0.9400 B( 12-C , 13-H ) :   0.9229 B( 12-C , 14-H ) :   0.9229
B( 12-C , 15-O ) :   0.8799 B( 12-C , 16-C ) :   0.8884 B( 16-C , 17-C ) :   0.8676
B( 16-C , 20-O ) :   0.8657 B( 16-C , 21-H ) :   0.9281 B( 17-C , 18-C ) :   0.9239
B( 17-C , 22-H ) :   0.9318 B( 17-C , 23-O ) :   0.8973 B( 18-C , 19-C ) :   0.9374
B( 18-C , 24-H ) :   0.9420 B( 18-C , 25-H ) :   0.9402 B( 19-C , 20-O ) :   0.8501
B( 19-C , 26-H ) :   0.9306 B( 19-C , 27-H ) :   0.9378 B( 23-O , 28-H ) :   0.7987

FINAL SINGLE POINT ENERGY      -652.855966399422

DIPOLE MOMENT
-------------
                                X             Y             Z
Electronic contribution:     -2.38740      -2.22241       1.83533
Nuclear contribution   :      2.64043       2.33223      -3.04909
                        -----------------------------------------
Total Dipole Moment    :      0.25303       0.10982      -1.21376
                        -----------------------------------------
Magnitude (a.u.)       :      1.24470
Magnitude (Debye)      :      3.16378

Rotational constants in cm-1:     0.059202     0.013674     0.012500
Rotational constants in MHz :  1774.832505   409.938373   374.745905

                             ****ORCA TERMINATED NORMALLY****
TOTAL RUN TIME: 0 days 0 hours 23 minutes 23 seconds 142 msec
