                         Program Version 4.2.0 -  RELEASE  -
|  1> # Test redundant internal optimization
|  2> #
|  3> ! RKS B3LYP  Opt TightSCF SmallPrint
|  4>
|  5> %basis
|  6>         Basis "6-31G"
|  7> end
|  8>
|  9> %geom
| 10> Constraints
| 11> { D 4  0  15  12  300.0   C } # D for Dihedral angle
| 12> { D 0  15  12  16  210.0   C } # D for Dihedral angle
| 13> { D 0  4  3  2   C } # D for Dihedral angle
| 14> { D 4  3  2  1   C } # D for Dihedral angle
| 15> { D 3  2  1  0   C } # D for Dihedral angle
| 16> { D 2  1  0  4   C } # D for Dihedral angle
| 17> { D 1  0  4  3   C } # D for Dihedral angle
| 18> { D 16  20  19  18   C } # D for Dihedral angle
| 19> { D 20  19  18  17   C } # D for Dihedral angle
| 20> { D 19  18  17  16   C } # D for Dihedral angle
| 21> { D 18  17  16  20   C } # D for Dihedral angle
| 22> { D 17  16  20  19   C } # D for Dihedral angle
| 23> { D 15  12  16  20   C } # D for Dihedral angle
| 24> end
| 25> end
| 26>
| 27>
| 28> #%pal
| 29> #nprocs 8
| 30> #end
| 31>
| 32> * xyz 0 1
| 33> C  -21.048   26.222   46.251
| 34> C  -20.361   27.558   45.944
| 35> C  -20.329   28.222   47.341
| 36> C  -20.110   27.022   48.296
| 37> O  -20.473   25.807   47.535
| 38> H  -20.833   25.428   45.533
| 39> H  -19.344   27.382   45.576
| 40> H  -20.898   28.157   45.201
| 41> H  -19.543   28.978   47.434
| 42> H  -21.289   28.710   47.548
| 43> H  -20.733   27.082   49.195
| 44> H  -19.064   26.913   48.597
| 45> C  -23.362   25.116   46.798
| 46> H  -22.821   24.230   46.442
| 47> H  -23.436   25.056   47.891
| 48> O  -22.586   26.394   46.375
| 49> C  -24.805   25.072   46.223
| 50> C  -25.577   23.859   46.753
| 51> C  -25.989   24.341   48.164
| 52> C  -26.248   25.854   47.957
| 53> O  -25.579   26.226   46.692
| 54> H  -24.758   25.138   45.134
| 55> H  -26.463   23.676   46.133
| 56> O  -24.726   22.560   46.785
| 57> H  -26.868   23.817   48.553
| 58> H  -25.165   24.184   48.871
| 59> H  -25.841   26.465   48.771
| 60> H  -27.311   26.084   47.839
| 61> H  -23.834   22.718   47.401
| 62> *
| 63>
| 64>                          ****END OF INPUT****
 Total Charge           Charge          ....    0
 Multiplicity           Mult            ....    1
 Number of Electrons    NEL             ....  102
FINAL SINGLE POINT ENERGY      -652.831169821470
FINAL SINGLE POINT ENERGY      -652.856270188640
FINAL SINGLE POINT ENERGY      -652.861094743582
FINAL SINGLE POINT ENERGY      -652.861913965410
FINAL SINGLE POINT ENERGY      -652.862068365192
FINAL SINGLE POINT ENERGY      -652.862100506382
FINAL SINGLE POINT ENERGY      -652.862105890351
FINAL SINGLE POINT ENERGY      -652.862106852313
                    ***********************HURRAY********************

CARTESIAN COORDINATES (ANGSTROEM)
---------------------------------
  C    -21.091102   26.159990   46.265177
  C    -20.526016   27.542628   45.939088
  C    -20.470291   28.196505   47.337009
  C    -20.111877   27.015959   48.267095
  O    -20.427740   25.782332   47.499351
  H    -20.864640   25.361098   45.550087
  H    -19.523331   27.430256   45.511509
  H    -21.158145   28.086525   45.234284
  H    -19.736272   29.006396   47.394395
  H    -21.454643   28.600759   47.589028
  H    -20.688050   27.012409   49.196103
  H    -19.044884   26.969988   48.505244
  C    -23.204461   25.098776   46.868319
  H    -22.687107   24.203818   46.493118
  H    -23.197423   25.064472   47.965152
  O    -22.514040   26.300564   46.425376
  C    -24.620509   25.119049   46.302730
  C    -25.475067   23.916150   46.737683
  C    -25.987869   24.375913   48.135988
  C    -26.177013   25.896811   47.944619
  O    -25.392816   26.277701   46.742641
  H    -24.550875   25.205108   45.214581
  H    -26.311634   23.798357   46.045447
  O    -24.802659   22.633538   46.718893
  H    -26.908957   23.864267   48.427096
  H    -25.224570   24.158263   48.895276
  H    -25.825058   26.481441   48.800391
  H    -27.219519   26.161162   47.743082
  H    -24.197433   22.550766   47.484237

 Multiplicity           Mult            ....    1
 Number of Electrons    NEL             ....  102
 Basis Dimension        Dim             ....  149

ORBITAL ENERGIES
----------------

  NO   OCC          E(Eh)            E(eV)
   0   2.0000     -19.149092      -521.0733
   1   2.0000     -19.141318      -520.8618
   2   2.0000     -19.138631      -520.7886
   3   2.0000     -19.134627      -520.6797
   4   2.0000     -10.275356      -279.6067
   5   2.0000     -10.244222      -278.7595
   6   2.0000     -10.228724      -278.3377
   7   2.0000     -10.228316      -278.3266
   8   2.0000     -10.226583      -278.2795
   9   2.0000     -10.223685      -278.2006
  10   2.0000     -10.194816      -277.4150
  11   2.0000     -10.181832      -277.0617
  12   2.0000     -10.181711      -277.0584
  13   2.0000      -1.053132       -28.6572
  14   2.0000      -1.032174       -28.0869
  15   2.0000      -1.013683       -27.5837
  16   2.0000      -0.990861       -26.9627
  17   2.0000      -0.787240       -21.4219
  18   2.0000      -0.780437       -21.2368
  19   2.0000      -0.765027       -20.8175
  20   2.0000      -0.727910       -19.8074
  21   2.0000      -0.677261       -18.4292
  22   2.0000      -0.610501       -16.6126
  23   2.0000      -0.596980       -16.2446
  24   2.0000      -0.588326       -16.0092
  25   2.0000      -0.573071       -15.5940
  26   2.0000      -0.530495       -14.4355
  27   2.0000      -0.508570       -13.8389
  28   2.0000      -0.494860       -13.4658
  29   2.0000      -0.490249       -13.3404
  30   2.0000      -0.467964       -12.7339
  31   2.0000      -0.453804       -12.3486
  32   2.0000      -0.443097       -12.0573
  33   2.0000      -0.434260       -11.8168
  34   2.0000      -0.426956       -11.6181
  35   2.0000      -0.409946       -11.1552
  36   2.0000      -0.406073       -11.0498
  37   2.0000      -0.399408       -10.8684
  38   2.0000      -0.376753       -10.2520
  39   2.0000      -0.364644        -9.9225
  40   2.0000      -0.356101        -9.6900
  41   2.0000      -0.352961        -9.6046
  42   2.0000      -0.343504        -9.3472
  43   2.0000      -0.335144        -9.1197
  44   2.0000      -0.321363        -8.7447
  45   2.0000      -0.313703        -8.5363
  46   2.0000      -0.296405        -8.0656
  47   2.0000      -0.270514        -7.3611
  48   2.0000      -0.264896        -7.2082
  49   2.0000      -0.252894        -6.8816
  50   2.0000      -0.238076        -6.4784
  51   0.0000       0.052125         1.4184
  52   0.0000       0.078301         2.1307
  53   0.0000       0.090976         2.4756
  54   0.0000       0.098000         2.6667
  55   0.0000       0.104128         2.8335

MULLIKEN ATOMIC CHARGES
-----------------------
   0 C :    0.282086
   1 C :   -0.262480
   2 C :   -0.299407
   3 C :   -0.005213
   4 O :   -0.518321
   5 H :    0.143398
   6 H :    0.143678
   7 H :    0.163144
   8 H :    0.139854
   9 H :    0.167758
  10 H :    0.142785
  11 H :    0.142555
  12 C :   -0.002674
  13 H :    0.133624
  14 H :    0.134459
  15 O :   -0.511225
  16 C :    0.093005
  17 C :    0.076941
  18 C :   -0.325041
  19 C :   -0.009044
  20 O :   -0.505281
  21 H :    0.160918
  22 H :    0.170468
  23 O :   -0.598508
  24 H :    0.157047
  25 H :    0.135122
  26 H :    0.145134
  27 H :    0.148137
  28 H :    0.357084
Sum of atomic charges:   -0.0000000

LOEWDIN ATOMIC CHARGES
----------------------
   0 C :    0.170710
   1 C :   -0.214282
   2 C :   -0.216271
   3 C :   -0.028833
   4 O :   -0.335493
   5 H :    0.094683
   6 H :    0.113554
   7 H :    0.127390
   8 H :    0.112883
   9 H :    0.121879
  10 H :    0.102993
  11 H :    0.102361
  12 C :   -0.048467
  13 H :    0.101918
  14 H :    0.096508
  15 O :   -0.314074
  16 C :    0.019574
  17 C :    0.033242
  18 C :   -0.242239
  19 C :   -0.029755
  20 O :   -0.313975
  21 H :    0.118397
  22 H :    0.120210
  23 O :   -0.407150
  24 H :    0.122350
  25 H :    0.104552
  26 H :    0.103353
  27 H :    0.105262
  28 H :    0.278719

  Mayer bond orders larger than 0.100000
B(  0-C ,  1-C ) :   0.9525 B(  0-C ,  4-O ) :   0.8900 B(  0-C ,  5-H ) :   0.9171
B(  0-C , 15-O ) :   0.8728 B(  1-C ,  2-C ) :   0.9559 B(  1-C ,  6-H ) :   0.9401
B(  1-C ,  7-H ) :   0.9349 B(  2-C ,  3-C ) :   0.9559 B(  2-C ,  8-H ) :   0.9452
B(  2-C ,  9-H ) :   0.9432 B(  3-C ,  4-O ) :   0.8381 B(  3-C , 10-H ) :   0.9364
B(  3-C , 11-H ) :   0.9405 B( 12-C , 13-H ) :   0.9031 B( 12-C , 14-H ) :   0.9241
B( 12-C , 15-O ) :   0.8319 B( 12-C , 16-C ) :   0.9042 B( 16-C , 17-C ) :   0.8729
B( 16-C , 20-O ) :   0.8692 B( 16-C , 21-H ) :   0.9296 B( 17-C , 18-C ) :   0.9247
B( 17-C , 22-H ) :   0.9325 B( 17-C , 23-O ) :   0.8978 B( 18-C , 19-C ) :   0.9383
B( 18-C , 24-H ) :   0.9416 B( 18-C , 25-H ) :   0.9406 B( 19-C , 20-O ) :   0.8516
B( 19-C , 26-H ) :   0.9314 B( 19-C , 27-H ) :   0.9380 B( 23-O , 28-H ) :   0.7977

FINAL SINGLE POINT ENERGY      -652.862106899567

DIPOLE MOMENT
-------------
                                X             Y             Z
Electronic contribution:     -1.40675      -2.55083      -2.68607
Nuclear contribution   :      1.57060       2.70467       3.48190
                        -----------------------------------------
Total Dipole Moment    :      0.16385       0.15384       0.79583
                        -----------------------------------------
Magnitude (a.u.)       :      0.82695
Magnitude (Debye)      :      2.10195

Rotational constants in cm-1:     0.052915     0.012706     0.011867
Rotational constants in MHz :  1586.362638   380.914611   355.769894

                             ****ORCA TERMINATED NORMALLY****
TOTAL RUN TIME: 0 days 0 hours 24 minutes 9 seconds 619 msec
