                         Program Version 4.2.0 -  RELEASE  -
|  1> # Test redundant internal optimization
|  2> #
|  3> ! RKS B3LYP  Opt TightSCF SmallPrint
|  4>
|  5> %basis
|  6>         Basis "6-31G"
|  7> end
|  8>
|  9> %geom
| 10> Constraints
| 11> { D 4  0  15  12  45.0   C } # D for Dihedral angle
| 12> { D 0  15  12  16  105.0   C } # D for Dihedral angle
| 13> { D 0  4  3  2   C } # D for Dihedral angle
| 14> { D 4  3  2  1   C } # D for Dihedral angle
| 15> { D 3  2  1  0   C } # D for Dihedral angle
| 16> { D 2  1  0  4   C } # D for Dihedral angle
| 17> { D 1  0  4  3   C } # D for Dihedral angle
| 18> { D 16  20  19  18   C } # D for Dihedral angle
| 19> { D 20  19  18  17   C } # D for Dihedral angle
| 20> { D 19  18  17  16   C } # D for Dihedral angle
| 21> { D 18  17  16  20   C } # D for Dihedral angle
| 22> { D 17  16  20  19   C } # D for Dihedral angle
| 23> { D 15  12  16  20   C } # D for Dihedral angle
| 24> end
| 25> end
| 26>
| 27>
| 28> #%pal
| 29> #nprocs 8
| 30> #end
| 31>
| 32> * xyz 0 1
| 33> C  -21.048   26.222   46.251
| 34> C  -20.361   27.558   45.944
| 35> C  -20.329   28.222   47.341
| 36> C  -20.110   27.022   48.296
| 37> O  -20.473   25.807   47.535
| 38> H  -20.833   25.428   45.533
| 39> H  -19.344   27.382   45.576
| 40> H  -20.898   28.157   45.201
| 41> H  -19.543   28.978   47.434
| 42> H  -21.289   28.710   47.548
| 43> H  -20.733   27.082   49.195
| 44> H  -19.064   26.913   48.597
| 45> C  -23.065   27.161   47.638
| 46> H  -23.907   26.624   48.090
| 47> H  -22.258   27.222   48.379
| 48> O  -22.586   26.394   46.375
| 49> C  -23.525   28.611   47.321
| 50> C  -23.880   29.375   48.601
| 51> C  -22.481   29.770   49.129
| 52> C  -21.677   30.035   47.831
| 53> O  -22.423   29.382   46.735
| 54> H  -24.324   28.579   46.577
| 55> H  -24.468   30.268   48.357
| 56> O  -24.688   28.521   49.617
| 57> H  -22.507   30.643   49.789
| 58> H  -22.042   28.938   49.692
| 59> H  -20.664   29.619   47.873
| 60> H  -21.614   31.100   47.590
| 61> H  -24.119   27.622   49.877
| 62> *
| 63>
| 64>                          ****END OF INPUT****
 Total Charge           Charge          ....    0
 Multiplicity           Mult            ....    1
 Number of Electrons    NEL             ....  102
FINAL SINGLE POINT ENERGY      -652.649726747847
FINAL SINGLE POINT ENERGY      -652.726811822071
FINAL SINGLE POINT ENERGY      -652.774376627201
FINAL SINGLE POINT ENERGY      -652.804409654060
FINAL SINGLE POINT ENERGY      -652.822698671996
FINAL SINGLE POINT ENERGY      -652.833820679845
FINAL SINGLE POINT ENERGY      -652.840541600386
FINAL SINGLE POINT ENERGY      -652.844407686945
FINAL SINGLE POINT ENERGY      -652.846419257228
FINAL SINGLE POINT ENERGY      -652.847147744565
FINAL SINGLE POINT ENERGY      -652.847304710777
FINAL SINGLE POINT ENERGY      -652.847394046295
FINAL SINGLE POINT ENERGY      -652.847467922257
FINAL SINGLE POINT ENERGY      -652.847512736507
FINAL SINGLE POINT ENERGY      -652.847532707757
FINAL SINGLE POINT ENERGY      -652.847539199550
                    ***********************HURRAY********************

CARTESIAN COORDINATES (ANGSTROEM)
---------------------------------
  C    -21.119483   26.209819   46.323462
  C    -20.184596   27.296993   45.787410
  C    -19.661632   27.942170   47.095004
  C    -19.568356   26.737461   48.061620
  O    -20.414458   25.671228   47.467544
  H    -21.220660   25.380261   45.620477
  H    -19.379488   26.810867   45.225332
  H    -20.701560   28.011434   45.144154
  H    -18.696907   28.443521   46.969632
  H    -20.396632   28.674110   47.416459
  H    -19.930932   26.958792   49.071145
  H    -18.553967   26.333083   48.131351
  C    -23.069376   27.215445   47.706669
  H    -23.981211   26.666273   47.961355
  H    -22.380411   27.141051   48.562890
  O    -22.508730   26.522896   46.563352
  C    -23.489813   28.663658   47.427190
  C    -24.177997   29.389166   48.597682
  C    -22.962821   30.049339   49.317449
  C    -22.024084   30.416295   48.151961
  O    -22.461767   29.601282   46.977574
  H    -24.172556   28.603313   46.570618
  H    -24.848090   30.155340   48.202872
  O    -25.021331   28.570071   49.440182
  H    -23.254315   30.913656   49.919450
  H    -22.495616   29.311920   49.985395
  H    -20.972529   30.215334   48.371091
  H    -22.123255   31.463971   47.852388
  H    -24.480426   27.976249   50.000290

 Multiplicity           Mult            ....    1
 Number of Electrons    NEL             ....  102
 Basis Dimension        Dim             ....  149

ORBITAL ENERGIES
----------------

  NO   OCC          E(Eh)            E(eV)
   0   2.0000     -19.155390      -521.2447
   1   2.0000     -19.152373      -521.1626
   2   2.0000     -19.140890      -520.8501
   3   2.0000     -19.135715      -520.7093
   4   2.0000     -10.273741      -279.5627
   5   2.0000     -10.251708      -278.9632
   6   2.0000     -10.239991      -278.6443
   7   2.0000     -10.234565      -278.4967
   8   2.0000     -10.234110      -278.4843
   9   2.0000     -10.227082      -278.2931
  10   2.0000     -10.202790      -277.6320
  11   2.0000     -10.180897      -277.0363
  12   2.0000     -10.177538      -276.9449
  13   2.0000      -1.047240       -28.4968
  14   2.0000      -1.039376       -28.2829
  15   2.0000      -1.023344       -27.8466
  16   2.0000      -0.990287       -26.9471
  17   2.0000      -0.790712       -21.5164
  18   2.0000      -0.783155       -21.3107
  19   2.0000      -0.773406       -21.0455
  20   2.0000      -0.734538       -19.9878
  21   2.0000      -0.684988       -18.6395
  22   2.0000      -0.619566       -16.8592
  23   2.0000      -0.602969       -16.4076
  24   2.0000      -0.595977       -16.2174
  25   2.0000      -0.568634       -15.4733
  26   2.0000      -0.529098       -14.3975
  27   2.0000      -0.516808       -14.0631
  28   2.0000      -0.501302       -13.6411
  29   2.0000      -0.488295       -13.2872
  30   2.0000      -0.469098       -12.7648
  31   2.0000      -0.463764       -12.6197
  32   2.0000      -0.446557       -12.1514
  33   2.0000      -0.441142       -12.0041
  34   2.0000      -0.434527       -11.8241
  35   2.0000      -0.417290       -11.3550
  36   2.0000      -0.409538       -11.1441
  37   2.0000      -0.399391       -10.8680
  38   2.0000      -0.388239       -10.5645
  39   2.0000      -0.369631       -10.0582
  40   2.0000      -0.360103        -9.7989
  41   2.0000      -0.352401        -9.5893
  42   2.0000      -0.341262        -9.2862
  43   2.0000      -0.336808        -9.1650
  44   2.0000      -0.322262        -8.7692
  45   2.0000      -0.315018        -8.5721
  46   2.0000      -0.299250        -8.1430
  47   2.0000      -0.276712        -7.5297
  48   2.0000      -0.269100        -7.3226
  49   2.0000      -0.256616        -6.9829
  50   2.0000      -0.237968        -6.4754
  51   0.0000       0.043990         1.1970
  52   0.0000       0.059024         1.6061
  53   0.0000       0.082626         2.2484
  54   0.0000       0.089705         2.4410
  55   0.0000       0.097519         2.6536

MULLIKEN ATOMIC CHARGES
-----------------------
   0 C :    0.309035
   1 C :   -0.259051
   2 C :   -0.337030
   3 C :   -0.012097
   4 O :   -0.512842
   5 H :    0.163678
   6 H :    0.143496
   7 H :    0.167948
   8 H :    0.136379
   9 H :    0.181441
  10 H :    0.129098
  11 H :    0.146034
  12 C :   -0.024535
  13 H :    0.163864
  14 H :    0.120429
  15 O :   -0.530955
  16 C :    0.092901
  17 C :    0.083067
  18 C :   -0.318178
  19 C :   -0.023187
  20 O :   -0.511818
  21 H :    0.168457
  22 H :    0.172738
  23 O :   -0.595033
  24 H :    0.162584
  25 H :    0.132229
  26 H :    0.137208
  27 H :    0.156562
  28 H :    0.357577
Sum of atomic charges:   -0.0000000

LOEWDIN ATOMIC CHARGES
----------------------
   0 C :    0.184563
   1 C :   -0.224495
   2 C :   -0.231493
   3 C :   -0.034471
   4 O :   -0.323219
   5 H :    0.111140
   6 H :    0.114559
   7 H :    0.130054
   8 H :    0.113268
   9 H :    0.123352
  10 H :    0.093329
  11 H :    0.103233
  12 C :   -0.045091
  13 H :    0.120116
  14 H :    0.089977
  15 O :   -0.325124
  16 C :    0.005423
  17 C :    0.036228
  18 C :   -0.240391
  19 C :   -0.035384
  20 O :   -0.319599
  21 H :    0.119199
  22 H :    0.121482
  23 O :   -0.402960
  24 H :    0.125294
  25 H :    0.103918
  26 H :    0.098744
  27 H :    0.108933
  28 H :    0.279416

  Mayer bond orders larger than 0.100000
B(  0-C ,  1-C ) :   0.9155 B(  0-C ,  4-O ) :   0.9014 B(  0-C ,  5-H ) :   0.9361
B(  0-C , 15-O ) :   0.8812 B(  1-C ,  2-C ) :   0.9584 B(  1-C ,  6-H ) :   0.9342
B(  1-C ,  7-H ) :   0.9314 B(  2-C ,  3-C ) :   0.9526 B(  2-C ,  8-H ) :   0.9469
B(  2-C ,  9-H ) :   0.9069 B(  3-C ,  4-O ) :   0.8414 B(  3-C , 10-H ) :   0.9340
B(  3-C , 11-H ) :   0.9391 B( 12-C , 13-H ) :   0.9158 B( 12-C , 14-H ) :   0.9211
B( 12-C , 15-O ) :   0.8547 B( 12-C , 16-C ) :   0.8918 B( 16-C , 17-C ) :   0.8643
B( 16-C , 20-O ) :   0.8574 B( 16-C , 21-H ) :   0.9282 B( 17-C , 18-C ) :   0.9225
B( 17-C , 22-H ) :   0.9323 B( 17-C , 23-O ) :   0.9039 B( 18-C , 19-C ) :   0.9421
B( 18-C , 24-H ) :   0.9405 B( 18-C , 25-H ) :   0.9418 B( 19-C , 20-O ) :   0.8394
B( 19-C , 26-H ) :   0.9186 B( 19-C , 27-H ) :   0.9397 B( 23-O , 28-H ) :   0.7974

FINAL SINGLE POINT ENERGY      -652.847541014995

DIPOLE MOMENT
-------------
                                X             Y             Z
Electronic contribution:     -4.32003      -3.51191      -1.93525
Nuclear contribution   :      5.15439       4.56096       2.79218
                        -----------------------------------------
Total Dipole Moment    :      0.83436       1.04905       0.85693
                        -----------------------------------------
Magnitude (a.u.)       :      1.59091
Magnitude (Debye)      :      4.04378

Rotational constants in cm-1:     0.044594     0.017330     0.015458
Rotational constants in MHz :  1336.897579   519.545898   463.416638

                             ****ORCA TERMINATED NORMALLY****
TOTAL RUN TIME: 0 days 0 hours 51 minutes 42 seconds 170 msec
