                         Program Version 4.2.0 -  RELEASE  -
|  1> # Test redundant internal optimization
|  2> #
|  3> ! RKS B3LYP  Opt TightSCF SmallPrint
|  4>
|  5> %basis
|  6>         Basis "6-31G"
|  7> end
|  8>
|  9> %geom
| 10> Constraints
| 11> { D 4  0  15  12  180.0   C } # D for Dihedral angle
| 12> { D 0  15  12  16  120.0   C } # D for Dihedral angle
| 13> { D 0  4  3  2   C } # D for Dihedral angle
| 14> { D 4  3  2  1   C } # D for Dihedral angle
| 15> { D 3  2  1  0   C } # D for Dihedral angle
| 16> { D 2  1  0  4   C } # D for Dihedral angle
| 17> { D 1  0  4  3   C } # D for Dihedral angle
| 18> { D 16  20  19  18   C } # D for Dihedral angle
| 19> { D 20  19  18  17   C } # D for Dihedral angle
| 20> { D 19  18  17  16   C } # D for Dihedral angle
| 21> { D 18  17  16  20   C } # D for Dihedral angle
| 22> { D 17  16  20  19   C } # D for Dihedral angle
| 23> { D 15  12  16  20   C } # D for Dihedral angle
| 24> end
| 25> end
| 26>
| 27>
| 28> #%pal
| 29> #nprocs 8
| 30> #end
| 31>
| 32> * xyz 0 1
| 33> C  -21.048   26.222   46.251
| 34> C  -20.361   27.558   45.944
| 35> C  -20.329   28.222   47.341
| 36> C  -20.110   27.022   48.296
| 37> O  -20.473   25.807   47.535
| 38> H  -20.833   25.428   45.533
| 39> H  -19.344   27.382   45.576
| 40> H  -20.898   28.157   45.201
| 41> H  -19.543   28.978   47.434
| 42> H  -21.289   28.710   47.548
| 43> H  -20.733   27.082   49.195
| 44> H  -19.064   26.913   48.597
| 45> C  -23.309   26.834   45.072
| 46> H  -23.809   27.795   45.242
| 47> H  -22.585   26.963   44.257
| 48> O  -22.586   26.394   46.375
| 49> C  -24.374   25.806   44.600
| 50> C  -24.983   26.214   43.254
| 51> C  -23.885   25.763   42.263
| 52> C  -23.330   24.472   42.917
| 53> O  -23.749   24.506   44.334
| 54> H  -25.103   25.653   45.399
| 55> H  -25.913   25.662   43.079
| 56> O  -25.292   27.733   43.160
| 57> H  -24.270   25.586   41.253
| 58> H  -23.102   26.528   42.194
| 59> H  -22.236   24.414   42.868
| 60> H  -23.753   23.565   42.476
| 61> H  -24.375   28.308   43.332
| 62> *
| 63>
| 64>                          ****END OF INPUT****
 Total Charge           Charge          ....    0
 Multiplicity           Mult            ....    1
 Number of Electrons    NEL             ....  102
FINAL SINGLE POINT ENERGY      -652.823705852034
FINAL SINGLE POINT ENERGY      -652.847259189687
FINAL SINGLE POINT ENERGY      -652.851603674870
FINAL SINGLE POINT ENERGY      -652.852295494582
FINAL SINGLE POINT ENERGY      -652.852423950865
FINAL SINGLE POINT ENERGY      -652.852453238238
FINAL SINGLE POINT ENERGY      -652.852459168376
FINAL SINGLE POINT ENERGY      -652.852460035781
                    ***********************HURRAY********************

CARTESIAN COORDINATES (ANGSTROEM)
---------------------------------
  C    -21.033006   26.260480   46.170925
  C    -20.280592   27.575359   45.974062
  C    -20.353740   28.205054   47.388659
  C    -20.262777   26.972918   48.312256
  O    -20.600549   25.805280   47.457653
  H    -20.812749   25.470533   45.447170
  H    -19.242314   27.354815   45.698668
  H    -20.707684   28.218725   45.199535
  H    -19.549714   28.924729   47.569041
  H    -21.312701   28.715591   47.518718
  H    -20.965661   27.007023   49.148059
  H    -19.251947   26.799092   48.692864
  C    -23.150295   26.922165   45.050097
  H    -23.647436   27.873212   45.277727
  H    -22.428651   27.093423   44.237619
  O    -22.476540   26.456341   46.250439
  C    -24.191936   25.883221   44.635385
  C    -24.965887   26.217020   43.348328
  C    -23.978402   25.730281   42.247125
  C    -23.331020   24.486106   42.893581
  O    -23.581424   24.584773   44.355312
  H    -24.857512   25.718202   45.486955
  H    -25.888452   25.634116   43.318797
  O    -25.399978   27.593513   43.220720
  H    -24.485124   25.506602   41.304776
  H    -23.233956   26.513945   42.050339
  H    -22.252343   24.424834   42.717324
  H    -23.794268   23.555969   42.552725
  H    -24.642343   28.173680   43.001141

 Multiplicity           Mult            ....    1
 Number of Electrons    NEL             ....  102
 Basis Dimension        Dim             ....  149

ORBITAL ENERGIES
----------------

  NO   OCC          E(Eh)            E(eV)
   0   2.0000     -19.151783      -521.1465
   1   2.0000     -19.139059      -520.8003
   2   2.0000     -19.136916      -520.7420
   3   2.0000     -19.134382      -520.6730
   4   2.0000     -10.275758      -279.6176
   5   2.0000     -10.246607      -278.8243
   6   2.0000     -10.232618      -278.4437
   7   2.0000     -10.232495      -278.4403
   8   2.0000     -10.229133      -278.3489
   9   2.0000     -10.222473      -278.1676
  10   2.0000     -10.198457      -277.5141
  11   2.0000     -10.187797      -277.2240
  12   2.0000     -10.186474      -277.1880
  13   2.0000      -1.050184       -28.5770
  14   2.0000      -1.034919       -28.1616
  15   2.0000      -1.017018       -27.6745
  16   2.0000      -0.989083       -26.9143
  17   2.0000      -0.786039       -21.3892
  18   2.0000      -0.784414       -21.3450
  19   2.0000      -0.767957       -20.8972
  20   2.0000      -0.730150       -19.8684
  21   2.0000      -0.683226       -18.5915
  22   2.0000      -0.613645       -16.6981
  23   2.0000      -0.601197       -16.3594
  24   2.0000      -0.590337       -16.0639
  25   2.0000      -0.574232       -15.6257
  26   2.0000      -0.530406       -14.4331
  27   2.0000      -0.506683       -13.7875
  28   2.0000      -0.503476       -13.7003
  29   2.0000      -0.491531       -13.3752
  30   2.0000      -0.470079       -12.7915
  31   2.0000      -0.459494       -12.5035
  32   2.0000      -0.445935       -12.1345
  33   2.0000      -0.439041       -11.9469
  34   2.0000      -0.430378       -11.7112
  35   2.0000      -0.413677       -11.2567
  36   2.0000      -0.410088       -11.1591
  37   2.0000      -0.396638       -10.7931
  38   2.0000      -0.381660       -10.3855
  39   2.0000      -0.373670       -10.1681
  40   2.0000      -0.361592        -9.8394
  41   2.0000      -0.353983        -9.6324
  42   2.0000      -0.350111        -9.5270
  43   2.0000      -0.332413        -9.0454
  44   2.0000      -0.316492        -8.6122
  45   2.0000      -0.310329        -8.4445
  46   2.0000      -0.299369        -8.1462
  47   2.0000      -0.272414        -7.4128
  48   2.0000      -0.259288        -7.0556
  49   2.0000      -0.254446        -6.9238
  50   2.0000      -0.234871        -6.3912
  51   0.0000       0.046279         1.2593
  52   0.0000       0.068930         1.8757
  53   0.0000       0.086655         2.3580
  54   0.0000       0.093601         2.5470
  55   0.0000       0.105825         2.8796

MULLIKEN ATOMIC CHARGES
-----------------------
   0 C :    0.304637
   1 C :   -0.280110
   2 C :   -0.298537
   3 C :    0.000329
   4 O :   -0.498797
   5 H :    0.151140
   6 H :    0.146250
   7 H :    0.136421
   8 H :    0.141347
   9 H :    0.158053
  10 H :    0.155806
  11 H :    0.140689
  12 C :   -0.029133
  13 H :    0.143488
  14 H :    0.110144
  15 O :   -0.500918
  16 C :    0.099052
  17 C :    0.082267
  18 C :   -0.324239
  19 C :   -0.008708
  20 O :   -0.505549
  21 H :    0.171584
  22 H :    0.170319
  23 O :   -0.598096
  24 H :    0.159031
  25 H :    0.129232
  26 H :    0.140149
  27 H :    0.150469
  28 H :    0.353679
Sum of atomic charges:   -0.0000000

LOEWDIN ATOMIC CHARGES
----------------------
   0 C :    0.183884
   1 C :   -0.234992
   2 C :   -0.217027
   3 C :   -0.024870
   4 O :   -0.298717
   5 H :    0.102280
   6 H :    0.114852
   7 H :    0.109756
   8 H :    0.113812
   9 H :    0.116719
  10 H :    0.110291
  11 H :    0.101966
  12 C :   -0.053220
  13 H :    0.106379
  14 H :    0.085731
  15 O :   -0.326510
  16 C :    0.016799
  17 C :    0.033928
  18 C :   -0.241904
  19 C :   -0.030748
  20 O :   -0.314541
  21 H :    0.123451
  22 H :    0.120948
  23 O :   -0.406966
  24 H :    0.123298
  25 H :    0.101658
  26 H :    0.100385
  27 H :    0.106974
  28 H :    0.276385

  Mayer bond orders larger than 0.100000
B(  0-C ,  1-C ) :   0.9261 B(  0-C ,  4-O ) :   0.9398 B(  0-C ,  5-H ) :   0.9184
B(  0-C , 15-O ) :   0.8316 B(  1-C ,  2-C ) :   0.9505 B(  1-C ,  6-H ) :   0.9340
B(  1-C ,  7-H ) :   0.9328 B(  2-C ,  3-C ) :   0.9564 B(  2-C ,  8-H ) :   0.9451
B(  2-C ,  9-H ) :   0.9450 B(  3-C ,  4-O ) :   0.8367 B(  3-C , 10-H ) :   0.9341
B(  3-C , 11-H ) :   0.9398 B( 12-C , 13-H ) :   0.9156 B( 12-C , 14-H ) :   0.9176
B( 12-C , 15-O ) :   0.8594 B( 12-C , 16-C ) :   0.8958 B( 16-C , 17-C ) :   0.8687
B( 16-C , 20-O ) :   0.8660 B( 16-C , 21-H ) :   0.9285 B( 17-C , 18-C ) :   0.9230
B( 17-C , 22-H ) :   0.9315 B( 17-C , 23-O ) :   0.8968 B( 18-C , 19-C ) :   0.9388
B( 18-C , 24-H ) :   0.9419 B( 18-C , 25-H ) :   0.9407 B( 19-C , 20-O ) :   0.8523
B( 19-C , 26-H ) :   0.9317 B( 19-C , 27-H ) :   0.9380 B( 23-O , 28-H ) :   0.7995

FINAL SINGLE POINT ENERGY      -652.852459925066

DIPOLE MOMENT
-------------
                                X             Y             Z
Electronic contribution:     -3.37641      -3.61775       2.00523
Nuclear contribution   :      4.20050       4.77236      -3.27478
                        -----------------------------------------
Total Dipole Moment    :      0.82409       1.15461      -1.26955
                        -----------------------------------------
Magnitude (a.u.)       :      1.90368
Magnitude (Debye)      :      4.83877

Rotational constants in cm-1:     0.056936     0.012748     0.011736
Rotational constants in MHz :  1706.904542   382.173002   351.847146

                             ****ORCA TERMINATED NORMALLY****
TOTAL RUN TIME: 0 days 1 hours 0 minutes 5 seconds 123 msec
