                         Program Version 4.2.1 -  RELEASE  -
|  1> # Test redundant internal optimization
|  2> #
|  3> ! RKS B3LYP  Opt TightSCF SmallPrint
|  4>
|  5> %basis
|  6>         Basis "6-31G"
|  7> end
|  8>
|  9> %geom
| 10> Constraints
| 11> { D 4  0  19  14  195.0   C } # D for Dihedral angle
| 12> { D 0  19  14  12  165.0   C } # D for Dihedral angle
| 13> { D 0  4  3  2   C } # D for Dihedral angle
| 14> { D 4  3  2  1   C } # D for Dihedral angle
| 15> { D 3  2  1  0   C } # D for Dihedral angle
| 16> { D 2  1  0  4   C } # D for Dihedral angle
| 17> { D 1  0  4  3   C } # D for Dihedral angle
| 18> { D 14  15  16  17   C } # D for Dihedral angle
| 19> { D 15  16  17  12   C } # D for Dihedral angle
| 20> { D 16  17  12  14   C } # D for Dihedral angle
| 21> { D 17  12  14  15   C } # D for Dihedral angle
| 22> { D 12  14  15  16   C } # D for Dihedral angle
| 23> end
| 24> end
| 25>
| 26>
| 27> #%pal
| 28> #nprocs 8
| 29> #end
| 30>
| 31> * xyz 0 1
| 32> C  -21.048   26.222   46.251
| 33> C  -20.361   27.558   45.944
| 34> C  -20.329   28.222   47.341
| 35> C  -20.110   27.022   48.296
| 36> O  -20.473   25.807   47.535
| 37> H  -20.833   25.428   45.533
| 38> H  -19.344   27.382   45.576
| 39> H  -20.898   28.157   45.201
| 40> H  -19.543   28.978   47.434
| 41> H  -21.289   28.710   47.548
| 42> H  -20.733   27.082   49.195
| 43> H  -19.064   26.913   48.597
| 44> C  -24.667   26.245   45.324
| 45> H  -25.178   26.005   44.378
| 46> C  -23.163   26.451   45.109
| 47> C  -23.122   27.889   44.542
| 48> C  -24.271   28.600   45.299
| 49> O  -25.137   27.532   45.847
| 50> H  -24.918   25.487   46.068
| 51> O  -22.472   26.381   46.366
| 52> H  -22.721   25.714   44.430
| 53> H  -22.155   28.379   44.695
| 54> H  -23.322   27.876   43.463
| 55> H  -24.868   29.247   44.647
| 56> H  -23.911   29.189   46.148
| 57> *
| 58>
| 59>                          ****END OF INPUT****
 Total Charge           Charge          ....    0
 Multiplicity           Mult            ....    1
 Number of Electrons    NEL             ....   86
FINAL SINGLE POINT ENERGY      -538.414123643070
FINAL SINGLE POINT ENERGY      -538.424988362443
FINAL SINGLE POINT ENERGY      -538.426581900485
FINAL SINGLE POINT ENERGY      -538.426931729563
FINAL SINGLE POINT ENERGY      -538.426962014552
FINAL SINGLE POINT ENERGY      -538.426973276873
                    ***********************HURRAY********************

CARTESIAN COORDINATES (ANGSTROEM)
---------------------------------
  C    -20.952249   26.245824   46.194010
  C    -20.195224   27.557550   45.985240
  C    -20.287521   28.213641   47.388804
  C    -20.210603   26.994527   48.332306
  O    -20.536713   25.814758   47.495868
  H    -20.700239   25.453416   45.478856
  H    -19.152340   27.317485   45.743400
  H    -20.588940   28.186454   45.187759
  H    -19.485042   28.934861   47.568659
  H    -21.248364   28.725581   47.497104
  H    -20.924935   27.043110   49.157724
  H    -19.204798   26.829312   48.730051
  C    -24.631445   26.253374   45.428642
  H    -25.234036   25.956465   44.557800
  C    -23.175271   26.498343   45.028929
  C    -23.254728   27.911272   44.418791
  C    -24.328530   28.614122   45.282868
  O    -25.083983   27.541271   45.964321
  H    -24.721779   25.512429   46.222994
  O    -22.402004   26.391074   46.262384
  H    -22.808038   25.756621   44.303213
  H    -22.305262   28.444751   44.411192
  H    -23.591249   27.818546   43.378495
  H    -25.018418   29.219314   44.683943
  H    -23.888289   29.241900   46.063646

 Multiplicity           Mult            ....    1
 Number of Electrons    NEL             ....   86
 Basis Dimension        Dim             ....  127

ORBITAL ENERGIES
----------------

  NO   OCC          E(Eh)            E(eV)
   0   2.0000     -19.139544      -520.8135
   1   2.0000     -19.138895      -520.7958
   2   2.0000     -19.128013      -520.4997
   3   2.0000     -10.281418      -279.7716
   4   2.0000     -10.243667      -278.7444
   5   2.0000     -10.224229      -278.2154
   6   2.0000     -10.223115      -278.1851
   7   2.0000     -10.220437      -278.1122
   8   2.0000     -10.190621      -277.3009
   9   2.0000     -10.189376      -277.2670
  10   2.0000     -10.187813      -277.2245
  11   2.0000      -1.053599       -28.6699
  12   2.0000      -1.014354       -27.6020
  13   2.0000      -0.988009       -26.8851
  14   2.0000      -0.788428       -21.4542
  15   2.0000      -0.783564       -21.3219
  16   2.0000      -0.744733       -20.2652
  17   2.0000      -0.721947       -19.6452
  18   2.0000      -0.610868       -16.6226
  19   2.0000      -0.604288       -16.4435
  20   2.0000      -0.595452       -16.2031
  21   2.0000      -0.577242       -15.7076
  22   2.0000      -0.515996       -14.0410
  23   2.0000      -0.508231       -13.8297
  24   2.0000      -0.487883       -13.2760
  25   2.0000      -0.483796       -13.1648
  26   2.0000      -0.454513       -12.3679
  27   2.0000      -0.447723       -12.1832
  28   2.0000      -0.421851       -11.4791
  29   2.0000      -0.415998       -11.3199
  30   2.0000      -0.412011       -11.2114
  31   2.0000      -0.391217       -10.6456
  32   2.0000      -0.377598       -10.2750
  33   2.0000      -0.366897        -9.9838
  34   2.0000      -0.363428        -9.8894
  35   2.0000      -0.353955        -9.6316
  36   2.0000      -0.348543        -9.4843
  37   2.0000      -0.313590        -8.5332
  38   2.0000      -0.305617        -8.3163
  39   2.0000      -0.295517        -8.0414
  40   2.0000      -0.261744        -7.1224
  41   2.0000      -0.253550        -6.8995
  42   2.0000      -0.232325        -6.3219
  43   0.0000       0.068930         1.8757
  44   0.0000       0.082250         2.2381
  45   0.0000       0.098261         2.6738
  46   0.0000       0.111352         3.0300
  47   0.0000       0.115554         3.1444

MULLIKEN ATOMIC CHARGES
-----------------------
   0 C :    0.308502
   1 C :   -0.279331
   2 C :   -0.301387
   3 C :    0.000917
   4 O :   -0.500458
   5 H :    0.135219
   6 H :    0.146835
   7 H :    0.139809
   8 H :    0.142111
   9 H :    0.162724
  10 H :    0.158170
  11 H :    0.140874
  12 C :    0.000659
  13 H :    0.124479
  14 C :    0.067830
  15 C :   -0.310346
  16 C :    0.008194
  17 O :   -0.517561
  18 H :    0.177072
  19 O :   -0.505808
  20 H :    0.124215
  21 H :    0.150123
  22 H :    0.145001
  23 H :    0.135674
  24 H :    0.146482
Sum of atomic charges:   -0.0000000

LOEWDIN ATOMIC CHARGES
----------------------
   0 C :    0.183377
   1 C :   -0.232334
   2 C :   -0.217222
   3 C :   -0.024592
   4 O :   -0.301850
   5 H :    0.093694
   6 H :    0.115490
   7 H :    0.111013
   8 H :    0.114392
   9 H :    0.117972
  10 H :    0.111376
  11 H :    0.101777
  12 C :   -0.033610
  13 H :    0.091043
  14 C :    0.037446
  15 C :   -0.241256
  16 C :   -0.027462
  17 O :   -0.327738
  18 H :    0.127853
  19 O :   -0.326795
  20 H :    0.093880
  21 H :    0.116412
  22 H :    0.115036
  23 H :    0.098582
  24 H :    0.103515

  Mayer bond orders larger than 0.100000
B(  0-C ,  1-C ) :   0.9271 B(  0-C ,  4-O ) :   0.9365 B(  0-C ,  5-H ) :   0.9190
B(  0-C , 19-O ) :   0.8410 B(  1-C ,  2-C ) :   0.9539 B(  1-C ,  6-H ) :   0.9324
B(  1-C ,  7-H ) :   0.9244 B(  2-C ,  3-C ) :   0.9549 B(  2-C ,  8-H ) :   0.9447
B(  2-C ,  9-H ) :   0.9423 B(  3-C ,  4-O ) :   0.8344 B(  3-C , 10-H ) :   0.9338
B(  3-C , 11-H ) :   0.9397 B( 12-C , 13-H ) :   0.9160 B( 12-C , 14-C ) :   0.9346
B( 12-C , 17-O ) :   0.8691 B( 12-C , 18-H ) :   0.9283 B( 14-C , 15-C ) :   0.9288
B( 14-C , 19-O ) :   0.8448 B( 14-C , 20-H ) :   0.9182 B( 15-C , 16-C ) :   0.9448
B( 15-C , 21-H ) :   0.9273 B( 15-C , 22-H ) :   0.9346 B( 16-C , 17-O ) :   0.8641
B( 16-C , 23-H ) :   0.9326 B( 16-C , 24-H ) :   0.9357

FINAL SINGLE POINT ENERGY      -538.426974120928

DIPOLE MOMENT
-------------
                                X             Y             Z
Electronic contribution:     -2.06211      -4.12644       2.05246
Nuclear contribution   :      2.95753       4.86262      -3.19719
                        -----------------------------------------
Total Dipole Moment    :      0.89542       0.73618      -1.14473
                        -----------------------------------------
Magnitude (a.u.)       :      1.62915
Magnitude (Debye)      :      4.14098

Rotational constants in cm-1:     0.072911     0.022096     0.020953
Rotational constants in MHz :  2185.826838   662.428467   628.168749

                             ****ORCA TERMINATED NORMALLY****
TOTAL RUN TIME: 0 days 0 hours 7 minutes 13 seconds 726 msec
