                         Program Version 4.2.0 -  RELEASE  -
|  1> # Test redundant internal optimization
|  2> #
|  3> ! RKS B3LYP  Opt TightSCF SmallPrint
|  4>
|  5> %basis
|  6>         Basis "6-31G"
|  7> end
|  8>
|  9> %geom
| 10> Constraints
| 11> { D 4  0  15  12  150.0   C } # D for Dihedral angle
| 12> { D 0  15  12  16  180.0   C } # D for Dihedral angle
| 13> { D 0  4  3  2   C } # D for Dihedral angle
| 14> { D 4  3  2  1   C } # D for Dihedral angle
| 15> { D 3  2  1  0   C } # D for Dihedral angle
| 16> { D 2  1  0  4   C } # D for Dihedral angle
| 17> { D 1  0  4  3   C } # D for Dihedral angle
| 18> { D 16  20  19  18   C } # D for Dihedral angle
| 19> { D 20  19  18  17   C } # D for Dihedral angle
| 20> { D 19  18  17  16   C } # D for Dihedral angle
| 21> { D 18  17  16  20   C } # D for Dihedral angle
| 22> { D 17  16  20  19   C } # D for Dihedral angle
| 23> { D 15  12  16  20   C } # D for Dihedral angle
| 24> end
| 25> end
| 26>
| 27>
| 28> #%pal
| 29> #nprocs 8
| 30> #end
| 31>
| 32> * xyz 0 1
| 33> C  -21.048   26.222   46.251
| 34> C  -20.361   27.558   45.944
| 35> C  -20.329   28.222   47.341
| 36> C  -20.110   27.022   48.296
| 37> O  -20.473   25.807   47.535
| 38> H  -20.833   25.428   45.533
| 39> H  -19.344   27.382   45.576
| 40> H  -20.898   28.157   45.201
| 41> H  -19.543   28.978   47.434
| 42> H  -21.289   28.710   47.548
| 43> H  -20.733   27.082   49.195
| 44> H  -19.064   26.913   48.597
| 45> C  -23.210   27.459   45.431
| 46> H  -22.759   28.437   45.641
| 47> H  -23.010   27.206   44.382
| 48> O  -22.586   26.394   46.375
| 49> C  -24.749   27.584   45.602
| 50> C  -25.114   28.100   46.999
| 51> C  -24.851   29.618   46.850
| 52> C  -25.267   29.905   45.385
| 53> O  -25.284   28.601   44.690
| 54> H  -25.217   26.636   45.334
| 55> H  -26.173   27.910   47.205
| 56> O  -24.270   27.450   48.129
| 57> H  -25.417   30.219   47.570
| 58> H  -23.786   29.832   47.000
| 59> H  -24.566   30.575   44.875
| 60> H  -26.274   30.324   45.312
| 61> H  -23.206   27.629   47.943
| 62> *
| 63>
| 64>                          ****END OF INPUT****
 Total Charge           Charge          ....    0
 Multiplicity           Mult            ....    1
 Number of Electrons    NEL             ....  102
FINAL SINGLE POINT ENERGY      -652.821676623090
FINAL SINGLE POINT ENERGY      -652.846543842917
FINAL SINGLE POINT ENERGY      -652.854030042091
FINAL SINGLE POINT ENERGY      -652.857311358645
FINAL SINGLE POINT ENERGY      -652.859382530379
FINAL SINGLE POINT ENERGY      -652.860899713679
FINAL SINGLE POINT ENERGY      -652.861907101903
FINAL SINGLE POINT ENERGY      -652.862456095655
FINAL SINGLE POINT ENERGY      -652.862544781982
FINAL SINGLE POINT ENERGY      -652.862561719253
FINAL SINGLE POINT ENERGY      -652.862564819611
                    ***********************HURRAY********************

CARTESIAN COORDINATES (ANGSTROEM)
---------------------------------
  C    -21.114484   26.277850   46.232693
  C    -20.222731   27.478900   45.922428
  C    -20.251505   28.255670   47.262631
  C    -20.307641   27.127214   48.312207
  O    -20.755622   25.914507   47.570637
  H    -20.966490   25.399742   45.601017
  H    -19.213521   27.108321   45.711233
  H    -20.544771   28.074353   45.064793
  H    -19.376866   28.900284   47.388601
  H    -21.148510   28.880862   47.326098
  H    -21.020392   27.323611   49.116502
  H    -19.329794   26.885828   48.736920
  C    -23.130445   27.564073   45.330747
  H    -22.673849   28.551841   45.469870
  H    -22.988337   27.255864   44.287852
  O    -22.550184   26.587649   46.252599
  C    -24.628065   27.609636   45.654769
  C    -24.968757   28.099193   47.073403
  C    -24.848791   29.644073   46.911364
  C    -25.359140   29.884242   45.474927
  O    -25.293362   28.567398   44.775746
  H    -25.064518   26.629601   45.443644
  H    -26.011571   27.834544   47.288032
  O    -24.139584   27.599607   48.141605
  H    -25.431394   30.179685   47.665034
  H    -23.798470   29.928397   47.032684
  H    -24.758742   30.608619   44.915700
  H    -26.406327   30.198685   45.446528
  H    -23.460139   26.989752   47.763734

 Multiplicity           Mult            ....    1
 Number of Electrons    NEL             ....  102
 Basis Dimension        Dim             ....  149

ORBITAL ENERGIES
----------------

  NO   OCC          E(Eh)            E(eV)
   0   2.0000     -19.161669      -521.4155
   1   2.0000     -19.152276      -521.1599
   2   2.0000     -19.141612      -520.8697
   3   2.0000     -19.110210      -520.0152
   4   2.0000     -10.294283      -280.1217
   5   2.0000     -10.241801      -278.6936
   6   2.0000     -10.235447      -278.5207
   7   2.0000     -10.233822      -278.4765
   8   2.0000     -10.230104      -278.3753
   9   2.0000     -10.227881      -278.3148
  10   2.0000     -10.201863      -277.6068
  11   2.0000     -10.198918      -277.5267
  12   2.0000     -10.180494      -277.0253
  13   2.0000      -1.067114       -29.0376
  14   2.0000      -1.026991       -27.9459
  15   2.0000      -1.007684       -27.4205
  16   2.0000      -0.989356       -26.9217
  17   2.0000      -0.799444       -21.7540
  18   2.0000      -0.776924       -21.1412
  19   2.0000      -0.768948       -20.9241
  20   2.0000      -0.738913       -20.1068
  21   2.0000      -0.683164       -18.5898
  22   2.0000      -0.612593       -16.6695
  23   2.0000      -0.599717       -16.3191
  24   2.0000      -0.596250       -16.2248
  25   2.0000      -0.578701       -15.7473
  26   2.0000      -0.530564       -14.4374
  27   2.0000      -0.519576       -14.1384
  28   2.0000      -0.509600       -13.8669
  29   2.0000      -0.489656       -13.3242
  30   2.0000      -0.477703       -12.9990
  31   2.0000      -0.460110       -12.5202
  32   2.0000      -0.448285       -12.1985
  33   2.0000      -0.437532       -11.9059
  34   2.0000      -0.429561       -11.6889
  35   2.0000      -0.418277       -11.3819
  36   2.0000      -0.411681       -11.2024
  37   2.0000      -0.390658       -10.6304
  38   2.0000      -0.384035       -10.4501
  39   2.0000      -0.371946       -10.1212
  40   2.0000      -0.367864       -10.0101
  41   2.0000      -0.365762        -9.9529
  42   2.0000      -0.350560        -9.5392
  43   2.0000      -0.341079        -9.2812
  44   2.0000      -0.324392        -8.8272
  45   2.0000      -0.313767        -8.5380
  46   2.0000      -0.290587        -7.9073
  47   2.0000      -0.276192        -7.5156
  48   2.0000      -0.265480        -7.2241
  49   2.0000      -0.247960        -6.7473
  50   2.0000      -0.242938        -6.6107
  51   0.0000       0.054536         1.4840
  52   0.0000       0.066168         1.8005
  53   0.0000       0.090027         2.4498
  54   0.0000       0.094383         2.5683
  55   0.0000       0.103643         2.8203

MULLIKEN ATOMIC CHARGES
-----------------------
   0 C :    0.325923
   1 C :   -0.295015
   2 C :   -0.307867
   3 C :   -0.013725
   4 O :   -0.499075
   5 H :    0.159955
   6 H :    0.157914
   7 H :    0.149931
   8 H :    0.149673
   9 H :    0.161737
  10 H :    0.170006
  11 H :    0.150090
  12 C :   -0.011201
  13 H :    0.136537
  14 H :    0.153624
  15 O :   -0.566934
  16 C :    0.052905
  17 C :    0.125216
  18 C :   -0.296189
  19 C :   -0.023785
  20 O :   -0.523099
  21 H :    0.163670
  22 H :    0.142364
  23 O :   -0.651578
  24 H :    0.152696
  25 H :    0.139933
  26 H :    0.140481
  27 H :    0.150209
  28 H :    0.405602
Sum of atomic charges:    0.0000000

LOEWDIN ATOMIC CHARGES
----------------------
   0 C :    0.187362
   1 C :   -0.231799
   2 C :   -0.218547
   3 C :   -0.028485
   4 O :   -0.303706
   5 H :    0.108164
   6 H :    0.122927
   7 H :    0.117352
   8 H :    0.118748
   9 H :    0.114647
  10 H :    0.116423
  11 H :    0.107377
  12 C :   -0.044050
  13 H :    0.094429
  14 H :    0.107129
  15 O :   -0.345701
  16 C :    0.020620
  17 C :    0.043638
  18 C :   -0.232893
  19 C :   -0.033778
  20 O :   -0.323895
  21 H :    0.117232
  22 H :    0.101915
  23 O :   -0.442554
  24 H :    0.122075
  25 H :    0.107274
  26 H :    0.100808
  27 H :    0.106478
  28 H :    0.290810

  Mayer bond orders larger than 0.100000
B(  0-C ,  1-C ) :   0.9353 B(  0-C ,  4-O ) :   0.9458 B(  0-C ,  5-H ) :   0.9255
B(  0-C , 15-O ) :   0.7868 B(  1-C ,  2-C ) :   0.9465 B(  1-C ,  6-H ) :   0.9329
B(  1-C ,  7-H ) :   0.9277 B(  2-C ,  3-C ) :   0.9520 B(  2-C ,  8-H ) :   0.9447
B(  2-C ,  9-H ) :   0.9377 B(  3-C ,  4-O ) :   0.8250 B(  3-C , 10-H ) :   0.9306
B(  3-C , 11-H ) :   0.9394 B( 12-C , 13-H ) :   0.9112 B( 12-C , 14-H ) :   0.9237
B( 12-C , 15-O ) :   0.7887 B( 12-C , 16-C ) :   0.9017 B( 16-C , 17-C ) :   0.9157
B( 16-C , 20-O ) :   0.8565 B( 16-C , 21-H ) :   0.9282 B( 17-C , 18-C ) :   0.9047
B( 17-C , 22-H ) :   0.9272 B( 17-C , 23-O ) :   0.9321 B( 18-C , 19-C ) :   0.9416
B( 18-C , 24-H ) :   0.9441 B( 18-C , 25-H ) :   0.9424 B( 19-C , 20-O ) :   0.8333
B( 19-C , 26-H ) :   0.9343 B( 19-C , 27-H ) :   0.9381 B( 23-O , 28-H ) :   0.7091

FINAL SINGLE POINT ENERGY      -652.862564818931

DIPOLE MOMENT
-------------
                                X             Y             Z
Electronic contribution:     -2.68442      -5.62663      -0.24068
Nuclear contribution   :      3.82883       6.63230      -0.40389
                        -----------------------------------------
Total Dipole Moment    :      1.14442       1.00567      -0.64457
                        -----------------------------------------
Magnitude (a.u.)       :      1.65425
Magnitude (Debye)      :      4.20477

Rotational constants in cm-1:     0.051041     0.015565     0.014832
Rotational constants in MHz :  1530.161086   466.624429   444.662539

                             ****ORCA TERMINATED NORMALLY****
TOTAL RUN TIME: 0 days 1 hours 16 minutes 5 seconds 489 msec
