                         Program Version 4.2.0 -  RELEASE  -
|  1> # Test redundant internal optimization
|  2> #
|  3> ! RKS B3LYP  Opt TightSCF SmallPrint
|  4>
|  5> %basis
|  6>         Basis "6-31G"
|  7> end
|  8>
|  9> %geom
| 10> Constraints
| 11> { D 4  0  15  12  270.0   C } # D for Dihedral angle
| 12> { D 0  15  12  16  90.0   C } # D for Dihedral angle
| 13> { D 0  4  3  2   C } # D for Dihedral angle
| 14> { D 4  3  2  1   C } # D for Dihedral angle
| 15> { D 3  2  1  0   C } # D for Dihedral angle
| 16> { D 2  1  0  4   C } # D for Dihedral angle
| 17> { D 1  0  4  3   C } # D for Dihedral angle
| 18> { D 16  20  19  18   C } # D for Dihedral angle
| 19> { D 20  19  18  17   C } # D for Dihedral angle
| 20> { D 19  18  17  16   C } # D for Dihedral angle
| 21> { D 18  17  16  20   C } # D for Dihedral angle
| 22> { D 17  16  20  19   C } # D for Dihedral angle
| 23> { D 15  12  16  20   C } # D for Dihedral angle
| 24> end
| 25> end
| 26>
| 27>
| 28> #%pal
| 29> #nprocs 8
| 30> #end
| 31>
| 32> * xyz 0 1
| 33> C  -21.048   26.222   46.251
| 34> C  -20.361   27.558   45.944
| 35> C  -20.329   28.222   47.341
| 36> C  -20.110   27.022   48.296
| 37> O  -20.473   25.807   47.535
| 38> H  -20.833   25.428   45.533
| 39> H  -19.344   27.382   45.576
| 40> H  -20.898   28.157   45.201
| 41> H  -19.543   28.978   47.434
| 42> H  -21.289   28.710   47.548
| 43> H  -20.733   27.082   49.195
| 44> H  -19.064   26.913   48.597
| 45> C  -23.420   25.119   46.072
| 46> H  -24.391   25.412   45.655
| 47> H  -22.905   24.490   45.334
| 48> O  -22.586   26.394   46.375
| 49> C  -23.672   24.252   47.337
| 50> C  -24.537   24.999   48.359
| 51> C  -25.953   24.818   47.764
| 52> C  -25.894   23.400   47.141
| 53> O  -24.462   23.065   46.995
| 54> H  -22.716   23.899   47.726
| 55> H  -24.465   24.512   49.339
| 56> O  -24.138   26.491   48.523
| 57> H  -26.744   24.911   48.514
| 58> H  -26.135   25.573   46.990
| 59> H  -26.376   23.354   46.158
| 60> H  -26.340   22.641   47.789
| 61> H  -24.203   26.997   47.554
| 62> *
| 63>
| 64>                          ****END OF INPUT****
 Total Charge           Charge          ....    0
 Multiplicity           Mult            ....    1
 Number of Electrons    NEL             ....  102
FINAL SINGLE POINT ENERGY      -652.835888972678
FINAL SINGLE POINT ENERGY      -652.861408038362
FINAL SINGLE POINT ENERGY      -652.867704260441
FINAL SINGLE POINT ENERGY      -652.869918428189
FINAL SINGLE POINT ENERGY      -652.871093780741
FINAL SINGLE POINT ENERGY      -652.871680572479
FINAL SINGLE POINT ENERGY      -652.871836839454
FINAL SINGLE POINT ENERGY      -652.871869690624
                    ***********************HURRAY********************

CARTESIAN COORDINATES (ANGSTROEM)
---------------------------------
  C    -21.072522   26.131048   46.225602
  C    -20.469941   27.510416   45.958700
  C    -20.555190   28.169956   47.355368
  C    -20.300397   26.987808   48.316941
  O    -20.544375   25.757061   47.514534
  H    -20.809055   25.337489   45.521735
  H    -19.427065   27.391490   45.643871
  H    -21.015379   28.056122   45.186372
  H    -19.823526   28.973116   47.483958
  H    -21.553106   28.590723   47.510996
  H    -20.981580   26.977114   49.170993
  H    -19.265794   26.933176   48.665587
  C    -23.331286   25.095105   45.990986
  H    -24.249453   25.469051   45.530558
  H    -22.817426   24.443876   45.273694
  O    -22.515543   26.283552   46.274729
  C    -23.616432   24.321201   47.286163
  C    -24.445673   25.093965   48.326960
  C    -25.888352   24.924938   47.769563
  C    -25.866619   23.506102   47.163615
  O    -24.428736   23.145001   46.979892
  H    -22.672540   23.961127   47.703538
  H    -24.366263   24.580928   49.291191
  O    -24.056708   26.466463   48.547868
  H    -26.642459   25.040921   48.552775
  H    -26.072613   25.694737   47.011921
  H    -26.372692   23.439742   46.195360
  H    -26.292324   22.754640   47.835094
  H    -23.508949   26.771134   47.787436

 Multiplicity           Mult            ....    1
 Number of Electrons    NEL             ....  102
 Basis Dimension        Dim             ....  149

ORBITAL ENERGIES
----------------

  NO   OCC          E(Eh)            E(eV)
   0   2.0000     -19.164948      -521.5047
   1   2.0000     -19.147894      -521.0407
   2   2.0000     -19.137204      -520.7498
   3   2.0000     -19.115727      -520.1654
   4   2.0000     -10.291323      -280.0411
   5   2.0000     -10.238451      -278.6024
   6   2.0000     -10.228978      -278.3446
   7   2.0000     -10.228897      -278.3424
   8   2.0000     -10.227886      -278.3149
   9   2.0000     -10.225073      -278.2384
  10   2.0000     -10.192913      -277.3633
  11   2.0000     -10.191209      -277.3169
  12   2.0000     -10.178474      -276.9704
  13   2.0000      -1.066304       -29.0156
  14   2.0000      -1.022471       -27.8229
  15   2.0000      -1.005958       -27.3735
  16   2.0000      -0.993089       -27.0233
  17   2.0000      -0.795402       -21.6440
  18   2.0000      -0.770313       -20.9613
  19   2.0000      -0.765233       -20.8230
  20   2.0000      -0.734868       -19.9968
  21   2.0000      -0.678237       -18.4558
  22   2.0000      -0.605149       -16.4669
  23   2.0000      -0.600215       -16.3327
  24   2.0000      -0.594198       -16.1690
  25   2.0000      -0.581837       -15.8326
  26   2.0000      -0.525004       -14.2861
  27   2.0000      -0.522965       -14.2306
  28   2.0000      -0.495229       -13.4759
  29   2.0000      -0.486922       -13.2498
  30   2.0000      -0.469987       -12.7890
  31   2.0000      -0.456075       -12.4104
  32   2.0000      -0.443863       -12.0781
  33   2.0000      -0.437869       -11.9150
  34   2.0000      -0.423125       -11.5138
  35   2.0000      -0.411051       -11.1853
  36   2.0000      -0.407054       -11.0765
  37   2.0000      -0.388543       -10.5728
  38   2.0000      -0.381267       -10.3748
  39   2.0000      -0.364020        -9.9055
  40   2.0000      -0.362724        -9.8702
  41   2.0000      -0.355933        -9.6854
  42   2.0000      -0.349213        -9.5026
  43   2.0000      -0.340968        -9.2782
  44   2.0000      -0.332134        -9.0378
  45   2.0000      -0.316188        -8.6039
  46   2.0000      -0.293767        -7.9938
  47   2.0000      -0.280023        -7.6198
  48   2.0000      -0.262862        -7.1528
  49   2.0000      -0.247486        -6.7344
  50   2.0000      -0.237599        -6.4654
  51   0.0000       0.057175         1.5558
  52   0.0000       0.084544         2.3006
  53   0.0000       0.093177         2.5355
  54   0.0000       0.098351         2.6763
  55   0.0000       0.103993         2.8298

MULLIKEN ATOMIC CHARGES
-----------------------
   0 C :    0.284141
   1 C :   -0.255368
   2 C :   -0.306664
   3 C :   -0.014435
   4 O :   -0.504907
   5 H :    0.152204
   6 H :    0.150299
   7 H :    0.156506
   8 H :    0.146967
   9 H :    0.164295
  10 H :    0.168777
  11 H :    0.146102
  12 C :   -0.043789
  13 H :    0.156973
  14 H :    0.155476
  15 O :   -0.544480
  16 C :    0.057816
  17 C :    0.117228
  18 C :   -0.308990
  19 C :   -0.020826
  20 O :   -0.522298
  21 H :    0.177183
  22 H :    0.149575
  23 O :   -0.644550
  24 H :    0.153113
  25 H :    0.144070
  26 H :    0.140367
  27 H :    0.150447
  28 H :    0.394765
Sum of atomic charges:   -0.0000000

LOEWDIN ATOMIC CHARGES
----------------------
   0 C :    0.173208
   1 C :   -0.215577
   2 C :   -0.216634
   3 C :   -0.030442
   4 O :   -0.324108
   5 H :    0.104436
   6 H :    0.116935
   7 H :    0.123820
   8 H :    0.116845
   9 H :    0.118697
  10 H :    0.115591
  11 H :    0.105506
  12 C :   -0.045363
  13 H :    0.112137
  14 H :    0.110528
  15 O :   -0.332786
  16 C :    0.006620
  17 C :    0.042790
  18 C :   -0.239633
  19 C :   -0.033144
  20 O :   -0.325846
  21 H :    0.123113
  22 H :    0.107120
  23 O :   -0.435609
  24 H :    0.121587
  25 H :    0.110303
  26 H :    0.100924
  27 H :    0.106230
  28 H :    0.282753

  Mayer bond orders larger than 0.100000
B(  0-C ,  1-C ) :   0.9500 B(  0-C ,  4-O ) :   0.9281 B(  0-C ,  5-H ) :   0.9179
B(  0-C , 15-O ) :   0.8130 B(  1-C ,  2-C ) :   0.9539 B(  1-C ,  6-H ) :   0.9383
B(  1-C ,  7-H ) :   0.9363 B(  2-C ,  3-C ) :   0.9524 B(  2-C ,  8-H ) :   0.9451
B(  2-C ,  9-H ) :   0.9435 B(  3-C ,  4-O ) :   0.8252 B(  3-C , 10-H ) :   0.9291
B(  3-C , 11-H ) :   0.9396 B( 12-C , 13-H ) :   0.9375 B( 12-C , 14-H ) :   0.9265
B( 12-C , 15-O ) :   0.8013 B( 12-C , 16-C ) :   0.8866 B( 16-C , 17-C ) :   0.9139
B( 16-C , 20-O ) :   0.8463 B( 16-C , 21-H ) :   0.9215 B( 17-C , 18-C ) :   0.9020
B( 17-C , 22-H ) :   0.9326 B( 17-C , 23-O ) :   0.9298 B( 18-C , 19-C ) :   0.9406
B( 18-C , 24-H ) :   0.9441 B( 18-C , 25-H ) :   0.9436 B( 19-C , 20-O ) :   0.8340
B( 19-C , 26-H ) :   0.9342 B( 19-C , 27-H ) :   0.9383 B( 23-O , 28-H ) :   0.7195

FINAL SINGLE POINT ENERGY      -652.871871841099

DIPOLE MOMENT
-------------
                                X             Y             Z
Electronic contribution:      0.44930      -3.16351       0.20098
Nuclear contribution   :     -0.14727       3.78691      -0.98003
                        -----------------------------------------
Total Dipole Moment    :      0.30203       0.62340      -0.77905
                        -----------------------------------------
Magnitude (a.u.)       :      1.04248
Magnitude (Debye)      :      2.64979

Rotational constants in cm-1:     0.058843     0.014868     0.013839
Rotational constants in MHz :  1764.068606   445.737620   414.877517

                             ****ORCA TERMINATED NORMALLY****
TOTAL RUN TIME: 0 days 0 hours 27 minutes 36 seconds 318 msec
