                         Program Version 4.2.1 -  RELEASE  -
|  1> # Test redundant internal optimization
|  2> #
|  3> ! RKS B3LYP  Opt TightSCF SmallPrint
|  4>
|  5> %basis
|  6>         Basis "6-31G"
|  7> end
|  8>
|  9> %geom
| 10> Constraints
| 11> { D 4  0  19  14  300.0   C } # D for Dihedral angle
| 12> { D 0  19  14  12  330.0   C } # D for Dihedral angle
| 13> { D 0  4  3  2   C } # D for Dihedral angle
| 14> { D 4  3  2  1   C } # D for Dihedral angle
| 15> { D 3  2  1  0   C } # D for Dihedral angle
| 16> { D 2  1  0  4   C } # D for Dihedral angle
| 17> { D 1  0  4  3   C } # D for Dihedral angle
| 18> { D 14  15  16  17   C } # D for Dihedral angle
| 19> { D 15  16  17  12   C } # D for Dihedral angle
| 20> { D 16  17  12  14   C } # D for Dihedral angle
| 21> { D 17  12  14  15   C } # D for Dihedral angle
| 22> { D 12  14  15  16   C } # D for Dihedral angle
| 23> end
| 24> end
| 25>
| 26>
| 27> #%pal
| 28> #nprocs 8
| 29> #end
| 30>
| 31> * xyz 0 1
| 32> C  -21.048   26.222   46.251
| 33> C  -20.361   27.558   45.944
| 34> C  -20.329   28.222   47.341
| 35> C  -20.110   27.022   48.296
| 36> O  -20.473   25.807   47.535
| 37> H  -20.833   25.428   45.533
| 38> H  -19.344   27.382   45.576
| 39> H  -20.898   28.157   45.201
| 40> H  -19.543   28.978   47.434
| 41> H  -21.289   28.710   47.548
| 42> H  -20.733   27.082   49.195
| 43> H  -19.064   26.913   48.597
| 44> C  -22.422   23.950   46.253
| 45> H  -23.064   23.055   46.279
| 46> C  -23.171   25.189   46.758
| 47> C  -23.104   24.994   48.290
| 48> C  -21.716   24.339   48.501
| 49> O  -21.300   23.802   47.187
| 50> H  -21.995   24.055   45.255
| 51> O  -22.472   26.381   46.366
| 52> H  -24.199   25.252   46.382
| 53> H  -23.211   25.933   48.843
| 54> H  -23.903   24.319   48.621
| 55> H  -21.742   23.522   49.231
| 56> H  -20.954   25.063   48.808
| 57> *
| 58>
| 59>                          ****END OF INPUT****
 Total Charge           Charge          ....    0
 Multiplicity           Mult            ....    1
 Number of Electrons    NEL             ....   86
FINAL SINGLE POINT ENERGY      -538.361530187873
FINAL SINGLE POINT ENERGY      -538.425880779208
FINAL SINGLE POINT ENERGY      -538.429601935688
FINAL SINGLE POINT ENERGY      -538.430328227094
FINAL SINGLE POINT ENERGY      -538.430486762819
FINAL SINGLE POINT ENERGY      -538.430573148710
FINAL SINGLE POINT ENERGY      -538.430576166034
FINAL SINGLE POINT ENERGY      -538.430583611580
FINAL SINGLE POINT ENERGY      -538.430586897510
                    ***********************HURRAY********************

CARTESIAN COORDINATES (ANGSTROEM)
---------------------------------
  C    -20.817239   26.316304   46.198948
  C    -20.414666   27.765140   45.918692
  C    -20.362490   28.358982   47.345292
  C    -19.840735   27.182781   48.198496
  O    -20.062300   25.957496   47.382995
  H    -20.519994   25.588154   45.439945
  H    -19.425181   27.776596   45.447793
  H    -21.128719   28.271265   45.266245
  H    -19.715797   29.239173   47.412323
  H    -21.370599   28.645923   47.657574
  H    -20.368663   27.077243   49.150708
  H    -18.765078   27.238628   48.390206
  C    -22.506358   23.756199   46.336981
  H    -23.342897   23.042156   46.293320
  C    -23.031078   25.129725   46.755518
  C    -23.171133   24.954901   48.276538
  C    -21.985710   24.032885   48.653415
  O    -21.548142   23.391346   47.382352
  H    -21.977963   23.741098   45.381335
  O    -22.248931   26.306498   46.368886
  H    -24.001611   25.339536   46.294974
  H    -23.146998   25.919931   48.788354
  H    -24.131294   24.473381   48.495641
  H    -22.271267   23.247096   49.361328
  H    -21.123159   24.582562   49.027142

 Multiplicity           Mult            ....    1
 Number of Electrons    NEL             ....   86
 Basis Dimension        Dim             ....  127

ORBITAL ENERGIES
----------------

  NO   OCC          E(Eh)            E(eV)
   0   2.0000     -19.139118      -520.8019
   1   2.0000     -19.137321      -520.7530
   2   2.0000     -19.122614      -520.3528
   3   2.0000     -10.275337      -279.6061
   4   2.0000     -10.238124      -278.5935
   5   2.0000     -10.223677      -278.2004
   6   2.0000     -10.221815      -278.1497
   7   2.0000     -10.210022      -277.8288
   8   2.0000     -10.183465      -277.1062
   9   2.0000     -10.182603      -277.0827
  10   2.0000     -10.179897      -277.0091
  11   2.0000      -1.047873       -28.5141
  12   2.0000      -1.005036       -27.3484
  13   2.0000      -0.986372       -26.8405
  14   2.0000      -0.790884       -21.5210
  15   2.0000      -0.774229       -21.0678
  16   2.0000      -0.734174       -19.9779
  17   2.0000      -0.720454       -19.6045
  18   2.0000      -0.618576       -16.8323
  19   2.0000      -0.595730       -16.2106
  20   2.0000      -0.592353       -16.1188
  21   2.0000      -0.560275       -15.2459
  22   2.0000      -0.516756       -14.0616
  23   2.0000      -0.497680       -13.5426
  24   2.0000      -0.484757       -13.1909
  25   2.0000      -0.477978       -13.0064
  26   2.0000      -0.445591       -12.1251
  27   2.0000      -0.438933       -11.9440
  28   2.0000      -0.422538       -11.4978
  29   2.0000      -0.409316       -11.1380
  30   2.0000      -0.398953       -10.8561
  31   2.0000      -0.381880       -10.3915
  32   2.0000      -0.373861       -10.1733
  33   2.0000      -0.361942        -9.8490
  34   2.0000      -0.356831        -9.7099
  35   2.0000      -0.351995        -9.5783
  36   2.0000      -0.339634        -9.2419
  37   2.0000      -0.323123        -8.7926
  38   2.0000      -0.301663        -8.2087
  39   2.0000      -0.286813        -7.8046
  40   2.0000      -0.263773        -7.1776
  41   2.0000      -0.248703        -6.7676
  42   2.0000      -0.227656        -6.1948
  43   0.0000       0.075636         2.0582
  44   0.0000       0.092899         2.5279
  45   0.0000       0.103360         2.8126
  46   0.0000       0.110972         3.0197
  47   0.0000       0.115169         3.1339

MULLIKEN ATOMIC CHARGES
-----------------------
   0 C :    0.303679
   1 C :   -0.261919
   2 C :   -0.297257
   3 C :   -0.012256
   4 O :   -0.497779
   5 H :    0.149506
   6 H :    0.146216
   7 H :    0.157632
   8 H :    0.139895
   9 H :    0.158379
  10 H :    0.137054
  11 H :    0.147042
  12 C :   -0.033767
  13 H :    0.132191
  14 C :    0.106933
  15 C :   -0.294115
  16 C :   -0.003360
  17 O :   -0.515309
  18 H :    0.152605
  19 O :   -0.545198
  20 H :    0.143967
  21 H :    0.152545
  22 H :    0.135925
  23 H :    0.129606
  24 H :    0.167784
Sum of atomic charges:   -0.0000000

LOEWDIN ATOMIC CHARGES
----------------------
   0 C :    0.177705
   1 C :   -0.213670
   2 C :   -0.216244
   3 C :   -0.033179
   4 O :   -0.316067
   5 H :    0.098616
   6 H :    0.114253
   7 H :    0.124568
   8 H :    0.113089
   9 H :    0.116959
  10 H :    0.098750
  11 H :    0.104466
  12 C :   -0.051351
  13 H :    0.097270
  14 C :    0.045117
  15 C :   -0.232312
  16 C :   -0.034806
  17 O :   -0.328217
  18 H :    0.112560
  19 O :   -0.331573
  20 H :    0.110044
  21 H :    0.122311
  22 H :    0.111479
  23 H :    0.094990
  24 H :    0.115241

  Mayer bond orders larger than 0.100000
B(  0-C ,  1-C ) :   0.9416 B(  0-C ,  4-O ) :   0.9025 B(  0-C ,  5-H ) :   0.9200
B(  0-C , 19-O ) :   0.8520 B(  1-C ,  2-C ) :   0.9578 B(  1-C ,  6-H ) :   0.9404
B(  1-C ,  7-H ) :   0.9363 B(  2-C ,  3-C ) :   0.9550 B(  2-C ,  8-H ) :   0.9453
B(  2-C ,  9-H ) :   0.9447 B(  3-C ,  4-O ) :   0.8415 B(  3-C , 10-H ) :   0.9334
B(  3-C , 11-H ) :   0.9395 B( 12-C , 13-H ) :   0.9097 B( 12-C , 14-C ) :   0.9246
B( 12-C , 17-O ) :   0.8756 B( 12-C , 18-H ) :   0.9310 B( 14-C , 15-C ) :   0.9313
B( 14-C , 19-O ) :   0.8534 B( 14-C , 20-H ) :   0.9366 B( 15-C , 16-C ) :   0.9521
B( 15-C , 21-H ) :   0.9379 B( 15-C , 22-H ) :   0.9388 B( 16-C , 17-O ) :   0.8451
B( 16-C , 23-H ) :   0.9332 B( 16-C , 24-H ) :   0.9214

FINAL SINGLE POINT ENERGY      -538.430588711705

DIPOLE MOMENT
-------------
                                X             Y             Z
Electronic contribution:      0.45721      -2.91644      -1.82497
Nuclear contribution   :     -0.96193       3.74982       1.90258
                        -----------------------------------------
Total Dipole Moment    :     -0.50472       0.83338       0.07760
                        -----------------------------------------
Magnitude (a.u.)       :      0.97739
Magnitude (Debye)      :      2.48433

Rotational constants in cm-1:     0.069427     0.027177     0.024960
Rotational constants in MHz :  2081.379628   814.743245   748.272694

                             ****ORCA TERMINATED NORMALLY****
TOTAL RUN TIME: 0 days 0 hours 11 minutes 20 seconds 599 msec
