                         Program Version 4.2.0 -  RELEASE  -
|  1> # Test redundant internal optimization
|  2> #
|  3> ! RKS B3LYP  Opt TightSCF SmallPrint
|  4>
|  5> %basis
|  6>         Basis "6-31G"
|  7> end
|  8>
|  9> %geom
| 10> Constraints
| 11> { D 4  0  15  12  300.0   C } # D for Dihedral angle
| 12> { D 0  15  12  16  150.0   C } # D for Dihedral angle
| 13> { D 0  4  3  2   C } # D for Dihedral angle
| 14> { D 4  3  2  1   C } # D for Dihedral angle
| 15> { D 3  2  1  0   C } # D for Dihedral angle
| 16> { D 2  1  0  4   C } # D for Dihedral angle
| 17> { D 1  0  4  3   C } # D for Dihedral angle
| 18> { D 16  20  19  18   C } # D for Dihedral angle
| 19> { D 20  19  18  17   C } # D for Dihedral angle
| 20> { D 19  18  17  16   C } # D for Dihedral angle
| 21> { D 18  17  16  20   C } # D for Dihedral angle
| 22> { D 17  16  20  19   C } # D for Dihedral angle
| 23> { D 15  12  16  20   C } # D for Dihedral angle
| 24> end
| 25> end
| 26>
| 27>
| 28> #%pal
| 29> #nprocs 8
| 30> #end
| 31>
| 32> * xyz 0 1
| 33> C  -21.048   26.222   46.251
| 34> C  -20.361   27.558   45.944
| 35> C  -20.329   28.222   47.341
| 36> C  -20.110   27.022   48.296
| 37> O  -20.473   25.807   47.535
| 38> H  -20.833   25.428   45.533
| 39> H  -19.344   27.382   45.576
| 40> H  -20.898   28.157   45.201
| 41> H  -19.543   28.978   47.434
| 42> H  -21.289   28.710   47.548
| 43> H  -20.733   27.082   49.195
| 44> H  -19.064   26.913   48.597
| 45> C  -23.362   25.116   46.798
| 46> H  -23.644   24.551   45.901
| 47> H  -22.730   24.473   47.424
| 48> O  -22.586   26.394   46.375
| 49> C  -24.653   25.436   47.601
| 50> C  -25.671   26.192   46.740
| 51> C  -26.289   25.045   45.905
| 52> C  -26.297   23.854   46.896
| 53> O  -25.344   24.197   47.973
| 54> H  -24.381   25.942   48.529
| 55> H  -26.430   26.658   47.378
| 56> O  -25.025   27.297   45.861
| 57> H  -27.290   25.283   45.532
| 58> H  -25.652   24.824   45.040
| 59> H  -25.984   22.915   46.426
| 60> H  -27.274   23.706   47.364
| 61> H  -24.261   26.853   45.213
| 62> *
| 63>
| 64>                          ****END OF INPUT****
 Total Charge           Charge          ....    0
 Multiplicity           Mult            ....    1
 Number of Electrons    NEL             ....  102
FINAL SINGLE POINT ENERGY      -652.836472341498
FINAL SINGLE POINT ENERGY      -652.861582324167
FINAL SINGLE POINT ENERGY      -652.867877909499
FINAL SINGLE POINT ENERGY      -652.870169856684
FINAL SINGLE POINT ENERGY      -652.871416211049
FINAL SINGLE POINT ENERGY      -652.872056122069
FINAL SINGLE POINT ENERGY      -652.872265684348
FINAL SINGLE POINT ENERGY      -652.872312507167
FINAL SINGLE POINT ENERGY      -652.872315691085
                    ***********************HURRAY********************

CARTESIAN COORDINATES (ANGSTROEM)
---------------------------------
  C    -21.078983   26.114998   46.244168
  C    -20.525343   27.505309   45.937533
  C    -20.564783   28.174736   47.329293
  C    -20.237053   27.012696   48.290450
  O    -20.484827   25.765651   47.510975
  H    -20.812104   25.317524   45.544864
  H    -19.496834   27.406405   45.573282
  H    -21.116409   28.034183   45.186610
  H    -19.850873   28.999067   47.417503
  H    -21.567916   28.565760   47.521750
  H    -20.865604   26.998253   49.183756
  H    -19.185007   26.984711   48.586778
  C    -23.238031   25.015091   46.764983
  H    -23.476160   24.408399   45.881702
  H    -22.604247   24.436254   47.441923
  O    -22.523031   26.228060   46.338109
  C    -24.501519   25.457924   47.508533
  C    -25.517484   26.242376   46.661313
  C    -26.231877   25.097580   45.885152
  C    -26.259954   23.945223   46.909622
  O    -25.236707   24.273490   47.946634
  H    -24.208533   26.002767   48.410318
  H    -26.234496   26.725169   47.335306
  O    -24.975755   27.271114   45.810177
  H    -27.228767   25.394346   45.550620
  H    -25.639851   24.847829   44.997817
  H    -26.017350   22.970698   46.474752
  H    -27.217968   23.868536   47.431944
  H    -24.000535   27.152849   45.731134

 Multiplicity           Mult            ....    1
 Number of Electrons    NEL             ....  102
 Basis Dimension        Dim             ....  149

ORBITAL ENERGIES
----------------

  NO   OCC          E(Eh)            E(eV)
   0   2.0000     -19.164484      -521.4921
   1   2.0000     -19.153393      -521.1903
   2   2.0000     -19.138222      -520.7775
   3   2.0000     -19.112657      -520.0818
   4   2.0000     -10.292034      -280.0605
   5   2.0000     -10.234344      -278.4906
   6   2.0000     -10.232775      -278.4480
   7   2.0000     -10.231952      -278.4256
   8   2.0000     -10.228865      -278.3416
   9   2.0000     -10.224710      -278.2285
  10   2.0000     -10.195496      -277.4335
  11   2.0000     -10.193201      -277.3711
  12   2.0000     -10.177450      -276.9425
  13   2.0000      -1.068071       -29.0637
  14   2.0000      -1.023878       -27.8611
  15   2.0000      -1.006673       -27.3930
  16   2.0000      -0.991577       -26.9822
  17   2.0000      -0.798636       -21.7320
  18   2.0000      -0.771773       -21.0010
  19   2.0000      -0.766367       -20.8539
  20   2.0000      -0.735456       -20.0128
  21   2.0000      -0.676678       -18.4133
  22   2.0000      -0.608452       -16.5568
  23   2.0000      -0.599178       -16.3045
  24   2.0000      -0.592567       -16.1246
  25   2.0000      -0.579874       -15.7792
  26   2.0000      -0.530317       -14.4307
  27   2.0000      -0.518611       -14.1121
  28   2.0000      -0.502345       -13.6695
  29   2.0000      -0.484568       -13.1858
  30   2.0000      -0.474951       -12.9241
  31   2.0000      -0.461432       -12.5562
  32   2.0000      -0.441090       -12.0027
  33   2.0000      -0.427951       -11.6451
  34   2.0000      -0.423340       -11.5197
  35   2.0000      -0.421625       -11.4730
  36   2.0000      -0.409342       -11.1388
  37   2.0000      -0.386418       -10.5150
  38   2.0000      -0.382053       -10.3962
  39   2.0000      -0.367711       -10.0059
  40   2.0000      -0.365050        -9.9335
  41   2.0000      -0.358278        -9.7492
  42   2.0000      -0.352161        -9.5828
  43   2.0000      -0.344082        -9.3630
  44   2.0000      -0.326466        -8.8836
  45   2.0000      -0.312274        -8.4974
  46   2.0000      -0.288662        -7.8549
  47   2.0000      -0.281298        -7.6545
  48   2.0000      -0.266603        -7.2546
  49   2.0000      -0.248930        -6.7737
  50   2.0000      -0.240422        -6.5422
  51   0.0000       0.059479         1.6185
  52   0.0000       0.082411         2.2425
  53   0.0000       0.092157         2.5077
  54   0.0000       0.097420         2.6509
  55   0.0000       0.107234         2.9180

MULLIKEN ATOMIC CHARGES
-----------------------
   0 C :    0.298433
   1 C :   -0.268018
   2 C :   -0.300080
   3 C :   -0.008970
   4 O :   -0.508577
   5 H :    0.153718
   6 H :    0.152265
   7 H :    0.160032
   8 H :    0.147187
   9 H :    0.166019
  10 H :    0.153736
  11 H :    0.149684
  12 C :   -0.026504
  13 H :    0.140126
  14 H :    0.185945
  15 O :   -0.564913
  16 C :    0.056193
  17 C :    0.120454
  18 C :   -0.302822
  19 C :   -0.014922
  20 O :   -0.521758
  21 H :    0.154484
  22 H :    0.146789
  23 O :   -0.642321
  24 H :    0.149634
  25 H :    0.145101
  26 H :    0.139381
  27 H :    0.147679
  28 H :    0.392024
Sum of atomic charges:    0.0000000

LOEWDIN ATOMIC CHARGES
----------------------
   0 C :    0.176893
   1 C :   -0.214560
   2 C :   -0.215858
   3 C :   -0.027454
   4 O :   -0.322754
   5 H :    0.102137
   6 H :    0.118148
   7 H :    0.125013
   8 H :    0.117036
   9 H :    0.120667
  10 H :    0.108804
  11 H :    0.106757
  12 C :   -0.050002
  13 H :    0.098716
  14 H :    0.126262
  15 O :   -0.343097
  16 C :    0.018799
  17 C :    0.041267
  18 C :   -0.237116
  19 C :   -0.031001
  20 O :   -0.323955
  21 H :    0.113642
  22 H :    0.104861
  23 O :   -0.435819
  24 H :    0.120881
  25 H :    0.110720
  26 H :    0.100945
  27 H :    0.105186
  28 H :    0.284882

  Mayer bond orders larger than 0.100000
B(  0-C ,  1-C ) :   0.9511 B(  0-C ,  4-O ) :   0.9195 B(  0-C ,  5-H ) :   0.9216
B(  0-C , 15-O ) :   0.8184 B(  1-C ,  2-C ) :   0.9536 B(  1-C ,  6-H ) :   0.9388
B(  1-C ,  7-H ) :   0.9353 B(  2-C ,  3-C ) :   0.9549 B(  2-C ,  8-H ) :   0.9444
B(  2-C ,  9-H ) :   0.9434 B(  3-C ,  4-O ) :   0.8263 B(  3-C , 10-H ) :   0.9352
B(  3-C , 11-H ) :   0.9400 B( 12-C , 13-H ) :   0.9248 B( 12-C , 14-H ) :   0.9139
B( 12-C , 15-O ) :   0.7750 B( 12-C , 16-C ) :   0.9070 B( 16-C , 17-C ) :   0.9123
B( 16-C , 20-O ) :   0.8549 B( 16-C , 21-H ) :   0.9301 B( 17-C , 18-C ) :   0.9023
B( 17-C , 22-H ) :   0.9308 B( 17-C , 23-O ) :   0.9320 B( 18-C , 19-C ) :   0.9374
B( 18-C , 24-H ) :   0.9450 B( 18-C , 25-H ) :   0.9435 B( 19-C , 20-O ) :   0.8329
B( 19-C , 26-H ) :   0.9351 B( 19-C , 27-H ) :   0.9389 B( 23-O , 28-H ) :   0.7259

FINAL SINGLE POINT ENERGY      -652.872316939383

DIPOLE MOMENT
-------------
                                X             Y             Z
Electronic contribution:     -0.54919      -1.71004       0.98300
Nuclear contribution   :      1.35023       1.85196      -1.28669
                        -----------------------------------------
Total Dipole Moment    :      0.80104       0.14192      -0.30369
                        -----------------------------------------
Magnitude (a.u.)       :      0.86835
Magnitude (Debye)      :      2.20716

Rotational constants in cm-1:     0.056995     0.013872     0.012603
Rotational constants in MHz :  1708.673594   415.873228   377.832695

                             ****ORCA TERMINATED NORMALLY****
TOTAL RUN TIME: 0 days 1 hours 8 minutes 28 seconds 655 msec
