                         Program Version 4.2.0 -  RELEASE  -
|  1> # Test redundant internal optimization
|  2> #
|  3> ! RKS B3LYP  Opt TightSCF SmallPrint
|  4>
|  5> %basis
|  6>         Basis "6-31G"
|  7> end
|  8>
|  9> %geom
| 10> Constraints
| 11> { D 4  0  15  12  315.0   C } # D for Dihedral angle
| 12> { D 0  15  12  16  135.0   C } # D for Dihedral angle
| 13> { D 0  4  3  2   C } # D for Dihedral angle
| 14> { D 4  3  2  1   C } # D for Dihedral angle
| 15> { D 3  2  1  0   C } # D for Dihedral angle
| 16> { D 2  1  0  4   C } # D for Dihedral angle
| 17> { D 1  0  4  3   C } # D for Dihedral angle
| 18> { D 16  20  19  18   C } # D for Dihedral angle
| 19> { D 20  19  18  17   C } # D for Dihedral angle
| 20> { D 19  18  17  16   C } # D for Dihedral angle
| 21> { D 18  17  16  20   C } # D for Dihedral angle
| 22> { D 17  16  20  19   C } # D for Dihedral angle
| 23> { D 15  12  16  20   C } # D for Dihedral angle
| 24> end
| 25> end
| 26>
| 27>
| 28> #%pal
| 29> #nprocs 8
| 30> #end
| 31>
| 32> * xyz 0 1
| 33> C  -21.048   26.222   46.251
| 34> C  -20.361   27.558   45.944
| 35> C  -20.329   28.222   47.341
| 36> C  -20.110   27.022   48.296
| 37> O  -20.473   25.807   47.535
| 38> H  -20.833   25.428   45.533
| 39> H  -19.344   27.382   45.576
| 40> H  -20.898   28.157   45.201
| 41> H  -19.543   28.978   47.434
| 42> H  -21.289   28.710   47.548
| 43> H  -20.733   27.082   49.195
| 44> H  -19.064   26.913   48.597
| 45> C  -23.319   25.255   47.135
| 46> H  -23.841   24.615   46.412
| 47> H  -22.599   24.634   47.684
| 48> O  -22.586   26.394   46.375
| 49> C  -24.360   25.788   48.157
| 50> C  -24.979   24.644   48.969
| 51> C  -23.871   24.364   50.011
| 52> C  -23.286   25.771   50.290
| 53> O  -23.706   26.631   49.163
| 54> H  -25.085   26.416   47.635
| 55> H  -25.896   24.986   49.462
| 56> O  -25.323   23.400   48.105
| 57> H  -24.252   23.883   50.918
| 58> H  -23.106   23.706   49.580
| 59> H  -22.192   25.766   50.349
| 60> H  -23.688   26.217   51.204
| 61> H  -24.419   23.039   47.602
| 62> *
| 63>
| 64>                          ****END OF INPUT****
 Total Charge           Charge          ....    0
 Multiplicity           Mult            ....    1
 Number of Electrons    NEL             ....  102
FINAL SINGLE POINT ENERGY      -652.833561087425
FINAL SINGLE POINT ENERGY      -652.857871326057
FINAL SINGLE POINT ENERGY      -652.862843895972
FINAL SINGLE POINT ENERGY      -652.863725258703
FINAL SINGLE POINT ENERGY      -652.863854541772
FINAL SINGLE POINT ENERGY      -652.863888165265
FINAL SINGLE POINT ENERGY      -652.863891815593
                    ***********************HURRAY********************

CARTESIAN COORDINATES (ANGSTROEM)
---------------------------------
  C    -21.049744   26.189760   46.236779
  C    -20.526194   27.605650   46.000166
  C    -20.492113   28.170021   47.436424
  C    -20.100717   26.949105   48.292825
  O    -20.379781   25.753334   47.443723
  H    -20.798542   25.447430   45.471844
  H    -19.521515   27.552020   45.565110
  H    -21.176445   28.173141   45.331082
  H    -19.785686   28.998640   47.546143
  H    -21.490919   28.513914   47.716555
  H    -20.689391   26.874967   49.207748
  H    -19.033684   26.911671   48.531339
  C    -23.156497   25.190987   47.065656
  H    -23.699003   24.589675   46.323985
  H    -22.410081   24.567720   47.571917
  O    -22.483993   26.289589   46.390345
  C    -24.148387   25.779341   48.066398
  C    -24.916816   24.729764   48.889403
  C    -23.903307   24.416305   50.028887
  C    -23.229172   25.781646   50.276652
  O    -23.499318   26.616801   49.075095
  H    -24.822046   26.449110   47.523765
  H    -25.824467   25.179100   49.296722
  O    -25.383878   23.575142   48.150703
  H    -24.393299   24.014707   50.919732
  H    -23.177034   23.670988   49.678176
  H    -22.147663   25.697835   50.418213
  H    -23.660496   26.308658   51.132660
  H    -24.632810   22.992981   47.913951

 Multiplicity           Mult            ....    1
 Number of Electrons    NEL             ....  102
 Basis Dimension        Dim             ....  149

ORBITAL ENERGIES
----------------

  NO   OCC          E(Eh)            E(eV)
   0   2.0000     -19.148789      -521.0650
   1   2.0000     -19.140806      -520.8478
   2   2.0000     -19.139725      -520.8184
   3   2.0000     -19.136607      -520.7336
   4   2.0000     -10.274254      -279.5767
   5   2.0000     -10.244221      -278.7594
   6   2.0000     -10.230788      -278.3939
   7   2.0000     -10.228108      -278.3210
   8   2.0000     -10.223556      -278.1971
   9   2.0000     -10.220115      -278.1035
  10   2.0000     -10.194590      -277.4089
  11   2.0000     -10.178961      -276.9836
  12   2.0000     -10.175859      -276.8992
  13   2.0000      -1.050664       -28.5900
  14   2.0000      -1.032400       -28.0930
  15   2.0000      -1.014838       -27.6151
  16   2.0000      -0.987692       -26.8765
  17   2.0000      -0.785724       -21.3806
  18   2.0000      -0.780576       -21.2406
  19   2.0000      -0.763599       -20.7786
  20   2.0000      -0.727480       -19.7957
  21   2.0000      -0.675945       -18.3934
  22   2.0000      -0.610897       -16.6234
  23   2.0000      -0.594061       -16.1652
  24   2.0000      -0.585760       -15.9393
  25   2.0000      -0.572938       -15.5904
  26   2.0000      -0.527465       -14.3530
  27   2.0000      -0.511255       -13.9120
  28   2.0000      -0.491571       -13.3763
  29   2.0000      -0.484860       -13.1937
  30   2.0000      -0.471292       -12.8245
  31   2.0000      -0.457241       -12.4421
  32   2.0000      -0.440859       -11.9964
  33   2.0000      -0.434874       -11.8335
  34   2.0000      -0.423168       -11.5150
  35   2.0000      -0.412871       -11.2348
  36   2.0000      -0.400877       -10.9084
  37   2.0000      -0.393814       -10.7162
  38   2.0000      -0.378510       -10.2998
  39   2.0000      -0.369748       -10.0613
  40   2.0000      -0.352660        -9.5964
  41   2.0000      -0.347496        -9.4559
  42   2.0000      -0.341477        -9.2921
  43   2.0000      -0.330955        -9.0058
  44   2.0000      -0.327746        -8.9184
  45   2.0000      -0.314392        -8.5550
  46   2.0000      -0.292593        -7.9619
  47   2.0000      -0.270742        -7.3673
  48   2.0000      -0.261814        -7.1243
  49   2.0000      -0.254498        -6.9252
  50   2.0000      -0.239576        -6.5192
  51   0.0000       0.052173         1.4197
  52   0.0000       0.073260         1.9935
  53   0.0000       0.092861         2.5269
  54   0.0000       0.103288         2.8106
  55   0.0000       0.103652         2.8205

MULLIKEN ATOMIC CHARGES
-----------------------
   0 C :    0.293379
   1 C :   -0.261810
   2 C :   -0.299496
   3 C :   -0.014404
   4 O :   -0.519608
   5 H :    0.140965
   6 H :    0.140038
   7 H :    0.159703
   8 H :    0.135571
   9 H :    0.182094
  10 H :    0.156793
  11 H :    0.138748
  12 C :   -0.025846
  13 H :    0.134441
  14 H :    0.150736
  15 O :   -0.522606
  16 C :    0.099975
  17 C :    0.085675
  18 C :   -0.325683
  19 C :   -0.015026
  20 O :   -0.512944
  21 H :    0.164052
  22 H :    0.166080
  23 O :   -0.599718
  24 H :    0.156612
  25 H :    0.140203
  26 H :    0.147233
  27 H :    0.148138
  28 H :    0.356707
Sum of atomic charges:    0.0000000

LOEWDIN ATOMIC CHARGES
----------------------
   0 C :    0.177053
   1 C :   -0.214361
   2 C :   -0.216375
   3 C :   -0.028756
   4 O :   -0.332042
   5 H :    0.093900
   6 H :    0.111332
   7 H :    0.125772
   8 H :    0.111373
   9 H :    0.129287
  10 H :    0.108174
  11 H :    0.100476
  12 C :   -0.057242
  13 H :    0.100575
  14 H :    0.106086
  15 O :   -0.324374
  16 C :    0.019870
  17 C :    0.035840
  18 C :   -0.241124
  19 C :   -0.031852
  20 O :   -0.319849
  21 H :    0.118779
  22 H :    0.119083
  23 O :   -0.406659
  24 H :    0.122451
  25 H :    0.107347
  26 H :    0.101907
  27 H :    0.105220
  28 H :    0.278110

  Mayer bond orders larger than 0.100000
B(  0-C ,  1-C ) :   0.9501 B(  0-C ,  4-O ) :   0.9004 B(  0-C ,  5-H ) :   0.9219
B(  0-C , 15-O ) :   0.8586 B(  1-C ,  2-C ) :   0.9559 B(  1-C ,  6-H ) :   0.9397
B(  1-C ,  7-H ) :   0.9357 B(  2-C ,  3-C ) :   0.9597 B(  2-C ,  8-H ) :   0.9447
B(  2-C ,  9-H ) :   0.9355 B(  3-C ,  4-O ) :   0.8300 B(  3-C , 10-H ) :   0.9234
B(  3-C , 11-H ) :   0.9403 B( 12-C , 13-H ) :   0.9126 B( 12-C , 14-H ) :   0.9091
B( 12-C , 15-O ) :   0.8396 B( 12-C , 16-C ) :   0.9047 B( 16-C , 17-C ) :   0.8731
B( 16-C , 20-O ) :   0.8615 B( 16-C , 21-H ) :   0.9306 B( 17-C , 18-C ) :   0.9232
B( 17-C , 22-H ) :   0.9336 B( 17-C , 23-O ) :   0.8982 B( 18-C , 19-C ) :   0.9405
B( 18-C , 24-H ) :   0.9423 B( 18-C , 25-H ) :   0.9399 B( 19-C , 20-O ) :   0.8497
B( 19-C , 26-H ) :   0.9227 B( 19-C , 27-H ) :   0.9384 B( 23-O , 28-H ) :   0.7975

FINAL SINGLE POINT ENERGY      -652.863882347525

DIPOLE MOMENT
-------------
                                X             Y             Z
Electronic contribution:     -2.97545      -1.63643      -2.25274
Nuclear contribution   :      3.61919       1.40427       2.75107
                        -----------------------------------------
Total Dipole Moment    :      0.64374      -0.23216       0.49833
                        -----------------------------------------
Magnitude (a.u.)       :      0.84654
Magnitude (Debye)      :      2.15173

Rotational constants in cm-1:     0.051128     0.016412     0.014492
Rotational constants in MHz :  1532.770761   492.029842   434.454088

                             ****ORCA TERMINATED NORMALLY****
TOTAL RUN TIME: 0 days 2 hours 8 minutes 17 seconds 494 msec
