                         Program Version 4.2.0 -  RELEASE  -
|  1> # Test redundant internal optimization
|  2> #
|  3> ! RKS B3LYP  Opt TightSCF SmallPrint
|  4>
|  5> %basis
|  6>         Basis "6-31G"
|  7> end
|  8>
|  9> %geom
| 10> Constraints
| 11> { D 4  0  15  12  285.0   C } # D for Dihedral angle
| 12> { D 0  15  12  16  150.0   C } # D for Dihedral angle
| 13> { D 0  4  3  2   C } # D for Dihedral angle
| 14> { D 4  3  2  1   C } # D for Dihedral angle
| 15> { D 3  2  1  0   C } # D for Dihedral angle
| 16> { D 2  1  0  4   C } # D for Dihedral angle
| 17> { D 1  0  4  3   C } # D for Dihedral angle
| 18> { D 16  20  19  18   C } # D for Dihedral angle
| 19> { D 20  19  18  17   C } # D for Dihedral angle
| 20> { D 19  18  17  16   C } # D for Dihedral angle
| 21> { D 18  17  16  20   C } # D for Dihedral angle
| 22> { D 17  16  20  19   C } # D for Dihedral angle
| 23> { D 15  12  16  20   C } # D for Dihedral angle
| 24> end
| 25> end
| 26>
| 27>
| 28> #%pal
| 29> #nprocs 8
| 30> #end
| 31>
| 32> * xyz 0 1
| 33> C  -21.048   26.222   46.251
| 34> C  -20.361   27.558   45.944
| 35> C  -20.329   28.222   47.341
| 36> C  -20.110   27.022   48.296
| 37> O  -20.473   25.807   47.535
| 38> H  -20.833   25.428   45.533
| 39> H  -19.344   27.382   45.576
| 40> H  -20.898   28.157   45.201
| 41> H  -19.543   28.978   47.434
| 42> H  -21.289   28.710   47.548
| 43> H  -20.733   27.082   49.195
| 44> H  -19.064   26.913   48.597
| 45> C  -23.396   25.070   46.435
| 46> H  -23.660   24.760   45.416
| 47> H  -22.795   24.273   46.891
| 48> O  -22.586   26.394   46.375
| 49> C  -24.706   25.204   47.260
| 50> C  -24.423   25.722   48.675
| 51> C  -24.244   27.239   48.423
| 52> C  -25.254   27.528   47.285
| 53> O  -25.581   26.223   46.670
| 54> H  -25.249   24.258   47.225
| 55> H  -25.287   25.537   49.322
| 56> O  -23.174   25.069   49.326
| 57> H  -24.436   27.843   49.316
| 58> H  -23.219   27.447   48.092
| 59> H  -24.844   28.194   46.519
| 60> H  -26.192   27.952   47.657
| 61> H  -22.296   25.242   48.693
| 62> *
| 63>
| 64>                          ****END OF INPUT****
 Total Charge           Charge          ....    0
 Multiplicity           Mult            ....    1
 Number of Electrons    NEL             ....  102
FINAL SINGLE POINT ENERGY      -652.842023986022
FINAL SINGLE POINT ENERGY      -652.865326026814
FINAL SINGLE POINT ENERGY      -652.868940983081
FINAL SINGLE POINT ENERGY      -652.870680820582
FINAL SINGLE POINT ENERGY      -652.870844448882
FINAL SINGLE POINT ENERGY      -652.870880306662
FINAL SINGLE POINT ENERGY      -652.870884993670
FINAL SINGLE POINT ENERGY      -652.870885198624
                    ***********************HURRAY********************

CARTESIAN COORDINATES (ANGSTROEM)
---------------------------------
  C    -21.087003   26.161256   46.234323
  C    -20.393367   27.489715   45.915344
  C    -20.387157   28.177734   47.300051
  C    -20.188144   27.003646   48.285352
  O    -20.542828   25.766962   47.528688
  H    -20.856812   25.339589   45.549347
  H    -19.375168   27.287015   45.567304
  H    -20.929189   28.056470   45.151517
  H    -19.593381   28.925602   47.392836
  H    -21.344778   28.677605   47.472689
  H    -20.828507   27.067787   49.169217
  H    -19.148480   26.884380   48.600852
  C    -23.269565   25.110895   46.401580
  H    -23.510076   24.793431   45.379603
  H    -22.669916   24.330596   46.886191
  O    -22.504586   26.362612   46.324551
  C    -24.555788   25.292518   47.192991
  C    -24.347964   25.741693   48.650483
  C    -24.270870   27.293303   48.500256
  C    -25.266581   27.573525   47.355305
  O    -25.478959   26.278469   46.649747
  H    -25.082429   24.331118   47.149778
  H    -25.209777   25.452963   49.255943
  O    -23.209777   25.139705   49.309428
  H    -24.541855   27.804693   49.428660
  H    -23.256790   27.572009   48.214699
  H    -24.890248   28.303752   46.633349
  H    -26.247228   27.895816   47.718181
  H    -22.379779   25.321140   48.812735

 Multiplicity           Mult            ....    1
 Number of Electrons    NEL             ....  102
 Basis Dimension        Dim             ....  149

ORBITAL ENERGIES
----------------

  NO   OCC          E(Eh)            E(eV)
   0   2.0000     -19.158791      -521.3372
   1   2.0000     -19.157148      -521.2925
   2   2.0000     -19.131396      -520.5917
   3   2.0000     -19.128107      -520.5022
   4   2.0000     -10.290830      -280.0277
   5   2.0000     -10.237916      -278.5879
   6   2.0000     -10.232029      -278.4277
   7   2.0000     -10.231195      -278.4050
   8   2.0000     -10.228986      -278.3449
   9   2.0000     -10.218564      -278.0613
  10   2.0000     -10.197034      -277.4754
  11   2.0000     -10.196912      -277.4721
  12   2.0000     -10.174151      -276.8527
  13   2.0000      -1.069130       -29.0925
  14   2.0000      -1.021244       -27.7895
  15   2.0000      -1.004892       -27.3445
  16   2.0000      -0.999467       -27.1969
  17   2.0000      -0.799985       -21.7687
  18   2.0000      -0.772335       -21.0163
  19   2.0000      -0.763050       -20.7636
  20   2.0000      -0.737528       -20.0692
  21   2.0000      -0.677760       -18.4428
  22   2.0000      -0.610584       -16.6148
  23   2.0000      -0.602049       -16.3826
  24   2.0000      -0.594698       -16.1825
  25   2.0000      -0.575795       -15.6682
  26   2.0000      -0.525885       -14.3101
  27   2.0000      -0.511508       -13.9188
  28   2.0000      -0.508839       -13.8462
  29   2.0000      -0.487482       -13.2651
  30   2.0000      -0.474538       -12.9128
  31   2.0000      -0.465735       -12.6733
  32   2.0000      -0.437345       -11.9008
  33   2.0000      -0.433204       -11.7881
  34   2.0000      -0.419700       -11.4206
  35   2.0000      -0.415712       -11.3121
  36   2.0000      -0.403327       -10.9751
  37   2.0000      -0.398609       -10.8467
  38   2.0000      -0.380220       -10.3463
  39   2.0000      -0.369466       -10.0537
  40   2.0000      -0.368082       -10.0160
  41   2.0000      -0.356904        -9.7119
  42   2.0000      -0.345586        -9.4039
  43   2.0000      -0.345153        -9.3921
  44   2.0000      -0.322452        -8.7744
  45   2.0000      -0.314327        -8.5533
  46   2.0000      -0.299552        -8.1512
  47   2.0000      -0.280596        -7.6354
  48   2.0000      -0.265233        -7.2173
  49   2.0000      -0.255655        -6.9567
  50   2.0000      -0.236128        -6.4254
  51   0.0000       0.065740         1.7889
  52   0.0000       0.083525         2.2728
  53   0.0000       0.090226         2.4552
  54   0.0000       0.095892         2.6093
  55   0.0000       0.098963         2.6929

MULLIKEN ATOMIC CHARGES
-----------------------
   0 C :    0.273131
   1 C :   -0.258912
   2 C :   -0.305363
   3 C :   -0.020721
   4 O :   -0.517761
   5 H :    0.152146
   6 H :    0.151871
   7 H :    0.163745
   8 H :    0.148688
   9 H :    0.167332
  10 H :    0.152186
  11 H :    0.153355
  12 C :   -0.034398
  13 H :    0.152613
  14 H :    0.156012
  15 O :   -0.518686
  16 C :    0.087019
  17 C :    0.086404
  18 C :   -0.304650
  19 C :   -0.006655
  20 O :   -0.521463
  21 H :    0.149440
  22 H :    0.158156
  23 O :   -0.631125
  24 H :    0.137699
  25 H :    0.162299
  26 H :    0.145512
  27 H :    0.139478
  28 H :    0.382648
Sum of atomic charges:    0.0000000

LOEWDIN ATOMIC CHARGES
----------------------
   0 C :    0.168582
   1 C :   -0.212375
   2 C :   -0.216304
   3 C :   -0.034056
   4 O :   -0.337422
   5 H :    0.100655
   6 H :    0.118349
   7 H :    0.128315
   8 H :    0.117424
   9 H :    0.118172
  10 H :    0.105365
  11 H :    0.108987
  12 C :   -0.052500
  13 H :    0.109696
  14 H :    0.111900
  15 O :   -0.325396
  16 C :    0.017216
  17 C :    0.040871
  18 C :   -0.241757
  19 C :   -0.025485
  20 O :   -0.324225
  21 H :    0.115039
  22 H :    0.114430
  23 O :   -0.422038
  24 H :    0.112629
  25 H :    0.116573
  26 H :    0.104785
  27 H :    0.100480
  28 H :    0.282088

  Mayer bond orders larger than 0.100000
B(  0-C ,  1-C ) :   0.9473 B(  0-C ,  4-O ) :   0.8771 B(  0-C ,  5-H ) :   0.9174
B(  0-C , 15-O ) :   0.8778 B(  1-C ,  2-C ) :   0.9536 B(  1-C ,  6-H ) :   0.9387
B(  1-C ,  7-H ) :   0.9354 B(  2-C ,  3-C ) :   0.9539 B(  2-C ,  8-H ) :   0.9443
B(  2-C ,  9-H ) :   0.9386 B(  3-C ,  4-O ) :   0.8251 B(  3-C , 10-H ) :   0.9285
B(  3-C , 11-H ) :   0.9402 B( 12-C , 13-H ) :   0.9251 B( 12-C , 14-H ) :   0.8989
B( 12-C , 15-O ) :   0.8169 B( 12-C , 16-C ) :   0.9189 B( 16-C , 17-C ) :   0.8892
B( 16-C , 20-O ) :   0.8821 B( 16-C , 21-H ) :   0.9258 B( 17-C , 18-C ) :   0.9224
B( 17-C , 22-H ) :   0.9373 B( 17-C , 23-O ) :   0.9167 B( 18-C , 19-C ) :   0.9448
B( 18-C , 24-H ) :   0.9431 B( 18-C , 25-H ) :   0.9234 B( 19-C , 20-O ) :   0.8367
B( 19-C , 26-H ) :   0.9328 B( 19-C , 27-H ) :   0.9385 B( 23-O , 28-H ) :   0.7419

FINAL SINGLE POINT ENERGY      -652.870884103417

DIPOLE MOMENT
-------------
                                X             Y             Z
Electronic contribution:     -2.54931      -4.41567      -0.85516
Nuclear contribution   :      3.53239       5.27980       0.45139
                        -----------------------------------------
Total Dipole Moment    :      0.98308       0.86413      -0.40377
                        -----------------------------------------
Magnitude (a.u.)       :      1.36975
Magnitude (Debye)      :      3.48162

Rotational constants in cm-1:     0.043778     0.018691     0.017869
Rotational constants in MHz :  1312.417215   560.347220   535.698465

                             ****ORCA TERMINATED NORMALLY****
TOTAL RUN TIME: 0 days 0 hours 55 minutes 40 seconds 539 msec
