                         Program Version 4.2.0 -  RELEASE  -
|  1> # Test redundant internal optimization
|  2> #
|  3> ! RKS B3LYP  Opt TightSCF SmallPrint
|  4>
|  5> %basis
|  6>         Basis "6-31G"
|  7> end
|  8>
|  9> %geom
| 10> Constraints
| 11> { D 4  0  15  12  270.0   C } # D for Dihedral angle
| 12> { D 0  15  12  16  180.0   C } # D for Dihedral angle
| 13> { D 0  4  3  2   C } # D for Dihedral angle
| 14> { D 4  3  2  1   C } # D for Dihedral angle
| 15> { D 3  2  1  0   C } # D for Dihedral angle
| 16> { D 2  1  0  4   C } # D for Dihedral angle
| 17> { D 1  0  4  3   C } # D for Dihedral angle
| 18> { D 16  20  19  18   C } # D for Dihedral angle
| 19> { D 20  19  18  17   C } # D for Dihedral angle
| 20> { D 19  18  17  16   C } # D for Dihedral angle
| 21> { D 18  17  16  20   C } # D for Dihedral angle
| 22> { D 17  16  20  19   C } # D for Dihedral angle
| 23> { D 15  12  16  20   C } # D for Dihedral angle
| 24> end
| 25> end
| 26>
| 27>
| 28> #%pal
| 29> #nprocs 8
| 30> #end
| 31>
| 32> * xyz 0 1
| 33> C  -21.048   26.222   46.251
| 34> C  -20.361   27.558   45.944
| 35> C  -20.329   28.222   47.341
| 36> C  -20.110   27.022   48.296
| 37> O  -20.473   25.807   47.535
| 38> H  -20.833   25.428   45.533
| 39> H  -19.344   27.382   45.576
| 40> H  -20.898   28.157   45.201
| 41> H  -19.543   28.978   47.434
| 42> H  -21.289   28.710   47.548
| 43> H  -20.733   27.082   49.195
| 44> H  -19.064   26.913   48.597
| 45> C  -23.420   25.119   46.072
| 46> H  -23.215   24.787   45.047
| 47> H  -23.142   24.307   46.757
| 48> O  -22.586   26.394   46.375
| 49> C  -24.949   25.354   46.213
| 50> C  -25.732   24.051   46.021
| 51> C  -25.554   23.372   47.400
| 52> C  -25.558   24.568   48.384
| 53> O  -25.280   25.776   47.578
| 54> H  -25.250   26.164   45.546
| 55> O  -27.230   24.363   45.754
| 56> H  -25.354   23.439   45.195
| 57> H  -26.344   22.646   47.622
| 58> H  -24.594   22.844   47.438
| 59> H  -24.794   24.473   49.164
| 60> H  -26.533   24.715   48.859
| 61> H  -27.630   24.975   46.570
| 62> *
| 63>
| 64>                          ****END OF INPUT****
 Total Charge           Charge          ....    0
 Multiplicity           Mult            ....    1
 Number of Electrons    NEL             ....  102
FINAL SINGLE POINT ENERGY      -652.834510487661
FINAL SINGLE POINT ENERGY      -652.859048417944
FINAL SINGLE POINT ENERGY      -652.863255366269
FINAL SINGLE POINT ENERGY      -652.864011636310
FINAL SINGLE POINT ENERGY      -652.864114896914
FINAL SINGLE POINT ENERGY      -652.864124393363
                    ***********************HURRAY********************

CARTESIAN COORDINATES (ANGSTROEM)
---------------------------------
  C    -21.091382   26.140802   46.207566
  C    -20.555269   27.547651   45.940653
  C    -20.568108   28.166298   47.358161
  C    -20.208749   26.967733   48.264174
  O    -20.462087   25.751957   47.451166
  H    -20.827196   25.378211   45.468221
  H    -19.532775   27.478708   45.551201
  H    -21.174141   28.092953   45.225419
  H    -19.860616   28.994396   47.463097
  H    -21.572409   28.533246   47.587672
  H    -20.819527   26.918864   49.168844
  H    -19.149798   26.944172   48.539253
  C    -23.271051   25.035016   46.075131
  H    -23.098187   24.705772   45.038090
  H    -22.939581   24.237168   46.753482
  O    -22.523898   26.248795   46.345420
  C    -24.751805   25.341530   46.270135
  C    -25.668626   24.128011   46.061936
  C    -25.580906   23.425092   47.442821
  C    -25.469244   24.611679   48.432104
  O    -25.052768   25.788809   47.631791
  H    -25.028366   26.168844   45.609346
  O    -27.025561   24.552442   45.758353
  H    -25.376299   23.484343   45.230703
  H    -26.464048   22.804579   47.615456
  H    -24.693804   22.783532   47.487896
  H    -24.730914   24.437736   49.220507
  H    -26.427185   24.861495   48.898784
  H    -27.265701   25.298164   46.348617

 Multiplicity           Mult            ....    1
 Number of Electrons    NEL             ....  102
 Basis Dimension        Dim             ....  149

ORBITAL ENERGIES
----------------

  NO   OCC          E(Eh)            E(eV)
   0   2.0000     -19.141360      -520.8629
   1   2.0000     -19.139892      -520.8230
   2   2.0000     -19.138959      -520.7976
   3   2.0000     -19.134701      -520.6817
   4   2.0000     -10.276006      -279.6243
   5   2.0000     -10.243514      -278.7402
   6   2.0000     -10.234489      -278.4946
   7   2.0000     -10.232369      -278.4369
   8   2.0000     -10.228929      -278.3433
   9   2.0000     -10.220062      -278.1020
  10   2.0000     -10.189479      -277.2698
  11   2.0000     -10.181305      -277.0474
  12   2.0000     -10.179817      -277.0069
  13   2.0000      -1.051941       -28.6248
  14   2.0000      -1.035450       -28.1760
  15   2.0000      -1.005915       -27.3723
  16   2.0000      -0.991482       -26.9796
  17   2.0000      -0.788841       -21.4654
  18   2.0000      -0.779695       -21.2166
  19   2.0000      -0.766240       -20.8504
  20   2.0000      -0.727256       -19.7897
  21   2.0000      -0.672480       -18.2991
  22   2.0000      -0.604481       -16.4488
  23   2.0000      -0.594613       -16.1802
  24   2.0000      -0.588840       -16.0232
  25   2.0000      -0.584129       -15.8950
  26   2.0000      -0.527412       -14.3516
  27   2.0000      -0.510143       -13.8817
  28   2.0000      -0.491419       -13.3722
  29   2.0000      -0.485134       -13.2012
  30   2.0000      -0.476598       -12.9689
  31   2.0000      -0.457905       -12.4602
  32   2.0000      -0.450277       -12.2527
  33   2.0000      -0.437778       -11.9125
  34   2.0000      -0.424883       -11.5617
  35   2.0000      -0.403776       -10.9873
  36   2.0000      -0.397824       -10.8253
  37   2.0000      -0.393638       -10.7114
  38   2.0000      -0.373724       -10.1696
  39   2.0000      -0.371470       -10.1082
  40   2.0000      -0.358855        -9.7649
  41   2.0000      -0.351751        -9.5716
  42   2.0000      -0.344691        -9.3795
  43   2.0000      -0.329980        -8.9792
  44   2.0000      -0.321058        -8.7364
  45   2.0000      -0.307268        -8.3612
  46   2.0000      -0.299112        -8.1393
  47   2.0000      -0.271407        -7.3853
  48   2.0000      -0.264621        -7.2007
  49   2.0000      -0.249185        -6.7807
  50   2.0000      -0.242041        -6.5863
  51   0.0000       0.067177         1.8280
  52   0.0000       0.084424         2.2973
  53   0.0000       0.090783         2.4703
  54   0.0000       0.098829         2.6893
  55   0.0000       0.106356         2.8941

MULLIKEN ATOMIC CHARGES
-----------------------
   0 C :    0.284275
   1 C :   -0.256840
   2 C :   -0.299553
   3 C :   -0.000151
   4 O :   -0.510490
   5 H :    0.136271
   6 H :    0.141948
   7 H :    0.153031
   8 H :    0.138091
   9 H :    0.170858
  10 H :    0.150782
  11 H :    0.138938
  12 C :    0.006702
  13 H :    0.121280
  14 H :    0.144991
  15 O :   -0.510163
  16 C :    0.058561
  17 C :    0.078085
  18 C :   -0.298693
  19 C :   -0.028696
  20 O :   -0.508503
  21 H :    0.169020
  22 O :   -0.602324
  23 H :    0.151100
  24 H :    0.163148
  25 H :    0.146196
  26 H :    0.152042
  27 H :    0.144471
  28 H :    0.365620
Sum of atomic charges:   -0.0000000

LOEWDIN ATOMIC CHARGES
----------------------
   0 C :    0.172094
   1 C :   -0.216229
   2 C :   -0.215929
   3 C :   -0.026420
   4 O :   -0.329060
   5 H :    0.095678
   6 H :    0.112135
   7 H :    0.122128
   8 H :    0.112176
   9 H :    0.123432
  10 H :    0.107506
  11 H :    0.100696
  12 C :   -0.041519
  13 H :    0.092238
  14 H :    0.101197
  15 O :   -0.318094
  16 C :    0.017743
  17 C :    0.035670
  18 C :   -0.241691
  19 C :   -0.038105
  20 O :   -0.319718
  21 H :    0.120370
  22 O :   -0.414205
  23 H :    0.114828
  24 H :    0.126583
  25 H :    0.113638
  26 H :    0.107148
  27 H :    0.101871
  28 H :    0.283841

  Mayer bond orders larger than 0.100000
B(  0-C ,  1-C ) :   0.9474 B(  0-C ,  4-O ) :   0.9167 B(  0-C ,  5-H ) :   0.9189
B(  0-C , 15-O ) :   0.8595 B(  1-C ,  2-C ) :   0.9579 B(  1-C ,  6-H ) :   0.9402
B(  1-C ,  7-H ) :   0.9370 B(  2-C ,  3-C ) :   0.9555 B(  2-C ,  8-H ) :   0.9453
B(  2-C ,  9-H ) :   0.9422 B(  3-C ,  4-O ) :   0.8364 B(  3-C , 10-H ) :   0.9353
B(  3-C , 11-H ) :   0.9403 B( 12-C , 13-H ) :   0.9111 B( 12-C , 14-H ) :   0.9136
B( 12-C , 15-O ) :   0.8404 B( 12-C , 16-C ) :   0.9030 B( 16-C , 17-C ) :   0.9015
B( 16-C , 20-O ) :   0.8706 B( 16-C , 21-H ) :   0.9232 B( 17-C , 18-C ) :   0.9104
B( 17-C , 22-O ) :   0.8936 B( 17-C , 23-H ) :   0.9331 B( 18-C , 19-C ) :   0.9415
B( 18-C , 24-H ) :   0.9371 B( 18-C , 25-H ) :   0.9341 B( 19-C , 20-O ) :   0.8508
B( 19-C , 26-H ) :   0.9335 B( 19-C , 27-H ) :   0.9380 B( 22-O , 28-H ) :   0.7937

FINAL SINGLE POINT ENERGY      -652.864126431318

DIPOLE MOMENT
-------------
                                X             Y             Z
Electronic contribution:     -2.75018      -0.55873      -1.21925
Nuclear contribution   :      3.21509       0.45181       1.26040
                        -----------------------------------------
Total Dipole Moment    :      0.46490      -0.10692       0.04115
                        -----------------------------------------
Magnitude (a.u.)       :      0.47881
Magnitude (Debye)      :      1.21704

Rotational constants in cm-1:     0.062915     0.011868     0.011348
Rotational constants in MHz :  1886.135814   355.791054   340.212603

                             ****ORCA TERMINATED NORMALLY****
TOTAL RUN TIME: 0 days 0 hours 19 minutes 51 seconds 747 msec
