                         Program Version 4.2.0 -  RELEASE  -
|  1> # Test redundant internal optimization
|  2> #
|  3> ! RKS B3LYP  Opt TightSCF SmallPrint
|  4>
|  5> %basis
|  6>         Basis "6-31G"
|  7> end
|  8>
|  9> %geom
| 10> Constraints
| 11> { D 4  0  15  12  240.0   C } # D for Dihedral angle
| 12> { D 0  15  12  16  15.0   C } # D for Dihedral angle
| 13> { D 0  4  3  2   C } # D for Dihedral angle
| 14> { D 4  3  2  1   C } # D for Dihedral angle
| 15> { D 3  2  1  0   C } # D for Dihedral angle
| 16> { D 2  1  0  4   C } # D for Dihedral angle
| 17> { D 1  0  4  3   C } # D for Dihedral angle
| 18> { D 16  20  19  18   C } # D for Dihedral angle
| 19> { D 20  19  18  17   C } # D for Dihedral angle
| 20> { D 19  18  17  16   C } # D for Dihedral angle
| 21> { D 18  17  16  20   C } # D for Dihedral angle
| 22> { D 17  16  20  19   C } # D for Dihedral angle
| 23> { D 15  12  16  20   C } # D for Dihedral angle
| 24> end
| 25> end
| 26>
| 27>
| 28> #%pal
| 29> #nprocs 8
| 30> #end
| 31>
| 32> * xyz 0 1
| 33> C  -21.048   26.222   46.251
| 34> C  -20.361   27.558   45.944
| 35> C  -20.329   28.222   47.341
| 36> C  -20.110   27.022   48.296
| 37> O  -20.473   25.807   47.535
| 38> H  -20.833   25.428   45.533
| 39> H  -19.344   27.382   45.576
| 40> H  -20.898   28.157   45.201
| 41> H  -19.543   28.978   47.434
| 42> H  -21.289   28.710   47.548
| 43> H  -20.733   27.082   49.195
| 44> H  -19.064   26.913   48.597
| 45> C  -23.430   25.483   45.442
| 46> H  -24.262   25.052   46.013
| 47> H  -23.848   26.066   44.612
| 48> O  -22.586   26.394   46.375
| 49> C  -22.602   24.318   44.832
| 50> C  -23.434   23.510   43.829
| 51> C  -23.377   24.413   42.574
| 52> C  -21.954   25.022   42.644
| 53> O  -21.488   24.843   44.035
| 54> H  -22.168   23.726   45.640
| 55> H  -22.954   22.544   43.633
| 56> O  -24.886   23.245   44.315
| 57> H  -23.550   23.860   41.645
| 58> H  -24.137   25.200   42.642
| 59> H  -21.942   26.089   42.396
| 60> H  -21.244   24.499   41.996
| 61> H  -25.387   24.197   44.517
| 62> *
| 63>
| 64>                          ****END OF INPUT****
 Total Charge           Charge          ....    0
 Multiplicity           Mult            ....    1
 Number of Electrons    NEL             ....  102
FINAL SINGLE POINT ENERGY      -652.818482558809
FINAL SINGLE POINT ENERGY      -652.840339394912
FINAL SINGLE POINT ENERGY      -652.851393099686
FINAL SINGLE POINT ENERGY      -652.853286832608
FINAL SINGLE POINT ENERGY      -652.853647542855
FINAL SINGLE POINT ENERGY      -652.853709523640
FINAL SINGLE POINT ENERGY      -652.853721121615
FINAL SINGLE POINT ENERGY      -652.853723061650
                    ***********************HURRAY********************

CARTESIAN COORDINATES (ANGSTROEM)
---------------------------------
  C    -20.836072   26.238621   46.241769
  C    -20.290815   27.653767   46.045688
  C    -20.464539   28.263008   47.458942
  C    -20.190656   27.057518   48.386607
  O    -20.340888   25.850409   47.540597
  H    -20.497132   25.501362   45.519766
  H    -19.230454   27.600133   45.771112
  H    -20.830314   28.200316   45.269041
  H    -19.783179   29.098132   47.646971
  H    -21.492667   28.616106   47.581002
  H    -20.892713   26.992941   49.222505
  H    -19.166981   27.045861   48.774410
  C    -23.167894   25.519736   45.448960
  H    -23.966436   25.159930   46.107957
  H    -23.616526   26.196812   44.705643
  O    -22.290219   26.321599   46.284533
  C    -22.565991   24.306712   44.737360
  C    -23.575827   23.556146   43.847329
  C    -23.525818   24.392467   42.530565
  C    -22.043219   24.822945   42.456808
  O    -21.478385   24.652701   43.822157
  H    -22.122390   23.640653   45.484457
  H    -23.210636   22.542839   43.668671
  O    -24.894561   23.374219   44.409967
  H    -23.843106   23.810418   41.661248
  H    -24.191486   25.260717   42.620647
  H    -21.915769   25.864872   42.147713
  H    -21.458178   24.183130   41.790484
  H    -25.391150   24.217930   44.408093

 Multiplicity           Mult            ....    1
 Number of Electrons    NEL             ....  102
 Basis Dimension        Dim             ....  149

ORBITAL ENERGIES
----------------

  NO   OCC          E(Eh)            E(eV)
   0   2.0000     -19.155575      -521.2497
   1   2.0000     -19.151059      -521.1268
   2   2.0000     -19.129355      -520.5362
   3   2.0000     -19.124290      -520.3984
   4   2.0000     -10.260979      -279.2154
   5   2.0000     -10.253208      -279.0040
   6   2.0000     -10.240121      -278.6478
   7   2.0000     -10.238855      -278.6134
   8   2.0000     -10.232276      -278.4344
   9   2.0000     -10.212677      -277.9011
  10   2.0000     -10.203070      -277.6397
  11   2.0000     -10.173988      -276.8483
  12   2.0000     -10.172194      -276.7995
  13   2.0000      -1.044414       -28.4200
  14   2.0000      -1.034914       -28.1614
  15   2.0000      -1.024357       -27.8742
  16   2.0000      -0.979825       -26.6624
  17   2.0000      -0.790900       -21.5215
  18   2.0000      -0.777057       -21.1448
  19   2.0000      -0.766234       -20.8503
  20   2.0000      -0.726672       -19.7738
  21   2.0000      -0.679901       -18.5010
  22   2.0000      -0.620442       -16.8831
  23   2.0000      -0.601139       -16.3578
  24   2.0000      -0.585727       -15.9385
  25   2.0000      -0.560493       -15.2518
  26   2.0000      -0.537801       -14.6343
  27   2.0000      -0.511947       -13.9308
  28   2.0000      -0.494303       -13.4507
  29   2.0000      -0.474276       -12.9057
  30   2.0000      -0.472944       -12.8695
  31   2.0000      -0.453882       -12.3508
  32   2.0000      -0.438787       -11.9400
  33   2.0000      -0.435991       -11.8639
  34   2.0000      -0.432523       -11.7695
  35   2.0000      -0.421557       -11.4711
  36   2.0000      -0.406667       -11.0660
  37   2.0000      -0.392364       -10.6768
  38   2.0000      -0.387775       -10.5519
  39   2.0000      -0.366927        -9.9846
  40   2.0000      -0.357548        -9.7294
  41   2.0000      -0.344730        -9.3806
  42   2.0000      -0.339190        -9.2298
  43   2.0000      -0.333326        -9.0703
  44   2.0000      -0.326486        -8.8841
  45   2.0000      -0.304909        -8.2970
  46   2.0000      -0.296603        -8.0710
  47   2.0000      -0.279181        -7.5969
  48   2.0000      -0.254841        -6.9346
  49   2.0000      -0.249863        -6.7991
  50   2.0000      -0.230999        -6.2858
  51   0.0000       0.045858         1.2479
  52   0.0000       0.070946         1.9305
  53   0.0000       0.086278         2.3477
  54   0.0000       0.095697         2.6040
  55   0.0000       0.104039         2.8311

MULLIKEN ATOMIC CHARGES
-----------------------
   0 C :    0.257529
   1 C :   -0.246451
   2 C :   -0.297377
   3 C :    0.001062
   4 O :   -0.505520
   5 H :    0.198192
   6 H :    0.139511
   7 H :    0.138095
   8 H :    0.133793
   9 H :    0.158689
  10 H :    0.145692
  11 H :    0.135757
  12 C :    0.023223
  13 H :    0.150791
  14 H :    0.115366
  15 O :   -0.542842
  16 C :    0.047987
  17 C :    0.086015
  18 C :   -0.325158
  19 C :   -0.005908
  20 O :   -0.524847
  21 H :    0.177488
  22 H :    0.174333
  23 O :   -0.595698
  24 H :    0.159885
  25 H :    0.139193
  26 H :    0.145484
  27 H :    0.156450
  28 H :    0.359268
Sum of atomic charges:    0.0000000

LOEWDIN ATOMIC CHARGES
----------------------
   0 C :    0.167953
   1 C :   -0.217672
   2 C :   -0.217412
   3 C :   -0.027774
   4 O :   -0.320135
   5 H :    0.123553
   6 H :    0.110571
   7 H :    0.114505
   8 H :    0.109955
   9 H :    0.117398
  10 H :    0.104353
  11 H :    0.098924
  12 C :   -0.040607
  13 H :    0.112813
  14 H :    0.086251
  15 O :   -0.336614
  16 C :    0.002616
  17 C :    0.039951
  18 C :   -0.241592
  19 C :   -0.028221
  20 O :   -0.326478
  21 H :    0.122997
  22 H :    0.122269
  23 O :   -0.402466
  24 H :    0.124194
  25 H :    0.106693
  26 H :    0.104212
  27 H :    0.109455
  28 H :    0.280307

  Mayer bond orders larger than 0.100000
B(  0-C ,  1-C ) :   0.9429 B(  0-C ,  4-O ) :   0.9139 B(  0-C ,  5-H ) :   0.8895
B(  0-C , 15-O ) :   0.8239 B(  1-C ,  2-C ) :   0.9569 B(  1-C ,  6-H ) :   0.9391
B(  1-C ,  7-H ) :   0.9411 B(  2-C ,  3-C ) :   0.9548 B(  2-C ,  8-H ) :   0.9463
B(  2-C ,  9-H ) :   0.9441 B(  3-C ,  4-O ) :   0.8443 B(  3-C , 10-H ) :   0.9354
B(  3-C , 11-H ) :   0.9403 B( 12-C , 13-H ) :   0.9111 B( 12-C , 14-H ) :   0.9231
B( 12-C , 15-O ) :   0.8626 B( 12-C , 16-C ) :   0.9054 B( 16-C , 17-C ) :   0.8725
B( 16-C , 20-O ) :   0.8335 B( 16-C , 21-H ) :   0.9230 B( 17-C , 18-C ) :   0.9241
B( 17-C , 22-H ) :   0.9314 B( 17-C , 23-O ) :   0.9052 B( 18-C , 19-C ) :   0.9399
B( 18-C , 24-H ) :   0.9415 B( 18-C , 25-H ) :   0.9392 B( 19-C , 20-O ) :   0.8341
B( 19-C , 26-H ) :   0.9331 B( 19-C , 27-H ) :   0.9378 B( 23-O , 28-H ) :   0.7965

FINAL SINGLE POINT ENERGY      -652.853722988085

DIPOLE MOMENT
-------------
                                X             Y             Z
Electronic contribution:     -0.74285      -4.37700       1.38786
Nuclear contribution   :      0.31865       5.14479      -2.63571
                        -----------------------------------------
Total Dipole Moment    :     -0.42421       0.76779      -1.24785
                        -----------------------------------------
Magnitude (a.u.)       :      1.52532
Magnitude (Debye)      :      3.87704

Rotational constants in cm-1:     0.059979     0.013015     0.011978
Rotational constants in MHz :  1798.127998   390.181633   359.085431

                             ****ORCA TERMINATED NORMALLY****
TOTAL RUN TIME: 0 days 2 hours 12 minutes 1 seconds 901 msec
