                         Program Version 4.2.1 -  RELEASE  -
|  1> # Test redundant internal optimization
|  2> #
|  3> ! RKS B3LYP  Opt TightSCF SmallPrint
|  4>
|  5> %basis
|  6>         Basis "6-31G"
|  7> end
|  8>
|  9> %geom
| 10> Constraints
| 11> { D 4  0  19  14  300.0   C } # D for Dihedral angle
| 12> { D 0  19  14  12  165.0   C } # D for Dihedral angle
| 13> { D 0  4  3  2   C } # D for Dihedral angle
| 14> { D 4  3  2  1   C } # D for Dihedral angle
| 15> { D 3  2  1  0   C } # D for Dihedral angle
| 16> { D 2  1  0  4   C } # D for Dihedral angle
| 17> { D 1  0  4  3   C } # D for Dihedral angle
| 18> { D 14  15  16  17   C } # D for Dihedral angle
| 19> { D 15  16  17  12   C } # D for Dihedral angle
| 20> { D 16  17  12  14   C } # D for Dihedral angle
| 21> { D 17  12  14  15   C } # D for Dihedral angle
| 22> { D 12  14  15  16   C } # D for Dihedral angle
| 23> end
| 24> end
| 25>
| 26>
| 27> #%pal
| 28> #nprocs 8
| 29> #end
| 30>
| 31> * xyz 0 1
| 32> C  -21.048   26.222   46.251
| 33> C  -20.361   27.558   45.944
| 34> C  -20.329   28.222   47.341
| 35> C  -20.110   27.022   48.296
| 36> O  -20.473   25.807   47.535
| 37> H  -20.833   25.428   45.533
| 38> H  -19.344   27.382   45.576
| 39> H  -20.898   28.157   45.201
| 40> H  -19.543   28.978   47.434
| 41> H  -21.289   28.710   47.548
| 42> H  -20.733   27.082   49.195
| 43> H  -19.064   26.913   48.597
| 44> C  -24.594   25.538   47.210
| 45> H  -25.048   24.712   47.779
| 46> C  -23.171   25.189   46.758
| 47> C  -23.444   24.287   45.531
| 48> C  -24.714   24.917   44.907
| 49> O  -25.326   25.760   45.958
| 50> H  -24.671   26.459   47.791
| 51> O  -22.472   26.381   46.366
| 52> H  -22.586   24.684   47.534
| 53> H  -22.605   24.258   44.830
| 54> H  -23.644   23.258   45.856
| 55> H  -25.441   24.165   44.582
| 56> H  -24.483   25.574   44.062
| 57> *
| 58>
| 59>                          ****END OF INPUT****
 Total Charge           Charge          ....    0
 Multiplicity           Mult            ....    1
 Number of Electrons    NEL             ....   86
FINAL SINGLE POINT ENERGY      -538.436855356797
FINAL SINGLE POINT ENERGY      -538.438827815099
FINAL SINGLE POINT ENERGY      -538.439155810131
FINAL SINGLE POINT ENERGY      -538.439176779903
FINAL SINGLE POINT ENERGY      -538.439184861134
                    ***********************HURRAY********************

CARTESIAN COORDINATES (ANGSTROEM)
---------------------------------
  C    -20.996771   26.196197   46.236942
  C    -20.406440   27.578520   45.956252
  C    -20.399788   28.209529   47.366327
  C    -20.089231   27.010573   48.289848
  O    -20.386312   25.792526   47.489154
  H    -20.745201   25.412303   45.515842
  H    -19.388458   27.464542   45.567107
  H    -21.005386   28.139627   45.236135
  H    -19.660647   29.010400   47.465700
  H    -21.389035   28.620321   47.586628
  H    -20.700310   26.996522   49.195919
  H    -19.032724   26.949036   48.566947
  C    -24.557678   25.599515   47.182812
  H    -25.050389   24.813179   47.773944
  C    -23.159447   25.155329   46.755617
  C    -23.475616   24.246080   45.553319
  C    -24.698104   24.932757   44.899087
  O    -25.264253   25.834996   45.923295
  H    -24.551157   26.537673   47.739269
  O    -22.425051   26.355584   46.351056
  H    -22.603223   24.647308   47.549705
  H    -22.628629   24.148671   44.867378
  H    -23.728195   23.242625   45.915434
  H    -25.464621   24.214792   44.586751
  H    -24.417335   25.554395   44.044532

 Multiplicity           Mult            ....    1
 Number of Electrons    NEL             ....   86
 Basis Dimension        Dim             ....  127

ORBITAL ENERGIES
----------------

  NO   OCC          E(Eh)            E(eV)
   0   2.0000     -19.142940      -520.9059
   1   2.0000     -19.142520      -520.8944
   2   2.0000     -19.124868      -520.4141
   3   2.0000     -10.278222      -279.6846
   4   2.0000     -10.234225      -278.4874
   5   2.0000     -10.226473      -278.2765
   6   2.0000     -10.219073      -278.0751
   7   2.0000     -10.218413      -278.0571
   8   2.0000     -10.185176      -277.1527
   9   2.0000     -10.184982      -277.1475
  10   2.0000     -10.184832      -277.1434
  11   2.0000      -1.055766       -28.7288
  12   2.0000      -1.012029       -27.5387
  13   2.0000      -0.988881       -26.9088
  14   2.0000      -0.792198       -21.5568
  15   2.0000      -0.774418       -21.0730
  16   2.0000      -0.740980       -20.1631
  17   2.0000      -0.718863       -19.5613
  18   2.0000      -0.609792       -16.5933
  19   2.0000      -0.599614       -16.3163
  20   2.0000      -0.594019       -16.1641
  21   2.0000      -0.568362       -15.4659
  22   2.0000      -0.524075       -14.2608
  23   2.0000      -0.499014       -13.5789
  24   2.0000      -0.486079       -13.2269
  25   2.0000      -0.476753       -12.9731
  26   2.0000      -0.455779       -12.4024
  27   2.0000      -0.433948       -11.8083
  28   2.0000      -0.428000       -11.6465
  29   2.0000      -0.417076       -11.3492
  30   2.0000      -0.403285       -10.9739
  31   2.0000      -0.382055       -10.3962
  32   2.0000      -0.373615       -10.1666
  33   2.0000      -0.364513        -9.9189
  34   2.0000      -0.358108        -9.7446
  35   2.0000      -0.355472        -9.6729
  36   2.0000      -0.342508        -9.3201
  37   2.0000      -0.331448        -9.0192
  38   2.0000      -0.300985        -8.1902
  39   2.0000      -0.292942        -7.9713
  40   2.0000      -0.267207        -7.2711
  41   2.0000      -0.256183        -6.9711
  42   2.0000      -0.231233        -6.2922
  43   0.0000       0.081239         2.2106
  44   0.0000       0.097159         2.6438
  45   0.0000       0.104315         2.8386
  46   0.0000       0.111306         3.0288
  47   0.0000       0.116796         3.1782

MULLIKEN ATOMIC CHARGES
-----------------------
   0 C :    0.288546
   1 C :   -0.262194
   2 C :   -0.298305
   3 C :   -0.005807
   4 O :   -0.516387
   5 H :    0.140489
   6 H :    0.144005
   7 H :    0.161763
   8 H :    0.141547
   9 H :    0.164501
  10 H :    0.145707
  11 H :    0.143852
  12 C :    0.001849
  13 H :    0.124894
  14 C :    0.062729
  15 C :   -0.304547
  16 C :    0.009450
  17 O :   -0.521507
  18 H :    0.162001
  19 O :   -0.515764
  20 H :    0.156745
  21 H :    0.149808
  22 H :    0.143864
  23 H :    0.133807
  24 H :    0.148952
Sum of atomic charges:    0.0000000

LOEWDIN ATOMIC CHARGES
----------------------
   0 C :    0.171184
   1 C :   -0.213672
   2 C :   -0.215883
   3 C :   -0.028488
   4 O :   -0.332248
   5 H :    0.093373
   6 H :    0.113569
   7 H :    0.126778
   8 H :    0.113797
   9 H :    0.120225
  10 H :    0.104496
  11 H :    0.103296
  12 C :   -0.033866
  13 H :    0.091703
  14 C :    0.032265
  15 C :   -0.236204
  16 C :   -0.027741
  17 O :   -0.329962
  18 H :    0.120353
  19 O :   -0.320299
  20 H :    0.111801
  21 H :    0.117965
  22 H :    0.114038
  23 H :    0.097620
  24 H :    0.105899

  Mayer bond orders larger than 0.100000
B(  0-C ,  1-C ) :   0.9499 B(  0-C ,  4-O ) :   0.8947 B(  0-C ,  5-H ) :   0.9159
B(  0-C , 19-O ) :   0.8674 B(  1-C ,  2-C ) :   0.9559 B(  1-C ,  6-H ) :   0.9403
B(  1-C ,  7-H ) :   0.9349 B(  2-C ,  3-C ) :   0.9557 B(  2-C ,  8-H ) :   0.9451
B(  2-C ,  9-H ) :   0.9437 B(  3-C ,  4-O ) :   0.8349 B(  3-C , 10-H ) :   0.9361
B(  3-C , 11-H ) :   0.9406 B( 12-C , 13-H ) :   0.9162 B( 12-C , 14-C ) :   0.9379
B( 12-C , 17-O ) :   0.8685 B( 12-C , 18-H ) :   0.9313 B( 14-C , 15-C ) :   0.9329
B( 14-C , 19-O ) :   0.8234 B( 14-C , 20-H ) :   0.9123 B( 15-C , 16-C ) :   0.9447
B( 15-C , 21-H ) :   0.9380 B( 15-C , 22-H ) :   0.9373 B( 16-C , 17-O ) :   0.8598
B( 16-C , 23-H ) :   0.9333 B( 16-C , 24-H ) :   0.9366

FINAL SINGLE POINT ENERGY      -538.439185420215

DIPOLE MOMENT
-------------
                                X             Y             Z
Electronic contribution:     -1.67711      -0.76324       0.13350
Nuclear contribution   :      2.49941       0.58926      -0.06549
                        -----------------------------------------
Total Dipole Moment    :      0.82230      -0.17398       0.06801
                        -----------------------------------------
Magnitude (a.u.)       :      0.84325
Magnitude (Debye)      :      2.14338

Rotational constants in cm-1:     0.084202     0.019969     0.019868
Rotational constants in MHz :  2524.319330   598.664211   595.618478

                             ****ORCA TERMINATED NORMALLY****
TOTAL RUN TIME: 0 days 0 hours 5 minutes 44 seconds 401 msec
