                         Program Version 4.2.0 -  RELEASE  -
|  1> # Test redundant internal optimization
|  2> #
|  3> ! RKS B3LYP  Opt TightSCF SmallPrint
|  4>
|  5> %basis
|  6>         Basis "6-31G"
|  7> end
|  8>
|  9> %geom
| 10> Constraints
| 11> { D 4  0  15  12  60.0   C } # D for Dihedral angle
| 12> { D 0  15  12  16  180.0   C } # D for Dihedral angle
| 13> { D 0  4  3  2   C } # D for Dihedral angle
| 14> { D 4  3  2  1   C } # D for Dihedral angle
| 15> { D 3  2  1  0   C } # D for Dihedral angle
| 16> { D 2  1  0  4   C } # D for Dihedral angle
| 17> { D 1  0  4  3   C } # D for Dihedral angle
| 18> { D 16  20  19  18   C } # D for Dihedral angle
| 19> { D 20  19  18  17   C } # D for Dihedral angle
| 20> { D 19  18  17  16   C } # D for Dihedral angle
| 21> { D 18  17  16  20   C } # D for Dihedral angle
| 22> { D 17  16  20  19   C } # D for Dihedral angle
| 23> { D 15  12  16  20   C } # D for Dihedral angle
| 24> end
| 25> end
| 26>
| 27>
| 28> #%pal
| 29> #nprocs 8
| 30> #end
| 31>
| 32> * xyz 0 1
| 33> C  -21.048   26.222   46.251
| 34> C  -20.361   27.558   45.944
| 35> C  -20.329   28.222   47.341
| 36> C  -20.110   27.022   48.296
| 37> O  -20.473   25.807   47.535
| 38> H  -20.833   25.428   45.533
| 39> H  -19.344   27.382   45.576
| 40> H  -20.898   28.157   45.201
| 41> H  -19.543   28.978   47.434
| 42> H  -21.289   28.710   47.548
| 43> H  -20.733   27.082   49.195
| 44> H  -19.064   26.913   48.597
| 45> C  -23.051   27.452   47.413
| 46> H  -22.677   27.172   48.406
| 47> H  -22.647   28.441   47.161
| 48> O  -22.586   26.394   46.375
| 49> C  -24.597   27.578   47.491
| 50> C  -25.017   28.708   48.438
| 51> C  -24.806   29.956   47.549
| 52> C  -25.193   29.452   46.137
| 53> O  -25.146   27.975   46.190
| 54> H  -25.024   26.602   47.734
| 55> H  -26.073   28.600   48.709
| 56> O  -24.179   28.751   49.745
| 57> H  -25.411   30.811   47.868
| 58> H  -23.753   30.263   47.574
| 59> H  -24.504   29.805   45.361
| 60> H  -26.213   29.732   45.859
| 61> H  -23.117   28.859   49.500
| 62> *
| 63>
| 64>                          ****END OF INPUT****
 Total Charge           Charge          ....    0
 Multiplicity           Mult            ....    1
 Number of Electrons    NEL             ....  102
FINAL SINGLE POINT ENERGY      -652.803753876846
FINAL SINGLE POINT ENERGY      -652.832382725822
FINAL SINGLE POINT ENERGY      -652.848085795136
FINAL SINGLE POINT ENERGY      -652.850639036261
FINAL SINGLE POINT ENERGY      -652.851054980893
FINAL SINGLE POINT ENERGY      -652.851150960585
FINAL SINGLE POINT ENERGY      -652.851160773130
FINAL SINGLE POINT ENERGY      -652.851160284007
                    ***********************HURRAY********************

CARTESIAN COORDINATES (ANGSTROEM)
---------------------------------
  C    -21.181680   26.333598   46.386684
  C    -20.268683   27.476338   45.915098
  C    -19.850517   28.137309   47.262743
  C    -19.755859   26.917397   48.216359
  O    -20.511471   25.822311   47.564995
  H    -21.216718   25.503546   45.679680
  H    -19.398355   27.044967   45.410150
  H    -20.773712   28.160734   45.228437
  H    -18.893798   28.664179   47.187923
  H    -20.597773   28.859958   47.599061
  H    -20.183631   27.107588   49.205778
  H    -18.726686   26.566360   48.336976
  C    -23.034953   27.590053   47.537208
  H    -22.741007   27.285570   48.550296
  H    -22.619672   28.584612   47.321780
  O    -22.579894   26.621631   46.560480
  C    -24.558668   27.631633   47.440140
  C    -25.218552   28.648783   48.387321
  C    -25.095917   29.971333   47.572552
  C    -25.275677   29.490776   46.116401
  O    -25.031283   28.025867   46.117471
  H    -24.932139   26.615990   47.597707
  H    -26.268342   28.382750   48.525784
  O    -24.677003   28.700750   49.729253
  H    -25.840383   30.713086   47.873098
  H    -24.100836   30.409411   47.731227
  H    -24.580725   29.969454   45.419331
  H    -26.296604   29.643869   45.754074
  H    -23.808461   29.152145   49.732991

 Multiplicity           Mult            ....    1
 Number of Electrons    NEL             ....  102
 Basis Dimension        Dim             ....  149

ORBITAL ENERGIES
----------------

  NO   OCC          E(Eh)            E(eV)
   0   2.0000     -19.151788      -521.1466
   1   2.0000     -19.142086      -520.8826
   2   2.0000     -19.141265      -520.8603
   3   2.0000     -19.136821      -520.7394
   4   2.0000     -10.276396      -279.6350
   5   2.0000     -10.246328      -278.8168
   6   2.0000     -10.232199      -278.4323
   7   2.0000     -10.231551      -278.4147
   8   2.0000     -10.231029      -278.4004
   9   2.0000     -10.230245      -278.3791
  10   2.0000     -10.197577      -277.4902
  11   2.0000     -10.196003      -277.4473
  12   2.0000     -10.190540      -277.2987
  13   2.0000      -1.052680       -28.6449
  14   2.0000      -1.034920       -28.1616
  15   2.0000      -1.016651       -27.6645
  16   2.0000      -0.995438       -27.0872
  17   2.0000      -0.789620       -21.4867
  18   2.0000      -0.784595       -21.3499
  19   2.0000      -0.773499       -21.0480
  20   2.0000      -0.733262       -19.9531
  21   2.0000      -0.684418       -18.6239
  22   2.0000      -0.612977       -16.6799
  23   2.0000      -0.605726       -16.4826
  24   2.0000      -0.598230       -16.2787
  25   2.0000      -0.573395       -15.6029
  26   2.0000      -0.527929       -14.3657
  27   2.0000      -0.508882       -13.8474
  28   2.0000      -0.503127       -13.6908
  29   2.0000      -0.496267       -13.5041
  30   2.0000      -0.474580       -12.9140
  31   2.0000      -0.462876       -12.5955
  32   2.0000      -0.447576       -12.1792
  33   2.0000      -0.433680       -11.8010
  34   2.0000      -0.425223       -11.5709
  35   2.0000      -0.420623       -11.4457
  36   2.0000      -0.412744       -11.2313
  37   2.0000      -0.402691       -10.9578
  38   2.0000      -0.383425       -10.4335
  39   2.0000      -0.377541       -10.2734
  40   2.0000      -0.362256        -9.8575
  41   2.0000      -0.358120        -9.7449
  42   2.0000      -0.348548        -9.4845
  43   2.0000      -0.332381        -9.0445
  44   2.0000      -0.318726        -8.6730
  45   2.0000      -0.314642        -8.5618
  46   2.0000      -0.304445        -8.2844
  47   2.0000      -0.272368        -7.4115
  48   2.0000      -0.264504        -7.1975
  49   2.0000      -0.250060        -6.8045
  50   2.0000      -0.242626        -6.6022
  51   0.0000       0.042619         1.1597
  52   0.0000       0.067785         1.8445
  53   0.0000       0.082782         2.2526
  54   0.0000       0.090132         2.4526
  55   0.0000       0.101976         2.7749

MULLIKEN ATOMIC CHARGES
-----------------------
   0 C :    0.300271
   1 C :   -0.274697
   2 C :   -0.311182
   3 C :   -0.011289
   4 O :   -0.506195
   5 H :    0.169264
   6 H :    0.155388
   7 H :    0.153317
   8 H :    0.145596
   9 H :    0.136006
  10 H :    0.140695
  11 H :    0.149165
  12 C :   -0.008352
  13 H :    0.145099
  14 H :    0.112608
  15 O :   -0.508953
  16 C :    0.090504
  17 C :    0.081303
  18 C :   -0.323475
  19 C :   -0.008758
  20 O :   -0.502450
  21 H :    0.170269
  22 H :    0.170955
  23 O :   -0.598136
  24 H :    0.160131
  25 H :    0.126765
  26 H :    0.143933
  27 H :    0.148476
  28 H :    0.353740
Sum of atomic charges:   -0.0000000

LOEWDIN ATOMIC CHARGES
----------------------
   0 C :    0.174711
   1 C :   -0.228900
   2 C :   -0.223681
   3 C :   -0.034391
   4 O :   -0.321904
   5 H :    0.115482
   6 H :    0.121830
   7 H :    0.120892
   8 H :    0.115375
   9 H :    0.102985
  10 H :    0.099712
  11 H :    0.105167
  12 C :   -0.052850
  13 H :    0.104910
  14 H :    0.082424
  15 O :   -0.303354
  16 C :    0.023394
  17 C :    0.034866
  18 C :   -0.242052
  19 C :   -0.030196
  20 O :   -0.311002
  21 H :    0.123377
  22 H :    0.121269
  23 O :   -0.406424
  24 H :    0.123273
  25 H :    0.100598
  26 H :    0.102289
  27 H :    0.105888
  28 H :    0.276311

  Mayer bond orders larger than 0.100000
B(  0-C ,  1-C ) :   0.9154 B(  0-C ,  4-O ) :   0.8939 B(  0-C ,  5-H ) :   0.9358
B(  0-C , 15-O ) :   0.9064 B(  1-C ,  2-C ) :   0.9563 B(  1-C ,  6-H ) :   0.9352
B(  1-C ,  7-H ) :   0.9366 B(  2-C ,  3-C ) :   0.9470 B(  2-C ,  8-H ) :   0.9453
B(  2-C ,  9-H ) :   0.9413 B(  3-C ,  4-O ) :   0.8487 B(  3-C , 10-H ) :   0.9331
B(  3-C , 11-H ) :   0.9386 B( 12-C , 13-H ) :   0.9013 B( 12-C , 14-H ) :   0.9053
B( 12-C , 15-O ) :   0.8428 B( 12-C , 16-C ) :   0.9057 B( 16-C , 17-C ) :   0.8735
B( 16-C , 20-O ) :   0.8725 B( 16-C , 21-H ) :   0.9276 B( 17-C , 18-C ) :   0.9239
B( 17-C , 22-H ) :   0.9330 B( 17-C , 23-O ) :   0.8964 B( 18-C , 19-C ) :   0.9366
B( 18-C , 24-H ) :   0.9417 B( 18-C , 25-H ) :   0.9408 B( 19-C , 20-O ) :   0.8525
B( 19-C , 26-H ) :   0.9314 B( 19-C , 27-H ) :   0.9380 B( 23-O , 28-H ) :   0.7992

FINAL SINGLE POINT ENERGY      -652.851158440006

DIPOLE MOMENT
-------------
                                X             Y             Z
Electronic contribution:     -3.51506      -5.58004      -0.11507
Nuclear contribution   :      4.37925       7.39231       0.15837
                        -----------------------------------------
Total Dipole Moment    :      0.86419       1.81227       0.04330
                        -----------------------------------------
Magnitude (a.u.)       :      2.00824
Magnitude (Debye)      :      5.10454

Rotational constants in cm-1:     0.047065     0.014338     0.013224
Rotational constants in MHz :  1410.979132   429.850953   396.440952

                             ****ORCA TERMINATED NORMALLY****
TOTAL RUN TIME: 0 days 1 hours 27 minutes 42 seconds 172 msec
