                         Program Version 4.2.0 -  RELEASE  -
|  1> # Test redundant internal optimization
|  2> #
|  3> ! RKS B3LYP  Opt TightSCF SmallPrint
|  4>
|  5> %basis
|  6>         Basis "6-31G"
|  7> end
|  8>
|  9> %geom
| 10> Constraints
| 11> { D 4  0  15  12  135.0   C } # D for Dihedral angle
| 12> { D 0  15  12  16  60.0   C } # D for Dihedral angle
| 13> { D 0  4  3  2   C } # D for Dihedral angle
| 14> { D 4  3  2  1   C } # D for Dihedral angle
| 15> { D 3  2  1  0   C } # D for Dihedral angle
| 16> { D 2  1  0  4   C } # D for Dihedral angle
| 17> { D 1  0  4  3   C } # D for Dihedral angle
| 18> { D 16  20  19  18   C } # D for Dihedral angle
| 19> { D 20  19  18  17   C } # D for Dihedral angle
| 20> { D 19  18  17  16   C } # D for Dihedral angle
| 21> { D 18  17  16  20   C } # D for Dihedral angle
| 22> { D 17  16  20  19   C } # D for Dihedral angle
| 23> { D 15  12  16  20   C } # D for Dihedral angle
| 24> end
| 25> end
| 26>
| 27>
| 28> #%pal
| 29> #nprocs 8
| 30> #end
| 31>
| 32> * xyz 0 1
| 33> C  -21.048   26.222   46.251
| 34> C  -20.361   27.558   45.944
| 35> C  -20.329   28.222   47.341
| 36> C  -20.110   27.022   48.296
| 37> O  -20.473   25.807   47.535
| 38> H  -20.833   25.428   45.533
| 39> H  -19.344   27.382   45.576
| 40> H  -20.898   28.157   45.201
| 41> H  -19.543   28.978   47.434
| 42> H  -21.289   28.710   47.548
| 43> H  -20.733   27.082   49.195
| 44> H  -19.064   26.913   48.597
| 45> C  -23.162   27.680   45.721
| 46> H  -24.248   27.708   45.872
| 47> H  -22.727   28.574   46.185
| 48> O  -22.586   26.394   46.375
| 49> C  -22.879   27.755   44.194
| 50> C  -23.596   26.629   43.440
| 51> C  -25.040   27.178   43.356
| 52> C  -24.828   28.704   43.192
| 53> O  -23.443   28.985   43.629
| 54> H  -21.801   27.793   44.032
| 55> O  -22.987   26.468   42.020
| 56> H  -23.538   25.662   43.951
| 57> H  -25.612   26.745   42.529
| 58> H  -25.580   26.961   44.286
| 59> H  -25.522   29.292   43.800
| 60> H  -24.909   29.027   42.151
| 61> H  -23.035   27.426   41.488
| 62> *
| 63>
| 64>                          ****END OF INPUT****
 Total Charge           Charge          ....    0
 Multiplicity           Mult            ....    1
 Number of Electrons    NEL             ....  102
FINAL SINGLE POINT ENERGY      -652.818963747988
FINAL SINGLE POINT ENERGY      -652.843538600622
FINAL SINGLE POINT ENERGY      -652.850615509971
FINAL SINGLE POINT ENERGY      -652.852541169826
FINAL SINGLE POINT ENERGY      -652.852822900488
FINAL SINGLE POINT ENERGY      -652.852873191441
                    ***********************HURRAY********************

CARTESIAN COORDINATES (ANGSTROEM)
---------------------------------
  C    -21.083475   26.275228   46.276000
  C    -20.158036   27.456984   45.968923
  C    -20.137797   28.220077   47.325832
  C    -20.211064   27.065061   48.350354
  O    -20.705229   25.886742   47.606220
  H    -20.942853   25.398065   45.643012
  H    -19.162891   27.057620   45.742938
  H    -20.460196   28.088418   45.134524
  H    -19.236195   28.827822   47.445889
  H    -21.006526   28.880902   47.411288
  H    -20.893361   27.269148   49.179841
  H    -19.229022   26.795830   48.750242
  C    -23.154410   27.716556   45.677694
  H    -24.212191   27.590885   45.921160
  H    -22.816083   28.657387   46.133049
  O    -22.518919   26.563648   46.296221
  C    -22.961247   27.835554   44.158713
  C    -23.575509   26.691165   43.339045
  C    -25.070728   27.097769   43.306092
  C    -25.017553   28.644477   43.239507
  O    -23.654205   29.038161   43.681371
  H    -21.910596   27.963296   43.895856
  O    -22.991301   26.635187   42.007686
  H    -23.403856   25.708456   43.777465
  H    -25.573276   26.651656   42.444127
  H    -25.577575   26.752364   44.213304
  H    -25.754157   29.126023   43.889243
  H    -25.146941   29.026735   42.222453
  H    -22.952808   27.540786   41.633951

 Multiplicity           Mult            ....    1
 Number of Electrons    NEL             ....  102
 Basis Dimension        Dim             ....  149

ORBITAL ENERGIES
----------------

  NO   OCC          E(Eh)            E(eV)
   0   2.0000     -19.150538      -521.1126
   1   2.0000     -19.140422      -520.8374
   2   2.0000     -19.139627      -520.8157
   3   2.0000     -19.139147      -520.8027
   4   2.0000     -10.282181      -279.7924
   5   2.0000     -10.241414      -278.6830
   6   2.0000     -10.237396      -278.5737
   7   2.0000     -10.235823      -278.5309
   8   2.0000     -10.234989      -278.5082
   9   2.0000     -10.226456      -278.2760
  10   2.0000     -10.193840      -277.3885
  11   2.0000     -10.193077      -277.3677
  12   2.0000     -10.191538      -277.3259
  13   2.0000      -1.051206       -28.6048
  14   2.0000      -1.040555       -28.3149
  15   2.0000      -1.009430       -27.4680
  16   2.0000      -0.991962       -26.9927
  17   2.0000      -0.789763       -21.4906
  18   2.0000      -0.784048       -21.3350
  19   2.0000      -0.770974       -20.9793
  20   2.0000      -0.738346       -20.0914
  21   2.0000      -0.681029       -18.5317
  22   2.0000      -0.608099       -16.5472
  23   2.0000      -0.606102       -16.4929
  24   2.0000      -0.603816       -16.4307
  25   2.0000      -0.574977       -15.6459
  26   2.0000      -0.530943       -14.4477
  27   2.0000      -0.510343       -13.8871
  28   2.0000      -0.501980       -13.6596
  29   2.0000      -0.492135       -13.3917
  30   2.0000      -0.476862       -12.9761
  31   2.0000      -0.462802       -12.5935
  32   2.0000      -0.449733       -12.2379
  33   2.0000      -0.441605       -12.0167
  34   2.0000      -0.427204       -11.6248
  35   2.0000      -0.417221       -11.3532
  36   2.0000      -0.408415       -11.1135
  37   2.0000      -0.397301       -10.8111
  38   2.0000      -0.384343       -10.4585
  39   2.0000      -0.374038       -10.1781
  40   2.0000      -0.367623       -10.0035
  41   2.0000      -0.356540        -9.7019
  42   2.0000      -0.354720        -9.6524
  43   2.0000      -0.335502        -9.1295
  44   2.0000      -0.315033        -8.5725
  45   2.0000      -0.311548        -8.4776
  46   2.0000      -0.297246        -8.0885
  47   2.0000      -0.272114        -7.4046
  48   2.0000      -0.271351        -7.3838
  49   2.0000      -0.256252        -6.9730
  50   2.0000      -0.241835        -6.5807
  51   0.0000       0.060216         1.6386
  52   0.0000       0.069762         1.8983
  53   0.0000       0.082277         2.2389
  54   0.0000       0.094751         2.5783
  55   0.0000       0.097372         2.6496

MULLIKEN ATOMIC CHARGES
-----------------------
   0 C :    0.318902
   1 C :   -0.307503
   2 C :   -0.306207
   3 C :   -0.000339
   4 O :   -0.495097
   5 H :    0.158981
   6 H :    0.156811
   7 H :    0.151664
   8 H :    0.146388
   9 H :    0.156278
  10 H :    0.151452
  11 H :    0.144227
  12 C :   -0.004056
  13 H :    0.156434
  14 H :    0.137598
  15 O :   -0.533030
  16 C :    0.029295
  17 C :    0.088491
  18 C :   -0.301054
  19 C :   -0.031098
  20 O :   -0.525605
  21 H :    0.164301
  22 O :   -0.604459
  23 H :    0.171918
  24 H :    0.164767
  25 H :    0.152364
  26 H :    0.149941
  27 H :    0.146304
  28 H :    0.362331
Sum of atomic charges:    0.0000000

LOEWDIN ATOMIC CHARGES
----------------------
   0 C :    0.184635
   1 C :   -0.234304
   2 C :   -0.218237
   3 C :   -0.028073
   4 O :   -0.305649
   5 H :    0.106958
   6 H :    0.122730
   7 H :    0.116339
   8 H :    0.116704
   9 H :    0.112201
  10 H :    0.107473
  11 H :    0.103684
  12 C :   -0.039510
  13 H :    0.116321
  14 H :    0.097762
  15 O :   -0.338592
  16 C :   -0.002306
  17 C :    0.036622
  18 C :   -0.240346
  19 C :   -0.038261
  20 O :   -0.330574
  21 H :    0.109895
  22 O :   -0.416130
  23 H :    0.124954
  24 H :    0.127854
  25 H :    0.117446
  26 H :    0.105861
  27 H :    0.102959
  28 H :    0.281584

  Mayer bond orders larger than 0.100000
B(  0-C ,  1-C ) :   0.9313 B(  0-C ,  4-O ) :   0.9263 B(  0-C ,  5-H ) :   0.9275
B(  0-C , 15-O ) :   0.8420 B(  1-C ,  2-C ) :   0.9488 B(  1-C ,  6-H ) :   0.9336
B(  1-C ,  7-H ) :   0.9187 B(  2-C ,  3-C ) :   0.9511 B(  2-C ,  8-H ) :   0.9453
B(  2-C ,  9-H ) :   0.9408 B(  3-C ,  4-O ) :   0.8398 B(  3-C , 10-H ) :   0.9346
B(  3-C , 11-H ) :   0.9394 B( 12-C , 13-H ) :   0.9372 B( 12-C , 14-H ) :   0.9074
B( 12-C , 15-O ) :   0.8497 B( 12-C , 16-C ) :   0.8750 B( 16-C , 17-C ) :   0.9056
B( 16-C , 20-O ) :   0.8389 B( 16-C , 21-H ) :   0.9112 B( 17-C , 18-C ) :   0.9143
B( 17-C , 22-O ) :   0.8875 B( 17-C , 23-H ) :   0.9260 B( 18-C , 19-C ) :   0.9407
B( 18-C , 24-H ) :   0.9371 B( 18-C , 25-H ) :   0.9332 B( 19-C , 20-O ) :   0.8415
B( 19-C , 26-H ) :   0.9350 B( 19-C , 27-H ) :   0.9384 B( 22-O , 28-H ) :   0.7967

FINAL SINGLE POINT ENERGY      -652.852879818887

DIPOLE MOMENT
-------------
                                X             Y             Z
Electronic contribution:     -0.29246      -2.93821      -1.05711
Nuclear contribution   :      0.22423       3.99878       0.92467
                        -----------------------------------------
Total Dipole Moment    :     -0.06822       1.06057      -0.13245
                        -----------------------------------------
Magnitude (a.u.)       :      1.07099
Magnitude (Debye)      :      2.72223

Rotational constants in cm-1:     0.059468     0.012998     0.012584
Rotational constants in MHz :  1782.807375   389.684236   377.247156

                             ****ORCA TERMINATED NORMALLY****
TOTAL RUN TIME: 0 days 0 hours 59 minutes 46 seconds 208 msec
