                         Program Version 4.2.0 -  RELEASE  -
|  1> # Test redundant internal optimization
|  2> #
|  3> ! RKS B3LYP  Opt TightSCF SmallPrint
|  4>
|  5> %basis
|  6>         Basis "6-31G"
|  7> end
|  8>
|  9> %geom
| 10> Constraints
| 11> { D 4  0  15  12  300.0   C } # D for Dihedral angle
| 12> { D 0  15  12  16  120.0   C } # D for Dihedral angle
| 13> { D 0  4  3  2   C } # D for Dihedral angle
| 14> { D 4  3  2  1   C } # D for Dihedral angle
| 15> { D 3  2  1  0   C } # D for Dihedral angle
| 16> { D 2  1  0  4   C } # D for Dihedral angle
| 17> { D 1  0  4  3   C } # D for Dihedral angle
| 18> { D 16  20  19  18   C } # D for Dihedral angle
| 19> { D 20  19  18  17   C } # D for Dihedral angle
| 20> { D 19  18  17  16   C } # D for Dihedral angle
| 21> { D 18  17  16  20   C } # D for Dihedral angle
| 22> { D 17  16  20  19   C } # D for Dihedral angle
| 23> { D 15  12  16  20   C } # D for Dihedral angle
| 24> end
| 25> end
| 26>
| 27>
| 28> #%pal
| 29> #nprocs 8
| 30> #end
| 31>
| 32> * xyz 0 1
| 33> C  -21.048   26.222   46.251
| 34> C  -20.361   27.558   45.944
| 35> C  -20.329   28.222   47.341
| 36> C  -20.110   27.022   48.296
| 37> O  -20.473   25.807   47.535
| 38> H  -20.833   25.428   45.533
| 39> H  -19.344   27.382   45.576
| 40> H  -20.898   28.157   45.201
| 41> H  -19.543   28.978   47.434
| 42> H  -21.289   28.710   47.548
| 43> H  -20.733   27.082   49.195
| 44> H  -19.064   26.913   48.597
| 45> C  -23.362   25.116   46.798
| 46> H  -24.076   24.849   46.009
| 47> H  -22.670   24.275   46.933
| 48> O  -22.586   26.394   46.375
| 49> C  -24.146   25.302   48.126
| 50> C  -25.256   26.348   47.975
| 51> C  -26.359   25.535   47.258
| 52> C  -26.204   24.119   47.867
| 53> O  -24.858   24.068   48.477
| 54> H  -23.440   25.504   48.933
| 55> O  -25.741   26.815   49.375
| 56> H  -24.942   27.231   47.408
| 57> H  -27.360   25.949   47.413
| 58> H  -26.169   25.514   46.178
| 59> H  -26.287   23.327   47.115
| 60> H  -26.927   23.926   48.664
| 61> H  -26.062   25.947   49.962
| 62> *
| 63>
| 64>                          ****END OF INPUT****
 Total Charge           Charge          ....    0
 Multiplicity           Mult            ....    1
 Number of Electrons    NEL             ....  102
FINAL SINGLE POINT ENERGY      -652.842214445943
FINAL SINGLE POINT ENERGY      -652.865647347682
FINAL SINGLE POINT ENERGY      -652.869145612513
FINAL SINGLE POINT ENERGY      -652.869767312392
FINAL SINGLE POINT ENERGY      -652.869861265607
FINAL SINGLE POINT ENERGY      -652.869872316769
FINAL SINGLE POINT ENERGY      -652.869873785756
                    ***********************HURRAY********************

CARTESIAN COORDINATES (ANGSTROEM)
---------------------------------
  C    -21.108560   26.140709   46.274999
  C    -20.545007   27.536931   46.010517
  C    -20.579492   28.162873   47.422689
  C    -20.259206   26.968352   48.347875
  O    -20.514111   25.746898   47.534795
  H    -20.831309   25.363659   45.556035
  H    -19.517308   27.445077   45.641892
  H    -21.139090   28.088609   45.279119
  H    -19.860786   28.979883   47.538131
  H    -21.580889   28.551550   47.627993
  H    -20.887057   26.935984   49.241477
  H    -19.207129   26.927830   48.644189
  C    -23.265129   25.041544   46.733793
  H    -23.939133   24.780779   45.909502
  H    -22.571152   24.213496   46.905370
  O    -22.544860   26.258209   46.355657
  C    -24.040089   25.310155   48.022518
  C    -25.121827   26.394008   47.914731
  C    -26.288816   25.609608   47.265050
  C    -26.152586   24.195118   47.882768
  O    -24.773507   24.103953   48.426134
  H    -23.331978   25.538440   48.823426
  O    -25.477234   26.903767   49.230668
  H    -24.798410   27.259644   47.339019
  H    -27.247105   26.083443   47.492967
  H    -26.169700   25.582693   46.176228
  H    -26.299900   23.394388   47.151400
  H    -26.839318   24.033580   48.719552
  H    -25.579313   26.148823   49.848506

 Multiplicity           Mult            ....    1
 Number of Electrons    NEL             ....  102
 Basis Dimension        Dim             ....  149

ORBITAL ENERGIES
----------------

  NO   OCC          E(Eh)            E(eV)
   0   2.0000     -19.146830      -521.0117
   1   2.0000     -19.142700      -520.8994
   2   2.0000     -19.142381      -520.8907
   3   2.0000     -19.133623      -520.6523
   4   2.0000     -10.280069      -279.7349
   5   2.0000     -10.233628      -278.4712
   6   2.0000     -10.230136      -278.3762
   7   2.0000     -10.228614      -278.3347
   8   2.0000     -10.227185      -278.2959
   9   2.0000     -10.226035      -278.2646
  10   2.0000     -10.186343      -277.1845
  11   2.0000     -10.186069      -277.1770
  12   2.0000     -10.185207      -277.1536
  13   2.0000      -1.055932       -28.7334
  14   2.0000      -1.033257       -28.1164
  15   2.0000      -1.002240       -27.2723
  16   2.0000      -0.994602       -27.0645
  17   2.0000      -0.790788       -21.5184
  18   2.0000      -0.777004       -21.1434
  19   2.0000      -0.764936       -20.8150
  20   2.0000      -0.729268       -19.8444
  21   2.0000      -0.672326       -18.2949
  22   2.0000      -0.601957       -16.3801
  23   2.0000      -0.599153       -16.3038
  24   2.0000      -0.592192       -16.1144
  25   2.0000      -0.579511       -15.7693
  26   2.0000      -0.521533       -14.1916
  27   2.0000      -0.513900       -13.9839
  28   2.0000      -0.495479       -13.4827
  29   2.0000      -0.487531       -13.2664
  30   2.0000      -0.470335       -12.7985
  31   2.0000      -0.456682       -12.4270
  32   2.0000      -0.451359       -12.2821
  33   2.0000      -0.435028       -11.8377
  34   2.0000      -0.421067       -11.4578
  35   2.0000      -0.411511       -11.1978
  36   2.0000      -0.401333       -10.9208
  37   2.0000      -0.390736       -10.6325
  38   2.0000      -0.373436       -10.1617
  39   2.0000      -0.364371        -9.9150
  40   2.0000      -0.358283        -9.7494
  41   2.0000      -0.356064        -9.6890
  42   2.0000      -0.348138        -9.4733
  43   2.0000      -0.333781        -9.0826
  44   2.0000      -0.325712        -8.8631
  45   2.0000      -0.306268        -8.3340
  46   2.0000      -0.297578        -8.0975
  47   2.0000      -0.279712        -7.6114
  48   2.0000      -0.264439        -7.1958
  49   2.0000      -0.255895        -6.9633
  50   2.0000      -0.241781        -6.5792
  51   0.0000       0.065977         1.7953
  52   0.0000       0.079973         2.1762
  53   0.0000       0.094331         2.5669
  54   0.0000       0.100367         2.7311
  55   0.0000       0.108056         2.9404

MULLIKEN ATOMIC CHARGES
-----------------------
   0 C :    0.283792
   1 C :   -0.262262
   2 C :   -0.299570
   3 C :   -0.009369
   4 O :   -0.513337
   5 H :    0.147577
   6 H :    0.146287
   7 H :    0.157915
   8 H :    0.142296
   9 H :    0.165588
  10 H :    0.151013
  11 H :    0.145152
  12 C :   -0.016334
  13 H :    0.134376
  14 H :    0.168187
  15 O :   -0.528333
  16 C :    0.060812
  17 C :    0.090322
  18 C :   -0.303248
  19 C :   -0.033681
  20 O :   -0.525732
  21 H :    0.166135
  22 O :   -0.605125
  23 H :    0.172648
  24 H :    0.160032
  25 H :    0.149946
  26 H :    0.146143
  27 H :    0.147299
  28 H :    0.361471
Sum of atomic charges:    0.0000000

LOEWDIN ATOMIC CHARGES
----------------------
   0 C :    0.172894
   1 C :   -0.214592
   2 C :   -0.216010
   3 C :   -0.029142
   4 O :   -0.331407
   5 H :    0.097353
   6 H :    0.114928
   7 H :    0.124752
   8 H :    0.114324
   9 H :    0.120377
  10 H :    0.106155
  11 H :    0.104158
  12 C :   -0.042125
  13 H :    0.099356
  14 H :    0.119734
  15 O :   -0.333834
  16 C :    0.013632
  17 C :    0.036934
  18 C :   -0.242615
  19 C :   -0.039409
  20 O :   -0.331183
  21 H :    0.118267
  22 O :   -0.416368
  23 H :    0.125636
  24 H :    0.125670
  25 H :    0.115376
  26 H :    0.103747
  27 H :    0.102535
  28 H :    0.280856

  Mayer bond orders larger than 0.100000
B(  0-C ,  1-C ) :   0.9509 B(  0-C ,  4-O ) :   0.9015 B(  0-C ,  5-H ) :   0.9210
B(  0-C , 15-O ) :   0.8603 B(  1-C ,  2-C ) :   0.9553 B(  1-C ,  6-H ) :   0.9399
B(  1-C ,  7-H ) :   0.9360 B(  2-C ,  3-C ) :   0.9555 B(  2-C ,  8-H ) :   0.9450
B(  2-C ,  9-H ) :   0.9433 B(  3-C ,  4-O ) :   0.8332 B(  3-C , 10-H ) :   0.9337
B(  3-C , 11-H ) :   0.9406 B( 12-C , 13-H ) :   0.9326 B( 12-C , 14-H ) :   0.9164
B( 12-C , 15-O ) :   0.8174 B( 12-C , 16-C ) :   0.8987 B( 16-C , 17-C ) :   0.9127
B( 16-C , 20-O ) :   0.8412 B( 16-C , 21-H ) :   0.9241 B( 17-C , 18-C ) :   0.9123
B( 17-C , 22-O ) :   0.8881 B( 17-C , 23-H ) :   0.9250 B( 18-C , 19-C ) :   0.9412
B( 18-C , 24-H ) :   0.9383 B( 18-C , 25-H ) :   0.9341 B( 19-C , 20-O ) :   0.8460
B( 19-C , 26-H ) :   0.9353 B( 19-C , 27-H ) :   0.9379 B( 22-O , 28-H ) :   0.7967

FINAL SINGLE POINT ENERGY      -652.869873502218

DIPOLE MOMENT
-------------
                                X             Y             Z
Electronic contribution:     -0.43200      -2.61201       1.55661
Nuclear contribution   :      0.46210       2.79631      -2.20147
                        -----------------------------------------
Total Dipole Moment    :      0.03010       0.18430      -0.64486
                        -----------------------------------------
Magnitude (a.u.)       :      0.67135
Magnitude (Debye)      :      1.70644

Rotational constants in cm-1:     0.053350     0.013841     0.013157
Rotational constants in MHz :  1599.386054   414.930129   394.449223

                             ****ORCA TERMINATED NORMALLY****
TOTAL RUN TIME: 0 days 1 hours 5 minutes 20 seconds 893 msec
