                         Program Version 4.2.0 -  RELEASE  -
|  1> # Test redundant internal optimization
|  2> #
|  3> ! RKS B3LYP  Opt TightSCF SmallPrint
|  4>
|  5> %basis
|  6>         Basis "6-31G"
|  7> end
|  8>
|  9> %geom
| 10> Constraints
| 11> { D 4  0  15  12  240.0   C } # D for Dihedral angle
| 12> { D 0  15  12  16  180.0   C } # D for Dihedral angle
| 13> { D 0  4  3  2   C } # D for Dihedral angle
| 14> { D 4  3  2  1   C } # D for Dihedral angle
| 15> { D 3  2  1  0   C } # D for Dihedral angle
| 16> { D 2  1  0  4   C } # D for Dihedral angle
| 17> { D 1  0  4  3   C } # D for Dihedral angle
| 18> { D 16  20  19  18   C } # D for Dihedral angle
| 19> { D 20  19  18  17   C } # D for Dihedral angle
| 20> { D 19  18  17  16   C } # D for Dihedral angle
| 21> { D 18  17  16  20   C } # D for Dihedral angle
| 22> { D 17  16  20  19   C } # D for Dihedral angle
| 23> { D 15  12  16  20   C } # D for Dihedral angle
| 24> end
| 25> end
| 26>
| 27>
| 28> #%pal
| 29> #nprocs 8
| 30> #end
| 31>
| 32> * xyz 0 1
| 33> C  -21.048   26.222   46.251
| 34> C  -20.361   27.558   45.944
| 35> C  -20.329   28.222   47.341
| 36> C  -20.110   27.022   48.296
| 37> O  -20.473   25.807   47.535
| 38> H  -20.833   25.428   45.533
| 39> H  -19.344   27.382   45.576
| 40> H  -20.898   28.157   45.201
| 41> H  -19.543   28.978   47.434
| 42> H  -21.289   28.710   47.548
| 43> H  -20.733   27.082   49.195
| 44> H  -19.064   26.913   48.597
| 45> C  -23.430   25.483   45.442
| 46> H  -23.166   25.691   44.398
| 47> H  -23.219   24.425   45.645
| 48> O  -22.586   26.394   46.375
| 49> C  -24.959   25.701   45.612
| 50> C  -25.760   24.707   44.764
| 51> C  -25.690   23.427   45.630
| 52> C  -25.730   23.979   47.077
| 53> O  -25.368   25.410   46.991
| 54> H  -25.194   26.750   45.423
| 55> H  -26.797   25.049   44.662
| 56> O  -25.170   24.505   43.341
| 57> H  -26.511   22.731   45.427
| 58> H  -24.749   22.898   45.444
| 59> H  -25.021   23.470   47.740
| 60> H  -26.729   23.925   47.518
| 61> H  -24.133   24.161   43.418
| 62> *
| 63>
| 64>                          ****END OF INPUT****
 Total Charge           Charge          ....    0
 Multiplicity           Mult            ....    1
 Number of Electrons    NEL             ....  102
FINAL SINGLE POINT ENERGY      -652.826149254192
FINAL SINGLE POINT ENERGY      -652.850252054948
FINAL SINGLE POINT ENERGY      -652.854701186071
FINAL SINGLE POINT ENERGY      -652.855524191018
FINAL SINGLE POINT ENERGY      -652.855682896404
FINAL SINGLE POINT ENERGY      -652.855714483692
FINAL SINGLE POINT ENERGY      -652.855723682373
FINAL SINGLE POINT ENERGY      -652.855726381238
                    ***********************HURRAY********************

CARTESIAN COORDINATES (ANGSTROEM)
---------------------------------
  C    -21.029699   26.173830   46.193309
  C    -20.447836   27.564792   45.943528
  C    -20.522754   28.199808   47.352552
  C    -20.240661   27.002508   48.286527
  O    -20.479259   25.786402   47.468378
  H    -20.741976   25.402844   45.472199
  H    -19.406406   27.472815   45.612071
  H    -21.011818   28.119573   45.190135
  H    -19.804686   29.014166   47.486826
  H    -21.530164   28.590073   47.524290
  H    -20.901143   26.972844   49.156325
  H    -19.198828   26.957137   48.618380
  C    -23.232235   25.412963   45.399456
  H    -23.005592   25.628812   44.343916
  H    -22.978494   24.360934   45.605344
  O    -22.473796   26.280247   46.276532
  C    -24.715264   25.679416   45.641682
  C    -25.646553   24.789321   44.802212
  C    -25.706569   23.488741   45.658567
  C    -25.650760   24.031630   47.103318
  O    -25.125801   25.418569   47.016261
  H    -24.897391   26.744759   45.474043
  H    -26.633502   25.253119   44.744884
  O    -25.250430   24.597946   43.421487
  H    -26.606356   22.901263   45.457050
  H    -24.834053   22.860733   45.433048
  H    -24.996899   23.444603   47.755322
  H    -26.642735   24.094113   47.560573
  H    -24.525339   23.943040   43.359787

 Multiplicity           Mult            ....    1
 Number of Electrons    NEL             ....  102
 Basis Dimension        Dim             ....  149

ORBITAL ENERGIES
----------------

  NO   OCC          E(Eh)            E(eV)
   0   2.0000     -19.151176      -521.1300
   1   2.0000     -19.136424      -520.7286
   2   2.0000     -19.135001      -520.6899
   3   2.0000     -19.133031      -520.6362
   4   2.0000     -10.275313      -279.6055
   5   2.0000     -10.245592      -278.7967
   6   2.0000     -10.231701      -278.4187
   7   2.0000     -10.230284      -278.3802
   8   2.0000     -10.228579      -278.3338
   9   2.0000     -10.218576      -278.0616
  10   2.0000     -10.196028      -277.4480
  11   2.0000     -10.180864      -277.0354
  12   2.0000     -10.179738      -277.0048
  13   2.0000      -1.048330       -28.5265
  14   2.0000      -1.033665       -28.1275
  15   2.0000      -1.014753       -27.6128
  16   2.0000      -0.990116       -26.9424
  17   2.0000      -0.784700       -21.3528
  18   2.0000      -0.780525       -21.2392
  19   2.0000      -0.766045       -20.8451
  20   2.0000      -0.726570       -19.7710
  21   2.0000      -0.678600       -18.4657
  22   2.0000      -0.611660       -16.6441
  23   2.0000      -0.592946       -16.1349
  24   2.0000      -0.586179       -15.9507
  25   2.0000      -0.579930       -15.7807
  26   2.0000      -0.529246       -14.4015
  27   2.0000      -0.510438       -13.8897
  28   2.0000      -0.496765       -13.5177
  29   2.0000      -0.484195       -13.1756
  30   2.0000      -0.467390       -12.7183
  31   2.0000      -0.457195       -12.4409
  32   2.0000      -0.445665       -12.1272
  33   2.0000      -0.432448       -11.7675
  34   2.0000      -0.424731       -11.5575
  35   2.0000      -0.419835       -11.4243
  36   2.0000      -0.401131       -10.9153
  37   2.0000      -0.397073       -10.8049
  38   2.0000      -0.377107       -10.2616
  39   2.0000      -0.371518       -10.1095
  40   2.0000      -0.352552        -9.5934
  41   2.0000      -0.349964        -9.5230
  42   2.0000      -0.345801        -9.4097
  43   2.0000      -0.329366        -8.9625
  44   2.0000      -0.315661        -8.5896
  45   2.0000      -0.311986        -8.4896
  46   2.0000      -0.301522        -8.2048
  47   2.0000      -0.271895        -7.3986
  48   2.0000      -0.259432        -7.0595
  49   2.0000      -0.243325        -6.6212
  50   2.0000      -0.239247        -6.5102
  51   0.0000       0.049106         1.3362
  52   0.0000       0.078238         2.1290
  53   0.0000       0.087296         2.3754
  54   0.0000       0.095862         2.6085
  55   0.0000       0.104731         2.8499

MULLIKEN ATOMIC CHARGES
-----------------------
   0 C :    0.285033
   1 C :   -0.251426
   2 C :   -0.300489
   3 C :    0.000217
   4 O :   -0.502960
   5 H :    0.133625
   6 H :    0.139733
   7 H :    0.145723
   8 H :    0.138562
   9 H :    0.167856
  10 H :    0.155210
  11 H :    0.137606
  12 C :   -0.009386
  13 H :    0.131219
  14 H :    0.123231
  15 O :   -0.508802
  16 C :    0.094503
  17 C :    0.080714
  18 C :   -0.323431
  19 C :   -0.015284
  20 O :   -0.500423
  21 H :    0.163132
  22 H :    0.167071
  23 O :   -0.599545
  24 H :    0.158051
  25 H :    0.132956
  26 H :    0.152586
  27 H :    0.149436
  28 H :    0.355280
Sum of atomic charges:   -0.0000000

LOEWDIN ATOMIC CHARGES
----------------------
   0 C :    0.175526
   1 C :   -0.220699
   2 C :   -0.216387
   3 C :   -0.025884
   4 O :   -0.317416
   5 H :    0.096257
   6 H :    0.110692
   7 H :    0.118080
   8 H :    0.112646
   9 H :    0.122059
  10 H :    0.109777
  11 H :    0.100169
  12 C :   -0.049690
  13 H :    0.094703
  14 H :    0.089122
  15 O :   -0.321852
  16 C :    0.023238
  17 C :    0.034887
  18 C :   -0.241502
  19 C :   -0.030747
  20 O :   -0.310209
  21 H :    0.119763
  22 H :    0.119384
  23 O :   -0.408204
  24 H :    0.122530
  25 H :    0.103517
  26 H :    0.106754
  27 H :    0.105943
  28 H :    0.277544

  Mayer bond orders larger than 0.100000
B(  0-C ,  1-C ) :   0.9426 B(  0-C ,  4-O ) :   0.9300 B(  0-C ,  5-H ) :   0.9196
B(  0-C , 15-O ) :   0.8457 B(  1-C ,  2-C ) :   0.9575 B(  1-C ,  6-H ) :   0.9373
B(  1-C ,  7-H ) :   0.9385 B(  2-C ,  3-C ) :   0.9548 B(  2-C ,  8-H ) :   0.9453
B(  2-C ,  9-H ) :   0.9424 B(  3-C ,  4-O ) :   0.8372 B(  3-C , 10-H ) :   0.9342
B(  3-C , 11-H ) :   0.9400 B( 12-C , 13-H ) :   0.9027 B( 12-C , 14-H ) :   0.9140
B( 12-C , 15-O ) :   0.8467 B( 12-C , 16-C ) :   0.9086 B( 16-C , 17-C ) :   0.8733
B( 16-C , 20-O ) :   0.8777 B( 16-C , 21-H ) :   0.9294 B( 17-C , 18-C ) :   0.9255
B( 17-C , 22-H ) :   0.9339 B( 17-C , 23-O ) :   0.8952 B( 18-C , 19-C ) :   0.9392
B( 18-C , 24-H ) :   0.9416 B( 18-C , 25-H ) :   0.9397 B( 19-C , 20-O ) :   0.8515
B( 19-C , 26-H ) :   0.9299 B( 19-C , 27-H ) :   0.9371 B( 23-O , 28-H ) :   0.7991

FINAL SINGLE POINT ENERGY      -652.855727105409

DIPOLE MOMENT
-------------
                                X             Y             Z
Electronic contribution:     -1.82722      -0.80319      -0.35396
Nuclear contribution   :      2.11210       0.38551      -0.12518
                        -----------------------------------------
Total Dipole Moment    :      0.28488      -0.41768      -0.47914
                        -----------------------------------------
Magnitude (a.u.)       :      0.69655
Magnitude (Debye)      :      1.77049

Rotational constants in cm-1:     0.056695     0.012209     0.011161
Rotational constants in MHz :  1699.664665   366.006567   334.607622

                             ****ORCA TERMINATED NORMALLY****
TOTAL RUN TIME: 0 days 1 hours 34 minutes 22 seconds 336 msec
