                         Program Version 4.2.0 -  RELEASE  -
|  1> # Test redundant internal optimization
|  2> #
|  3> ! RKS B3LYP  Opt TightSCF SmallPrint
|  4>
|  5> %basis
|  6>         Basis "6-31G"
|  7> end
|  8>
|  9> %geom
| 10> Constraints
| 11> { D 4  0  15  12  345.0   C } # D for Dihedral angle
| 12> { D 0  15  12  16  135.0   C } # D for Dihedral angle
| 13> { D 0  4  3  2   C } # D for Dihedral angle
| 14> { D 4  3  2  1   C } # D for Dihedral angle
| 15> { D 3  2  1  0   C } # D for Dihedral angle
| 16> { D 2  1  0  4   C } # D for Dihedral angle
| 17> { D 1  0  4  3   C } # D for Dihedral angle
| 18> { D 16  20  19  18   C } # D for Dihedral angle
| 19> { D 20  19  18  17   C } # D for Dihedral angle
| 20> { D 19  18  17  16   C } # D for Dihedral angle
| 21> { D 18  17  16  20   C } # D for Dihedral angle
| 22> { D 17  16  20  19   C } # D for Dihedral angle
| 23> { D 15  12  16  20   C } # D for Dihedral angle
| 24> end
| 25> end
| 26>
| 27>
| 28> #%pal
| 29> #nprocs 8
| 30> #end
| 31>
| 32> * xyz 0 1
| 33> C  -21.048   26.222   46.251
| 34> C  -20.361   27.558   45.944
| 35> C  -20.329   28.222   47.341
| 36> C  -20.110   27.022   48.296
| 37> O  -20.473   25.807   47.535
| 38> H  -20.833   25.428   45.533
| 39> H  -19.344   27.382   45.576
| 40> H  -20.898   28.157   45.201
| 41> H  -19.543   28.978   47.434
| 42> H  -21.289   28.710   47.548
| 43> H  -20.733   27.082   49.195
| 44> H  -19.064   26.913   48.597
| 45> C  -23.221   25.764   47.645
| 46> H  -23.739   24.837   47.369
| 47> H  -22.444   25.517   48.380
| 48> O  -22.586   26.394   46.375
| 49> C  -24.243   26.708   48.337
| 50> C  -24.761   26.103   49.646
| 51> C  -23.594   26.405   50.615
| 52> C  -23.075   27.779   50.123
| 53> O  -23.591   27.956   48.749
| 54> H  -25.024   26.976   47.622
| 55> O  -26.053   26.838   50.098
| 56> H  -24.982   25.033   49.568
| 57> H  -23.907   26.429   51.664
| 58> H  -22.815   25.640   50.516
| 59> H  -21.980   27.832   50.104
| 60> H  -23.460   28.610   50.721
| 61> H  -25.855   27.912   50.184
| 62> *
| 63>
| 64>                          ****END OF INPUT****
 Total Charge           Charge          ....    0
 Multiplicity           Mult            ....    1
 Number of Electrons    NEL             ....  102
FINAL SINGLE POINT ENERGY      -652.831816929993
FINAL SINGLE POINT ENERGY      -652.855225343543
FINAL SINGLE POINT ENERGY      -652.858747715296
FINAL SINGLE POINT ENERGY      -652.862391068074
FINAL SINGLE POINT ENERGY      -652.862718294971
FINAL SINGLE POINT ENERGY      -652.862788507544
FINAL SINGLE POINT ENERGY      -652.862793051223
                    ***********************HURRAY********************

CARTESIAN COORDINATES (ANGSTROEM)
---------------------------------
  C    -21.106734   26.232776   46.282220
  C    -20.548055   27.619308   45.963155
  C    -20.320395   28.200200   47.377282
  C    -19.889906   26.969379   48.201544
  O    -20.323304   25.781491   47.408271
  H    -20.959297   25.482772   45.499669
  H    -19.604840   27.509630   45.414983
  H    -21.244937   28.210731   45.365522
  H    -19.562891   28.990272   47.389239
  H    -21.263512   28.601513   47.756498
  H    -20.356819   26.919909   49.188454
  H    -18.804977   26.882053   48.313547
  C    -23.127267   25.708174   47.699392
  H    -23.692141   24.818674   47.383879
  H    -22.336600   25.386134   48.385210
  O    -22.537772   26.337305   46.534027
  C    -24.091359   26.694343   48.357661
  C    -24.784993   26.163508   49.621323
  C    -23.726648   26.468107   50.713086
  C    -23.099571   27.800666   50.234465
  O    -23.443667   27.937116   48.796101
  H    -24.829703   26.998264   47.609036
  O    -26.033712   26.865456   49.867683
  H    -25.053946   25.107544   49.567114
  H    -24.196324   26.545238   51.696582
  H    -22.979654   25.666925   50.747855
  H    -22.011805   27.823725   50.348335
  H    -23.520351   28.670487   50.748449
  H    -25.903821   27.822300   49.696419

 Multiplicity           Mult            ....    1
 Number of Electrons    NEL             ....  102
 Basis Dimension        Dim             ....  149

ORBITAL ENERGIES
----------------

  NO   OCC          E(Eh)            E(eV)
   0   2.0000     -19.148686      -521.0622
   1   2.0000     -19.148329      -521.0525
   2   2.0000     -19.139919      -520.8237
   3   2.0000     -19.134433      -520.6744
   4   2.0000     -10.276263      -279.6313
   5   2.0000     -10.244872      -278.7771
   6   2.0000     -10.235966      -278.5348
   7   2.0000     -10.233679      -278.4726
   8   2.0000     -10.228818      -278.3403
   9   2.0000     -10.227651      -278.3085
  10   2.0000     -10.192996      -277.3655
  11   2.0000     -10.179606      -277.0012
  12   2.0000     -10.178207      -276.9631
  13   2.0000      -1.052621       -28.6433
  14   2.0000      -1.038603       -28.2618
  15   2.0000      -1.008873       -27.4528
  16   2.0000      -0.989933       -26.9375
  17   2.0000      -0.789869       -21.4934
  18   2.0000      -0.781854       -21.2753
  19   2.0000      -0.768503       -20.9120
  20   2.0000      -0.732974       -19.9452
  21   2.0000      -0.672838       -18.3089
  22   2.0000      -0.608019       -16.5450
  23   2.0000      -0.600520       -16.3410
  24   2.0000      -0.590858       -16.0781
  25   2.0000      -0.575922       -15.6716
  26   2.0000      -0.526186       -14.3182
  27   2.0000      -0.512783       -13.9535
  28   2.0000      -0.493885       -13.4393
  29   2.0000      -0.487628       -13.2690
  30   2.0000      -0.480255       -13.0684
  31   2.0000      -0.459940       -12.5156
  32   2.0000      -0.448448       -12.2029
  33   2.0000      -0.446921       -12.1613
  34   2.0000      -0.418647       -11.3920
  35   2.0000      -0.406632       -11.0650
  36   2.0000      -0.398800       -10.8519
  37   2.0000      -0.397675       -10.8213
  38   2.0000      -0.375348       -10.2137
  39   2.0000      -0.368789       -10.0353
  40   2.0000      -0.364075        -9.9070
  41   2.0000      -0.353702        -9.6247
  42   2.0000      -0.344622        -9.3776
  43   2.0000      -0.333765        -9.0822
  44   2.0000      -0.330344        -8.9891
  45   2.0000      -0.309828        -8.4309
  46   2.0000      -0.297480        -8.0948
  47   2.0000      -0.274202        -7.4614
  48   2.0000      -0.263903        -7.1812
  49   2.0000      -0.257837        -7.0161
  50   2.0000      -0.240279        -6.5383
  51   0.0000       0.054712         1.4888
  52   0.0000       0.083592         2.2747
  53   0.0000       0.094809         2.5799
  54   0.0000       0.096676         2.6307
  55   0.0000       0.099048         2.6952

MULLIKEN ATOMIC CHARGES
-----------------------
   0 C :    0.306300
   1 C :   -0.257538
   2 C :   -0.320993
   3 C :   -0.022976
   4 O :   -0.516764
   5 H :    0.149500
   6 H :    0.139903
   7 H :    0.162184
   8 H :    0.137912
   9 H :    0.196816
  10 H :    0.138839
  11 H :    0.149048
  12 C :   -0.014077
  13 H :    0.132617
  14 H :    0.158049
  15 O :   -0.533408
  16 C :    0.076681
  17 C :    0.076954
  18 C :   -0.300866
  19 C :   -0.035823
  20 O :   -0.515906
  21 H :    0.168419
  22 O :   -0.601470
  23 H :    0.154745
  24 H :    0.164600
  25 H :    0.149626
  26 H :    0.144619
  27 H :    0.147931
  28 H :    0.365077
Sum of atomic charges:    0.0000000

LOEWDIN ATOMIC CHARGES
----------------------
   0 C :    0.185347
   1 C :   -0.216287
   2 C :   -0.226665
   3 C :   -0.031048
   4 O :   -0.322517
   5 H :    0.099139
   6 H :    0.110779
   7 H :    0.127173
   8 H :    0.112795
   9 H :    0.133801
  10 H :    0.096889
  11 H :    0.105177
  12 C :   -0.043649
  13 H :    0.099476
  14 H :    0.109552
  15 O :   -0.335820
  16 C :    0.014567
  17 C :    0.035734
  18 C :   -0.241338
  19 C :   -0.040792
  20 O :   -0.324318
  21 H :    0.119312
  22 O :   -0.413464
  23 H :    0.116958
  24 H :    0.127769
  25 H :    0.115354
  26 H :    0.099503
  27 H :    0.103261
  28 H :    0.283311

  Mayer bond orders larger than 0.100000
B(  0-C ,  1-C ) :   0.9384 B(  0-C ,  4-O ) :   0.9083 B(  0-C ,  5-H ) :   0.9274
B(  0-C , 15-O ) :   0.8421 B(  1-C ,  2-C ) :   0.9548 B(  1-C ,  6-H ) :   0.9371
B(  1-C ,  7-H ) :   0.9354 B(  2-C ,  3-C ) :   0.9579 B(  2-C ,  8-H ) :   0.9440
B(  2-C ,  9-H ) :   0.9178 B(  3-C ,  4-O ) :   0.8256 B(  3-C , 10-H ) :   0.9270
B(  3-C , 11-H ) :   0.9404 B( 12-C , 13-H ) :   0.9179 B( 12-C , 14-H ) :   0.9066
B( 12-C , 15-O ) :   0.8446 B( 12-C , 16-C ) :   0.8968 B( 16-C , 17-C ) :   0.8971
B( 16-C , 20-O ) :   0.8508 B( 16-C , 21-H ) :   0.9243 B( 17-C , 18-C ) :   0.9110
B( 17-C , 22-O ) :   0.8922 B( 17-C , 23-H ) :   0.9329 B( 18-C , 19-C ) :   0.9453
B( 18-C , 24-H ) :   0.9371 B( 18-C , 25-H ) :   0.9331 B( 19-C , 20-O ) :   0.8490
B( 19-C , 26-H ) :   0.9242 B( 19-C , 27-H ) :   0.9374 B( 22-O , 28-H ) :   0.7949

FINAL SINGLE POINT ENERGY      -652.862792237543

DIPOLE MOMENT
-------------
                                X             Y             Z
Electronic contribution:     -3.63236      -1.68837      -2.39540
Nuclear contribution   :      4.37912       1.98194       2.97373
                        -----------------------------------------
Total Dipole Moment    :      0.74676       0.29357       0.57833
                        -----------------------------------------
Magnitude (a.u.)       :      0.98909
Magnitude (Debye)      :      2.51406

Rotational constants in cm-1:     0.053183     0.016018     0.014767
Rotational constants in MHz :  1594.396641   480.206240   442.715075

                             ****ORCA TERMINATED NORMALLY****
TOTAL RUN TIME: 0 days 1 hours 6 minutes 57 seconds 760 msec
