                         Program Version 4.2.0 -  RELEASE  -
|  1> # Test redundant internal optimization
|  2> #
|  3> ! RKS B3LYP  Opt TightSCF SmallPrint
|  4>
|  5> %basis
|  6>         Basis "6-31G"
|  7> end
|  8>
|  9> %geom
| 10> Constraints
| 11> { D 4  0  15  12  45.0   C } # D for Dihedral angle
| 12> { D 0  15  12  16  225.0   C } # D for Dihedral angle
| 13> { D 0  4  3  2   C } # D for Dihedral angle
| 14> { D 4  3  2  1   C } # D for Dihedral angle
| 15> { D 3  2  1  0   C } # D for Dihedral angle
| 16> { D 2  1  0  4   C } # D for Dihedral angle
| 17> { D 1  0  4  3   C } # D for Dihedral angle
| 18> { D 16  20  19  18   C } # D for Dihedral angle
| 19> { D 20  19  18  17   C } # D for Dihedral angle
| 20> { D 19  18  17  16   C } # D for Dihedral angle
| 21> { D 18  17  16  20   C } # D for Dihedral angle
| 22> { D 17  16  20  19   C } # D for Dihedral angle
| 23> { D 15  12  16  20   C } # D for Dihedral angle
| 24> end
| 25> end
| 26>
| 27>
| 28> #%pal
| 29> #nprocs 8
| 30> #end
| 31>
| 32> * xyz 0 1
| 33> C  -21.048   26.222   46.251
| 34> C  -20.361   27.558   45.944
| 35> C  -20.329   28.222   47.341
| 36> C  -20.110   27.022   48.296
| 37> O  -20.473   25.807   47.535
| 38> H  -20.833   25.428   45.533
| 39> H  -19.344   27.382   45.576
| 40> H  -20.898   28.157   45.201
| 41> H  -19.543   28.978   47.434
| 42> H  -21.289   28.710   47.548
| 43> H  -20.733   27.082   49.195
| 44> H  -19.064   26.913   48.597
| 45> C  -23.065   27.161   47.638
| 46> H  -22.239   27.227   48.357
| 47> H  -23.371   28.182   47.374
| 48> O  -22.586   26.394   46.375
| 49> C  -24.269   26.473   48.338
| 50> C  -23.878   25.099   48.893
| 51> C  -23.142   25.486   50.198
| 52> C  -23.924   26.731   50.687
| 53> O  -24.679   27.237   49.521
| 54> H  -25.120   26.460   47.655
| 55> H  -24.778   24.514   49.116
| 56> O  -22.989   24.277   47.920
| 57> H  -23.138   24.679   50.938
| 58> H  -22.100   25.745   49.979
| 59> H  -23.263   27.522   51.057
| 60> H  -24.654   26.488   51.463
| 61> H  -22.082   24.845   47.684
| 62> *
| 63>
| 64>                          ****END OF INPUT****
 Total Charge           Charge          ....    0
 Multiplicity           Mult            ....    1
 Number of Electrons    NEL             ....  102
FINAL SINGLE POINT ENERGY      -652.815509316330
FINAL SINGLE POINT ENERGY      -652.844158731392
FINAL SINGLE POINT ENERGY      -652.857063612922
FINAL SINGLE POINT ENERGY      -652.858961908910
FINAL SINGLE POINT ENERGY      -652.859269198491
FINAL SINGLE POINT ENERGY      -652.859340421779
FINAL SINGLE POINT ENERGY      -652.859352999378
FINAL SINGLE POINT ENERGY      -652.859356735875
                    ***********************HURRAY********************

CARTESIAN COORDINATES (ANGSTROEM)
---------------------------------
  C    -21.139621   26.362414   46.365693
  C    -20.367282   27.593226   45.868466
  C    -20.041101   28.326916   47.200119
  C    -19.806385   27.155758   48.189214
  O    -20.423209   25.956756   47.561360
  H    -21.091150   25.519929   45.673781
  H    -19.450467   27.259380   45.371031
  H    -20.954244   28.194506   45.170722
  H    -19.160037   28.970420   47.120046
  H    -20.883846   28.951399   47.512320
  H    -20.259254   27.316611   49.172231
  H    -18.744982   26.927216   48.320639
  C    -23.101451   27.227526   47.732101
  H    -22.342698   27.369463   48.507036
  H    -23.471732   28.210814   47.422980
  O    -22.549739   26.525183   46.575017
  C    -24.263317   26.406448   48.305971
  C    -23.890384   25.023008   48.880359
  C    -23.276742   25.405574   50.270376
  C    -24.132086   26.619570   50.690000
  O    -24.793534   27.132773   49.459794
  H    -25.066643   26.335960   47.569034
  H    -24.816058   24.460358   49.031636
  O    -23.054398   24.153569   48.102420
  H    -23.335891   24.574758   50.978585
  H    -22.219518   25.665816   50.139423
  H    -23.546550   27.430263   51.137467
  H    -24.931669   26.343776   51.384008
  H    -22.188012   24.581612   47.932170

 Multiplicity           Mult            ....    1
 Number of Electrons    NEL             ....  102
 Basis Dimension        Dim             ....  149

ORBITAL ENERGIES
----------------

  NO   OCC          E(Eh)            E(eV)
   0   2.0000     -19.164927      -521.5042
   1   2.0000     -19.148681      -521.0621
   2   2.0000     -19.138071      -520.7734
   3   2.0000     -19.119280      -520.2621
   4   2.0000     -10.290626      -280.0222
   5   2.0000     -10.245931      -278.8059
   6   2.0000     -10.233345      -278.4635
   7   2.0000     -10.230489      -278.3858
   8   2.0000     -10.226993      -278.2906
   9   2.0000     -10.226964      -278.2898
  10   2.0000     -10.203695      -277.6567
  11   2.0000     -10.197840      -277.4973
  12   2.0000     -10.182656      -277.0842
  13   2.0000      -1.068210       -29.0675
  14   2.0000      -1.023948       -27.8630
  15   2.0000      -1.005204       -27.3530
  16   2.0000      -0.997676       -27.1482
  17   2.0000      -0.799936       -21.7674
  18   2.0000      -0.777064       -21.1450
  19   2.0000      -0.767422       -20.8826
  20   2.0000      -0.736821       -20.0499
  21   2.0000      -0.680985       -18.5305
  22   2.0000      -0.615975       -16.7615
  23   2.0000      -0.605698       -16.4819
  24   2.0000      -0.596281       -16.2256
  25   2.0000      -0.572947       -15.5907
  26   2.0000      -0.526800       -14.3350
  27   2.0000      -0.518629       -14.1126
  28   2.0000      -0.509888       -13.8748
  29   2.0000      -0.487710       -13.2713
  30   2.0000      -0.478120       -13.0103
  31   2.0000      -0.462238       -12.5781
  32   2.0000      -0.442679       -12.0459
  33   2.0000      -0.432351       -11.7649
  34   2.0000      -0.424070       -11.5395
  35   2.0000      -0.419639       -11.4189
  36   2.0000      -0.407875       -11.0988
  37   2.0000      -0.399134       -10.8610
  38   2.0000      -0.387922       -10.5559
  39   2.0000      -0.372368       -10.1326
  40   2.0000      -0.363916        -9.9027
  41   2.0000      -0.362150        -9.8546
  42   2.0000      -0.347727        -9.4621
  43   2.0000      -0.338917        -9.2224
  44   2.0000      -0.326904        -8.8955
  45   2.0000      -0.317468        -8.6387
  46   2.0000      -0.297574        -8.0974
  47   2.0000      -0.278333        -7.5738
  48   2.0000      -0.264525        -7.1981
  49   2.0000      -0.252767        -6.8781
  50   2.0000      -0.231953        -6.3117
  51   0.0000       0.052476         1.4279
  52   0.0000       0.070553         1.9198
  53   0.0000       0.087442         2.3794
  54   0.0000       0.093856         2.5539
  55   0.0000       0.098773         2.6878

MULLIKEN ATOMIC CHARGES
-----------------------
   0 C :    0.283778
   1 C :   -0.262957
   2 C :   -0.316046
   3 C :   -0.022019
   4 O :   -0.527036
   5 H :    0.177866
   6 H :    0.154095
   7 H :    0.161488
   8 H :    0.152995
   9 H :    0.157758
  10 H :    0.147205
  11 H :    0.157646
  12 C :   -0.027688
  13 H :    0.132898
  14 H :    0.154385
  15 O :   -0.522600
  16 C :    0.081499
  17 C :    0.104210
  18 C :   -0.329493
  19 C :   -0.017475
  20 O :   -0.522166
  21 H :    0.163735
  22 H :    0.158473
  23 O :   -0.611576
  24 H :    0.156707
  25 H :    0.144807
  26 H :    0.134998
  27 H :    0.151122
  28 H :    0.383393
Sum of atomic charges:   -0.0000000

LOEWDIN ATOMIC CHARGES
----------------------
   0 C :    0.171577
   1 C :   -0.224063
   2 C :   -0.222741
   3 C :   -0.035204
   4 O :   -0.332142
   5 H :    0.117399
   6 H :    0.120289
   7 H :    0.125870
   8 H :    0.120209
   9 H :    0.114709
  10 H :    0.100674
  11 H :    0.109939
  12 C :   -0.047415
  13 H :    0.097350
  14 H :    0.109186
  15 O :   -0.322542
  16 C :    0.020795
  17 C :    0.041384
  18 C :   -0.246691
  19 C :   -0.034216
  20 O :   -0.325177
  21 H :    0.118042
  22 H :    0.113828
  23 O :   -0.408362
  24 H :    0.123074
  25 H :    0.108426
  26 H :    0.097629
  27 H :    0.106649
  28 H :    0.281527

  Mayer bond orders larger than 0.100000
B(  0-C ,  1-C ) :   0.9209 B(  0-C ,  4-O ) :   0.8637 B(  0-C ,  5-H ) :   0.9301
B(  0-C , 15-O ) :   0.8979 B(  1-C ,  2-C ) :   0.9523 B(  1-C ,  6-H ) :   0.9338
B(  1-C ,  7-H ) :   0.9371 B(  2-C ,  3-C ) :   0.9495 B(  2-C ,  8-H ) :   0.9441
B(  2-C ,  9-H ) :   0.9415 B(  3-C ,  4-O ) :   0.8258 B(  3-C , 10-H ) :   0.9270
B(  3-C , 11-H ) :   0.9384 B( 12-C , 13-H ) :   0.9121 B( 12-C , 14-H ) :   0.9277
B( 12-C , 15-O ) :   0.8117 B( 12-C , 16-C ) :   0.9037 B( 16-C , 17-C ) :   0.8840
B( 16-C , 20-O ) :   0.8436 B( 16-C , 21-H ) :   0.9308 B( 17-C , 18-C ) :   0.9113
B( 17-C , 22-H ) :   0.9344 B( 17-C , 23-O ) :   0.9483 B( 18-C , 19-C ) :   0.9386
B( 18-C , 24-H ) :   0.9427 B( 18-C , 25-H ) :   0.9387 B( 19-C , 20-O ) :   0.8365
B( 19-C , 26-H ) :   0.9342 B( 19-C , 27-H ) :   0.9383 B( 23-O , 28-H ) :   0.7500

FINAL SINGLE POINT ENERGY      -652.859357426335

DIPOLE MOMENT
-------------
                                X             Y             Z
Electronic contribution:     -3.78722      -3.58456      -2.43184
Nuclear contribution   :      5.11587       4.79358       2.74678
                        -----------------------------------------
Total Dipole Moment    :      1.32866       1.20901       0.31494
                        -----------------------------------------
Magnitude (a.u.)       :      1.82380
Magnitude (Debye)      :      4.63572

Rotational constants in cm-1:     0.046261     0.017097     0.016482
Rotational constants in MHz :  1386.857071   512.543247   494.132870

                             ****ORCA TERMINATED NORMALLY****
TOTAL RUN TIME: 0 days 0 hours 40 minutes 18 seconds 153 msec
