                         Program Version 4.2.0 -  RELEASE  -
|  1> # Test redundant internal optimization
|  2> #
|  3> ! RKS B3LYP  Opt TightSCF SmallPrint
|  4>
|  5> %basis
|  6>         Basis "6-31G"
|  7> end
|  8>
|  9> %geom
| 10> Constraints
| 11> { D 4  0  15  12  345.0   C } # D for Dihedral angle
| 12> { D 0  15  12  16  165.0   C } # D for Dihedral angle
| 13> { D 0  4  3  2   C } # D for Dihedral angle
| 14> { D 4  3  2  1   C } # D for Dihedral angle
| 15> { D 3  2  1  0   C } # D for Dihedral angle
| 16> { D 2  1  0  4   C } # D for Dihedral angle
| 17> { D 1  0  4  3   C } # D for Dihedral angle
| 18> { D 16  20  19  18   C } # D for Dihedral angle
| 19> { D 20  19  18  17   C } # D for Dihedral angle
| 20> { D 19  18  17  16   C } # D for Dihedral angle
| 21> { D 18  17  16  20   C } # D for Dihedral angle
| 22> { D 17  16  20  19   C } # D for Dihedral angle
| 23> { D 15  12  16  20   C } # D for Dihedral angle
| 24> end
| 25> end
| 26>
| 27>
| 28> #%pal
| 29> #nprocs 8
| 30> #end
| 31>
| 32> * xyz 0 1
| 33> C  -21.048   26.222   46.251
| 34> C  -20.361   27.558   45.944
| 35> C  -20.329   28.222   47.341
| 36> C  -20.110   27.022   48.296
| 37> O  -20.473   25.807   47.535
| 38> H  -20.833   25.428   45.533
| 39> H  -19.344   27.382   45.576
| 40> H  -20.898   28.157   45.201
| 41> H  -19.543   28.978   47.434
| 42> H  -21.289   28.710   47.548
| 43> H  -20.733   27.082   49.195
| 44> H  -19.064   26.913   48.597
| 45> C  -23.221   25.764   47.645
| 46> H  -23.254   24.674   47.530
| 47> H  -22.617   25.997   48.532
| 48> O  -22.586   26.394   46.375
| 49> C  -24.665   26.272   47.910
| 50> C  -25.621   25.840   46.792
| 51> C  -25.904   24.367   47.174
| 52> C  -25.903   24.399   48.723
| 53> O  -25.215   25.647   49.117
| 54> H  -24.638   27.348   48.091
| 55> O  -26.924   26.682   46.851
| 56> H  -25.189   25.944   45.791
| 57> H  -26.849   23.997   46.765
| 58> H  -25.100   23.721   46.800
| 59> H  -25.375   23.545   49.160
| 60> H  -26.913   24.442   49.140
| 61> H  -27.377   26.592   47.846
| 62> *
| 63>
| 64>                          ****END OF INPUT****
 Total Charge           Charge          ....    0
 Multiplicity           Mult            ....    1
 Number of Electrons    NEL             ....  102
FINAL SINGLE POINT ENERGY      -652.837295951162
FINAL SINGLE POINT ENERGY      -652.860324084713
FINAL SINGLE POINT ENERGY      -652.864204813887
FINAL SINGLE POINT ENERGY      -652.864804429840
FINAL SINGLE POINT ENERGY      -652.864886757712
FINAL SINGLE POINT ENERGY      -652.864900808804
                    ***********************HURRAY********************

CARTESIAN COORDINATES (ANGSTROEM)
---------------------------------
  C    -21.135033   26.183359   46.344657
  C    -20.614585   27.572745   45.978118
  C    -20.462385   28.229249   47.368601
  C    -20.019679   27.055767   48.269099
  O    -20.380114   25.816676   47.519255
  H    -20.941385   25.400739   45.605615
  H    -19.644880   27.474062   45.476740
  H    -21.303288   28.109181   45.321844
  H    -19.736635   29.048212   47.369716
  H    -21.427235   28.628545   47.696038
  H    -20.522301   27.038285   49.239883
  H    -18.937525   27.018395   48.422994
  C    -23.135998   25.648929   47.762487
  H    -23.138814   24.552739   47.682190
  H    -22.558512   25.911972   48.652555
  O    -22.574663   26.251442   46.560806
  C    -24.553625   26.199238   47.895025
  C    -25.507502   25.830337   46.749873
  C    -25.915936   24.386121   47.137000
  C    -25.959904   24.432220   48.684276
  O    -25.185997   25.632340   49.091866
  H    -24.513274   27.283524   48.031016
  O    -26.655206   26.725440   46.726611
  H    -25.045051   25.911894   45.768088
  H    -26.878430   24.124257   46.690953
  H    -25.166472   23.671007   46.780393
  H    -25.514662   23.548124   49.150364
  H    -26.975567   24.557381   49.072498
  H    -26.971339   26.863819   47.644443

 Multiplicity           Mult            ....    1
 Number of Electrons    NEL             ....  102
 Basis Dimension        Dim             ....  149

ORBITAL ENERGIES
----------------

  NO   OCC          E(Eh)            E(eV)
   0   2.0000     -19.151582      -521.1411
   1   2.0000     -19.142554      -520.8954
   2   2.0000     -19.142360      -520.8901
   3   2.0000     -19.131812      -520.6031
   4   2.0000     -10.281578      -279.7760
   5   2.0000     -10.233221      -278.4601
   6   2.0000     -10.232068      -278.4287
   7   2.0000     -10.229857      -278.3686
   8   2.0000     -10.229040      -278.3463
   9   2.0000     -10.227169      -278.2954
  10   2.0000     -10.191203      -277.3167
  11   2.0000     -10.187676      -277.2208
  12   2.0000     -10.184445      -277.1328
  13   2.0000      -1.057244       -28.7691
  14   2.0000      -1.033173       -28.1141
  15   2.0000      -1.001167       -27.2431
  16   2.0000      -0.994812       -27.0702
  17   2.0000      -0.793521       -21.5928
  18   2.0000      -0.777213       -21.1490
  19   2.0000      -0.767109       -20.8741
  20   2.0000      -0.732245       -19.9254
  21   2.0000      -0.671585       -18.2748
  22   2.0000      -0.604820       -16.4580
  23   2.0000      -0.601045       -16.3553
  24   2.0000      -0.591009       -16.0822
  25   2.0000      -0.576567       -15.6892
  26   2.0000      -0.523380       -14.2419
  27   2.0000      -0.513068       -13.9613
  28   2.0000      -0.499318       -13.5871
  29   2.0000      -0.491931       -13.3861
  30   2.0000      -0.473330       -12.8800
  31   2.0000      -0.455348       -12.3907
  32   2.0000      -0.447020       -12.1640
  33   2.0000      -0.437115       -11.8945
  34   2.0000      -0.421035       -11.4569
  35   2.0000      -0.415108       -11.2957
  36   2.0000      -0.400537       -10.8992
  37   2.0000      -0.389358       -10.5950
  38   2.0000      -0.376157       -10.2358
  39   2.0000      -0.364594        -9.9211
  40   2.0000      -0.362149        -9.8546
  41   2.0000      -0.353481        -9.6187
  42   2.0000      -0.352612        -9.5951
  43   2.0000      -0.343653        -9.3513
  44   2.0000      -0.323268        -8.7966
  45   2.0000      -0.309755        -8.4289
  46   2.0000      -0.299922        -8.1613
  47   2.0000      -0.269825        -7.3423
  48   2.0000      -0.263787        -7.1780
  49   2.0000      -0.253889        -6.9087
  50   2.0000      -0.244972        -6.6660
  51   0.0000       0.068343         1.8597
  52   0.0000       0.070859         1.9282
  53   0.0000       0.094544         2.5727
  54   0.0000       0.100178         2.7260
  55   0.0000       0.102715         2.7950

MULLIKEN ATOMIC CHARGES
-----------------------
   0 C :    0.306552
   1 C :   -0.259855
   2 C :   -0.303507
   3 C :   -0.020791
   4 O :   -0.512155
   5 H :    0.152375
   6 H :    0.145567
   7 H :    0.163013
   8 H :    0.147574
   9 H :    0.157701
  10 H :    0.149232
  11 H :    0.152450
  12 C :    0.003140
  13 H :    0.132218
  14 H :    0.156746
  15 O :   -0.549651
  16 C :    0.055884
  17 C :    0.091798
  18 C :   -0.300376
  19 C :   -0.028943
  20 O :   -0.529100
  21 H :    0.159963
  22 O :   -0.605071
  23 H :    0.174763
  24 H :    0.160025
  25 H :    0.148250
  26 H :    0.145942
  27 H :    0.144704
  28 H :    0.361550
Sum of atomic charges:    0.0000000

LOEWDIN ATOMIC CHARGES
----------------------
   0 C :    0.182630
   1 C :   -0.217917
   2 C :   -0.218072
   3 C :   -0.032555
   4 O :   -0.319924
   5 H :    0.101268
   6 H :    0.114263
   7 H :    0.126957
   8 H :    0.117505
   9 H :    0.116266
  10 H :    0.104235
  11 H :    0.107672
  12 C :   -0.035554
  13 H :    0.094362
  14 H :    0.109540
  15 O :   -0.346981
  16 C :    0.016608
  17 C :    0.038448
  18 C :   -0.241696
  19 C :   -0.037743
  20 O :   -0.332177
  21 H :    0.115094
  22 O :   -0.416406
  23 H :    0.127137
  24 H :    0.125974
  25 H :    0.114869
  26 H :    0.103984
  27 H :    0.101637
  28 H :    0.280577

  Mayer bond orders larger than 0.100000
B(  0-C ,  1-C ) :   0.9395 B(  0-C ,  4-O ) :   0.9119 B(  0-C ,  5-H ) :   0.9265
B(  0-C , 15-O ) :   0.8315 B(  1-C ,  2-C ) :   0.9535 B(  1-C ,  6-H ) :   0.9361
B(  1-C ,  7-H ) :   0.9354 B(  2-C ,  3-C ) :   0.9538 B(  2-C ,  8-H ) :   0.9444
B(  2-C ,  9-H ) :   0.9449 B(  3-C ,  4-O ) :   0.8289 B(  3-C , 10-H ) :   0.9313
B(  3-C , 11-H ) :   0.9401 B( 12-C , 13-H ) :   0.9233 B( 12-C , 14-H ) :   0.9128
B( 12-C , 15-O ) :   0.8136 B( 12-C , 16-C ) :   0.9013 B( 16-C , 17-C ) :   0.9125
B( 16-C , 20-O ) :   0.8441 B( 16-C , 21-H ) :   0.9253 B( 17-C , 18-C ) :   0.9137
B( 17-C , 22-O ) :   0.8869 B( 17-C , 23-H ) :   0.9246 B( 18-C , 19-C ) :   0.9398
B( 18-C , 24-H ) :   0.9382 B( 18-C , 25-H ) :   0.9345 B( 19-C , 20-O ) :   0.8439
B( 19-C , 26-H ) :   0.9358 B( 19-C , 27-H ) :   0.9385 B( 22-O , 28-H ) :   0.7963

FINAL SINGLE POINT ENERGY      -652.864902695648

DIPOLE MOMENT
-------------
                                X             Y             Z
Electronic contribution:     -2.12543      -0.68409      -0.05499
Nuclear contribution   :      2.73954       0.67604       0.19318
                        -----------------------------------------
Total Dipole Moment    :      0.61411      -0.00805       0.13819
                        -----------------------------------------
Magnitude (a.u.)       :      0.62951
Magnitude (Debye)      :      1.60010

Rotational constants in cm-1:     0.057241     0.012761     0.012075
Rotational constants in MHz :  1716.048969   382.563262   361.995064

                             ****ORCA TERMINATED NORMALLY****
TOTAL RUN TIME: 0 days 1 hours 5 minutes 24 seconds 566 msec
