                         Program Version 4.2.0 -  RELEASE  -
|  1> # Test redundant internal optimization
|  2> #
|  3> ! RKS B3LYP  Opt TightSCF SmallPrint
|  4>
|  5> %basis
|  6>         Basis "6-31G"
|  7> end
|  8>
|  9> %geom
| 10> Constraints
| 11> { D 4  0  15  12  240.0   C } # D for Dihedral angle
| 12> { D 0  15  12  16  30.0   C } # D for Dihedral angle
| 13> { D 0  4  3  2   C } # D for Dihedral angle
| 14> { D 4  3  2  1   C } # D for Dihedral angle
| 15> { D 3  2  1  0   C } # D for Dihedral angle
| 16> { D 2  1  0  4   C } # D for Dihedral angle
| 17> { D 1  0  4  3   C } # D for Dihedral angle
| 18> { D 16  20  19  18   C } # D for Dihedral angle
| 19> { D 20  19  18  17   C } # D for Dihedral angle
| 20> { D 19  18  17  16   C } # D for Dihedral angle
| 21> { D 18  17  16  20   C } # D for Dihedral angle
| 22> { D 17  16  20  19   C } # D for Dihedral angle
| 23> { D 15  12  16  20   C } # D for Dihedral angle
| 24> end
| 25> end
| 26>
| 27>
| 28> #%pal
| 29> #nprocs 8
| 30> #end
| 31>
| 32> * xyz 0 1
| 33> C  -21.048   26.222   46.251
| 34> C  -20.361   27.558   45.944
| 35> C  -20.329   28.222   47.341
| 36> C  -20.110   27.022   48.296
| 37> O  -20.473   25.807   47.535
| 38> H  -20.833   25.428   45.533
| 39> H  -19.344   27.382   45.576
| 40> H  -20.898   28.157   45.201
| 41> H  -19.543   28.978   47.434
| 42> H  -21.289   28.710   47.548
| 43> H  -20.733   27.082   49.195
| 44> H  -19.064   26.913   48.597
| 45> C  -23.430   25.483   45.442
| 46> H  -24.394   25.269   45.920
| 47> H  -23.625   25.987   44.487
| 48> O  -22.586   26.394   46.375
| 49> C  -22.730   24.131   45.130
| 50> C  -23.535   23.309   44.117
| 51> C  -23.153   23.992   42.783
| 52> C  -21.672   24.392   43.004
| 53> O  -21.443   24.362   44.465
| 54> H  -22.518   23.613   46.067
| 55> H  -23.200   22.265   44.128
| 56> O  -25.064   23.333   44.390
| 57> H  -23.282   23.334   41.917
| 58> H  -23.773   24.881   42.624
| 59> H  -21.448   25.396   42.627
| 60> H  -20.975   23.679   42.554
| 61> H  -25.424   24.368   44.383
| 62> *
| 63>
| 64>                          ****END OF INPUT****
 Total Charge           Charge          ....    0
 Multiplicity           Mult            ....    1
 Number of Electrons    NEL             ....  102
FINAL SINGLE POINT ENERGY      -652.815994349705
FINAL SINGLE POINT ENERGY      -652.837757096396
FINAL SINGLE POINT ENERGY      -652.851370012164
FINAL SINGLE POINT ENERGY      -652.853601174294
FINAL SINGLE POINT ENERGY      -652.854036868100
FINAL SINGLE POINT ENERGY      -652.854086648163
FINAL SINGLE POINT ENERGY      -652.854094677484
FINAL SINGLE POINT ENERGY      -652.854094488873
                    ***********************HURRAY********************

CARTESIAN COORDINATES (ANGSTROEM)
---------------------------------
  C    -20.830055   26.250963   46.245448
  C    -20.297803   27.670701   46.047452
  C    -20.477276   28.280346   47.459797
  C    -20.192501   27.078920   48.389099
  O    -20.331601   25.869249   47.544602
  H    -20.496758   25.503184   45.531443
  H    -19.236841   27.626936   45.773118
  H    -20.842110   28.213681   45.271115
  H    -19.803777   29.122122   47.646466
  H    -21.508666   28.623981   47.580978
  H    -20.893882   27.009193   49.225126
  H    -19.168703   27.077099   48.776825
  C    -23.158435   25.514999   45.458904
  H    -24.069675   25.377553   46.049639
  H    -23.417757   26.103723   44.562635
  O    -22.287251   26.324815   46.290904
  C    -22.664844   24.128547   45.032526
  C    -23.660166   23.375367   44.128785
  C    -23.307827   23.944397   42.719076
  C    -21.777986   24.146080   42.806311
  O    -21.426948   24.150596   44.252220
  H    -22.426019   23.554025   45.933516
  H    -23.444147   22.305758   44.172252
  O    -25.051680   23.482284   44.504689
  H    -23.600476   23.263512   41.915628
  H    -23.829818   24.897482   42.565313
  H    -21.444415   25.086780   42.356732
  H    -21.223699   23.321481   42.349092
  H    -25.405887   24.365228   44.274311

 Multiplicity           Mult            ....    1
 Number of Electrons    NEL             ....  102
 Basis Dimension        Dim             ....  149

ORBITAL ENERGIES
----------------

  NO   OCC          E(Eh)            E(eV)
   0   2.0000     -19.155764      -521.2549
   1   2.0000     -19.151189      -521.1303
   2   2.0000     -19.129087      -520.5289
   3   2.0000     -19.123713      -520.3827
   4   2.0000     -10.258582      -279.1502
   5   2.0000     -10.252796      -278.9928
   6   2.0000     -10.240340      -278.6538
   7   2.0000     -10.237488      -278.5762
   8   2.0000     -10.232345      -278.4363
   9   2.0000     -10.212154      -277.8868
  10   2.0000     -10.203016      -277.6382
  11   2.0000     -10.173869      -276.8451
  12   2.0000     -10.172718      -276.8137
  13   2.0000      -1.044043       -28.4098
  14   2.0000      -1.034391       -28.1472
  15   2.0000      -1.024203       -27.8700
  16   2.0000      -0.979420       -26.6514
  17   2.0000      -0.790789       -21.5185
  18   2.0000      -0.776953       -21.1420
  19   2.0000      -0.765768       -20.8376
  20   2.0000      -0.725727       -19.7480
  21   2.0000      -0.679445       -18.4886
  22   2.0000      -0.620298       -16.8792
  23   2.0000      -0.599028       -16.3004
  24   2.0000      -0.585446       -15.9308
  25   2.0000      -0.562270       -15.3001
  26   2.0000      -0.536197       -14.5907
  27   2.0000      -0.511087       -13.9074
  28   2.0000      -0.494805       -13.4643
  29   2.0000      -0.475475       -12.9383
  30   2.0000      -0.470656       -12.8072
  31   2.0000      -0.453727       -12.3465
  32   2.0000      -0.439113       -11.9489
  33   2.0000      -0.436428       -11.8758
  34   2.0000      -0.431149       -11.7322
  35   2.0000      -0.420851       -11.4519
  36   2.0000      -0.406054       -11.0493
  37   2.0000      -0.391532       -10.6541
  38   2.0000      -0.387397       -10.5416
  39   2.0000      -0.367187        -9.9917
  40   2.0000      -0.358159        -9.7460
  41   2.0000      -0.344791        -9.3823
  42   2.0000      -0.339014        -9.2250
  43   2.0000      -0.331904        -9.0316
  44   2.0000      -0.326420        -8.8823
  45   2.0000      -0.305452        -8.3118
  46   2.0000      -0.295705        -8.0465
  47   2.0000      -0.279000        -7.5920
  48   2.0000      -0.253017        -6.8849
  49   2.0000      -0.252466        -6.8700
  50   2.0000      -0.229077        -6.2335
  51   0.0000       0.045713         1.2439
  52   0.0000       0.069762         1.8983
  53   0.0000       0.087000         2.3674
  54   0.0000       0.096264         2.6195
  55   0.0000       0.105176         2.8620

MULLIKEN ATOMIC CHARGES
-----------------------
   0 C :    0.249380
   1 C :   -0.248316
   2 C :   -0.296615
   3 C :    0.000806
   4 O :   -0.504422
   5 H :    0.205226
   6 H :    0.138922
   7 H :    0.136325
   8 H :    0.133460
   9 H :    0.159030
  10 H :    0.145605
  11 H :    0.135613
  12 C :    0.010226
  13 H :    0.157536
  14 H :    0.109447
  15 O :   -0.540499
  16 C :    0.061079
  17 C :    0.083431
  18 C :   -0.321758
  19 C :   -0.012609
  20 O :   -0.519567
  21 H :    0.178345
  22 H :    0.175308
  23 O :   -0.596729
  24 H :    0.161322
  25 H :    0.136396
  26 H :    0.145763
  27 H :    0.157795
  28 H :    0.359497
Sum of atomic charges:   -0.0000000

LOEWDIN ATOMIC CHARGES
----------------------
   0 C :    0.163990
   1 C :   -0.219287
   2 C :   -0.217160
   3 C :   -0.028304
   4 O :   -0.318022
   5 H :    0.127028
   6 H :    0.109999
   7 H :    0.113446
   8 H :    0.109795
   9 H :    0.117583
  10 H :    0.104361
  11 H :    0.098864
  12 C :   -0.042775
  13 H :    0.117851
  14 H :    0.081162
  15 O :   -0.337468
  16 C :    0.004678
  17 C :    0.038905
  18 C :   -0.241127
  19 C :   -0.030100
  20 O :   -0.321571
  21 H :    0.124214
  22 H :    0.122479
  23 O :   -0.403091
  24 H :    0.124590
  25 H :    0.105688
  26 H :    0.103905
  27 H :    0.109912
  28 H :    0.280455

  Mayer bond orders larger than 0.100000
B(  0-C ,  1-C ) :   0.9414 B(  0-C ,  4-O ) :   0.9167 B(  0-C ,  5-H ) :   0.8833
B(  0-C , 15-O ) :   0.8170 B(  1-C ,  2-C ) :   0.9567 B(  1-C ,  6-H ) :   0.9393
B(  1-C ,  7-H ) :   0.9409 B(  2-C ,  3-C ) :   0.9552 B(  2-C ,  8-H ) :   0.9464
B(  2-C ,  9-H ) :   0.9440 B(  3-C ,  4-O ) :   0.8446 B(  3-C , 10-H ) :   0.9354
B(  3-C , 11-H ) :   0.9403 B( 12-C , 13-H ) :   0.9149 B( 12-C , 14-H ) :   0.9211
B( 12-C , 15-O ) :   0.8690 B( 12-C , 16-C ) :   0.9036 B( 16-C , 17-C ) :   0.8704
B( 16-C , 20-O ) :   0.8356 B( 16-C , 21-H ) :   0.9235 B( 17-C , 18-C ) :   0.9236
B( 17-C , 22-H ) :   0.9311 B( 17-C , 23-O ) :   0.9057 B( 18-C , 19-C ) :   0.9398
B( 18-C , 24-H ) :   0.9409 B( 18-C , 25-H ) :   0.9398 B( 19-C , 20-O ) :   0.8338
B( 19-C , 26-H ) :   0.9328 B( 19-C , 27-H ) :   0.9376 B( 23-O , 28-H ) :   0.7967

FINAL SINGLE POINT ENERGY      -652.854094191034

DIPOLE MOMENT
-------------
                                X             Y             Z
Electronic contribution:     -1.11477      -4.18186       1.65950
Nuclear contribution   :      0.83724       4.85503      -3.02743
                        -----------------------------------------
Total Dipole Moment    :     -0.27753       0.67316      -1.36793
                        -----------------------------------------
Magnitude (a.u.)       :      1.54964
Magnitude (Debye)      :      3.93888

Rotational constants in cm-1:     0.059817     0.012938     0.012057
Rotational constants in MHz :  1793.278275   387.883903   361.447621

                             ****ORCA TERMINATED NORMALLY****
TOTAL RUN TIME: 0 days 2 hours 35 minutes 46 seconds 493 msec
