                         Program Version 4.2.0 -  RELEASE  -
|  1> # Test redundant internal optimization
|  2> #
|  3> ! RKS B3LYP  Opt TightSCF SmallPrint
|  4>
|  5> %basis
|  6>         Basis "6-31G"
|  7> end
|  8>
|  9> %geom
| 10> Constraints
| 11> { D 4  0  15  12  240.0   C } # D for Dihedral angle
| 12> { D 0  15  12  16  135.0   C } # D for Dihedral angle
| 13> { D 0  4  3  2   C } # D for Dihedral angle
| 14> { D 4  3  2  1   C } # D for Dihedral angle
| 15> { D 3  2  1  0   C } # D for Dihedral angle
| 16> { D 2  1  0  4   C } # D for Dihedral angle
| 17> { D 1  0  4  3   C } # D for Dihedral angle
| 18> { D 16  20  19  18   C } # D for Dihedral angle
| 19> { D 20  19  18  17   C } # D for Dihedral angle
| 20> { D 19  18  17  16   C } # D for Dihedral angle
| 21> { D 18  17  16  20   C } # D for Dihedral angle
| 22> { D 17  16  20  19   C } # D for Dihedral angle
| 23> { D 15  12  16  20   C } # D for Dihedral angle
| 24> end
| 25> end
| 26>
| 27>
| 28> #%pal
| 29> #nprocs 8
| 30> #end
| 31>
| 32> * xyz 0 1
| 33> C  -21.048   26.222   46.251
| 34> C  -20.361   27.558   45.944
| 35> C  -20.329   28.222   47.341
| 36> C  -20.110   27.022   48.296
| 37> O  -20.473   25.807   47.535
| 38> H  -20.833   25.428   45.533
| 39> H  -19.344   27.382   45.576
| 40> H  -20.898   28.157   45.201
| 41> H  -19.543   28.978   47.434
| 42> H  -21.289   28.710   47.548
| 43> H  -20.733   27.082   49.195
| 44> H  -19.064   26.913   48.597
| 45> C  -23.430   25.483   45.442
| 46> H  -23.822   26.081   44.610
| 47> H  -22.808   24.680   45.024
| 48> O  -22.586   26.394   46.375
| 49> C  -24.629   24.819   46.175
| 50> C  -25.369   23.839   45.257
| 51> C  -24.447   22.598   45.315
| 52> C  -23.922   22.618   46.773
| 53> O  -24.153   23.985   47.284
| 54> H  -25.260   25.598   46.607
| 55> H  -26.356   23.607   45.672
| 56> O  -25.559   24.381   43.814
| 57> H  -24.971   21.668   45.073
| 58> H  -23.619   22.710   44.605
| 59> H  -22.853   22.387   46.836
| 60> H  -24.472   21.932   47.424
| 61> H  -24.583   24.620   43.377
| 62> *
| 63>
| 64>                          ****END OF INPUT****
 Total Charge           Charge          ....    0
 Multiplicity           Mult            ....    1
 Number of Electrons    NEL             ....  102
FINAL SINGLE POINT ENERGY      -652.825626881989
FINAL SINGLE POINT ENERGY      -652.848973103639
FINAL SINGLE POINT ENERGY      -652.853423296515
FINAL SINGLE POINT ENERGY      -652.854190264865
FINAL SINGLE POINT ENERGY      -652.854316511994
FINAL SINGLE POINT ENERGY      -652.854351516249
FINAL SINGLE POINT ENERGY      -652.854358465689
FINAL SINGLE POINT ENERGY      -652.854360622576
                    ***********************HURRAY********************

CARTESIAN COORDINATES (ANGSTROEM)
---------------------------------
  C    -21.003213   26.196163   46.179049
  C    -20.404002   27.585627   45.965093
  C    -20.482064   28.191030   47.387770
  C    -20.220126   26.968727   48.295424
  O    -20.466882   25.776018   47.447234
  H    -20.716647   25.437823   45.443190
  H    -19.360584   27.488513   45.641200
  H    -20.954190   28.163712   45.219172
  H    -19.755587   28.993588   47.545584
  H    -21.486019   28.589822   47.561011
  H    -20.886330   26.924903   49.160157
  H    -19.181012   26.904531   48.632814
  C    -23.245083   25.492531   45.352545
  H    -23.650984   26.118150   44.546117
  H    -22.616478   24.707623   44.903807
  O    -22.445493   26.311213   46.240800
  C    -24.403118   24.876741   46.139200
  C    -25.300319   23.947304   45.304159
  C    -24.507191   22.606771   45.353695
  C    -23.896858   22.625978   46.772292
  O    -23.952782   24.034364   47.240036
  H    -24.968318   25.691916   46.599786
  H    -26.266995   23.836697   45.799732
  O    -25.626454   24.417613   43.972665
  H    -25.149449   21.740332   45.174801
  H    -23.726650   22.612716   44.580214
  H    -22.857638   22.284328   46.796700
  H    -24.479883   22.030809   47.481256
  H    -24.853651   24.325457   43.378499

 Multiplicity           Mult            ....    1
 Number of Electrons    NEL             ....  102
 Basis Dimension        Dim             ....  149

ORBITAL ENERGIES
----------------

  NO   OCC          E(Eh)            E(eV)
   0   2.0000     -19.149682      -521.0893
   1   2.0000     -19.136760      -520.7377
   2   2.0000     -19.133123      -520.6387
   3   2.0000     -19.131648      -520.5986
   4   2.0000     -10.276284      -279.6319
   5   2.0000     -10.244302      -278.7616
   6   2.0000     -10.232501      -278.4405
   7   2.0000     -10.227545      -278.3056
   8   2.0000     -10.227222      -278.2968
   9   2.0000     -10.217765      -278.0395
  10   2.0000     -10.195196      -277.4254
  11   2.0000     -10.180716      -277.0314
  12   2.0000     -10.180011      -277.0122
  13   2.0000      -1.047520       -28.5045
  14   2.0000      -1.032209       -28.0878
  15   2.0000      -1.013384       -27.5756
  16   2.0000      -0.989596       -26.9283
  17   2.0000      -0.783917       -21.3315
  18   2.0000      -0.779756       -21.2182
  19   2.0000      -0.764777       -20.8106
  20   2.0000      -0.726548       -19.7704
  21   2.0000      -0.678737       -18.4694
  22   2.0000      -0.610046       -16.6002
  23   2.0000      -0.592998       -16.1363
  24   2.0000      -0.587658       -15.9910
  25   2.0000      -0.579284       -15.7631
  26   2.0000      -0.528322       -14.3764
  27   2.0000      -0.509563       -13.8659
  28   2.0000      -0.496272       -13.5042
  29   2.0000      -0.484360       -13.1801
  30   2.0000      -0.464606       -12.6426
  31   2.0000      -0.456229       -12.4146
  32   2.0000      -0.447375       -12.1737
  33   2.0000      -0.429820       -11.6960
  34   2.0000      -0.426739       -11.6122
  35   2.0000      -0.417026       -11.3479
  36   2.0000      -0.403361       -10.9760
  37   2.0000      -0.394118       -10.7245
  38   2.0000      -0.378840       -10.3088
  39   2.0000      -0.367394        -9.9973
  40   2.0000      -0.351798        -9.5729
  41   2.0000      -0.348261        -9.4767
  42   2.0000      -0.345650        -9.4056
  43   2.0000      -0.330114        -8.9829
  44   2.0000      -0.312806        -8.5119
  45   2.0000      -0.310114        -8.4386
  46   2.0000      -0.302778        -8.2390
  47   2.0000      -0.270041        -7.3482
  48   2.0000      -0.261060        -7.1038
  49   2.0000      -0.245287        -6.6746
  50   2.0000      -0.233445        -6.3523
  51   0.0000       0.049786         1.3547
  52   0.0000       0.073804         2.0083
  53   0.0000       0.089518         2.4359
  54   0.0000       0.097835         2.6622
  55   0.0000       0.109461         2.9786

MULLIKEN ATOMIC CHARGES
-----------------------
   0 C :    0.289487
   1 C :   -0.253486
   2 C :   -0.300375
   3 C :    0.000243
   4 O :   -0.497220
   5 H :    0.132774
   6 H :    0.139455
   7 H :    0.144027
   8 H :    0.138515
   9 H :    0.164288
  10 H :    0.156203
  11 H :    0.137172
  12 C :   -0.009939
  13 H :    0.136749
  14 H :    0.110373
  15 O :   -0.511136
  16 C :    0.104265
  17 C :    0.077127
  18 C :   -0.326104
  19 C :   -0.011137
  20 O :   -0.499285
  21 H :    0.164772
  22 H :    0.170732
  23 O :   -0.598772
  24 H :    0.157222
  25 H :    0.130962
  26 H :    0.148769
  27 H :    0.150873
  28 H :    0.353446
Sum of atomic charges:   -0.0000000

LOEWDIN ATOMIC CHARGES
----------------------
   0 C :    0.178609
   1 C :   -0.222089
   2 C :   -0.216572
   3 C :   -0.025975
   4 O :   -0.312497
   5 H :    0.093960
   6 H :    0.110634
   7 H :    0.116983
   8 H :    0.112431
   9 H :    0.120203
  10 H :    0.110237
  11 H :    0.099993
  12 C :   -0.045220
  13 H :    0.099566
  14 H :    0.085937
  15 O :   -0.322093
  16 C :    0.018703
  17 C :    0.033198
  18 C :   -0.242984
  19 C :   -0.030220
  20 O :   -0.309084
  21 H :    0.120258
  22 H :    0.120559
  23 O :   -0.407481
  24 H :    0.122567
  25 H :    0.102325
  26 H :    0.105409
  27 H :    0.106505
  28 H :    0.276138

  Mayer bond orders larger than 0.100000
B(  0-C ,  1-C ) :   0.9413 B(  0-C ,  4-O ) :   0.9348 B(  0-C ,  5-H ) :   0.9187
B(  0-C , 15-O ) :   0.8465 B(  1-C ,  2-C ) :   0.9587 B(  1-C ,  6-H ) :   0.9372
B(  1-C ,  7-H ) :   0.9390 B(  2-C ,  3-C ) :   0.9541 B(  2-C ,  8-H ) :   0.9455
B(  2-C ,  9-H ) :   0.9433 B(  3-C ,  4-O ) :   0.8389 B(  3-C , 10-H ) :   0.9339
B(  3-C , 11-H ) :   0.9400 B( 12-C , 13-H ) :   0.9107 B( 12-C , 14-H ) :   0.9168
B( 12-C , 15-O ) :   0.8562 B( 12-C , 16-C ) :   0.8983 B( 16-C , 17-C ) :   0.8719
B( 16-C , 20-O ) :   0.8776 B( 16-C , 21-H ) :   0.9298 B( 17-C , 18-C ) :   0.9246
B( 17-C , 22-H ) :   0.9320 B( 17-C , 23-O ) :   0.8926 B( 18-C , 19-C ) :   0.9386
B( 18-C , 24-H ) :   0.9422 B( 18-C , 25-H ) :   0.9409 B( 19-C , 20-O ) :   0.8509
B( 19-C , 26-H ) :   0.9307 B( 19-C , 27-H ) :   0.9374 B( 23-O , 28-H ) :   0.7999

FINAL SINGLE POINT ENERGY      -652.854361274247

DIPOLE MOMENT
-------------
                                X             Y             Z
Electronic contribution:     -2.71766      -1.12953       0.75823
Nuclear contribution   :      3.29922       0.97726      -1.67144
                        -----------------------------------------
Total Dipole Moment    :      0.58156      -0.15227      -0.91321
                        -----------------------------------------
Magnitude (a.u.)       :      1.09332
Magnitude (Debye)      :      2.77899

Rotational constants in cm-1:     0.057705     0.012825     0.011488
Rotational constants in MHz :  1729.941561   384.480548   344.403178

                             ****ORCA TERMINATED NORMALLY****
TOTAL RUN TIME: 0 days 0 hours 25 minutes 8 seconds 204 msec
