                         Program Version 4.2.1 -  RELEASE  -
|  1> # Test redundant internal optimization
|  2> #
|  3> ! RKS B3LYP  Opt TightSCF SmallPrint
|  4>
|  5> %basis
|  6>         Basis "6-31G"
|  7> end
|  8>
|  9> %geom
| 10> Constraints
| 11> { D 4  0  19  14  240.0   C } # D for Dihedral angle
| 12> { D 0  19  14  12  60.0   C } # D for Dihedral angle
| 13> { D 0  4  3  2   C } # D for Dihedral angle
| 14> { D 4  3  2  1   C } # D for Dihedral angle
| 15> { D 3  2  1  0   C } # D for Dihedral angle
| 16> { D 2  1  0  4   C } # D for Dihedral angle
| 17> { D 1  0  4  3   C } # D for Dihedral angle
| 18> { D 14  15  16  17   C } # D for Dihedral angle
| 19> { D 15  16  17  12   C } # D for Dihedral angle
| 20> { D 16  17  12  14   C } # D for Dihedral angle
| 21> { D 17  12  14  15   C } # D for Dihedral angle
| 22> { D 12  14  15  16   C } # D for Dihedral angle
| 23> end
| 24> end
| 25>
| 26>
| 27> #%pal
| 28> #nprocs 8
| 29> #end
| 30>
| 31> * xyz 0 1
| 32> C  -21.048   26.222   46.251
| 33> C  -20.361   27.558   45.944
| 34> C  -20.329   28.222   47.341
| 35> C  -20.110   27.022   48.296
| 36> O  -20.473   25.807   47.535
| 37> H  -20.833   25.428   45.533
| 38> H  -19.344   27.382   45.576
| 39> H  -20.898   28.157   45.201
| 40> H  -19.543   28.978   47.434
| 41> H  -21.289   28.710   47.548
| 42> H  -20.733   27.082   49.195
| 43> H  -19.064   26.913   48.597
| 44> C  -22.931   24.059   45.801
| 45> H  -23.264   23.403   44.981
| 46> C  -23.235   25.530   45.496
| 47> C  -24.742   25.616   45.832
| 48> C  -24.891   24.648   47.032
| 49> O  -23.694   23.778   47.022
| 50> H  -21.884   23.849   46.024
| 51> O  -22.472   26.381   46.366
| 52> H  -23.014   25.809   44.460
| 53> H  -25.067   26.633   46.072
| 54> H  -25.339   25.268   44.979
| 55> H  -25.789   24.024   46.960
| 56> H  -24.900   25.172   47.993
| 57> *
| 58>
| 59>                          ****END OF INPUT****
 Total Charge           Charge          ....    0
 Multiplicity           Mult            ....    1
 Number of Electrons    NEL             ....   86
FINAL SINGLE POINT ENERGY      -538.427034620571
FINAL SINGLE POINT ENERGY      -538.430976018474
FINAL SINGLE POINT ENERGY      -538.431286293943
FINAL SINGLE POINT ENERGY      -538.431347335834
FINAL SINGLE POINT ENERGY      -538.431360364575
FINAL SINGLE POINT ENERGY      -538.431362359896
                    ***********************HURRAY********************

CARTESIAN COORDINATES (ANGSTROEM)
---------------------------------
  C    -20.949751   26.189935   46.242834
  C    -20.346611   27.565270   45.957937
  C    -20.421501   28.242000   47.348312
  C    -20.162166   27.066739   48.316783
  O    -20.412867   25.832500   47.531440
  H    -20.661301   25.401603   45.543386
  H    -19.304213   27.448761   45.637729
  H    -20.896254   28.106747   45.184479
  H    -19.692624   29.049519   47.464858
  H    -21.424025   28.652464   47.501358
  H    -20.826415   27.070127   49.184429
  H    -19.123026   27.016710   48.655939
  C    -23.015521   23.963790   45.720072
  H    -23.455003   23.382519   44.894832
  C    -23.205923   25.456747   45.458673
  C    -24.669926   25.663682   45.886732
  C    -24.836209   24.689391   47.077356
  O    -23.722816   23.720905   46.977966
  H    -21.981790   23.647733   45.870696
  O    -22.393010   26.322493   46.305946
  H    -23.037892   25.715308   44.403078
  H    -24.848553   26.706627   46.158233
  H    -25.335477   25.398198   45.057202
  H    -25.788164   24.147959   47.046904
  H    -24.735963   25.193273   48.041828

 Multiplicity           Mult            ....    1
 Number of Electrons    NEL             ....   86
 Basis Dimension        Dim             ....  127

ORBITAL ENERGIES
----------------

  NO   OCC          E(Eh)            E(eV)
   0   2.0000     -19.139208      -520.8043
   1   2.0000     -19.134259      -520.6697
   2   2.0000     -19.125555      -520.4328
   3   2.0000     -10.277053      -279.6528
   4   2.0000     -10.241480      -278.6848
   5   2.0000     -10.221957      -278.1536
   6   2.0000     -10.220606      -278.1168
   7   2.0000     -10.217123      -278.0220
   8   2.0000     -10.184966      -277.1470
   9   2.0000     -10.183074      -277.0955
  10   2.0000     -10.182621      -277.0832
  11   2.0000      -1.049812       -28.5668
  12   2.0000      -1.011660       -27.5287
  13   2.0000      -0.987700       -26.8767
  14   2.0000      -0.789506       -21.4836
  15   2.0000      -0.775467       -21.1015
  16   2.0000      -0.735363       -20.0103
  17   2.0000      -0.722486       -19.6598
  18   2.0000      -0.613365       -16.6905
  19   2.0000      -0.595341       -16.2000
  20   2.0000      -0.592867       -16.1327
  21   2.0000      -0.570683       -15.5291
  22   2.0000      -0.524452       -14.2711
  23   2.0000      -0.498652       -13.5690
  24   2.0000      -0.485466       -13.2102
  25   2.0000      -0.474626       -12.9152
  26   2.0000      -0.448344       -12.2001
  27   2.0000      -0.440667       -11.9912
  28   2.0000      -0.434710       -11.8291
  29   2.0000      -0.412832       -11.2337
  30   2.0000      -0.402322       -10.9477
  31   2.0000      -0.378324       -10.2947
  32   2.0000      -0.367470        -9.9994
  33   2.0000      -0.364124        -9.9083
  34   2.0000      -0.357635        -9.7317
  35   2.0000      -0.353454        -9.6180
  36   2.0000      -0.344909        -9.3855
  37   2.0000      -0.316496        -8.6123
  38   2.0000      -0.303991        -8.2720
  39   2.0000      -0.298503        -8.1227
  40   2.0000      -0.261596        -7.1184
  41   2.0000      -0.244651        -6.6573
  42   2.0000      -0.231996        -6.3129
  43   0.0000       0.080511         2.1908
  44   0.0000       0.096496         2.6258
  45   0.0000       0.104347         2.8394
  46   0.0000       0.114395         3.1129
  47   0.0000       0.121950         3.3184

MULLIKEN ATOMIC CHARGES
-----------------------
   0 C :    0.288303
   1 C :   -0.252683
   2 C :   -0.299693
   3 C :    0.000551
   4 O :   -0.500515
   5 H :    0.135836
   6 H :    0.141336
   7 H :    0.143788
   8 H :    0.139632
   9 H :    0.161185
  10 H :    0.152405
  11 H :    0.139741
  12 C :   -0.008877
  13 H :    0.123769
  14 C :    0.073494
  15 C :   -0.297985
  16 C :    0.010262
  17 O :   -0.515449
  18 H :    0.167858
  19 O :   -0.517225
  20 H :    0.123356
  21 H :    0.163566
  22 H :    0.141314
  23 H :    0.131748
  24 H :    0.154286
Sum of atomic charges:    0.0000000

LOEWDIN ATOMIC CHARGES
----------------------
   0 C :    0.174388
   1 C :   -0.219913
   2 C :   -0.216565
   3 C :   -0.025816
   4 O :   -0.313771
   5 H :    0.096346
   6 H :    0.111370
   7 H :    0.116997
   8 H :    0.113016
   9 H :    0.118652
  10 H :    0.108325
  11 H :    0.101327
  12 C :   -0.049618
  13 H :    0.092139
  14 C :    0.038649
  15 C :   -0.223759
  16 C :   -0.025388
  17 O :   -0.325737
  18 H :    0.119734
  19 O :   -0.328122
  20 H :    0.091536
  21 H :    0.128407
  22 H :    0.111957
  23 H :    0.096686
  24 H :    0.109162

  Mayer bond orders larger than 0.100000
B(  0-C ,  1-C ) :   0.9428 B(  0-C ,  4-O ) :   0.9283 B(  0-C ,  5-H ) :   0.9179
B(  0-C , 19-O ) :   0.8392 B(  1-C ,  2-C ) :   0.9578 B(  1-C ,  6-H ) :   0.9374
B(  1-C ,  7-H ) :   0.9389 B(  2-C ,  3-C ) :   0.9538 B(  2-C ,  8-H ) :   0.9454
B(  2-C ,  9-H ) :   0.9440 B(  3-C ,  4-O ) :   0.8396 B(  3-C , 10-H ) :   0.9345
B(  3-C , 11-H ) :   0.9399 B( 12-C , 13-H ) :   0.9074 B( 12-C , 14-C ) :   0.9111
B( 12-C , 17-O ) :   0.8771 B( 12-C , 18-H ) :   0.9252 B( 14-C , 15-C ) :   0.9593
B( 14-C , 19-O ) :   0.8421 B( 14-C , 20-H ) :   0.9213 B( 15-C , 16-C ) :   0.9449
B( 15-C , 21-H ) :   0.9363 B( 15-C , 22-H ) :   0.9414 B( 16-C , 17-O ) :   0.8568
B( 16-C , 23-H ) :   0.9334 B( 16-C , 24-H ) :   0.9367

FINAL SINGLE POINT ENERGY      -538.431362654563

DIPOLE MOMENT
-------------
                                X             Y             Z
Electronic contribution:      0.31144      -3.45438       1.05645
Nuclear contribution   :     -0.35177       4.47084      -2.04566
                        -----------------------------------------
Total Dipole Moment    :     -0.04034       1.01646      -0.98921
                        -----------------------------------------
Magnitude (a.u.)       :      1.41893
Magnitude (Debye)      :      3.60663

Rotational constants in cm-1:     0.077380     0.021294     0.020406
Rotational constants in MHz :  2319.791813   638.374061   611.767076

                             ****ORCA TERMINATED NORMALLY****
TOTAL RUN TIME: 0 days 0 hours 6 minutes 35 seconds 267 msec
