                         Program Version 4.2.0 -  RELEASE  -
|  1> # Test redundant internal optimization
|  2> #
|  3> ! RKS B3LYP  Opt TightSCF SmallPrint
|  4>
|  5> %basis
|  6>         Basis "6-31G"
|  7> end
|  8>
|  9> %geom
| 10> Constraints
| 11> { D 4  0  15  12  0.0   C } # D for Dihedral angle
| 12> { D 0  15  12  16  210.0   C } # D for Dihedral angle
| 13> { D 0  4  3  2   C } # D for Dihedral angle
| 14> { D 4  3  2  1   C } # D for Dihedral angle
| 15> { D 3  2  1  0   C } # D for Dihedral angle
| 16> { D 2  1  0  4   C } # D for Dihedral angle
| 17> { D 1  0  4  3   C } # D for Dihedral angle
| 18> { D 16  20  19  18   C } # D for Dihedral angle
| 19> { D 20  19  18  17   C } # D for Dihedral angle
| 20> { D 19  18  17  16   C } # D for Dihedral angle
| 21> { D 18  17  16  20   C } # D for Dihedral angle
| 22> { D 17  16  20  19   C } # D for Dihedral angle
| 23> { D 15  12  16  20   C } # D for Dihedral angle
| 24> end
| 25> end
| 26>
| 27>
| 28> #%pal
| 29> #nprocs 8
| 30> #end
| 31>
| 32> * xyz 0 1
| 33> C  -21.048   26.222   46.251
| 34> C  -20.361   27.558   45.944
| 35> C  -20.329   28.222   47.341
| 36> C  -20.110   27.022   48.296
| 37> O  -20.473   25.807   47.535
| 38> H  -20.833   25.428   45.533
| 39> H  -19.344   27.382   45.576
| 40> H  -20.898   28.157   45.201
| 41> H  -19.543   28.978   47.434
| 42> H  -21.289   28.710   47.548
| 43> H  -20.733   27.082   49.195
| 44> H  -19.064   26.913   48.597
| 45> C  -23.172   26.101   47.783
| 46> H  -22.547   25.353   48.287
| 47> H  -23.176   27.012   48.395
| 48> O  -22.586   26.394   46.375
| 49> C  -24.628   25.562   47.728
| 50> C  -25.214   25.394   49.134
| 51> C  -25.602   26.849   49.488
| 52> C  -26.058   27.433   48.128
| 53> O  -25.512   26.540   47.083
| 54> H  -24.652   24.657   47.117
| 55> O  -26.474   24.488   49.082
| 56> H  -24.504   24.958   49.846
| 57> H  -26.385   26.906   50.251
| 58> H  -24.726   27.391   49.867
| 59> H  -25.685   28.449   47.961
| 60> H  -27.146   27.432   48.017
| 61> H  -27.199   24.906   48.375
| 62> *
| 63>
| 64>                          ****END OF INPUT****
 Total Charge           Charge          ....    0
 Multiplicity           Mult            ....    1
 Number of Electrons    NEL             ....  102
FINAL SINGLE POINT ENERGY      -652.830857395105
FINAL SINGLE POINT ENERGY      -652.853372481825
FINAL SINGLE POINT ENERGY      -652.857365973170
FINAL SINGLE POINT ENERGY      -652.858019540306
FINAL SINGLE POINT ENERGY      -652.858113608035
FINAL SINGLE POINT ENERGY      -652.858126329013
                    ***********************HURRAY********************

CARTESIAN COORDINATES (ANGSTROEM)
---------------------------------
  C    -21.149288   26.199292   46.364043
  C    -20.513712   27.527631   45.952054
  C    -20.274430   28.202093   47.322860
  C    -19.920316   27.013709   48.243855
  O    -20.404725   25.795452   47.534805
  H    -21.043642   25.391653   45.636604
  H    -19.565673   27.333044   45.436705
  H    -21.168013   28.104142   45.295072
  H    -19.477677   28.951591   47.291285
  H    -21.191781   28.696958   47.658536
  H    -20.402386   27.064180   49.224269
  H    -18.842818   26.884383   48.379555
  C    -23.120058   26.146520   47.920160
  H    -22.529350   25.386901   48.444860
  H    -23.083599   27.078153   48.503707
  O    -22.580807   26.378408   46.591969
  C    -24.559309   25.662917   47.767260
  C    -25.276422   25.417437   49.102622
  C    -25.751047   26.847381   49.474970
  C    -26.090317   27.470496   48.097636
  O    -25.410448   26.637890   47.078682
  H    -24.558662   24.763902   47.143724
  O    -26.397974   24.508509   48.929420
  H    -24.648056   24.957471   49.867076
  H    -26.609891   26.804399   50.149675
  H    -24.945207   27.396773   49.974550
  H    -25.743210   28.504248   48.003836
  H    -27.162423   27.442083   47.877489
  H    -26.869759   24.738384   48.100720

 Multiplicity           Mult            ....    1
 Number of Electrons    NEL             ....  102
 Basis Dimension        Dim             ....  149

ORBITAL ENERGIES
----------------

  NO   OCC          E(Eh)            E(eV)
   0   2.0000     -19.152135      -521.1561
   1   2.0000     -19.136975      -520.7436
   2   2.0000     -19.136922      -520.7421
   3   2.0000     -19.134527      -520.6769
   4   2.0000     -10.278461      -279.6911
   5   2.0000     -10.241148      -278.6758
   6   2.0000     -10.234569      -278.4968
   7   2.0000     -10.230467      -278.3851
   8   2.0000     -10.228068      -278.3199
   9   2.0000     -10.227852      -278.3140
  10   2.0000     -10.192229      -277.3447
  11   2.0000     -10.188386      -277.2401
  12   2.0000     -10.184981      -277.1474
  13   2.0000      -1.055325       -28.7168
  14   2.0000      -1.033785       -28.1307
  15   2.0000      -1.004071       -27.3222
  16   2.0000      -0.990019       -26.9398
  17   2.0000      -0.792493       -21.5648
  18   2.0000      -0.781733       -21.2720
  19   2.0000      -0.767279       -20.8787
  20   2.0000      -0.734011       -19.9735
  21   2.0000      -0.671698       -18.2778
  22   2.0000      -0.605180       -16.4678
  23   2.0000      -0.602802       -16.4031
  24   2.0000      -0.594540       -16.1782
  25   2.0000      -0.574933       -15.6447
  26   2.0000      -0.525644       -14.3035
  27   2.0000      -0.506520       -13.7831
  28   2.0000      -0.499438       -13.5904
  29   2.0000      -0.492646       -13.4056
  30   2.0000      -0.475518       -12.9395
  31   2.0000      -0.460162       -12.5216
  32   2.0000      -0.453231       -12.3331
  33   2.0000      -0.435820       -11.8593
  34   2.0000      -0.419720       -11.4212
  35   2.0000      -0.415703       -11.3118
  36   2.0000      -0.399381       -10.8677
  37   2.0000      -0.391647       -10.6573
  38   2.0000      -0.374635       -10.1943
  39   2.0000      -0.369964       -10.0672
  40   2.0000      -0.361482        -9.8364
  41   2.0000      -0.355802        -9.6819
  42   2.0000      -0.351069        -9.5531
  43   2.0000      -0.338930        -9.2228
  44   2.0000      -0.325635        -8.8610
  45   2.0000      -0.308456        -8.3935
  46   2.0000      -0.300610        -8.1800
  47   2.0000      -0.269999        -7.3470
  48   2.0000      -0.264953        -7.2098
  49   2.0000      -0.252354        -6.8669
  50   2.0000      -0.235988        -6.4216
  51   0.0000       0.064986         1.7684
  52   0.0000       0.075743         2.0611
  53   0.0000       0.091252         2.4831
  54   0.0000       0.097490         2.6528
  55   0.0000       0.104322         2.8387

MULLIKEN ATOMIC CHARGES
-----------------------
   0 C :    0.295416
   1 C :   -0.253713
   2 C :   -0.310995
   3 C :   -0.016845
   4 O :   -0.512637
   5 H :    0.158436
   6 H :    0.142908
   7 H :    0.165609
   8 H :    0.147983
   9 H :    0.156876
  10 H :    0.141598
  11 H :    0.152956
  12 C :    0.002636
  13 H :    0.159757
  14 H :    0.115463
  15 O :   -0.527874
  16 C :    0.065988
  17 C :    0.074619
  18 C :   -0.295660
  19 C :   -0.028501
  20 O :   -0.509523
  21 H :    0.166268
  22 O :   -0.602943
  23 H :    0.150871
  24 H :    0.163450
  25 H :    0.140365
  26 H :    0.146285
  27 H :    0.145029
  28 H :    0.366176
Sum of atomic charges:   -0.0000000

LOEWDIN ATOMIC CHARGES
----------------------
   0 C :    0.182308
   1 C :   -0.220172
   2 C :   -0.219813
   3 C :   -0.032856
   4 O :   -0.319374
   5 H :    0.106548
   6 H :    0.112912
   7 H :    0.128232
   8 H :    0.117664
   9 H :    0.114843
  10 H :    0.101170
  11 H :    0.108110
  12 C :   -0.042868
  13 H :    0.113049
  14 H :    0.085813
  15 O :   -0.332674
  16 C :    0.016731
  17 C :    0.035110
  18 C :   -0.242557
  19 C :   -0.038406
  20 O :   -0.320994
  21 H :    0.120260
  22 O :   -0.414852
  23 H :    0.114849
  24 H :    0.126463
  25 H :    0.110760
  26 H :    0.103929
  27 H :    0.101782
  28 H :    0.284034

  Mayer bond orders larger than 0.100000
B(  0-C ,  1-C ) :   0.9299 B(  0-C ,  4-O ) :   0.9068 B(  0-C ,  5-H ) :   0.9290
B(  0-C , 15-O ) :   0.8499 B(  1-C ,  2-C ) :   0.9518 B(  1-C ,  6-H ) :   0.9352
B(  1-C ,  7-H ) :   0.9351 B(  2-C ,  3-C ) :   0.9535 B(  2-C ,  8-H ) :   0.9446
B(  2-C ,  9-H ) :   0.9448 B(  3-C ,  4-O ) :   0.8294 B(  3-C , 10-H ) :   0.9341
B(  3-C , 11-H ) :   0.9402 B( 12-C , 13-H ) :   0.9021 B( 12-C , 14-H ) :   0.9181
B( 12-C , 15-O ) :   0.8343 B( 12-C , 16-C ) :   0.9031 B( 16-C , 17-C ) :   0.8994
B( 16-C , 20-O ) :   0.8615 B( 16-C , 21-H ) :   0.9241 B( 17-C , 18-C ) :   0.9114
B( 17-C , 22-O ) :   0.8936 B( 17-C , 23-H ) :   0.9333 B( 18-C , 19-C ) :   0.9402
B( 18-C , 24-H ) :   0.9368 B( 18-C , 25-H ) :   0.9341 B( 19-C , 20-O ) :   0.8536
B( 19-C , 26-H ) :   0.9341 B( 19-C , 27-H ) :   0.9379 B( 22-O , 28-H ) :   0.7932

FINAL SINGLE POINT ENERGY      -652.858128526276

DIPOLE MOMENT
-------------
                                X             Y             Z
Electronic contribution:     -2.66788      -5.03905      -2.63504
Nuclear contribution   :      3.34108       6.19633       3.18076
                        -----------------------------------------
Total Dipole Moment    :      0.67321       1.15728       0.54572
                        -----------------------------------------
Magnitude (a.u.)       :      1.44579
Magnitude (Debye)      :      3.67491

Rotational constants in cm-1:     0.057869     0.012406     0.012090
Rotational constants in MHz :  1734.857511   371.933348   362.461123

                             ****ORCA TERMINATED NORMALLY****
TOTAL RUN TIME: 0 days 1 hours 6 minutes 19 seconds 744 msec
