                         Program Version 4.2.0 -  RELEASE  -
|  1> # Test redundant internal optimization
|  2> #
|  3> ! RKS B3LYP  Opt TightSCF SmallPrint
|  4>
|  5> %basis
|  6>         Basis "6-31G"
|  7> end
|  8>
|  9> %geom
| 10> Constraints
| 11> { D 4  0  15  12  210.0   C } # D for Dihedral angle
| 12> { D 0  15  12  16  270.0   C } # D for Dihedral angle
| 13> { D 0  4  3  2   C } # D for Dihedral angle
| 14> { D 4  3  2  1   C } # D for Dihedral angle
| 15> { D 3  2  1  0   C } # D for Dihedral angle
| 16> { D 2  1  0  4   C } # D for Dihedral angle
| 17> { D 1  0  4  3   C } # D for Dihedral angle
| 18> { D 16  20  19  18   C } # D for Dihedral angle
| 19> { D 20  19  18  17   C } # D for Dihedral angle
| 20> { D 19  18  17  16   C } # D for Dihedral angle
| 21> { D 18  17  16  20   C } # D for Dihedral angle
| 22> { D 17  16  20  19   C } # D for Dihedral angle
| 23> { D 15  12  16  20   C } # D for Dihedral angle
| 24> end
| 25> end
| 26>
| 27>
| 28> #%pal
| 29> #nprocs 8
| 30> #end
| 31>
| 32> * xyz 0 1
| 33> C  -21.048   26.222   46.251
| 34> C  -20.361   27.558   45.944
| 35> C  -20.329   28.222   47.341
| 36> C  -20.110   27.022   48.296
| 37> O  -20.473   25.807   47.535
| 38> H  -20.833   25.428   45.533
| 39> H  -19.344   27.382   45.576
| 40> H  -20.898   28.157   45.201
| 41> H  -19.543   28.978   47.434
| 42> H  -21.289   28.710   47.548
| 43> H  -20.733   27.082   49.195
| 44> H  -19.064   26.913   48.597
| 45> C  -23.389   26.110   45.076
| 46> H  -22.862   25.353   44.482
| 47> H  -24.387   25.722   45.318
| 48> O  -22.586   26.394   46.375
| 49> C  -23.576   27.378   44.197
| 50> C  -24.469   27.088   42.985
| 51> C  -25.880   27.130   43.618
| 52> C  -25.748   28.234   44.696
| 53> O  -24.301   28.414   44.939
| 54> H  -22.595   27.788   43.948
| 55> H  -24.357   27.880   42.236
| 56> O  -24.154   25.726   42.307
| 57> H  -26.666   27.351   42.888
| 58> H  -26.114   26.164   44.080
| 59> H  -26.239   27.961   45.638
| 60> H  -26.141   29.197   44.358
| 61> H  -24.260   24.917   43.038
| 62> *
| 63>
| 64>                          ****END OF INPUT****
 Total Charge           Charge          ....    0
 Multiplicity           Mult            ....    1
 Number of Electrons    NEL             ....  102
FINAL SINGLE POINT ENERGY      -652.825332263747
FINAL SINGLE POINT ENERGY      -652.848461442216
FINAL SINGLE POINT ENERGY      -652.853198392272
FINAL SINGLE POINT ENERGY      -652.854053652503
FINAL SINGLE POINT ENERGY      -652.854206624799
FINAL SINGLE POINT ENERGY      -652.854229655752
FINAL SINGLE POINT ENERGY      -652.854233063290
                    ***********************HURRAY********************

CARTESIAN COORDINATES (ANGSTROEM)
---------------------------------
  C    -21.036164   26.224632   46.185923
  C    -20.358273   27.567319   45.916923
  C    -20.405759   28.237552   47.312975
  C    -20.216725   27.042843   48.270868
  O    -20.529537   25.831241   47.469750
  H    -20.799170   25.426425   45.472825
  H    -19.321277   27.389611   45.605449
  H    -20.856246   28.159884   45.148062
  H    -19.634467   29.003035   47.438883
  H    -21.386719   28.699122   47.458919
  H    -20.887333   27.070586   49.133019
  H    -19.184211   26.931644   48.615562
  C    -23.284862   26.094394   45.130215
  H    -22.811166   25.311136   44.517350
  H    -24.231151   25.707117   45.522782
  O    -22.481144   26.361550   46.306898
  C    -23.536020   27.323097   44.250536
  C    -24.440331   27.031039   43.039745
  C    -25.862477   27.121034   43.672521
  C    -25.694295   28.240655   44.723262
  O    -24.236364   28.386314   44.963199
  H    -22.580021   27.750001   43.935912
  H    -24.306930   27.816656   42.292457
  O    -24.155111   25.801066   42.330243
  H    -26.631523   27.346022   42.929240
  H    -26.117111   26.162468   44.143342
  H    -26.189666   28.013966   45.672273
  H    -26.055895   29.206882   44.359032
  H    -24.519053   25.030710   42.811835

 Multiplicity           Mult            ....    1
 Number of Electrons    NEL             ....  102
 Basis Dimension        Dim             ....  149

ORBITAL ENERGIES
----------------

  NO   OCC          E(Eh)            E(eV)
   0   2.0000     -19.154360      -521.2166
   1   2.0000     -19.139944      -520.8244
   2   2.0000     -19.135825      -520.7123
   3   2.0000     -19.134500      -520.6762
   4   2.0000     -10.275474      -279.6099
   5   2.0000     -10.249218      -278.8954
   6   2.0000     -10.233257      -278.4611
   7   2.0000     -10.233208      -278.4597
   8   2.0000     -10.231816      -278.4219
   9   2.0000     -10.218659      -278.0638
  10   2.0000     -10.199410      -277.5401
  11   2.0000     -10.180096      -277.0145
  12   2.0000     -10.178527      -276.9718
  13   2.0000      -1.048748       -28.5379
  14   2.0000      -1.037079       -28.2204
  15   2.0000      -1.019055       -27.7299
  16   2.0000      -0.989325       -26.9209
  17   2.0000      -0.786451       -21.4004
  18   2.0000      -0.779546       -21.2125
  19   2.0000      -0.767777       -20.8923
  20   2.0000      -0.730235       -19.8707
  21   2.0000      -0.680983       -18.5305
  22   2.0000      -0.615618       -16.7518
  23   2.0000      -0.595867       -16.2144
  24   2.0000      -0.593028       -16.1371
  25   2.0000      -0.575176       -15.6513
  26   2.0000      -0.528368       -14.3776
  27   2.0000      -0.513763       -13.9802
  28   2.0000      -0.495656       -13.4875
  29   2.0000      -0.490567       -13.3490
  30   2.0000      -0.465737       -12.6733
  31   2.0000      -0.452712       -12.3189
  32   2.0000      -0.444984       -12.1086
  33   2.0000      -0.439824       -11.9682
  34   2.0000      -0.431054       -11.7296
  35   2.0000      -0.419212       -11.4073
  36   2.0000      -0.410051       -11.1581
  37   2.0000      -0.398750       -10.8505
  38   2.0000      -0.379525       -10.3274
  39   2.0000      -0.367139        -9.9903
  40   2.0000      -0.360096        -9.7987
  41   2.0000      -0.350037        -9.5250
  42   2.0000      -0.345997        -9.4151
  43   2.0000      -0.332083        -9.0364
  44   2.0000      -0.320526        -8.7220
  45   2.0000      -0.307166        -8.3584
  46   2.0000      -0.298933        -8.1344
  47   2.0000      -0.275417        -7.4945
  48   2.0000      -0.263575        -7.1722
  49   2.0000      -0.252415        -6.8686
  50   2.0000      -0.233710        -6.3596
  51   0.0000       0.048646         1.3237
  52   0.0000       0.076344         2.0774
  53   0.0000       0.081892         2.2284
  54   0.0000       0.089880         2.4457
  55   0.0000       0.105044         2.8584

MULLIKEN ATOMIC CHARGES
-----------------------
   0 C :    0.287529
   1 C :   -0.264092
   2 C :   -0.302084
   3 C :   -0.000379
   4 O :   -0.503028
   5 H :    0.135846
   6 H :    0.140447
   7 H :    0.152313
   8 H :    0.138915
   9 H :    0.174229
  10 H :    0.153285
  11 H :    0.138448
  12 C :   -0.022341
  13 H :    0.126209
  14 H :    0.143187
  15 O :   -0.497108
  16 C :    0.087047
  17 C :    0.081752
  18 C :   -0.323115
  19 C :   -0.009490
  20 O :   -0.507327
  21 H :    0.151256
  22 H :    0.168368
  23 O :   -0.600790
  24 H :    0.160377
  25 H :    0.133162
  26 H :    0.150543
  27 H :    0.148736
  28 H :    0.358103
Sum of atomic charges:    0.0000000

LOEWDIN ATOMIC CHARGES
----------------------
   0 C :    0.178685
   1 C :   -0.227842
   2 C :   -0.216957
   3 C :   -0.025283
   4 O :   -0.307070
   5 H :    0.094531
   6 H :    0.111510
   7 H :    0.116644
   8 H :    0.113130
   9 H :    0.125125
  10 H :    0.108886
  11 H :    0.100558
  12 C :   -0.049132
  13 H :    0.095646
  14 H :    0.106944
  15 O :   -0.319829
  16 C :    0.007437
  17 C :    0.033827
  18 C :   -0.240757
  19 C :   -0.028755
  20 O :   -0.316803
  21 H :    0.109524
  22 H :    0.119270
  23 O :   -0.408332
  24 H :    0.123704
  25 H :    0.104247
  26 H :    0.105996
  27 H :    0.105921
  28 H :    0.279176

  Mayer bond orders larger than 0.100000
B(  0-C ,  1-C ) :   0.9327 B(  0-C ,  4-O ) :   0.9363 B(  0-C ,  5-H ) :   0.9163
B(  0-C , 15-O ) :   0.8396 B(  1-C ,  2-C ) :   0.9543 B(  1-C ,  6-H ) :   0.9340
B(  1-C ,  7-H ) :   0.9285 B(  2-C ,  3-C ) :   0.9554 B(  2-C ,  8-H ) :   0.9451
B(  2-C ,  9-H ) :   0.9402 B(  3-C ,  4-O ) :   0.8347 B(  3-C , 10-H ) :   0.9349
B(  3-C , 11-H ) :   0.9399 B( 12-C , 13-H ) :   0.9024 B( 12-C , 14-H ) :   0.9380
B( 12-C , 15-O ) :   0.8755 B( 12-C , 16-C ) :   0.8820 B( 16-C , 17-C ) :   0.8674
B( 16-C , 20-O ) :   0.8725 B( 16-C , 21-H ) :   0.9256 B( 17-C , 18-C ) :   0.9259
B( 17-C , 22-H ) :   0.9320 B( 17-C , 23-O ) :   0.8990 B( 18-C , 19-C ) :   0.9382
B( 18-C , 24-H ) :   0.9411 B( 18-C , 25-H ) :   0.9407 B( 19-C , 20-O ) :   0.8464
B( 19-C , 26-H ) :   0.9309 B( 19-C , 27-H ) :   0.9379 B( 23-O , 28-H ) :   0.7973

FINAL SINGLE POINT ENERGY      -652.854232941043

DIPOLE MOMENT
-------------
                                X             Y             Z
Electronic contribution:      0.09638      -2.57025      -0.11484
Nuclear contribution   :     -0.70560       2.83467      -0.38737
                        -----------------------------------------
Total Dipole Moment    :     -0.60922       0.26442      -0.50221
                        -----------------------------------------
Magnitude (a.u.)       :      0.83264
Magnitude (Debye)      :      2.11640

Rotational constants in cm-1:     0.056616     0.012932     0.011922
Rotational constants in MHz :  1697.310486   387.702737   357.405981

                             ****ORCA TERMINATED NORMALLY****
TOTAL RUN TIME: 0 days 1 hours 26 minutes 28 seconds 281 msec
