                         Program Version 4.2.1 -  RELEASE  -
|  1> # Test redundant internal optimization
|  2> #
|  3> ! RKS B3LYP  Opt TightSCF SmallPrint
|  4>
|  5> %basis
|  6>         Basis "6-31G"
|  7> end
|  8>
|  9> %geom
| 10> Constraints
| 11> { D 4  0  19  14  210.0   C } # D for Dihedral angle
| 12> { D 0  19  14  12  300.0   C } # D for Dihedral angle
| 13> { D 0  4  3  2   C } # D for Dihedral angle
| 14> { D 4  3  2  1   C } # D for Dihedral angle
| 15> { D 3  2  1  0   C } # D for Dihedral angle
| 16> { D 2  1  0  4   C } # D for Dihedral angle
| 17> { D 1  0  4  3   C } # D for Dihedral angle
| 18> { D 14  15  16  17   C } # D for Dihedral angle
| 19> { D 15  16  17  12   C } # D for Dihedral angle
| 20> { D 16  17  12  14   C } # D for Dihedral angle
| 21> { D 17  12  14  15   C } # D for Dihedral angle
| 22> { D 12  14  15  16   C } # D for Dihedral angle
| 23> end
| 24> end
| 25>
| 26>
| 27> #%pal
| 28> #nprocs 8
| 29> #end
| 30>
| 31> * xyz 0 1
| 32> C  -21.048   26.222   46.251
| 33> C  -20.361   27.558   45.944
| 34> C  -20.329   28.222   47.341
| 35> C  -20.110   27.022   48.296
| 36> O  -20.473   25.807   47.535
| 37> H  -20.833   25.428   45.533
| 38> H  -19.344   27.382   45.576
| 39> H  -20.898   28.157   45.201
| 40> H  -19.543   28.978   47.434
| 41> H  -21.289   28.710   47.548
| 42> H  -20.733   27.082   49.195
| 43> H  -19.064   26.913   48.597
| 44> C  -22.737   27.067   44.046
| 45> H  -23.456   27.090   43.212
| 46> C  -23.197   26.114   45.155
| 47> C  -22.800   24.738   44.572
| 48> C  -21.488   25.045   43.807
| 49> O  -21.455   26.510   43.600
| 50> H  -22.543   28.088   44.378
| 51> O  -22.472   26.381   46.366
| 52> H  -24.269   26.191   45.370
| 53> H  -22.665   23.973   45.342
| 54> H  -23.575   24.383   43.881
| 55> H  -21.442   24.545   42.834
| 56> H  -20.597   24.781   44.384
| 57> *
| 58>
| 59>                          ****END OF INPUT****
 Total Charge           Charge          ....    0
 Multiplicity           Mult            ....    1
 Number of Electrons    NEL             ....   86
FINAL SINGLE POINT ENERGY      -538.398358002339
FINAL SINGLE POINT ENERGY      -538.425655255338
FINAL SINGLE POINT ENERGY      -538.428251545817
FINAL SINGLE POINT ENERGY      -538.428697984028
FINAL SINGLE POINT ENERGY      -538.428770434849
FINAL SINGLE POINT ENERGY      -538.428795417610
FINAL SINGLE POINT ENERGY      -538.428787868268
FINAL SINGLE POINT ENERGY      -538.428786696143
                    ***********************HURRAY********************

CARTESIAN COORDINATES (ANGSTROEM)
---------------------------------
  C    -20.787811   26.279622   46.303838
  C    -20.148166   27.652045   46.100108
  C    -20.348510   28.308871   47.487683
  C    -20.193093   27.116599   48.456086
  O    -20.379805   25.898358   47.628655
  H    -20.441072   25.501336   45.625739
  H    -19.081048   27.516628   45.885803
  H    -20.591199   28.215037   45.278366
  H    -19.625431   29.105678   47.685039
  H    -21.356583   28.729009   47.554727
  H    -20.936840   27.111955   49.257336
  H    -19.190981   27.050105   48.890949
  C    -22.776902   26.992035   43.927526
  H    -23.660351   27.033833   43.273785
  C    -23.049290   26.086547   45.132379
  C    -22.866870   24.686299   44.513563
  C    -21.731171   24.888242   43.480779
  O    -21.651302   26.352760   43.230700
  H    -22.476750   28.005681   44.194347
  O    -22.246127   26.359181   46.314664
  H    -24.067053   26.222697   45.508964
  H    -22.629387   23.940643   45.277042
  H    -23.797109   24.386609   44.018944
  H    -21.934816   24.386761   42.528437
  H    -20.753334   24.560470   43.842541

 Multiplicity           Mult            ....    1
 Number of Electrons    NEL             ....   86
 Basis Dimension        Dim             ....  127

ORBITAL ENERGIES
----------------

  NO   OCC          E(Eh)            E(eV)
   0   2.0000     -19.139773      -520.8197
   1   2.0000     -19.136173      -520.7217
   2   2.0000     -19.133720      -520.6550
   3   2.0000     -10.273860      -279.5659
   4   2.0000     -10.242856      -278.7223
   5   2.0000     -10.229243      -278.3518
   6   2.0000     -10.227453      -278.3031
   7   2.0000     -10.219541      -278.0879
   8   2.0000     -10.190192      -277.2892
   9   2.0000     -10.180373      -277.0220
  10   2.0000     -10.178287      -276.9653
  11   2.0000      -1.047894       -28.5146
  12   2.0000      -1.019042       -27.7295
  13   2.0000      -0.985946       -26.8290
  14   2.0000      -0.787874       -21.4391
  15   2.0000      -0.776291       -21.1240
  16   2.0000      -0.746196       -20.3050
  17   2.0000      -0.721495       -19.6329
  18   2.0000      -0.617051       -16.7908
  19   2.0000      -0.606602       -16.5065
  20   2.0000      -0.592843       -16.1321
  21   2.0000      -0.566459       -15.4141
  22   2.0000      -0.521384       -14.1876
  23   2.0000      -0.504930       -13.7398
  24   2.0000      -0.483525       -13.1574
  25   2.0000      -0.478041       -13.0081
  26   2.0000      -0.452095       -12.3021
  27   2.0000      -0.440940       -11.9986
  28   2.0000      -0.431964       -11.7543
  29   2.0000      -0.414053       -11.2670
  30   2.0000      -0.401289       -10.9196
  31   2.0000      -0.396535       -10.7903
  32   2.0000      -0.377317       -10.2673
  33   2.0000      -0.366236        -9.9658
  34   2.0000      -0.358757        -9.7623
  35   2.0000      -0.350275        -9.5315
  36   2.0000      -0.345355        -9.3976
  37   2.0000      -0.319122        -8.6837
  38   2.0000      -0.305449        -8.3117
  39   2.0000      -0.292306        -7.9541
  40   2.0000      -0.263722        -7.1762
  41   2.0000      -0.251361        -6.8399
  42   2.0000      -0.236254        -6.4288
  43   0.0000       0.073181         1.9914
  44   0.0000       0.089560         2.4371
  45   0.0000       0.100811         2.7432
  46   0.0000       0.102910         2.8003
  47   0.0000       0.108244         2.9455

MULLIKEN ATOMIC CHARGES
-----------------------
   0 C :    0.292215
   1 C :   -0.257828
   2 C :   -0.300690
   3 C :   -0.000884
   4 O :   -0.505331
   5 H :    0.146595
   6 H :    0.144249
   7 H :    0.152641
   8 H :    0.139197
   9 H :    0.156731
  10 H :    0.151192
  11 H :    0.139274
  12 C :   -0.026829
  13 H :    0.134417
  14 C :    0.090295
  15 C :   -0.310186
  16 C :   -0.018991
  17 O :   -0.528163
  18 H :    0.158664
  19 O :   -0.519928
  20 H :    0.150360
  21 H :    0.170784
  22 H :    0.149020
  23 H :    0.143153
  24 H :    0.150045
Sum of atomic charges:   -0.0000000

LOEWDIN ATOMIC CHARGES
----------------------
   0 C :    0.179743
   1 C :   -0.221837
   2 C :   -0.218518
   3 C :   -0.026224
   4 O :   -0.309842
   5 H :    0.101524
   6 H :    0.114361
   7 H :    0.118792
   8 H :    0.113008
   9 H :    0.116295
  10 H :    0.107340
  11 H :    0.100797
  12 C :   -0.053608
  13 H :    0.097601
  14 C :    0.042961
  15 C :   -0.239229
  16 C :   -0.036617
  17 O :   -0.339434
  18 H :    0.114404
  19 O :   -0.328663
  20 H :    0.115085
  21 H :    0.130204
  22 H :    0.118929
  23 H :    0.101946
  24 H :    0.100982

  Mayer bond orders larger than 0.100000
B(  0-C ,  1-C ) :   0.9353 B(  0-C ,  4-O ) :   0.9263 B(  0-C ,  5-H ) :   0.9098
B(  0-C , 19-O ) :   0.8242 B(  1-C ,  2-C ) :   0.9517 B(  1-C ,  6-H ) :   0.9353
B(  1-C ,  7-H ) :   0.9314 B(  2-C ,  3-C ) :   0.9538 B(  2-C ,  8-H ) :   0.9453
B(  2-C ,  9-H ) :   0.9444 B(  3-C ,  4-O ) :   0.8376 B(  3-C , 10-H ) :   0.9351
B(  3-C , 11-H ) :   0.9399 B( 12-C , 13-H ) :   0.9144 B( 12-C , 14-C ) :   0.9097
B( 12-C , 17-O ) :   0.8556 B( 12-C , 18-H ) :   0.9274 B( 14-C , 15-C ) :   0.9240
B( 14-C , 19-O ) :   0.8870 B( 14-C , 20-H ) :   0.9370 B( 15-C , 16-C ) :   0.9459
B( 15-C , 21-H ) :   0.9347 B( 15-C , 22-H ) :   0.9389 B( 16-C , 17-O ) :   0.8464
B( 16-C , 23-H ) :   0.9339 B( 16-C , 24-H ) :   0.9273

FINAL SINGLE POINT ENERGY      -538.428787863960

DIPOLE MOMENT
-------------
                                X             Y             Z
Electronic contribution:     -0.37455      -1.58163       0.47860
Nuclear contribution   :     -0.00059       1.81708      -0.73480
                        -----------------------------------------
Total Dipole Moment    :     -0.37515       0.23546      -0.25620
                        -----------------------------------------
Magnitude (a.u.)       :      0.51168
Magnitude (Debye)      :      1.30058

Rotational constants in cm-1:     0.077414     0.023298     0.021921
Rotational constants in MHz :  2320.817236   698.442038   657.180053

                             ****ORCA TERMINATED NORMALLY****
TOTAL RUN TIME: 0 days 0 hours 10 minutes 45 seconds 395 msec
