                         Program Version 4.2.0 -  RELEASE  -
|  1> # Test redundant internal optimization
|  2> #
|  3> ! RKS B3LYP  Opt TightSCF SmallPrint
|  4>
|  5> %basis
|  6>         Basis "6-31G"
|  7> end
|  8>
|  9> %geom
| 10> Constraints
| 11> { D 4  0  15  12  75.0   C } # D for Dihedral angle
| 12> { D 0  15  12  16  105.0   C } # D for Dihedral angle
| 13> { D 0  4  3  2   C } # D for Dihedral angle
| 14> { D 4  3  2  1   C } # D for Dihedral angle
| 15> { D 3  2  1  0   C } # D for Dihedral angle
| 16> { D 2  1  0  4   C } # D for Dihedral angle
| 17> { D 1  0  4  3   C } # D for Dihedral angle
| 18> { D 16  20  19  18   C } # D for Dihedral angle
| 19> { D 20  19  18  17   C } # D for Dihedral angle
| 20> { D 19  18  17  16   C } # D for Dihedral angle
| 21> { D 18  17  16  20   C } # D for Dihedral angle
| 22> { D 17  16  20  19   C } # D for Dihedral angle
| 23> { D 15  12  16  20   C } # D for Dihedral angle
| 24> end
| 25> end
| 26>
| 27>
| 28> #%pal
| 29> #nprocs 8
| 30> #end
| 31>
| 32> * xyz 0 1
| 33> C  -21.048   26.222   46.251
| 34> C  -20.361   27.558   45.944
| 35> C  -20.329   28.222   47.341
| 36> C  -20.110   27.022   48.296
| 37> O  -20.473   25.807   47.535
| 38> H  -20.833   25.428   45.533
| 39> H  -19.344   27.382   45.576
| 40> H  -20.898   28.157   45.201
| 41> H  -19.543   28.978   47.434
| 42> H  -21.289   28.710   47.548
| 43> H  -20.733   27.082   49.195
| 44> H  -19.064   26.913   48.597
| 45> C  -23.049   27.675   47.122
| 46> H  -23.840   27.411   47.836
| 47> H  -22.215   28.116   47.682
| 48> O  -22.586   26.394   46.375
| 49> C  -23.602   28.764   46.161
| 50> C  -23.940   30.053   46.917
| 51> C  -22.542   30.693   47.087
| 52> C  -21.813   30.299   45.778
| 53> O  -22.571   29.169   45.199
| 54> H  -24.430   28.346   45.585
| 55> H  -24.586   30.692   46.303
| 56> O  -24.654   29.796   48.273
| 57> H  -22.586   31.778   47.230
| 58> H  -22.034   30.262   47.958
| 59> H  -20.778   29.985   45.953
| 60> H  -21.819   31.105   45.038
| 61> H  -24.026   29.159   48.906
| 62> *
| 63>
| 64>                          ****END OF INPUT****
 Total Charge           Charge          ....    0
 Multiplicity           Mult            ....    1
 Number of Electrons    NEL             ....  102
FINAL SINGLE POINT ENERGY      -652.767863445436
FINAL SINGLE POINT ENERGY      -652.820888391308
FINAL SINGLE POINT ENERGY      -652.843403472241
FINAL SINGLE POINT ENERGY      -652.848908163349
FINAL SINGLE POINT ENERGY      -652.849755332401
FINAL SINGLE POINT ENERGY      -652.850048568498
FINAL SINGLE POINT ENERGY      -652.850108992006
FINAL SINGLE POINT ENERGY      -652.850126056881
FINAL SINGLE POINT ENERGY      -652.850130088994
FINAL SINGLE POINT ENERGY      -652.850129854448
                    ***********************HURRAY********************

CARTESIAN COORDINATES (ANGSTROEM)
---------------------------------
  C    -21.143868   26.256421   46.373822
  C    -20.142174   27.334007   45.934276
  C    -19.749888   27.985699   47.291272
  C    -19.775104   26.776874   48.263052
  O    -20.563376   25.720867   47.589794
  H    -21.186704   25.416259   45.679340
  H    -19.276524   26.835760   45.485660
  H    -20.581259   28.033284   45.221872
  H    -18.762337   28.457586   47.258308
  H    -20.470844   28.752814   47.584423
  H    -20.235491   27.007843   49.229472
  H    -18.775360   26.368083   48.437920
  C    -23.093481   27.734693   47.175606
  H    -23.971620   27.364806   47.714840
  H    -22.389803   28.138498   47.915032
  O    -22.542743   26.582235   46.485433
  C    -23.568238   28.804020   46.185879
  C    -24.178251   30.058052   46.837094
  C    -22.912192   30.928589   47.102403
  C    -22.011485   30.600581   45.891906
  O    -22.527197   29.332077   45.306957
  H    -24.279717   28.314323   45.513451
  H    -24.836621   30.553900   46.120706
  O    -25.014185   29.821368   47.993518
  H    -23.149516   31.992348   47.182431
  H    -22.445584   30.612577   48.045299
  H    -20.959116   30.469808   46.160233
  H    -22.081460   31.359956   45.106944
  H    -24.471859   29.564673   48.767057

 Multiplicity           Mult            ....    1
 Number of Electrons    NEL             ....  102
 Basis Dimension        Dim             ....  149

ORBITAL ENERGIES
----------------

  NO   OCC          E(Eh)            E(eV)
   0   2.0000     -19.155841      -521.2569
   1   2.0000     -19.150521      -521.1122
   2   2.0000     -19.138415      -520.7827
   3   2.0000     -19.135872      -520.7135
   4   2.0000     -10.272818      -279.5376
   5   2.0000     -10.251885      -278.9680
   6   2.0000     -10.240194      -278.6499
   7   2.0000     -10.235186      -278.5136
   8   2.0000     -10.234855      -278.5046
   9   2.0000     -10.226933      -278.2890
  10   2.0000     -10.203532      -277.6522
  11   2.0000     -10.191603      -277.3276
  12   2.0000     -10.179128      -276.9882
  13   2.0000      -1.047417       -28.5017
  14   2.0000      -1.039426       -28.2842
  15   2.0000      -1.024012       -27.8648
  16   2.0000      -0.991299       -26.9746
  17   2.0000      -0.790882       -21.5210
  18   2.0000      -0.783805       -21.3284
  19   2.0000      -0.775774       -21.1099
  20   2.0000      -0.733382       -19.9563
  21   2.0000      -0.687057       -18.6958
  22   2.0000      -0.619757       -16.8644
  23   2.0000      -0.602364       -16.3911
  24   2.0000      -0.600518       -16.3409
  25   2.0000      -0.571337       -15.5469
  26   2.0000      -0.530152       -14.4262
  27   2.0000      -0.516953       -14.0670
  28   2.0000      -0.504977       -13.7411
  29   2.0000      -0.488024       -13.2798
  30   2.0000      -0.467080       -12.7099
  31   2.0000      -0.462559       -12.5869
  32   2.0000      -0.451016       -12.2728
  33   2.0000      -0.439602       -11.9622
  34   2.0000      -0.433900       -11.8070
  35   2.0000      -0.418993       -11.4014
  36   2.0000      -0.412710       -11.2304
  37   2.0000      -0.404937       -11.0189
  38   2.0000      -0.387633       -10.5480
  39   2.0000      -0.375812       -10.2264
  40   2.0000      -0.362856        -9.8738
  41   2.0000      -0.355829        -9.6826
  42   2.0000      -0.343713        -9.3529
  43   2.0000      -0.338104        -9.2003
  44   2.0000      -0.322297        -8.7702
  45   2.0000      -0.310653        -8.4533
  46   2.0000      -0.296324        -8.0634
  47   2.0000      -0.277733        -7.5575
  48   2.0000      -0.270825        -7.3695
  49   2.0000      -0.255916        -6.9638
  50   2.0000      -0.239066        -6.5053
  51   0.0000       0.043046         1.1713
  52   0.0000       0.056670         1.5421
  53   0.0000       0.081416         2.2154
  54   0.0000       0.088741         2.4148
  55   0.0000       0.097053         2.6410

MULLIKEN ATOMIC CHARGES
-----------------------
   0 C :    0.305466
   1 C :   -0.290418
   2 C :   -0.321450
   3 C :   -0.008637
   4 O :   -0.504100
   5 H :    0.167022
   6 H :    0.147087
   7 H :    0.191307
   8 H :    0.141140
   9 H :    0.137509
  10 H :    0.136239
  11 H :    0.146171
  12 C :   -0.022539
  13 H :    0.161291
  14 H :    0.113007
  15 O :   -0.519715
  16 C :    0.097616
  17 C :    0.080744
  18 C :   -0.318044
  19 C :   -0.024822
  20 O :   -0.512992
  21 H :    0.170282
  22 H :    0.172125
  23 O :   -0.597384
  24 H :    0.162388
  25 H :    0.129306
  26 H :    0.147189
  27 H :    0.156947
  28 H :    0.357269
Sum of atomic charges:   -0.0000000

LOEWDIN ATOMIC CHARGES
----------------------
   0 C :    0.180212
   1 C :   -0.235414
   2 C :   -0.225613
   3 C :   -0.035158
   4 O :   -0.323128
   5 H :    0.114396
   6 H :    0.117956
   7 H :    0.137486
   8 H :    0.113741
   9 H :    0.100170
  10 H :    0.097582
  11 H :    0.103948
  12 C :   -0.048506
  13 H :    0.118680
  14 H :    0.086739
  15 O :   -0.313665
  16 C :    0.011678
  17 C :    0.035322
  18 C :   -0.239720
  19 C :   -0.035444
  20 O :   -0.316736
  21 H :    0.121790
  22 H :    0.121398
  23 O :   -0.404176
  24 H :    0.125212
  25 H :    0.101614
  26 H :    0.101797
  27 H :    0.109067
  28 H :    0.278769

  Mayer bond orders larger than 0.100000
B(  0-C ,  1-C ) :   0.9215 B(  0-C ,  4-O ) :   0.8975 B(  0-C ,  5-H ) :   0.9361
B(  0-C , 15-O ) :   0.8965 B(  1-C ,  2-C ) :   0.9577 B(  1-C ,  6-H ) :   0.9329
B(  1-C ,  7-H ) :   0.9080 B(  2-C ,  3-C ) :   0.9433 B(  2-C ,  8-H ) :   0.9458
B(  2-C ,  9-H ) :   0.9359 B(  3-C ,  4-O ) :   0.8539 B(  3-C , 10-H ) :   0.9346
B(  3-C , 11-H ) :   0.9384 B( 12-C , 13-H ) :   0.9180 B( 12-C , 14-H ) :   0.9162
B( 12-C , 15-O ) :   0.8529 B( 12-C , 16-C ) :   0.8954 B( 16-C , 17-C ) :   0.8672
B( 16-C , 20-O ) :   0.8558 B( 16-C , 21-H ) :   0.9285 B( 17-C , 18-C ) :   0.9210
B( 17-C , 22-H ) :   0.9322 B( 17-C , 23-O ) :   0.9013 B( 18-C , 19-C ) :   0.9404
B( 18-C , 24-H ) :   0.9411 B( 18-C , 25-H ) :   0.9413 B( 19-C , 20-O ) :   0.8412
B( 19-C , 26-H ) :   0.9228 B( 19-C , 27-H ) :   0.9368 B( 23-O , 28-H ) :   0.7975

FINAL SINGLE POINT ENERGY      -652.850128393956

DIPOLE MOMENT
-------------
                                X             Y             Z
Electronic contribution:     -4.58737      -4.47084      -1.63946
Nuclear contribution   :      5.51959       6.02105       2.16581
                        -----------------------------------------
Total Dipole Moment    :      0.93222       1.55020       0.52635
                        -----------------------------------------
Magnitude (a.u.)       :      1.88394
Magnitude (Debye)      :      4.78858

Rotational constants in cm-1:     0.045613     0.016820     0.015475
Rotational constants in MHz :  1367.443024   504.239228   463.931570

                             ****ORCA TERMINATED NORMALLY****
TOTAL RUN TIME: 0 days 2 hours 3 minutes 40 seconds 879 msec
