                         Program Version 4.2.0 -  RELEASE  -
|  1> # Test redundant internal optimization
|  2> #
|  3> ! RKS B3LYP  Opt TightSCF SmallPrint
|  4>
|  5> %basis
|  6>         Basis "6-31G"
|  7> end
|  8>
|  9> %geom
| 10> Constraints
| 11> { D 4  0  15  12  225.0   C } # D for Dihedral angle
| 12> { D 0  15  12  16  240.0   C } # D for Dihedral angle
| 13> { D 0  4  3  2   C } # D for Dihedral angle
| 14> { D 4  3  2  1   C } # D for Dihedral angle
| 15> { D 3  2  1  0   C } # D for Dihedral angle
| 16> { D 2  1  0  4   C } # D for Dihedral angle
| 17> { D 1  0  4  3   C } # D for Dihedral angle
| 18> { D 16  20  19  18   C } # D for Dihedral angle
| 19> { D 20  19  18  17   C } # D for Dihedral angle
| 20> { D 19  18  17  16   C } # D for Dihedral angle
| 21> { D 18  17  16  20   C } # D for Dihedral angle
| 22> { D 17  16  20  19   C } # D for Dihedral angle
| 23> { D 15  12  16  20   C } # D for Dihedral angle
| 24> end
| 25> end
| 26>
| 27>
| 28> #%pal
| 29> #nprocs 8
| 30> #end
| 31>
| 32> * xyz 0 1
| 33> C  -21.048   26.222   46.251
| 34> C  -20.361   27.558   45.944
| 35> C  -20.329   28.222   47.341
| 36> C  -20.110   27.022   48.296
| 37> O  -20.473   25.807   47.535
| 38> H  -20.833   25.428   45.533
| 39> H  -19.344   27.382   45.576
| 40> H  -20.898   28.157   45.201
| 41> H  -19.543   28.978   47.434
| 42> H  -21.289   28.710   47.548
| 43> H  -20.733   27.082   49.195
| 44> H  -19.064   26.913   48.597
| 45> C  -23.415   25.773   45.218
| 46> H  -22.735   25.299   44.499
| 47> H  -24.097   25.004   45.604
| 48> O  -22.586   26.394   46.375
| 49> C  -24.271   26.825   44.460
| 50> C  -23.386   27.850   43.742
| 51> C  -22.956   27.064   42.481
| 52> C  -24.209   26.214   42.153
| 53> O  -25.032   26.186   43.381
| 54> H  -24.998   27.259   45.150
| 55> O  -24.224   29.098   43.353
| 56> H  -22.535   28.183   44.347
| 57> H  -22.667   27.718   41.652
| 58> H  -22.100   26.419   42.713
| 59> H  -23.956   25.187   41.868
| 60> H  -24.821   26.659   41.364
| 61> H  -25.084   28.790   42.745
| 62> *
| 63>
| 64>                          ****END OF INPUT****
 Total Charge           Charge          ....    0
 Multiplicity           Mult            ....    1
 Number of Electrons    NEL             ....  102
FINAL SINGLE POINT ENERGY      -652.832549808879
FINAL SINGLE POINT ENERGY      -652.854348558213
FINAL SINGLE POINT ENERGY      -652.858144827026
FINAL SINGLE POINT ENERGY      -652.858812376325
FINAL SINGLE POINT ENERGY      -652.858901457089
FINAL SINGLE POINT ENERGY      -652.858910788522
                    ***********************HURRAY********************

CARTESIAN COORDINATES (ANGSTROEM)
---------------------------------
  C    -21.051415   26.185227   46.217825
  C    -20.329610   27.499516   45.921935
  C    -20.379483   28.212482   47.297410
  C    -20.241155   27.039032   48.291321
  O    -20.576291   25.816309   47.521640
  H    -20.817881   25.360635   45.536022
  H    -19.292636   27.278907   45.639953
  H    -20.788156   28.078442   45.119926
  H    -19.587002   28.957291   47.414827
  H    -21.346423   28.710086   47.418141
  H    -20.923381   27.112559   49.141743
  H    -19.217843   26.909936   48.656361
  C    -23.328431   25.793316   45.241300
  H    -22.709927   25.221328   44.533703
  H    -24.028915   25.094927   45.710588
  O    -22.494981   26.368132   46.286859
  C    -24.146515   26.848370   44.483971
  C    -23.367974   27.909397   43.692192
  C    -22.975402   27.123214   42.414047
  C    -24.197967   26.198961   42.183166
  O    -24.938364   26.148085   43.465852
  H    -24.850172   27.328695   45.169942
  O    -24.224258   29.043025   43.380113
  H    -22.525045   28.327728   44.234644
  H    -22.794214   27.806293   41.580715
  H    -22.061964   26.541544   42.584215
  H    -23.913822   25.182411   41.895360
  H    -24.886073   26.594315   41.429130
  H    -25.101701   28.712838   43.093099

 Multiplicity           Mult            ....    1
 Number of Electrons    NEL             ....  102
 Basis Dimension        Dim             ....  149

ORBITAL ENERGIES
----------------

  NO   OCC          E(Eh)            E(eV)
   0   2.0000     -19.149579      -521.0865
   1   2.0000     -19.143022      -520.9081
   2   2.0000     -19.140568      -520.8413
   3   2.0000     -19.140486      -520.8391
   4   2.0000     -10.284255      -279.8488
   5   2.0000     -10.243403      -278.7372
   6   2.0000     -10.236857      -278.5590
   7   2.0000     -10.236236      -278.5421
   8   2.0000     -10.234445      -278.4934
   9   2.0000     -10.225177      -278.2412
  10   2.0000     -10.194621      -277.4097
  11   2.0000     -10.189374      -277.2670
  12   2.0000     -10.187140      -277.2062
  13   2.0000      -1.054016       -28.6812
  14   2.0000      -1.041549       -28.3420
  15   2.0000      -1.009706       -27.4755
  16   2.0000      -0.995728       -27.0951
  17   2.0000      -0.788690       -21.4613
  18   2.0000      -0.783873       -21.3303
  19   2.0000      -0.770790       -20.9743
  20   2.0000      -0.734766       -19.9940
  21   2.0000      -0.678120       -18.4526
  22   2.0000      -0.609688       -16.5905
  23   2.0000      -0.601474       -16.3669
  24   2.0000      -0.596217       -16.2239
  25   2.0000      -0.587104       -15.9759
  26   2.0000      -0.525708       -14.3053
  27   2.0000      -0.521358       -14.1869
  28   2.0000      -0.498924       -13.5764
  29   2.0000      -0.492322       -13.3968
  30   2.0000      -0.475652       -12.9431
  31   2.0000      -0.459088       -12.4924
  32   2.0000      -0.455494       -12.3946
  33   2.0000      -0.440859       -11.9964
  34   2.0000      -0.425155       -11.5690
  35   2.0000      -0.419294       -11.4096
  36   2.0000      -0.407227       -11.0812
  37   2.0000      -0.396047       -10.7770
  38   2.0000      -0.379147       -10.3171
  39   2.0000      -0.373294       -10.1578
  40   2.0000      -0.364188        -9.9101
  41   2.0000      -0.356758        -9.7079
  42   2.0000      -0.352714        -9.5978
  43   2.0000      -0.335261        -9.1229
  44   2.0000      -0.315333        -8.5806
  45   2.0000      -0.311908        -8.4874
  46   2.0000      -0.307529        -8.3683
  47   2.0000      -0.275343        -7.4925
  48   2.0000      -0.268599        -7.3089
  49   2.0000      -0.260406        -7.0860
  50   2.0000      -0.240002        -6.5308
  51   0.0000       0.061373         1.6700
  52   0.0000       0.065454         1.7811
  53   0.0000       0.081774         2.2252
  54   0.0000       0.092810         2.5255
  55   0.0000       0.100800         2.7429

MULLIKEN ATOMIC CHARGES
-----------------------
   0 C :    0.291793
   1 C :   -0.269138
   2 C :   -0.299713
   3 C :   -0.000265
   4 O :   -0.499196
   5 H :    0.137676
   6 H :    0.145017
   7 H :    0.145788
   8 H :    0.143344
   9 H :    0.165271
  10 H :    0.154967
  11 H :    0.141262
  12 C :   -0.006020
  13 H :    0.120218
  14 H :    0.166888
  15 O :   -0.520089
  16 C :    0.056056
  17 C :    0.078384
  18 C :   -0.298014
  19 C :   -0.031961
  20 O :   -0.523920
  21 H :    0.169922
  22 O :   -0.603649
  23 H :    0.167676
  24 H :    0.165361
  25 H :    0.138163
  26 H :    0.148807
  27 H :    0.150150
  28 H :    0.365221
Sum of atomic charges:   -0.0000000

LOEWDIN ATOMIC CHARGES
----------------------
   0 C :    0.180188
   1 C :   -0.226948
   2 C :   -0.216044
   3 C :   -0.025444
   4 O :   -0.308112
   5 H :    0.095926
   6 H :    0.113904
   7 H :    0.112431
   8 H :    0.115062
   9 H :    0.120557
  10 H :    0.109720
  11 H :    0.102022
  12 C :   -0.035965
  13 H :    0.091949
  14 H :    0.117564
  15 O :   -0.337828
  16 C :    0.010943
  17 C :    0.035739
  18 C :   -0.241786
  19 C :   -0.039098
  20 O :   -0.328879
  21 H :    0.119428
  22 O :   -0.414106
  23 H :    0.118201
  24 H :    0.128111
  25 H :    0.110155
  26 H :    0.105159
  27 H :    0.104160
  28 H :    0.282990

  Mayer bond orders larger than 0.100000
B(  0-C ,  1-C ) :   0.9347 B(  0-C ,  4-O ) :   0.9382 B(  0-C ,  5-H ) :   0.9182
B(  0-C , 15-O ) :   0.8383 B(  1-C ,  2-C ) :   0.9568 B(  1-C ,  6-H ) :   0.9336
B(  1-C ,  7-H ) :   0.9240 B(  2-C ,  3-C ) :   0.9541 B(  2-C ,  8-H ) :   0.9449
B(  2-C ,  9-H ) :   0.9427 B(  3-C ,  4-O ) :   0.8352 B(  3-C , 10-H ) :   0.9344
B(  3-C , 11-H ) :   0.9397 B( 12-C , 13-H ) :   0.9215 B( 12-C , 14-H ) :   0.9257
B( 12-C , 15-O ) :   0.8395 B( 12-C , 16-C ) :   0.8935 B( 16-C , 17-C ) :   0.9102
B( 16-C , 20-O ) :   0.8343 B( 16-C , 21-H ) :   0.9252 B( 17-C , 18-C ) :   0.9141
B( 17-C , 22-O ) :   0.8898 B( 17-C , 23-H ) :   0.9126 B( 18-C , 19-C ) :   0.9404
B( 18-C , 24-H ) :   0.9373 B( 18-C , 25-H ) :   0.9352 B( 19-C , 20-O ) :   0.8430
B( 19-C , 26-H ) :   0.9348 B( 19-C , 27-H ) :   0.9372 B( 22-O , 28-H ) :   0.7935

FINAL SINGLE POINT ENERGY      -652.858911888873

DIPOLE MOMENT
-------------
                                X             Y             Z
Electronic contribution:     -4.12468      -1.86793       1.44527
Nuclear contribution   :      4.86173       2.01818      -2.26500
                        -----------------------------------------
Total Dipole Moment    :      0.73705       0.15025      -0.81973
                        -----------------------------------------
Magnitude (a.u.)       :      1.11255
Magnitude (Debye)      :      2.82788

Rotational constants in cm-1:     0.055364     0.013424     0.012358
Rotational constants in MHz :  1659.772517   402.449368   370.477982

                             ****ORCA TERMINATED NORMALLY****
TOTAL RUN TIME: 0 days 1 hours 2 minutes 49 seconds 725 msec
