                         Program Version 4.2.0 -  RELEASE  -
|  1> # Test redundant internal optimization
|  2> #
|  3> ! RKS B3LYP  Opt TightSCF SmallPrint
|  4>
|  5> %basis
|  6>         Basis "6-31G"
|  7> end
|  8>
|  9> %geom
| 10> Constraints
| 11> { D 4  0  15  12  30.0   C } # D for Dihedral angle
| 12> { D 0  15  12  16  210.0   C } # D for Dihedral angle
| 13> { D 0  4  3  2   C } # D for Dihedral angle
| 14> { D 4  3  2  1   C } # D for Dihedral angle
| 15> { D 3  2  1  0   C } # D for Dihedral angle
| 16> { D 2  1  0  4   C } # D for Dihedral angle
| 17> { D 1  0  4  3   C } # D for Dihedral angle
| 18> { D 16  20  19  18   C } # D for Dihedral angle
| 19> { D 20  19  18  17   C } # D for Dihedral angle
| 20> { D 19  18  17  16   C } # D for Dihedral angle
| 21> { D 18  17  16  20   C } # D for Dihedral angle
| 22> { D 17  16  20  19   C } # D for Dihedral angle
| 23> { D 15  12  16  20   C } # D for Dihedral angle
| 24> end
| 25> end
| 26>
| 27>
| 28> #%pal
| 29> #nprocs 8
| 30> #end
| 31>
| 32> * xyz 0 1
| 33> C  -21.048   26.222   46.251
| 34> C  -20.361   27.558   45.944
| 35> C  -20.329   28.222   47.341
| 36> C  -20.110   27.022   48.296
| 37> O  -20.473   25.807   47.535
| 38> H  -20.833   25.428   45.533
| 39> H  -19.344   27.382   45.576
| 40> H  -20.898   28.157   45.201
| 41> H  -19.543   28.978   47.434
| 42> H  -21.289   28.710   47.548
| 43> H  -20.733   27.082   49.195
| 44> H  -19.064   26.913   48.597
| 45> C  -23.091   26.824   47.779
| 46> H  -22.404   26.441   48.544
| 47> H  -23.118   27.918   47.860
| 48> O  -22.586   26.394   46.375
| 49> C  -24.517   26.292   48.093
| 50> C  -24.536   24.761   48.171
| 51> C  -23.963   24.512   49.586
| 52> C  -24.525   25.701   50.407
| 53> O  -24.944   26.726   49.428
| 54> H  -25.223   26.718   47.378
| 55> H  -25.566   24.394   48.100
| 56> O  -23.697   24.084   47.053
| 57> H  -24.260   23.543   49.999
| 58> H  -22.868   24.543   49.560
| 59> H  -23.779   26.133   51.082
| 60> H  -25.410   25.426   50.986
| 61> H  -22.661   24.437   47.105
| 62> *
| 63>
| 64>                          ****END OF INPUT****
 Total Charge           Charge          ....    0
 Multiplicity           Mult            ....    1
 Number of Electrons    NEL             ....  102
FINAL SINGLE POINT ENERGY      -652.822709633929
FINAL SINGLE POINT ENERGY      -652.848682978039
FINAL SINGLE POINT ENERGY      -652.856087505106
FINAL SINGLE POINT ENERGY      -652.859076632287
FINAL SINGLE POINT ENERGY      -652.860277167597
FINAL SINGLE POINT ENERGY      -652.861173242714
FINAL SINGLE POINT ENERGY      -652.861756397696
FINAL SINGLE POINT ENERGY      -652.861941587942
FINAL SINGLE POINT ENERGY      -652.861997540119
FINAL SINGLE POINT ENERGY      -652.862006029495
                    ***********************HURRAY********************

CARTESIAN COORDINATES (ANGSTROEM)
---------------------------------
  C    -21.081288   26.270331   46.429500
  C    -20.399862   27.550427   45.938790
  C    -20.155211   28.312401   47.267425
  C    -19.848644   27.175451   48.267991
  O    -20.364342   25.928403   47.630079
  H    -20.977664   25.426041   45.746545
  H    -19.451510   27.285457   45.458356
  H    -21.018200   28.102495   45.227709
  H    -19.328904   29.026043   47.194775
  H    -21.050802   28.869702   47.559991
  H    -20.334887   27.303138   49.238533
  H    -18.777025   27.021131   48.419510
  C    -23.087926   26.834273   47.885721
  H    -22.420942   26.515949   48.690974
  H    -23.189682   27.924422   47.904567
  O    -22.532449   26.396649   46.595299
  C    -24.472754   26.199372   48.067575
  C    -24.501104   24.664376   48.160513
  C    -24.041764   24.429879   49.627810
  C    -24.661674   25.621486   50.384936
  O    -25.003091   26.648111   49.354553
  H    -25.151609   26.573528   47.295994
  H    -25.541239   24.334236   48.051403
  O    -23.715036   23.960712   47.180998
  H    -24.380508   23.463428   50.009729
  H    -22.946457   24.439601   49.660533
  H    -23.983513   26.071743   51.117112
  H    -25.598764   25.362334   50.885872
  H    -23.156151   24.616885   46.704206

 Multiplicity           Mult            ....    1
 Number of Electrons    NEL             ....  102
 Basis Dimension        Dim             ....  149

ORBITAL ENERGIES
----------------

  NO   OCC          E(Eh)            E(eV)
   0   2.0000     -19.162915      -521.4494
   1   2.0000     -19.162703      -521.4437
   2   2.0000     -19.139073      -520.8007
   3   2.0000     -19.111552      -520.0518
   4   2.0000     -10.293609      -280.1034
   5   2.0000     -10.243001      -278.7262
   6   2.0000     -10.236062      -278.5374
   7   2.0000     -10.232271      -278.4342
   8   2.0000     -10.227543      -278.3056
   9   2.0000     -10.225183      -278.2414
  10   2.0000     -10.202265      -277.6177
  11   2.0000     -10.197682      -277.4930
  12   2.0000     -10.175838      -276.8986
  13   2.0000      -1.068558       -29.0769
  14   2.0000      -1.024937       -27.8899
  15   2.0000      -1.008367       -27.4391
  16   2.0000      -0.991496       -26.9800
  17   2.0000      -0.800656       -21.7870
  18   2.0000      -0.777130       -21.1468
  19   2.0000      -0.766487       -20.8572
  20   2.0000      -0.738652       -20.0997
  21   2.0000      -0.679304       -18.4848
  22   2.0000      -0.614928       -16.7330
  23   2.0000      -0.602782       -16.4025
  24   2.0000      -0.593924       -16.1615
  25   2.0000      -0.575686       -15.6652
  26   2.0000      -0.525424       -14.2975
  27   2.0000      -0.521371       -14.1872
  28   2.0000      -0.509595       -13.8668
  29   2.0000      -0.487086       -13.2543
  30   2.0000      -0.475435       -12.9373
  31   2.0000      -0.464503       -12.6398
  32   2.0000      -0.443699       -12.0737
  33   2.0000      -0.432580       -11.7711
  34   2.0000      -0.426437       -11.6039
  35   2.0000      -0.417603       -11.3635
  36   2.0000      -0.411144       -11.1878
  37   2.0000      -0.389289       -10.5931
  38   2.0000      -0.385126       -10.4798
  39   2.0000      -0.371876       -10.1193
  40   2.0000      -0.367778       -10.0077
  41   2.0000      -0.360126        -9.7995
  42   2.0000      -0.349953        -9.5227
  43   2.0000      -0.338698        -9.2164
  44   2.0000      -0.332284        -9.0419
  45   2.0000      -0.322540        -8.7768
  46   2.0000      -0.293034        -7.9738
  47   2.0000      -0.278360        -7.5745
  48   2.0000      -0.266855        -7.2615
  49   2.0000      -0.245485        -6.6800
  50   2.0000      -0.240677        -6.5492
  51   0.0000       0.057355         1.5607
  52   0.0000       0.069452         1.8899
  53   0.0000       0.086402         2.3511
  54   0.0000       0.097530         2.6539
  55   0.0000       0.101897         2.7728

MULLIKEN ATOMIC CHARGES
-----------------------
   0 C :    0.292668
   1 C :   -0.259907
   2 C :   -0.316228
   3 C :   -0.023349
   4 O :   -0.504374
   5 H :    0.170626
   6 H :    0.154155
   7 H :    0.161776
   8 H :    0.153478
   9 H :    0.157540
  10 H :    0.149536
  11 H :    0.158183
  12 C :   -0.026628
  13 H :    0.161616
  14 H :    0.155256
  15 O :   -0.557357
  16 C :    0.041608
  17 C :    0.126721
  18 C :   -0.306538
  19 C :   -0.022798
  20 O :   -0.520922
  21 H :    0.161072
  22 H :    0.144078
  23 O :   -0.639173
  24 H :    0.147592
  25 H :    0.159265
  26 H :    0.139038
  27 H :    0.150012
  28 H :    0.393054
Sum of atomic charges:   -0.0000000

LOEWDIN ATOMIC CHARGES
----------------------
   0 C :    0.176833
   1 C :   -0.221916
   2 C :   -0.221833
   3 C :   -0.033595
   4 O :   -0.313912
   5 H :    0.113728
   6 H :    0.119704
   7 H :    0.125909
   8 H :    0.120532
   9 H :    0.114464
  10 H :    0.104388
  11 H :    0.110632
  12 C :   -0.051447
  13 H :    0.110004
  14 H :    0.106722
  15 O :   -0.341391
  16 C :    0.018085
  17 C :    0.043652
  18 C :   -0.237707
  19 C :   -0.033149
  20 O :   -0.324679
  21 H :    0.115087
  22 H :    0.103092
  23 O :   -0.431846
  24 H :    0.120261
  25 H :    0.117079
  26 H :    0.100007
  27 H :    0.106213
  28 H :    0.285083

  Mayer bond orders larger than 0.100000
B(  0-C ,  1-C ) :   0.9265 B(  0-C ,  4-O ) :   0.9221 B(  0-C ,  5-H ) :   0.9320
B(  0-C , 15-O ) :   0.8256 B(  1-C ,  2-C ) :   0.9543 B(  1-C ,  6-H ) :   0.9344
B(  1-C ,  7-H ) :   0.9358 B(  2-C ,  3-C ) :   0.9495 B(  2-C ,  8-H ) :   0.9440
B(  2-C ,  9-H ) :   0.9419 B(  3-C ,  4-O ) :   0.8272 B(  3-C , 10-H ) :   0.9314
B(  3-C , 11-H ) :   0.9396 B( 12-C , 13-H ) :   0.9072 B( 12-C , 14-H ) :   0.9209
B( 12-C , 15-O ) :   0.7898 B( 12-C , 16-C ) :   0.9057 B( 16-C , 17-C ) :   0.9145
B( 16-C , 20-O ) :   0.8564 B( 16-C , 21-H ) :   0.9291 B( 17-C , 18-C ) :   0.9013
B( 17-C , 22-H ) :   0.9296 B( 17-C , 23-O ) :   0.9335 B( 18-C , 19-C ) :   0.9375
B( 18-C , 24-H ) :   0.9456 B( 18-C , 25-H ) :   0.9398 B( 19-C , 20-O ) :   0.8320
B( 19-C , 26-H ) :   0.9347 B( 19-C , 27-H ) :   0.9386 B( 23-O , 28-H ) :   0.7251

FINAL SINGLE POINT ENERGY      -652.862007533492

DIPOLE MOMENT
-------------
                                X             Y             Z
Electronic contribution:     -3.00572      -2.65607      -2.31711
Nuclear contribution   :      4.11299       3.84220       2.53941
                        -----------------------------------------
Total Dipole Moment    :      1.10727       1.18613       0.22230
                        -----------------------------------------
Magnitude (a.u.)       :      1.63780
Magnitude (Debye)      :      4.16295

Rotational constants in cm-1:     0.048652     0.015731     0.014665
Rotational constants in MHz :  1458.557556   471.606033   439.659714

                             ****ORCA TERMINATED NORMALLY****
TOTAL RUN TIME: 0 days 0 hours 35 minutes 7 seconds 243 msec
