                         Program Version 4.2.0 -  RELEASE  -
|  1> # Test redundant internal optimization
|  2> #
|  3> ! RKS B3LYP  Opt TightSCF SmallPrint
|  4>
|  5> %basis
|  6>         Basis "6-31G"
|  7> end
|  8>
|  9> %geom
| 10> Constraints
| 11> { D 4  0  15  12  90.0   C } # D for Dihedral angle
| 12> { D 0  15  12  16  240.0   C } # D for Dihedral angle
| 13> { D 0  4  3  2   C } # D for Dihedral angle
| 14> { D 4  3  2  1   C } # D for Dihedral angle
| 15> { D 3  2  1  0   C } # D for Dihedral angle
| 16> { D 2  1  0  4   C } # D for Dihedral angle
| 17> { D 1  0  4  3   C } # D for Dihedral angle
| 18> { D 16  20  19  18   C } # D for Dihedral angle
| 19> { D 20  19  18  17   C } # D for Dihedral angle
| 20> { D 19  18  17  16   C } # D for Dihedral angle
| 21> { D 18  17  16  20   C } # D for Dihedral angle
| 22> { D 17  16  20  19   C } # D for Dihedral angle
| 23> { D 15  12  16  20   C } # D for Dihedral angle
| 24> end
| 25> end
| 26>
| 27>
| 28> #%pal
| 29> #nprocs 8
| 30> #end
| 31>
| 32> * xyz 0 1
| 33> C  -21.048   26.222   46.251
| 34> C  -20.361   27.558   45.944
| 35> C  -20.329   28.222   47.341
| 36> C  -20.110   27.022   48.296
| 37> O  -20.473   25.807   47.535
| 38> H  -20.833   25.428   45.533
| 39> H  -19.344   27.382   45.576
| 40> H  -20.898   28.157   45.201
| 41> H  -19.543   28.978   47.434
| 42> H  -21.289   28.710   47.548
| 43> H  -20.733   27.082   49.195
| 44> H  -19.064   26.913   48.597
| 45> C  -23.061   27.816   46.783
| 46> H  -22.187   28.468   46.906
| 47> H  -23.702   28.245   46.003
| 48> O  -22.586   26.394   46.375
| 49> C  -23.865   27.821   48.112
| 50> C  -22.989   27.394   49.295
| 51> C  -22.201   28.693   49.587
| 52> C  -23.233   29.807   49.278
| 53> O  -24.288   29.185   48.450
| 54> H  -24.773   27.228   47.984
| 55> O  -23.881   27.010   50.507
| 56> H  -22.338   26.544   49.064
| 57> H  -21.830   28.743   50.615
| 58> H  -21.338   28.768   48.915
| 59> H  -22.793   30.645   48.727
| 60> H  -23.715   30.191   50.180
| 61> H  -24.543   27.847   50.758
| 62> *
| 63>
| 64>                          ****END OF INPUT****
 Total Charge           Charge          ....    0
 Multiplicity           Mult            ....    1
 Number of Electrons    NEL             ....  102
FINAL SINGLE POINT ENERGY      -652.755264771500
FINAL SINGLE POINT ENERGY      -652.823842825959
FINAL SINGLE POINT ENERGY      -652.846354606435
FINAL SINGLE POINT ENERGY      -652.852144422851
FINAL SINGLE POINT ENERGY      -652.853119411364
FINAL SINGLE POINT ENERGY      -652.853431927381
FINAL SINGLE POINT ENERGY      -652.853502684384
FINAL SINGLE POINT ENERGY      -652.853533243193
FINAL SINGLE POINT ENERGY      -652.853538760251
                    ***********************HURRAY********************

CARTESIAN COORDINATES (ANGSTROEM)
---------------------------------
  C    -21.168748   26.335388   46.381112
  C    -20.209259   27.377279   45.783689
  C    -19.724707   28.140185   47.053303
  C    -19.670127   27.013829   48.118483
  O    -20.497817   25.903129   47.590068
  H    -21.230798   25.432051   45.771773
  H    -19.375675   26.848202   45.311986
  H    -20.682735   28.022170   45.038612
  H    -18.745844   28.608155   46.910105
  H    -20.427261   28.929408   47.333307
  H    -20.055232   27.317533   49.094935
  H    -18.658215   26.618482   48.245725
  C    -23.130340   27.963700   46.855395
  H    -22.369625   28.748086   46.932795
  H    -23.811468   28.236827   46.044111
  O    -22.562214   26.661020   46.528056
  C    -23.930101   27.855028   48.159915
  C    -23.145013   27.455747   49.418487
  C    -22.507091   28.807793   49.835073
  C    -23.597209   29.841078   49.452338
  O    -24.504051   29.163312   48.494575
  H    -24.765750   27.166535   48.005924
  O    -24.049133   26.964933   50.447452
  H    -22.429911   26.653601   49.241741
  H    -22.275873   28.809172   50.903141
  H    -21.580051   28.992653   49.283625
  H    -23.186700   30.738845   48.979430
  H    -24.205414   30.147625   50.308860
  H    -24.851639   27.528234   50.465983

 Multiplicity           Mult            ....    1
 Number of Electrons    NEL             ....  102
 Basis Dimension        Dim             ....  149

ORBITAL ENERGIES
----------------

  NO   OCC          E(Eh)            E(eV)
   0   2.0000     -19.147880      -521.0403
   1   2.0000     -19.147280      -521.0240
   2   2.0000     -19.146317      -520.9978
   3   2.0000     -19.133236      -520.6418
   4   2.0000     -10.284987      -279.8687
   5   2.0000     -10.236445      -278.5478
   6   2.0000     -10.234677      -278.4997
   7   2.0000     -10.234275      -278.4888
   8   2.0000     -10.234018      -278.4818
   9   2.0000     -10.232078      -278.4290
  10   2.0000     -10.201566      -277.5987
  11   2.0000     -10.199273      -277.5363
  12   2.0000     -10.190324      -277.2928
  13   2.0000      -1.054521       -28.6950
  14   2.0000      -1.036747       -28.2113
  15   2.0000      -1.004062       -27.3219
  16   2.0000      -1.000802       -27.2332
  17   2.0000      -0.795894       -21.6574
  18   2.0000      -0.782652       -21.2970
  19   2.0000      -0.772793       -21.0288
  20   2.0000      -0.736439       -20.0395
  21   2.0000      -0.684393       -18.6233
  22   2.0000      -0.612138       -16.6571
  23   2.0000      -0.605353       -16.4725
  24   2.0000      -0.599791       -16.3211
  25   2.0000      -0.576804       -15.6956
  26   2.0000      -0.527871       -14.3641
  27   2.0000      -0.513309       -13.9679
  28   2.0000      -0.508557       -13.8385
  29   2.0000      -0.496281       -13.5045
  30   2.0000      -0.478231       -13.0133
  31   2.0000      -0.459589       -12.5061
  32   2.0000      -0.449957       -12.2440
  33   2.0000      -0.440749       -11.9934
  34   2.0000      -0.428620       -11.6633
  35   2.0000      -0.420214       -11.4346
  36   2.0000      -0.412782       -11.2324
  37   2.0000      -0.392504       -10.6806
  38   2.0000      -0.390381       -10.6228
  39   2.0000      -0.371633       -10.1126
  40   2.0000      -0.367810       -10.0086
  41   2.0000      -0.359749        -9.7893
  42   2.0000      -0.352977        -9.6050
  43   2.0000      -0.333848        -9.0845
  44   2.0000      -0.322072        -8.7640
  45   2.0000      -0.305115        -8.3026
  46   2.0000      -0.296962        -8.0807
  47   2.0000      -0.281327        -7.6553
  48   2.0000      -0.265109        -7.2140
  49   2.0000      -0.261961        -7.1283
  50   2.0000      -0.243817        -6.6346
  51   0.0000       0.053292         1.4502
  52   0.0000       0.064107         1.7444
  53   0.0000       0.085683         2.3316
  54   0.0000       0.092481         2.5165
  55   0.0000       0.102517         2.7896

MULLIKEN ATOMIC CHARGES
-----------------------
   0 C :    0.311021
   1 C :   -0.288495
   2 C :   -0.318208
   3 C :   -0.015374
   4 O :   -0.499655
   5 H :    0.170611
   6 H :    0.161674
   7 H :    0.151790
   8 H :    0.149034
   9 H :    0.150378
  10 H :    0.148109
  11 H :    0.151371
  12 C :   -0.017771
  13 H :    0.122671
  14 H :    0.163602
  15 O :   -0.529731
  16 C :    0.066151
  17 C :    0.070053
  18 C :   -0.304476
  19 C :   -0.031816
  20 O :   -0.528840
  21 H :    0.171786
  22 O :   -0.601014
  23 H :    0.193746
  24 H :    0.164846
  25 H :    0.133719
  26 H :    0.142378
  27 H :    0.149929
  28 H :    0.362512
Sum of atomic charges:    0.0000000

LOEWDIN ATOMIC CHARGES
----------------------
   0 C :    0.177008
   1 C :   -0.228783
   2 C :   -0.223396
   3 C :   -0.035971
   4 O :   -0.319615
   5 H :    0.113937
   6 H :    0.125463
   7 H :    0.119437
   8 H :    0.117788
   9 H :    0.103953
  10 H :    0.102120
  11 H :    0.106826
  12 C :   -0.038969
  13 H :    0.093143
  14 H :    0.116060
  15 O :   -0.323413
  16 C :    0.013836
  17 C :    0.033387
  18 C :   -0.245111
  19 C :   -0.038983
  20 O :   -0.331924
  21 H :    0.120320
  22 O :   -0.412318
  23 H :    0.134082
  24 H :    0.128090
  25 H :    0.106254
  26 H :    0.101780
  27 H :    0.104112
  28 H :    0.280887

  Mayer bond orders larger than 0.100000
B(  0-C ,  1-C ) :   0.9209 B(  0-C ,  4-O ) :   0.8905 B(  0-C ,  5-H ) :   0.9359
B(  0-C , 15-O ) :   0.9040 B(  1-C ,  2-C ) :   0.9522 B(  1-C ,  6-H ) :   0.9346
B(  1-C ,  7-H ) :   0.9359 B(  2-C ,  3-C ) :   0.9479 B(  2-C ,  8-H ) :   0.9439
B(  2-C ,  9-H ) :   0.9297 B(  3-C ,  4-O ) :   0.8458 B(  3-C , 10-H ) :   0.9236
B(  3-C , 11-H ) :   0.9379 B( 12-C , 13-H ) :   0.9135 B( 12-C , 14-H ) :   0.9296
B( 12-C , 15-O ) :   0.8247 B( 12-C , 16-C ) :   0.8940 B( 16-C , 17-C ) :   0.9124
B( 16-C , 20-O ) :   0.8356 B( 16-C , 21-H ) :   0.9248 B( 17-C , 18-C ) :   0.9111
B( 17-C , 22-O ) :   0.8878 B( 17-C , 23-H ) :   0.9075 B( 18-C , 19-C ) :   0.9395
B( 18-C , 24-H ) :   0.9377 B( 18-C , 25-H ) :   0.9242 B( 19-C , 20-O ) :   0.8437
B( 19-C , 26-H ) :   0.9359 B( 19-C , 27-H ) :   0.9376 B( 22-O , 28-H ) :   0.7949

FINAL SINGLE POINT ENERGY      -652.853539186640

DIPOLE MOMENT
-------------
                                X             Y             Z
Electronic contribution:     -5.40199      -4.59876       0.10159
Nuclear contribution   :      6.56334       6.03544      -0.54596
                        -----------------------------------------
Total Dipole Moment    :      1.16135       1.43669      -0.44437
                        -----------------------------------------
Magnitude (a.u.)       :      1.90007
Magnitude (Debye)      :      4.82959

Rotational constants in cm-1:     0.044018     0.017190     0.016621
Rotational constants in MHz :  1319.634529   515.347586   498.290113

                             ****ORCA TERMINATED NORMALLY****
TOTAL RUN TIME: 0 days 1 hours 36 minutes 57 seconds 459 msec
