                         Program Version 4.2.0 -  RELEASE  -
|  1> # Test redundant internal optimization
|  2> #
|  3> ! RKS B3LYP  Opt TightSCF SmallPrint
|  4>
|  5> %basis
|  6>         Basis "6-31G"
|  7> end
|  8>
|  9> %geom
| 10> Constraints
| 11> { D 4  0  15  12  270.0   C } # D for Dihedral angle
| 12> { D 0  15  12  16  255.0   C } # D for Dihedral angle
| 13> { D 0  4  3  2   C } # D for Dihedral angle
| 14> { D 4  3  2  1   C } # D for Dihedral angle
| 15> { D 3  2  1  0   C } # D for Dihedral angle
| 16> { D 2  1  0  4   C } # D for Dihedral angle
| 17> { D 1  0  4  3   C } # D for Dihedral angle
| 18> { D 16  20  19  18   C } # D for Dihedral angle
| 19> { D 20  19  18  17   C } # D for Dihedral angle
| 20> { D 19  18  17  16   C } # D for Dihedral angle
| 21> { D 18  17  16  20   C } # D for Dihedral angle
| 22> { D 17  16  20  19   C } # D for Dihedral angle
| 23> { D 15  12  16  20   C } # D for Dihedral angle
| 24> end
| 25> end
| 26>
| 27>
| 28> #%pal
| 29> #nprocs 8
| 30> #end
| 31>
| 32> * xyz 0 1
| 33> C  -21.048   26.222   46.251
| 34> C  -20.361   27.558   45.944
| 35> C  -20.329   28.222   47.341
| 36> C  -20.110   27.022   48.296
| 37> O  -20.473   25.807   47.535
| 38> H  -20.833   25.428   45.533
| 39> H  -19.344   27.382   45.576
| 40> H  -20.898   28.157   45.201
| 41> H  -19.543   28.978   47.434
| 42> H  -21.289   28.710   47.548
| 43> H  -20.733   27.082   49.195
| 44> H  -19.064   26.913   48.597
| 45> C  -23.420   25.119   46.072
| 46> H  -22.760   24.242   46.089
| 47> H  -24.197   24.978   46.835
| 48> O  -22.586   26.394   46.375
| 49> C  -24.122   25.175   44.687
| 50> C  -25.026   23.956   44.472
| 51> C  -26.277   24.344   45.294
| 52> C  -26.367   25.878   45.094
| 53> O  -25.037   26.319   44.623
| 54> H  -23.369   25.323   43.910
| 55> H  -25.277   23.856   43.410
| 56> O  -24.380   22.626   44.949
| 57> H  -27.182   23.826   44.960
| 58> H  -26.123   24.101   46.352
| 59> H  -26.613   26.408   46.022
| 60> H  -27.092   26.157   44.324
| 61> H  -24.121   22.701   46.010
| 62> *
| 63>
| 64>                          ****END OF INPUT****
 Total Charge           Charge          ....    0
 Multiplicity           Mult            ....    1
 Number of Electrons    NEL             ....  102
FINAL SINGLE POINT ENERGY      -652.829546456252
FINAL SINGLE POINT ENERGY      -652.853474090569
FINAL SINGLE POINT ENERGY      -652.858122972941
FINAL SINGLE POINT ENERGY      -652.858950107541
FINAL SINGLE POINT ENERGY      -652.859097313804
FINAL SINGLE POINT ENERGY      -652.859128754612
FINAL SINGLE POINT ENERGY      -652.859135800139
FINAL SINGLE POINT ENERGY      -652.859137545916
                    ***********************HURRAY********************

CARTESIAN COORDINATES (ANGSTROEM)
---------------------------------
  C    -21.070250   26.153080   46.231225
  C    -20.490006   27.530508   45.909010
  C    -20.463079   28.197229   47.303924
  C    -20.132842   27.018730   48.247361
  O    -20.438009   25.785161   47.480722
  H    -20.834812   25.356020   45.519554
  H    -19.475510   27.411753   45.511017
  H    -21.100487   28.070935   45.183199
  H    -19.726257   29.003598   47.371846
  H    -21.450909   28.608140   47.531097
  H    -20.731161   27.022840   49.162062
  H    -19.071733   26.969199   48.510542
  C    -23.310541   25.120833   46.160833
  H    -22.689739   24.216047   46.202841
  H    -24.030942   25.086906   46.986540
  O    -22.497615   26.307348   46.379696
  C    -24.026085   25.189498   44.811171
  C    -24.945304   23.986646   44.535459
  C    -26.243022   24.393941   45.296067
  C    -26.283883   25.925408   45.100850
  O    -24.914158   26.343076   44.706409
  H    -23.276352   25.317853   44.023691
  H    -25.139404   23.918322   43.462822
  O    -24.401493   22.692120   44.889327
  H    -27.128359   23.889542   44.900343
  H    -26.146941   24.126020   46.356713
  H    -26.572962   26.464294   46.008416
  H    -26.953931   26.220612   44.287577
  H    -24.428216   22.558340   45.858686

 Multiplicity           Mult            ....    1
 Number of Electrons    NEL             ....  102
 Basis Dimension        Dim             ....  149

ORBITAL ENERGIES
----------------

  NO   OCC          E(Eh)            E(eV)
   0   2.0000     -19.151070      -521.1271
   1   2.0000     -19.139147      -520.8027
   2   2.0000     -19.137018      -520.7447
   3   2.0000     -19.133181      -520.6403
   4   2.0000     -10.274451      -279.5820
   5   2.0000     -10.246404      -278.8188
   6   2.0000     -10.230820      -278.3948
   7   2.0000     -10.230682      -278.3910
   8   2.0000     -10.229660      -278.3632
   9   2.0000     -10.219651      -278.0908
  10   2.0000     -10.196839      -277.4701
  11   2.0000     -10.179143      -276.9886
  12   2.0000     -10.178852      -276.9806
  13   2.0000      -1.049030       -28.5456
  14   2.0000      -1.034153       -28.1407
  15   2.0000      -1.015903       -27.6441
  16   2.0000      -0.989350       -26.9216
  17   2.0000      -0.785314       -21.3695
  18   2.0000      -0.780910       -21.2496
  19   2.0000      -0.764857       -20.8128
  20   2.0000      -0.728007       -19.8101
  21   2.0000      -0.678799       -18.4711
  22   2.0000      -0.612674       -16.6717
  23   2.0000      -0.595915       -16.2157
  24   2.0000      -0.590980       -16.0814
  25   2.0000      -0.572200       -15.5704
  26   2.0000      -0.531117       -14.4524
  27   2.0000      -0.510916       -13.9027
  28   2.0000      -0.495588       -13.4856
  29   2.0000      -0.488706       -13.2984
  30   2.0000      -0.465707       -12.6725
  31   2.0000      -0.450309       -12.2535
  32   2.0000      -0.443161       -12.0590
  33   2.0000      -0.435492       -11.8504
  34   2.0000      -0.428504       -11.6602
  35   2.0000      -0.417462       -11.3597
  36   2.0000      -0.408133       -11.1059
  37   2.0000      -0.396304       -10.7840
  38   2.0000      -0.378546       -10.3008
  39   2.0000      -0.363382        -9.8881
  40   2.0000      -0.355330        -9.6690
  41   2.0000      -0.350502        -9.5377
  42   2.0000      -0.342569        -9.3218
  43   2.0000      -0.332149        -9.0382
  44   2.0000      -0.319614        -8.6971
  45   2.0000      -0.314515        -8.5584
  46   2.0000      -0.296654        -8.0724
  47   2.0000      -0.272568        -7.4169
  48   2.0000      -0.268879        -7.3166
  49   2.0000      -0.249405        -6.7867
  50   2.0000      -0.234204        -6.3730
  51   0.0000       0.050396         1.3714
  52   0.0000       0.078041         2.1236
  53   0.0000       0.088631         2.4118
  54   0.0000       0.093830         2.5533
  55   0.0000       0.104356         2.8397

MULLIKEN ATOMIC CHARGES
-----------------------
   0 C :    0.275462
   1 C :   -0.256076
   2 C :   -0.299820
   3 C :   -0.000674
   4 O :   -0.510965
   5 H :    0.140036
   6 H :    0.141860
   7 H :    0.161400
   8 H :    0.138702
   9 H :    0.166138
  10 H :    0.145337
  11 H :    0.139615
  12 C :   -0.026898
  13 H :    0.142161
  14 H :    0.140115
  15 O :   -0.502476
  16 C :    0.095303
  17 C :    0.080421
  18 C :   -0.320511
  19 C :   -0.013841
  20 O :   -0.504701
  21 H :    0.153454
  22 H :    0.169439
  23 O :   -0.599705
  24 H :    0.156671
  25 H :    0.133907
  26 H :    0.148302
  27 H :    0.150474
  28 H :    0.356868
Sum of atomic charges:   -0.0000000

LOEWDIN ATOMIC CHARGES
----------------------
   0 C :    0.170675
   1 C :   -0.216062
   2 C :   -0.216134
   3 C :   -0.027429
   4 O :   -0.330481
   5 H :    0.096263
   6 H :    0.112268
   7 H :    0.126100
   8 H :    0.112285
   9 H :    0.121047
  10 H :    0.104613
  11 H :    0.101023
  12 C :   -0.049867
  13 H :    0.105480
  14 H :    0.104144
  15 O :   -0.314774
  16 C :    0.012237
  17 C :    0.032644
  18 C :   -0.240631
  19 C :   -0.030519
  20 O :   -0.314844
  21 H :    0.113089
  22 H :    0.120103
  23 O :   -0.407543
  24 H :    0.122541
  25 H :    0.104212
  26 H :    0.104913
  27 H :    0.106187
  28 H :    0.278458

  Mayer bond orders larger than 0.100000
B(  0-C ,  1-C ) :   0.9478 B(  0-C ,  4-O ) :   0.9115 B(  0-C ,  5-H ) :   0.9182
B(  0-C , 15-O ) :   0.8647 B(  1-C ,  2-C ) :   0.9578 B(  1-C ,  6-H ) :   0.9402
B(  1-C ,  7-H ) :   0.9354 B(  2-C ,  3-C ) :   0.9549 B(  2-C ,  8-H ) :   0.9455
B(  2-C ,  9-H ) :   0.9435 B(  3-C ,  4-O ) :   0.8397 B(  3-C , 10-H ) :   0.9359
B(  3-C , 11-H ) :   0.9403 B( 12-C , 13-H ) :   0.9055 B( 12-C , 14-H ) :   0.9362
B( 12-C , 15-O ) :   0.8538 B( 12-C , 16-C ) :   0.8921 B( 16-C , 17-C ) :   0.8705
B( 16-C , 20-O ) :   0.8704 B( 16-C , 21-H ) :   0.9325 B( 17-C , 18-C ) :   0.9249
B( 17-C , 22-H ) :   0.9316 B( 17-C , 23-O ) :   0.8966 B( 18-C , 19-C ) :   0.9381
B( 18-C , 24-H ) :   0.9420 B( 18-C , 25-H ) :   0.9411 B( 19-C , 20-O ) :   0.8499
B( 19-C , 26-H ) :   0.9310 B( 19-C , 27-H ) :   0.9374 B( 23-O , 28-H ) :   0.7978

FINAL SINGLE POINT ENERGY      -652.859137994206

DIPOLE MOMENT
-------------
                                X             Y             Z
Electronic contribution:     -0.10616      -2.52086      -1.50635
Nuclear contribution   :     -0.36521       2.59357       1.82916
                        -----------------------------------------
Total Dipole Moment    :     -0.47137       0.07271       0.32281
                        -----------------------------------------
Magnitude (a.u.)       :      0.57592
Magnitude (Debye)      :      1.46386

Rotational constants in cm-1:     0.057955     0.012116     0.011051
Rotational constants in MHz :  1737.449724   363.236865   331.289221

                             ****ORCA TERMINATED NORMALLY****
TOTAL RUN TIME: 0 days 0 hours 24 minutes 18 seconds 431 msec
