                         Program Version 4.2.0 -  RELEASE  -
|  1> # Test redundant internal optimization
|  2> #
|  3> ! RKS B3LYP  Opt TightSCF SmallPrint
|  4>
|  5> %basis
|  6>         Basis "6-31G"
|  7> end
|  8>
|  9> %geom
| 10> Constraints
| 11> { D 4  0  15  12  255.0   C } # D for Dihedral angle
| 12> { D 0  15  12  16  210.0   C } # D for Dihedral angle
| 13> { D 0  4  3  2   C } # D for Dihedral angle
| 14> { D 4  3  2  1   C } # D for Dihedral angle
| 15> { D 3  2  1  0   C } # D for Dihedral angle
| 16> { D 2  1  0  4   C } # D for Dihedral angle
| 17> { D 1  0  4  3   C } # D for Dihedral angle
| 18> { D 16  20  19  18   C } # D for Dihedral angle
| 19> { D 20  19  18  17   C } # D for Dihedral angle
| 20> { D 19  18  17  16   C } # D for Dihedral angle
| 21> { D 18  17  16  20   C } # D for Dihedral angle
| 22> { D 17  16  20  19   C } # D for Dihedral angle
| 23> { D 15  12  16  20   C } # D for Dihedral angle
| 24> end
| 25> end
| 26>
| 27>
| 28> #%pal
| 29> #nprocs 8
| 30> #end
| 31>
| 32> * xyz 0 1
| 33> C  -21.048   26.222   46.251
| 34> C  -20.361   27.558   45.944
| 35> C  -20.329   28.222   47.341
| 36> C  -20.110   27.022   48.296
| 37> O  -20.473   25.807   47.535
| 38> H  -20.833   25.428   45.533
| 39> H  -19.344   27.382   45.576
| 40> H  -20.898   28.157   45.201
| 41> H  -19.543   28.978   47.434
| 42> H  -21.289   28.710   47.548
| 43> H  -20.733   27.082   49.195
| 44> H  -19.064   26.913   48.597
| 45> C  -23.431   25.260   45.734
| 46> H  -22.879   24.831   44.888
| 47> H  -23.617   24.460   46.462
| 48> O  -22.586   26.394   46.375
| 49> C  -24.809   25.757   45.215
| 50> C  -25.604   26.452   46.327
| 51> C  -24.939   27.850   46.360
| 52> C  -24.594   28.110   44.873
| 53> O  -24.629   26.795   44.196
| 54> H  -25.332   24.927   44.738
| 55> H  -26.658   26.533   46.040
| 56> O  -25.521   25.714   47.690
| 57> H  -25.594   28.621   46.778
| 58> H  -24.027   27.818   46.968
| 59> H  -23.601   28.554   44.744
| 60> H  -25.333   28.747   44.377
| 61> H  -24.473   25.622   47.996
| 62> *
| 63>
| 64>                          ****END OF INPUT****
 Total Charge           Charge          ....    0
 Multiplicity           Mult            ....    1
 Number of Electrons    NEL             ....  102
FINAL SINGLE POINT ENERGY      -652.836151887328
FINAL SINGLE POINT ENERGY      -652.859183901900
FINAL SINGLE POINT ENERGY      -652.863612694567
FINAL SINGLE POINT ENERGY      -652.864900325000
FINAL SINGLE POINT ENERGY      -652.865007989779
FINAL SINGLE POINT ENERGY      -652.865028080623
                    ***********************HURRAY********************

CARTESIAN COORDINATES (ANGSTROEM)
---------------------------------
  C    -21.049334   26.151704   46.220226
  C    -20.429333   27.517995   45.925762
  C    -20.423676   28.174854   47.327419
  C    -20.145513   26.979998   48.267122
  O    -20.459920   25.762248   47.478976
  H    -20.813980   25.363271   45.500110
  H    -19.406248   27.377415   45.558173
  H    -20.999633   28.077727   45.181903
  H    -19.669358   28.961908   47.421269
  H    -21.404353   28.613528   47.536587
  H    -20.765760   26.986954   49.167096
  H    -19.093123   26.903400   48.555774
  C    -23.313091   25.249982   45.752979
  H    -22.791196   24.808409   44.893596
  H    -23.492774   24.460019   46.494179
  O    -22.485020   26.304550   46.330402
  C    -24.649464   25.801686   45.270236
  C    -25.522642   26.458220   46.353883
  C    -24.961425   27.913262   46.380024
  C    -24.604465   28.164489   44.899667
  O    -24.526089   26.831138   44.247795
  H    -25.178359   24.964108   44.798967
  H    -26.570744   26.443313   46.047475
  O    -25.496067   25.781221   47.633095
  H    -25.693801   28.628895   46.765589
  H    -24.066654   27.934499   47.006009
  H    -23.643549   28.672798   44.777607
  H    -25.378752   28.728805   44.370363
  H    -24.617677   25.909601   48.049716

 Multiplicity           Mult            ....    1
 Number of Electrons    NEL             ....  102
 Basis Dimension        Dim             ....  149

ORBITAL ENERGIES
----------------

  NO   OCC          E(Eh)            E(eV)
   0   2.0000     -19.151726      -521.1450
   1   2.0000     -19.143274      -520.9150
   2   2.0000     -19.138772      -520.7925
   3   2.0000     -19.135054      -520.6913
   4   2.0000     -10.284902      -279.8664
   5   2.0000     -10.236758      -278.5563
   6   2.0000     -10.233393      -278.4648
   7   2.0000     -10.231186      -278.4047
   8   2.0000     -10.229450      -278.3575
   9   2.0000     -10.223601      -278.1983
  10   2.0000     -10.191008      -277.3114
  11   2.0000     -10.189332      -277.2658
  12   2.0000     -10.179937      -277.0102
  13   2.0000      -1.058245       -28.7963
  14   2.0000      -1.027165       -27.9506
  15   2.0000      -1.009515       -27.4703
  16   2.0000      -0.998656       -27.1748
  17   2.0000      -0.791977       -21.5508
  18   2.0000      -0.773389       -21.0450
  19   2.0000      -0.766691       -20.8627
  20   2.0000      -0.733777       -19.9671
  21   2.0000      -0.678733       -18.4693
  22   2.0000      -0.603399       -16.4193
  23   2.0000      -0.602204       -16.3868
  24   2.0000      -0.596870       -16.2417
  25   2.0000      -0.576581       -15.6896
  26   2.0000      -0.528002       -14.3677
  27   2.0000      -0.508754       -13.8439
  28   2.0000      -0.497785       -13.5454
  29   2.0000      -0.490289       -13.3414
  30   2.0000      -0.471501       -12.8302
  31   2.0000      -0.463771       -12.6198
  32   2.0000      -0.440605       -11.9895
  33   2.0000      -0.432814       -11.7775
  34   2.0000      -0.422008       -11.4834
  35   2.0000      -0.417687       -11.3658
  36   2.0000      -0.404267       -11.0007
  37   2.0000      -0.396159       -10.7800
  38   2.0000      -0.383895       -10.4463
  39   2.0000      -0.368325       -10.0226
  40   2.0000      -0.361251        -9.8301
  41   2.0000      -0.353726        -9.6254
  42   2.0000      -0.348414        -9.4808
  43   2.0000      -0.330050        -8.9811
  44   2.0000      -0.321197        -8.7402
  45   2.0000      -0.312493        -8.5034
  46   2.0000      -0.305085        -8.3018
  47   2.0000      -0.274821        -7.4783
  48   2.0000      -0.262826        -7.1519
  49   2.0000      -0.255297        -6.9470
  50   2.0000      -0.239107        -6.5064
  51   0.0000       0.062377         1.6974
  52   0.0000       0.072443         1.9713
  53   0.0000       0.086959         2.3663
  54   0.0000       0.096783         2.6336
  55   0.0000       0.106929         2.9097

MULLIKEN ATOMIC CHARGES
-----------------------
   0 C :    0.291804
   1 C :   -0.259760
   2 C :   -0.303998
   3 C :   -0.002141
   4 O :   -0.505203
   5 H :    0.146377
   6 H :    0.147605
   7 H :    0.157699
   8 H :    0.144832
   9 H :    0.156584
  10 H :    0.146526
  11 H :    0.144861
  12 C :   -0.015638
  13 H :    0.142412
  14 H :    0.149385
  15 O :   -0.538899
  16 C :    0.091298
  17 C :    0.080718
  18 C :   -0.312848
  19 C :   -0.006225
  20 O :   -0.522646
  21 H :    0.150210
  22 H :    0.163343
  23 O :   -0.606737
  24 H :    0.143363
  25 H :    0.167876
  26 H :    0.139347
  27 H :    0.142616
  28 H :    0.367238
Sum of atomic charges:   -0.0000000

LOEWDIN ATOMIC CHARGES
----------------------
   0 C :    0.177253
   1 C :   -0.218170
   2 C :   -0.217018
   3 C :   -0.027452
   4 O :   -0.321933
   5 H :    0.101523
   6 H :    0.115509
   7 H :    0.122315
   8 H :    0.115365
   9 H :    0.114450
  10 H :    0.105074
  11 H :    0.103892
  12 C :   -0.043992
  13 H :    0.104632
  14 H :    0.105666
  15 O :   -0.339824
  16 C :    0.016670
  17 C :    0.037321
  18 C :   -0.243662
  19 C :   -0.025161
  20 O :   -0.324499
  21 H :    0.115351
  22 H :    0.116457
  23 O :   -0.411280
  24 H :    0.114921
  25 H :    0.120941
  26 H :    0.100114
  27 H :    0.101137
  28 H :    0.284402

  Mayer bond orders larger than 0.100000
B(  0-C ,  1-C ) :   0.9448 B(  0-C ,  4-O ) :   0.9266 B(  0-C ,  5-H ) :   0.9177
B(  0-C , 15-O ) :   0.8393 B(  1-C ,  2-C ) :   0.9569 B(  1-C ,  6-H ) :   0.9375
B(  1-C ,  7-H ) :   0.9344 B(  2-C ,  3-C ) :   0.9533 B(  2-C ,  8-H ) :   0.9448
B(  2-C ,  9-H ) :   0.9439 B(  3-C ,  4-O ) :   0.8390 B(  3-C , 10-H ) :   0.9356
B(  3-C , 11-H ) :   0.9397 B( 12-C , 13-H ) :   0.9210 B( 12-C , 14-H ) :   0.9060
B( 12-C , 15-O ) :   0.8318 B( 12-C , 16-C ) :   0.9121 B( 16-C , 17-C ) :   0.8886
B( 16-C , 20-O ) :   0.8777 B( 16-C , 21-H ) :   0.9263 B( 17-C , 18-C ) :   0.9331
B( 17-C , 22-H ) :   0.9358 B( 17-C , 23-O ) :   0.9046 B( 18-C , 19-C ) :   0.9456
B( 18-C , 24-H ) :   0.9409 B( 18-C , 25-H ) :   0.9250 B( 19-C , 20-O ) :   0.8390
B( 19-C , 26-H ) :   0.9309 B( 19-C , 27-H ) :   0.9373 B( 23-O , 28-H ) :   0.7901

FINAL SINGLE POINT ENERGY      -652.865028269807

DIPOLE MOMENT
-------------
                                X             Y             Z
Electronic contribution:     -2.42658      -4.61227      -0.78747
Nuclear contribution   :      3.18125       5.48569       0.80596
                        -----------------------------------------
Total Dipole Moment    :      0.75467       0.87342       0.01850
                        -----------------------------------------
Magnitude (a.u.)       :      1.15444
Magnitude (Debye)      :      2.93436

Rotational constants in cm-1:     0.044737     0.016144     0.015237
Rotational constants in MHz :  1341.190253   483.982649   456.779801

                             ****ORCA TERMINATED NORMALLY****
TOTAL RUN TIME: 0 days 0 hours 38 minutes 59 seconds 503 msec
