                         Program Version 4.2.0 -  RELEASE  -
|  1> # Test redundant internal optimization
|  2> #
|  3> ! RKS B3LYP  Opt TightSCF SmallPrint
|  4>
|  5> %basis
|  6>         Basis "6-31G"
|  7> end
|  8>
|  9> %geom
| 10> Constraints
| 11> { D 4  0  15  12  180.0   C } # D for Dihedral angle
| 12> { D 0  15  12  16  105.0   C } # D for Dihedral angle
| 13> { D 0  4  3  2   C } # D for Dihedral angle
| 14> { D 4  3  2  1   C } # D for Dihedral angle
| 15> { D 3  2  1  0   C } # D for Dihedral angle
| 16> { D 2  1  0  4   C } # D for Dihedral angle
| 17> { D 1  0  4  3   C } # D for Dihedral angle
| 18> { D 16  20  19  18   C } # D for Dihedral angle
| 19> { D 20  19  18  17   C } # D for Dihedral angle
| 20> { D 19  18  17  16   C } # D for Dihedral angle
| 21> { D 18  17  16  20   C } # D for Dihedral angle
| 22> { D 17  16  20  19   C } # D for Dihedral angle
| 23> { D 15  12  16  20   C } # D for Dihedral angle
| 24> end
| 25> end
| 26>
| 27>
| 28> #%pal
| 29> #nprocs 8
| 30> #end
| 31>
| 32> * xyz 0 1
| 33> C  -21.048   26.222   46.251
| 34> C  -20.361   27.558   45.944
| 35> C  -20.329   28.222   47.341
| 36> C  -20.110   27.022   48.296
| 37> O  -20.473   25.807   47.535
| 38> H  -20.833   25.428   45.533
| 39> H  -19.344   27.382   45.576
| 40> H  -20.898   28.157   45.201
| 41> H  -19.543   28.978   47.434
| 42> H  -21.289   28.710   47.548
| 43> H  -20.733   27.082   49.195
| 44> H  -19.064   26.913   48.597
| 45> C  -23.309   26.834   45.072
| 46> H  -24.019   27.637   45.305
| 47> H  -22.584   27.217   44.342
| 48> O  -22.586   26.394   46.375
| 49> C  -24.090   25.672   44.397
| 50> C  -23.175   24.472   44.122
| 51> C  -23.096   23.812   45.520
| 52> C  -24.510   24.057   46.105
| 53> O  -25.113   25.146   45.306
| 54> H  -24.609   26.055   43.517
| 55> O  -23.847   23.514   43.102
| 56> H  -22.193   24.759   43.732
| 57> H  -22.842   22.748   45.474
| 58> H  -22.334   24.312   46.130
| 59> H  -24.482   24.357   47.158
| 60> H  -25.161   23.184   46.003
| 61> H  -24.833   23.213   43.472
| 62> *
| 63>
| 64>                          ****END OF INPUT****
 Total Charge           Charge          ....    0
 Multiplicity           Mult            ....    1
 Number of Electrons    NEL             ....  102
FINAL SINGLE POINT ENERGY      -652.827495285193
FINAL SINGLE POINT ENERGY      -652.850549141290
FINAL SINGLE POINT ENERGY      -652.855062083158
FINAL SINGLE POINT ENERGY      -652.857580941359
FINAL SINGLE POINT ENERGY      -652.857805516225
FINAL SINGLE POINT ENERGY      -652.857840734776
FINAL SINGLE POINT ENERGY      -652.857841321882
                    ***********************HURRAY********************

CARTESIAN COORDINATES (ANGSTROEM)
---------------------------------
  C    -21.022612   26.263111   46.255019
  C    -20.294289   27.566490   45.931859
  C    -20.346765   28.311418   47.290082
  C    -20.217845   27.163462   48.311827
  O    -20.556586   25.922751   47.564931
  H    -20.790081   25.424645   45.591739
  H    -19.259632   27.334150   45.653276
  H    -20.743511   28.138508   45.116064
  H    -19.548133   29.052482   47.390492
  H    -21.308776   28.820302   47.398518
  H    -20.904261   27.256720   49.156464
  H    -19.197116   27.033343   48.682501
  C    -23.196380   26.806456   45.145916
  H    -23.899203   27.590430   45.442387
  H    -22.521844   27.218396   44.381825
  O    -22.471486   26.448762   46.361046
  C    -24.006895   25.659624   44.533660
  C    -23.240383   24.400352   44.097763
  C    -23.141924   23.609019   45.432955
  C    -24.485602   23.944755   46.129431
  O    -25.015154   25.156488   45.463018
  H    -24.550403   26.076212   43.675625
  O    -23.985931   23.671173   43.083317
  H    -22.271695   24.608189   43.640279
  H    -23.021478   22.540409   45.234175
  H    -22.302623   23.956401   46.036125
  H    -24.356258   24.160143   47.192836
  H    -25.236380   23.156425   46.007894
  H    -24.914753   23.573384   43.381977

 Multiplicity           Mult            ....    1
 Number of Electrons    NEL             ....  102
 Basis Dimension        Dim             ....  149

ORBITAL ENERGIES
----------------

  NO   OCC          E(Eh)            E(eV)
   0   2.0000     -19.146425      -521.0007
   1   2.0000     -19.146059      -520.9908
   2   2.0000     -19.136598      -520.7333
   3   2.0000     -19.136315      -520.7256
   4   2.0000     -10.286316      -279.9049
   5   2.0000     -10.239750      -278.6378
   6   2.0000     -10.234533      -278.4958
   7   2.0000     -10.233148      -278.4581
   8   2.0000     -10.229513      -278.3592
   9   2.0000     -10.220999      -278.1275
  10   2.0000     -10.193812      -277.3877
  11   2.0000     -10.191531      -277.3257
  12   2.0000     -10.178661      -276.9754
  13   2.0000      -1.058619       -28.8065
  14   2.0000      -1.033252       -28.1162
  15   2.0000      -1.004672       -27.3385
  16   2.0000      -0.994920       -27.0732
  17   2.0000      -0.791770       -21.5451
  18   2.0000      -0.775699       -21.1079
  19   2.0000      -0.766119       -20.8472
  20   2.0000      -0.737152       -20.0589
  21   2.0000      -0.678011       -18.4496
  22   2.0000      -0.607630       -16.5344
  23   2.0000      -0.599989       -16.3265
  24   2.0000      -0.597918       -16.2702
  25   2.0000      -0.573988       -15.6190
  26   2.0000      -0.526530       -14.3276
  27   2.0000      -0.510286       -13.8856
  28   2.0000      -0.504175       -13.7193
  29   2.0000      -0.489134       -13.3100
  30   2.0000      -0.472710       -12.8631
  31   2.0000      -0.458821       -12.4852
  32   2.0000      -0.450962       -12.2713
  33   2.0000      -0.438081       -11.9208
  34   2.0000      -0.427079       -11.6214
  35   2.0000      -0.412438       -11.2230
  36   2.0000      -0.406286       -11.0556
  37   2.0000      -0.387903       -10.5554
  38   2.0000      -0.383230       -10.4282
  39   2.0000      -0.365872        -9.9559
  40   2.0000      -0.361744        -9.8436
  41   2.0000      -0.358705        -9.7609
  42   2.0000      -0.354265        -9.6400
  43   2.0000      -0.327327        -8.9070
  44   2.0000      -0.319501        -8.6941
  45   2.0000      -0.307374        -8.3641
  46   2.0000      -0.302717        -8.2374
  47   2.0000      -0.268573        -7.3082
  48   2.0000      -0.267150        -7.2695
  49   2.0000      -0.262455        -7.1418
  50   2.0000      -0.235826        -6.4172
  51   0.0000       0.067811         1.8452
  52   0.0000       0.077079         2.0974
  53   0.0000       0.092891         2.5277
  54   0.0000       0.097423         2.6510
  55   0.0000       0.106084         2.8867

MULLIKEN ATOMIC CHARGES
-----------------------
   0 C :    0.304154
   1 C :   -0.281215
   2 C :   -0.296665
   3 C :   -0.000641
   4 O :   -0.508600
   5 H :    0.139559
   6 H :    0.150186
   7 H :    0.145407
   8 H :    0.144370
   9 H :    0.161371
  10 H :    0.157457
  11 H :    0.144024
  12 C :   -0.024500
  13 H :    0.165692
  14 H :    0.119743
  15 O :   -0.510734
  16 C :    0.080103
  17 C :    0.071370
  18 C :   -0.303587
  19 C :   -0.026025
  20 O :   -0.523224
  21 H :    0.150573
  22 O :   -0.602902
  23 H :    0.140115
  24 H :    0.153785
  25 H :    0.182306
  26 H :    0.166812
  27 H :    0.136933
  28 H :    0.364134
Sum of atomic charges:   -0.0000000

LOEWDIN ATOMIC CHARGES
----------------------
   0 C :    0.175170
   1 C :   -0.230901
   2 C :   -0.215604
   3 C :   -0.023586
   4 O :   -0.304062
   5 H :    0.092732
   6 H :    0.116825
   7 H :    0.114121
   8 H :    0.115575
   9 H :    0.118573
  10 H :    0.111378
  11 H :    0.103719
  12 C :   -0.044904
  13 H :    0.120358
  14 H :    0.093710
  15 O :   -0.332961
  16 C :    0.007413
  17 C :    0.035093
  18 C :   -0.242578
  19 C :   -0.034149
  20 O :   -0.328709
  21 H :    0.113866
  22 O :   -0.415524
  23 H :    0.108842
  24 H :    0.121121
  25 H :    0.129977
  26 H :    0.115218
  27 H :    0.096290
  28 H :    0.282996

  Mayer bond orders larger than 0.100000
B(  0-C ,  1-C ) :   0.9307 B(  0-C ,  4-O ) :   0.9322 B(  0-C ,  5-H ) :   0.9104
B(  0-C , 15-O ) :   0.8253 B(  1-C ,  2-C ) :   0.9502 B(  1-C ,  6-H ) :   0.9334
B(  1-C ,  7-H ) :   0.9305 B(  2-C ,  3-C ) :   0.9562 B(  2-C ,  8-H ) :   0.9447
B(  2-C ,  9-H ) :   0.9446 B(  3-C ,  4-O ) :   0.8311 B(  3-C , 10-H ) :   0.9344
B(  3-C , 11-H ) :   0.9397 B( 12-C , 13-H ) :   0.9305 B( 12-C , 14-H ) :   0.9074
B( 12-C , 15-O ) :   0.8666 B( 12-C , 16-C ) :   0.8858 B( 16-C , 17-C ) :   0.9084
B( 16-C , 20-O ) :   0.8757 B( 16-C , 21-H ) :   0.9174 B( 17-C , 18-C ) :   0.9208
B( 17-C , 22-O ) :   0.8905 B( 17-C , 23-H ) :   0.9346 B( 18-C , 19-C ) :   0.9444
B( 18-C , 24-H ) :   0.9368 B( 18-C , 25-H ) :   0.9144 B( 19-C , 20-O ) :   0.8368
B( 19-C , 26-H ) :   0.9310 B( 19-C , 27-H ) :   0.9368 B( 22-O , 28-H ) :   0.7948

FINAL SINGLE POINT ENERGY      -652.857825951931

DIPOLE MOMENT
-------------
                                X             Y             Z
Electronic contribution:     -3.76932      -2.85708      -1.06232
Nuclear contribution   :      4.55605       3.75973       1.04215
                        -----------------------------------------
Total Dipole Moment    :      0.78673       0.90265      -0.02017
                        -----------------------------------------
Magnitude (a.u.)       :      1.19755
Magnitude (Debye)      :      3.04394

Rotational constants in cm-1:     0.057605     0.013991     0.013598
Rotational constants in MHz :  1726.944234   419.443660   407.669710

                             ****ORCA TERMINATED NORMALLY****
TOTAL RUN TIME: 0 days 0 hours 52 minutes 10 seconds 81 msec
