                         Program Version 4.2.0 -  RELEASE  -
|  1> # Test redundant internal optimization
|  2> #
|  3> ! RKS B3LYP  Opt TightSCF SmallPrint
|  4>
|  5> %basis
|  6>         Basis "6-31G"
|  7> end
|  8>
|  9> %geom
| 10> Constraints
| 11> { D 4  0  15  12  90.0   C } # D for Dihedral angle
| 12> { D 0  15  12  16  180.0   C } # D for Dihedral angle
| 13> { D 0  4  3  2   C } # D for Dihedral angle
| 14> { D 4  3  2  1   C } # D for Dihedral angle
| 15> { D 3  2  1  0   C } # D for Dihedral angle
| 16> { D 2  1  0  4   C } # D for Dihedral angle
| 17> { D 1  0  4  3   C } # D for Dihedral angle
| 18> { D 16  20  19  18   C } # D for Dihedral angle
| 19> { D 20  19  18  17   C } # D for Dihedral angle
| 20> { D 19  18  17  16   C } # D for Dihedral angle
| 21> { D 18  17  16  20   C } # D for Dihedral angle
| 22> { D 17  16  20  19   C } # D for Dihedral angle
| 23> { D 15  12  16  20   C } # D for Dihedral angle
| 24> end
| 25> end
| 26>
| 27>
| 28> #%pal
| 29> #nprocs 8
| 30> #end
| 31>
| 32> * xyz 0 1
| 33> C  -21.048   26.222   46.251
| 34> C  -20.361   27.558   45.944
| 35> C  -20.329   28.222   47.341
| 36> C  -20.110   27.022   48.296
| 37> O  -20.473   25.807   47.535
| 38> H  -20.833   25.428   45.533
| 39> H  -19.344   27.382   45.576
| 40> H  -20.898   28.157   45.201
| 41> H  -19.543   28.978   47.434
| 42> H  -21.289   28.710   47.548
| 43> H  -20.733   27.082   49.195
| 44> H  -19.064   26.913   48.597
| 45> C  -23.061   27.816   46.783
| 46> H  -22.628   28.076   47.757
| 47> H  -22.724   28.559   46.049
| 48> O  -22.586   26.394   46.375
| 49> C  -24.607   27.924   46.891
| 50> C  -25.150   27.039   48.018
| 51> C  -24.849   27.901   49.267
| 52> C  -25.057   29.348   48.754
| 53> O  -24.999   29.284   47.278
| 54> H  -25.048   27.731   45.911
| 55> O  -26.681   26.839   47.846
| 56> H  -24.676   26.052   48.057
| 57> H  -25.497   27.661   50.115
| 58> H  -23.810   27.750   49.586
| 59> H  -24.285   30.036   49.114
| 60> H  -26.039   29.748   49.021
| 61> H  -27.178   27.815   47.805
| 62> *
| 63>
| 64>                          ****END OF INPUT****
 Total Charge           Charge          ....    0
 Multiplicity           Mult            ....    1
 Number of Electrons    NEL             ....  102
FINAL SINGLE POINT ENERGY      -652.814739119919
FINAL SINGLE POINT ENERGY      -652.842500768195
FINAL SINGLE POINT ENERGY      -652.856596035893
FINAL SINGLE POINT ENERGY      -652.858729130346
FINAL SINGLE POINT ENERGY      -652.859091885920
FINAL SINGLE POINT ENERGY      -652.859138595467
FINAL SINGLE POINT ENERGY      -652.859144608305
                    ***********************HURRAY********************

CARTESIAN COORDINATES (ANGSTROEM)
---------------------------------
  C    -21.246772   26.371683   46.395797
  C    -20.292623   27.461326   45.888288
  C    -19.894282   28.183644   47.207363
  C    -19.857320   27.019720   48.230155
  O    -20.625185   25.908919   47.617306
  H    -21.289317   25.494748   45.748595
  H    -19.422776   26.974553   45.436125
  H    -20.744015   28.123973   45.144755
  H    -18.924315   28.684187   47.126770
  H    -20.632997   28.940189   47.481576
  H    -20.308302   27.277736   49.193327
  H    -18.842813   26.648458   48.401521
  C    -23.093430   28.038579   46.911704
  H    -22.695760   28.340173   47.889388
  H    -22.794428   28.785443   46.166356
  O    -22.642243   26.704688   46.547922
  C    -24.618617   27.968773   46.966683
  C    -25.189437   27.019885   48.029308
  C    -25.074513   27.881008   49.312509
  C    -25.351282   29.316916   48.802597
  O    -25.152881   29.286572   47.330273
  H    -25.008001   27.720727   45.975624
  O    -26.573839   26.687998   47.729048
  H    -24.657316   26.072210   48.082040
  H    -25.794706   27.550213   50.064615
  H    -24.069181   27.794777   49.740166
  H    -24.677031   30.061972   49.235945
  H    -26.382874   29.635462   48.980332
  H    -27.043743   27.499469   47.441911

 Multiplicity           Mult            ....    1
 Number of Electrons    NEL             ....  102
 Basis Dimension        Dim             ....  149

ORBITAL ENERGIES
----------------

  NO   OCC          E(Eh)            E(eV)
   0   2.0000     -19.149353      -521.0804
   1   2.0000     -19.145697      -520.9809
   2   2.0000     -19.142394      -520.8910
   3   2.0000     -19.132482      -520.6213
   4   2.0000     -10.281875      -279.7840
   5   2.0000     -10.235908      -278.5332
   6   2.0000     -10.233091      -278.4566
   7   2.0000     -10.232883      -278.4509
   8   2.0000     -10.232148      -278.4309
   9   2.0000     -10.231939      -278.4252
  10   2.0000     -10.196871      -277.4710
  11   2.0000     -10.196684      -277.4659
  12   2.0000     -10.186593      -277.1913
  13   2.0000      -1.054979       -28.7074
  14   2.0000      -1.035458       -28.1762
  15   2.0000      -1.003128       -27.2965
  16   2.0000      -0.999782       -27.2055
  17   2.0000      -0.793125       -21.5820
  18   2.0000      -0.782448       -21.2915
  19   2.0000      -0.771222       -20.9860
  20   2.0000      -0.733786       -19.9673
  21   2.0000      -0.681078       -18.5331
  22   2.0000      -0.608232       -16.5508
  23   2.0000      -0.603457       -16.4209
  24   2.0000      -0.597686       -16.2639
  25   2.0000      -0.577120       -15.7042
  26   2.0000      -0.521738       -14.1972
  27   2.0000      -0.516993       -14.0681
  28   2.0000      -0.506514       -13.7829
  29   2.0000      -0.491620       -13.3777
  30   2.0000      -0.473253       -12.8779
  31   2.0000      -0.459893       -12.5143
  32   2.0000      -0.451633       -12.2896
  33   2.0000      -0.438578       -11.9343
  34   2.0000      -0.429087       -11.6760
  35   2.0000      -0.416690       -11.3387
  36   2.0000      -0.410068       -11.1585
  37   2.0000      -0.391329       -10.6486
  38   2.0000      -0.387071       -10.5327
  39   2.0000      -0.367161        -9.9910
  40   2.0000      -0.365708        -9.9514
  41   2.0000      -0.360841        -9.8190
  42   2.0000      -0.352218        -9.5843
  43   2.0000      -0.331138        -9.0107
  44   2.0000      -0.318075        -8.6553
  45   2.0000      -0.307193        -8.3591
  46   2.0000      -0.300958        -8.1895
  47   2.0000      -0.273429        -7.4404
  48   2.0000      -0.268211        -7.2984
  49   2.0000      -0.256601        -6.9825
  50   2.0000      -0.247406        -6.7323
  51   0.0000       0.060698         1.6517
  52   0.0000       0.065195         1.7740
  53   0.0000       0.089317         2.4304
  54   0.0000       0.096291         2.6202
  55   0.0000       0.101577         2.7640

MULLIKEN ATOMIC CHARGES
-----------------------
   0 C :    0.307418
   1 C :   -0.292762
   2 C :   -0.312806
   3 C :   -0.007851
   4 O :   -0.499655
   5 H :    0.167844
   6 H :    0.159878
   7 H :    0.151818
   8 H :    0.146887
   9 H :    0.149728
  10 H :    0.141748
  11 H :    0.148367
  12 C :   -0.002935
  13 H :    0.127791
  14 H :    0.145956
  15 O :   -0.526710
  16 C :    0.054945
  17 C :    0.094098
  18 C :   -0.302689
  19 C :   -0.030114
  20 O :   -0.530347
  21 H :    0.166370
  22 O :   -0.603312
  23 H :    0.185073
  24 H :    0.164790
  25 H :    0.144278
  26 H :    0.144799
  27 H :    0.146188
  28 H :    0.361207
Sum of atomic charges:   -0.0000000

LOEWDIN ATOMIC CHARGES
----------------------
   0 C :    0.175015
   1 C :   -0.230029
   2 C :   -0.223375
   3 C :   -0.032657
   4 O :   -0.320194
   5 H :    0.113596
   6 H :    0.124551
   7 H :    0.118628
   8 H :    0.116705
   9 H :    0.110165
  10 H :    0.101344
  11 H :    0.105209
  12 C :   -0.040169
  13 H :    0.090455
  14 H :    0.102475
  15 O :   -0.321400
  16 C :    0.019035
  17 C :    0.039836
  18 C :   -0.241961
  19 C :   -0.038394
  20 O :   -0.332862
  21 H :    0.119291
  22 O :   -0.414211
  23 H :    0.132253
  24 H :    0.127747
  25 H :    0.113027
  26 H :    0.102664
  27 H :    0.102848
  28 H :    0.280410

  Mayer bond orders larger than 0.100000
B(  0-C ,  1-C ) :   0.9251 B(  0-C ,  4-O ) :   0.9059 B(  0-C ,  5-H ) :   0.9352
B(  0-C , 15-O ) :   0.8896 B(  1-C ,  2-C ) :   0.9525 B(  1-C ,  6-H ) :   0.9350
B(  1-C ,  7-H ) :   0.9338 B(  2-C ,  3-C ) :   0.9473 B(  2-C ,  8-H ) :   0.9452
B(  2-C ,  9-H ) :   0.9401 B(  3-C ,  4-O ) :   0.8484 B(  3-C , 10-H ) :   0.9346
B(  3-C , 11-H ) :   0.9387 B( 12-C , 13-H ) :   0.9109 B( 12-C , 14-H ) :   0.9125
B( 12-C , 15-O ) :   0.8289 B( 12-C , 16-C ) :   0.9040 B( 16-C , 17-C ) :   0.9142
B( 16-C , 20-O ) :   0.8466 B( 16-C , 21-H ) :   0.9246 B( 17-C , 18-C ) :   0.9133
B( 17-C , 22-O ) :   0.8866 B( 17-C , 23-H ) :   0.9206 B( 18-C , 19-C ) :   0.9402
B( 18-C , 24-H ) :   0.9377 B( 18-C , 25-H ) :   0.9344 B( 19-C , 20-O ) :   0.8419
B( 19-C , 26-H ) :   0.9358 B( 19-C , 27-H ) :   0.9388 B( 22-O , 28-H ) :   0.7966

FINAL SINGLE POINT ENERGY      -652.859137080251

DIPOLE MOMENT
-------------
                                X             Y             Z
Electronic contribution:     -4.46267      -3.64354      -2.29719
Nuclear contribution   :      5.54145       4.89913       2.55526
                        -----------------------------------------
Total Dipole Moment    :      1.07878       1.25559       0.25807
                        -----------------------------------------
Magnitude (a.u.)       :      1.67537
Magnitude (Debye)      :      4.25846

Rotational constants in cm-1:     0.052262     0.013405     0.012962
Rotational constants in MHz :  1566.782388   401.860317   388.578551

                             ****ORCA TERMINATED NORMALLY****
TOTAL RUN TIME: 0 days 2 hours 5 minutes 44 seconds 133 msec
