                         Program Version 4.2.0 -  RELEASE  -
|  1> # Test redundant internal optimization
|  2> #
|  3> ! RKS B3LYP  Opt TightSCF SmallPrint
|  4>
|  5> %basis
|  6>         Basis "6-31G"
|  7> end
|  8>
|  9> %geom
| 10> Constraints
| 11> { D 4  0  15  12  75.0   C } # D for Dihedral angle
| 12> { D 0  15  12  16  120.0   C } # D for Dihedral angle
| 13> { D 0  4  3  2   C } # D for Dihedral angle
| 14> { D 4  3  2  1   C } # D for Dihedral angle
| 15> { D 3  2  1  0   C } # D for Dihedral angle
| 16> { D 2  1  0  4   C } # D for Dihedral angle
| 17> { D 1  0  4  3   C } # D for Dihedral angle
| 18> { D 16  20  19  18   C } # D for Dihedral angle
| 19> { D 20  19  18  17   C } # D for Dihedral angle
| 20> { D 19  18  17  16   C } # D for Dihedral angle
| 21> { D 18  17  16  20   C } # D for Dihedral angle
| 22> { D 17  16  20  19   C } # D for Dihedral angle
| 23> { D 15  12  16  20   C } # D for Dihedral angle
| 24> end
| 25> end
| 26>
| 27>
| 28> #%pal
| 29> #nprocs 8
| 30> #end
| 31>
| 32> * xyz 0 1
| 33> C  -21.048   26.222   46.251
| 34> C  -20.361   27.558   45.944
| 35> C  -20.329   28.222   47.341
| 36> C  -20.110   27.022   48.296
| 37> O  -20.473   25.807   47.535
| 38> H  -20.833   25.428   45.533
| 39> H  -19.344   27.382   45.576
| 40> H  -20.898   28.157   45.201
| 41> H  -19.543   28.978   47.434
| 42> H  -21.289   28.710   47.548
| 43> H  -20.733   27.082   49.195
| 44> H  -19.064   26.913   48.597
| 45> C  -23.049   27.675   47.122
| 46> H  -23.631   27.387   48.006
| 47> H  -22.182   28.259   47.457
| 48> O  -22.586   26.394   46.375
| 49> C  -23.929   28.601   46.237
| 50> C  -24.271   29.905   46.965
| 51> C  -22.966   30.716   46.785
| 52> C  -22.480   30.292   45.377
| 53> O  -23.185   29.034   45.050
| 54> H  -24.797   28.039   45.884
| 55> H  -25.109   30.406   46.468
| 56> O  -24.646   29.691   48.458
| 57> H  -23.123   31.797   46.865
| 58> H  -22.234   30.427   47.549
| 59> H  -21.399   30.117   45.341
| 60> H  -22.747   31.021   44.606
| 61> H  -23.821   29.192   48.977
| 62> *
| 63>
| 64>                          ****END OF INPUT****
 Total Charge           Charge          ....    0
 Multiplicity           Mult            ....    1
 Number of Electrons    NEL             ....  102
FINAL SINGLE POINT ENERGY      -652.770654296815
FINAL SINGLE POINT ENERGY      -652.821084933212
FINAL SINGLE POINT ENERGY      -652.843429333839
FINAL SINGLE POINT ENERGY      -652.848546149030
FINAL SINGLE POINT ENERGY      -652.849277223672
FINAL SINGLE POINT ENERGY      -652.849525559271
FINAL SINGLE POINT ENERGY      -652.849584032871
FINAL SINGLE POINT ENERGY      -652.849597780473
FINAL SINGLE POINT ENERGY      -652.849599869339
FINAL SINGLE POINT ENERGY      -652.849598809068
                    ***********************HURRAY********************

CARTESIAN COORDINATES (ANGSTROEM)
---------------------------------
  C    -21.162814   26.305399   46.384892
  C    -20.184858   27.404851   45.941627
  C    -19.768533   28.038220   47.302137
  C    -19.755524   26.811019   48.251704
  O    -20.546510   25.756301   47.577054
  H    -21.200335   25.475534   45.677280
  H    -19.323534   26.931335   45.460191
  H    -20.651624   28.105855   45.246683
  H    -18.784285   28.516000   47.252535
  H    -20.480447   28.801698   47.626490
  H    -20.194868   27.018670   49.232864
  H    -18.746723   26.412309   48.393606
  C    -23.101831   27.755771   47.221150
  H    -23.781782   27.365874   47.988033
  H    -22.321955   28.339287   47.719301
  O    -22.559718   26.613944   46.507115
  C    -23.897579   28.619189   46.240869
  C    -24.513497   29.890306   46.851494
  C    -23.314753   30.883811   46.793057
  C    -22.598758   30.483148   45.484814
  O    -23.074495   29.115913   45.137925
  H    -24.652007   27.979346   45.774965
  H    -25.328724   30.240461   46.215132
  O    -25.116974   29.729125   48.156624
  H    -23.641490   31.926821   46.797646
  H    -22.669416   30.728817   47.667954
  H    -21.508247   30.467362   45.582050
  H    -22.868124   31.134529   44.648207
  H    -24.430596   29.583105   48.839599

 Multiplicity           Mult            ....    1
 Number of Electrons    NEL             ....  102
 Basis Dimension        Dim             ....  149

ORBITAL ENERGIES
----------------

  NO   OCC          E(Eh)            E(eV)
   0   2.0000     -19.154399      -521.2177
   1   2.0000     -19.146278      -520.9967
   2   2.0000     -19.139372      -520.8088
   3   2.0000     -19.137462      -520.7568
   4   2.0000     -10.274268      -279.5770
   5   2.0000     -10.250080      -278.9189
   6   2.0000     -10.238329      -278.5991
   7   2.0000     -10.234130      -278.4848
   8   2.0000     -10.233415      -278.4654
   9   2.0000     -10.228749      -278.3384
  10   2.0000     -10.201671      -277.6016
  11   2.0000     -10.194662      -277.4109
  12   2.0000     -10.184895      -277.1451
  13   2.0000      -1.048461       -28.5301
  14   2.0000      -1.037901       -28.2427
  15   2.0000      -1.021285       -27.7906
  16   2.0000      -0.993095       -27.0235
  17   2.0000      -0.789191       -21.4750
  18   2.0000      -0.786265       -21.3954
  19   2.0000      -0.775630       -21.1060
  20   2.0000      -0.733202       -19.9515
  21   2.0000      -0.687533       -18.7087
  22   2.0000      -0.617241       -16.7960
  23   2.0000      -0.603499       -16.4220
  24   2.0000      -0.600832       -16.3495
  25   2.0000      -0.573622       -15.6090
  26   2.0000      -0.530121       -14.4253
  27   2.0000      -0.513934       -13.9849
  28   2.0000      -0.506239       -13.7755
  29   2.0000      -0.491002       -13.3609
  30   2.0000      -0.467928       -12.7330
  31   2.0000      -0.462317       -12.5803
  32   2.0000      -0.451708       -12.2916
  33   2.0000      -0.438081       -11.9208
  34   2.0000      -0.431539       -11.7428
  35   2.0000      -0.418952       -11.4003
  36   2.0000      -0.414527       -11.2799
  37   2.0000      -0.405088       -11.0230
  38   2.0000      -0.385253       -10.4833
  39   2.0000      -0.378853       -10.3091
  40   2.0000      -0.362059        -9.8521
  41   2.0000      -0.357766        -9.7353
  42   2.0000      -0.345169        -9.3925
  43   2.0000      -0.338231        -9.2037
  44   2.0000      -0.319914        -8.7053
  45   2.0000      -0.312434        -8.5018
  46   2.0000      -0.298046        -8.1102
  47   2.0000      -0.275989        -7.5100
  48   2.0000      -0.266028        -7.2390
  49   2.0000      -0.257505        -7.0071
  50   2.0000      -0.240230        -6.5370
  51   0.0000       0.041476         1.1286
  52   0.0000       0.054200         1.4749
  53   0.0000       0.082006         2.2315
  54   0.0000       0.088012         2.3949
  55   0.0000       0.098585         2.6826

MULLIKEN ATOMIC CHARGES
-----------------------
   0 C :    0.305314
   1 C :   -0.289890
   2 C :   -0.319856
   3 C :   -0.008391
   4 O :   -0.503355
   5 H :    0.168535
   6 H :    0.152668
   7 H :    0.178765
   8 H :    0.142971
   9 H :    0.137700
  10 H :    0.138851
  11 H :    0.147901
  12 C :   -0.018488
  13 H :    0.155550
  14 H :    0.108719
  15 O :   -0.514911
  16 C :    0.095032
  17 C :    0.082968
  18 C :   -0.317162
  19 C :   -0.025256
  20 O :   -0.507589
  21 H :    0.171031
  22 H :    0.170868
  23 O :   -0.596002
  24 H :    0.160337
  25 H :    0.128663
  26 H :    0.143446
  27 H :    0.156061
  28 H :    0.355521
Sum of atomic charges:   -0.0000000

LOEWDIN ATOMIC CHARGES
----------------------
   0 C :    0.178700
   1 C :   -0.232450
   2 C :   -0.225297
   3 C :   -0.034815
   4 O :   -0.323427
   5 H :    0.114745
   6 H :    0.121045
   7 H :    0.131439
   8 H :    0.114259
   9 H :    0.099862
  10 H :    0.099491
  11 H :    0.104905
  12 C :   -0.049893
  13 H :    0.112733
  14 H :    0.087664
  15 O :   -0.308495
  16 C :    0.015586
  17 C :    0.035003
  18 C :   -0.240411
  19 C :   -0.035355
  20 O :   -0.317587
  21 H :    0.122994
  22 H :    0.121314
  23 O :   -0.404150
  24 H :    0.124244
  25 H :    0.101412
  26 H :    0.100036
  27 H :    0.108849
  28 H :    0.277600

  Mayer bond orders larger than 0.100000
B(  0-C ,  1-C ) :   0.9180 B(  0-C ,  4-O ) :   0.8959 B(  0-C ,  5-H ) :   0.9361
B(  0-C , 15-O ) :   0.9054 B(  1-C ,  2-C ) :   0.9562 B(  1-C ,  6-H ) :   0.9347
B(  1-C ,  7-H ) :   0.9183 B(  2-C ,  3-C ) :   0.9447 B(  2-C ,  8-H ) :   0.9449
B(  2-C ,  9-H ) :   0.9369 B(  3-C ,  4-O ) :   0.8543 B(  3-C , 10-H ) :   0.9345
B(  3-C , 11-H ) :   0.9384 B( 12-C , 13-H ) :   0.9167 B( 12-C , 14-H ) :   0.9095
B( 12-C , 15-O ) :   0.8462 B( 12-C , 16-C ) :   0.9023 B( 16-C , 17-C ) :   0.8701
B( 16-C , 20-O ) :   0.8615 B( 16-C , 21-H ) :   0.9279 B( 17-C , 18-C ) :   0.9180
B( 17-C , 22-H ) :   0.9324 B( 17-C , 23-O ) :   0.9017 B( 18-C , 19-C ) :   0.9421
B( 18-C , 24-H ) :   0.9415 B( 18-C , 25-H ) :   0.9416 B( 19-C , 20-O ) :   0.8483
B( 19-C , 26-H ) :   0.9267 B( 19-C , 27-H ) :   0.9369 B( 23-O , 28-H ) :   0.7981

FINAL SINGLE POINT ENERGY      -652.849597130423

DIPOLE MOMENT
-------------
                                X             Y             Z
Electronic contribution:     -4.66009      -4.82263      -1.19460
Nuclear contribution   :      5.67618       6.41794       1.60808
                        -----------------------------------------
Total Dipole Moment    :      1.01609       1.59531       0.41348
                        -----------------------------------------
Magnitude (a.u.)       :      1.93608
Magnitude (Debye)      :      4.92113

Rotational constants in cm-1:     0.045967     0.015914     0.014983
Rotational constants in MHz :  1378.045679   477.082791   449.168001

                             ****ORCA TERMINATED NORMALLY****
TOTAL RUN TIME: 0 days 0 hours 48 minutes 9 seconds 455 msec
