                         Program Version 4.2.0 -  RELEASE  -
|  1> # Test redundant internal optimization
|  2> #
|  3> ! RKS B3LYP  Opt TightSCF SmallPrint
|  4>
|  5> %basis
|  6>         Basis "6-31G"
|  7> end
|  8>
|  9> %geom
| 10> Constraints
| 11> { D 4  0  15  12  165.0   C } # D for Dihedral angle
| 12> { D 0  15  12  16  150.0   C } # D for Dihedral angle
| 13> { D 0  4  3  2   C } # D for Dihedral angle
| 14> { D 4  3  2  1   C } # D for Dihedral angle
| 15> { D 3  2  1  0   C } # D for Dihedral angle
| 16> { D 2  1  0  4   C } # D for Dihedral angle
| 17> { D 1  0  4  3   C } # D for Dihedral angle
| 18> { D 16  20  19  18   C } # D for Dihedral angle
| 19> { D 20  19  18  17   C } # D for Dihedral angle
| 20> { D 19  18  17  16   C } # D for Dihedral angle
| 21> { D 18  17  16  20   C } # D for Dihedral angle
| 22> { D 17  16  20  19   C } # D for Dihedral angle
| 23> { D 15  12  16  20   C } # D for Dihedral angle
| 24> end
| 25> end
| 26>
| 27>
| 28> #%pal
| 29> #nprocs 8
| 30> #end
| 31>
| 32> * xyz 0 1
| 33> C  -21.048   26.222   46.251
| 34> C  -20.361   27.558   45.944
| 35> C  -20.329   28.222   47.341
| 36> C  -20.110   27.022   48.296
| 37> O  -20.473   25.807   47.535
| 38> H  -20.833   25.428   45.533
| 39> H  -19.344   27.382   45.576
| 40> H  -20.898   28.157   45.201
| 41> H  -19.543   28.978   47.434
| 42> H  -21.289   28.710   47.548
| 43> H  -20.733   27.082   49.195
| 44> H  -19.064   26.913   48.597
| 45> C  -23.260   27.170   45.210
| 46> H  -23.268   28.242   45.446
| 47> H  -22.697   27.029   44.278
| 48> O  -22.586   26.394   46.375
| 49> C  -24.723   26.715   44.953
| 50> C  -25.624   27.035   46.151
| 51> C  -25.894   28.545   45.947
| 52> C  -25.957   28.685   44.405
| 53> O  -25.310   27.479   43.846
| 54> H  -24.724   25.666   44.653
| 55> O  -26.945   26.223   46.055
| 56> H  -25.154   26.814   47.115
| 57> H  -26.815   28.881   46.434
| 58> H  -25.064   29.134   46.355
| 59> H  -25.431   29.574   44.043
| 60> H  -26.984   28.703   44.029
| 61> H  -27.435   26.429   45.096
| 62> *
| 63>
| 64>                          ****END OF INPUT****
 Total Charge           Charge          ....    0
 Multiplicity           Mult            ....    1
 Number of Electrons    NEL             ....  102
FINAL SINGLE POINT ENERGY      -652.832835214136
FINAL SINGLE POINT ENERGY      -652.855725266845
FINAL SINGLE POINT ENERGY      -652.859438672844
FINAL SINGLE POINT ENERGY      -652.860051106244
FINAL SINGLE POINT ENERGY      -652.860137720746
FINAL SINGLE POINT ENERGY      -652.860149013035
                    ***********************HURRAY********************

CARTESIAN COORDINATES (ANGSTROEM)
---------------------------------
  C    -21.154309   26.253823   46.175479
  C    -20.322170   27.508770   45.917599
  C    -20.363812   28.213647   47.297427
  C    -20.352675   27.027682   48.283725
  O    -20.756706   25.839915   47.487655
  H    -20.967302   25.418900   45.493717
  H    -19.299004   27.205641   45.667413
  H    -20.695811   28.135147   45.103508
  H    -19.517086   28.890128   47.446724
  H    -21.288036   28.791957   47.396460
  H    -21.055391   27.146956   49.111887
  H    -19.356178   26.812727   48.680030
  C    -23.182909   27.265222   45.126815
  H    -23.137905   28.345114   45.324921
  H    -22.662393   27.072985   44.178617
  O    -22.591775   26.518517   46.226551
  C    -24.626914   26.787009   44.986061
  C    -25.522803   27.057043   46.202660
  C    -25.887743   28.548939   45.998094
  C    -25.990359   28.681448   44.458456
  O    -25.279485   27.508702   43.886757
  H    -24.630927   25.725046   44.727687
  O    -26.703967   26.208474   46.170889
  H    -25.027908   26.846367   47.149212
  H    -26.822378   28.791122   46.509766
  H    -25.099181   29.193172   46.402857
  H    -25.528267   29.596958   44.076783
  H    -27.023406   28.636888   44.100407
  H    -27.049199   26.170701   45.253843

 Multiplicity           Mult            ....    1
 Number of Electrons    NEL             ....  102
 Basis Dimension        Dim             ....  149

ORBITAL ENERGIES
----------------

  NO   OCC          E(Eh)            E(eV)
   0   2.0000     -19.145209      -520.9676
   1   2.0000     -19.144031      -520.9356
   2   2.0000     -19.143549      -520.9225
   3   2.0000     -19.132500      -520.6218
   4   2.0000     -10.283551      -279.8296
   5   2.0000     -10.234978      -278.5079
   6   2.0000     -10.233785      -278.4755
   7   2.0000     -10.232701      -278.4459
   8   2.0000     -10.231928      -278.4249
   9   2.0000     -10.228811      -278.3401
  10   2.0000     -10.193343      -277.3750
  11   2.0000     -10.193158      -277.3699
  12   2.0000     -10.187091      -277.2048
  13   2.0000      -1.056597       -28.7515
  14   2.0000      -1.035405       -28.1748
  15   2.0000      -1.002745       -27.2861
  16   2.0000      -0.997147       -27.1338
  17   2.0000      -0.792032       -21.5523
  18   2.0000      -0.780074       -21.2269
  19   2.0000      -0.769120       -20.9288
  20   2.0000      -0.733551       -19.9609
  21   2.0000      -0.678427       -18.4609
  22   2.0000      -0.606486       -16.5033
  23   2.0000      -0.603261       -16.4156
  24   2.0000      -0.595149       -16.1948
  25   2.0000      -0.577600       -15.7173
  26   2.0000      -0.522685       -14.2230
  27   2.0000      -0.517822       -14.0906
  28   2.0000      -0.501873       -13.6567
  29   2.0000      -0.493318       -13.4239
  30   2.0000      -0.473608       -12.8875
  31   2.0000      -0.456359       -12.4182
  32   2.0000      -0.454467       -12.3667
  33   2.0000      -0.443905       -12.0793
  34   2.0000      -0.427004       -11.6194
  35   2.0000      -0.413170       -11.2429
  36   2.0000      -0.405369       -11.0307
  37   2.0000      -0.391209       -10.6453
  38   2.0000      -0.381807       -10.3895
  39   2.0000      -0.368048       -10.0151
  40   2.0000      -0.362402        -9.8614
  41   2.0000      -0.360348        -9.8056
  42   2.0000      -0.356450        -9.6995
  43   2.0000      -0.332864        -9.0577
  44   2.0000      -0.317229        -8.6322
  45   2.0000      -0.308240        -8.3876
  46   2.0000      -0.299486        -8.1494
  47   2.0000      -0.271742        -7.3945
  48   2.0000      -0.263937        -7.1821
  49   2.0000      -0.257735        -7.0133
  50   2.0000      -0.244595        -6.6558
  51   0.0000       0.065192         1.7740
  52   0.0000       0.066700         1.8150
  53   0.0000       0.094711         2.5772
  54   0.0000       0.099388         2.7045
  55   0.0000       0.102345         2.7849

MULLIKEN ATOMIC CHARGES
-----------------------
   0 C :    0.312214
   1 C :   -0.288504
   2 C :   -0.298721
   3 C :   -0.000815
   4 O :   -0.498612
   5 H :    0.148087
   6 H :    0.151578
   7 H :    0.146851
   8 H :    0.145279
   9 H :    0.153126
  10 H :    0.155136
  11 H :    0.144604
  12 C :   -0.017700
  13 H :    0.128503
  14 H :    0.144472
  15 O :   -0.520562
  16 C :    0.057416
  17 C :    0.093846
  18 C :   -0.300320
  19 C :   -0.027695
  20 O :   -0.529127
  21 H :    0.166781
  22 O :   -0.603588
  23 H :    0.180523
  24 H :    0.162701
  25 H :    0.144137
  26 H :    0.141931
  27 H :    0.146394
  28 H :    0.362067
Sum of atomic charges:    0.0000000

LOEWDIN ATOMIC CHARGES
----------------------
   0 C :    0.184085
   1 C :   -0.233944
   2 C :   -0.216570
   3 C :   -0.025172
   4 O :   -0.301005
   5 H :    0.100955
   6 H :    0.118644
   7 H :    0.115520
   8 H :    0.115895
   9 H :    0.113460
  10 H :    0.109913
  11 H :    0.104122
  12 C :   -0.044612
  13 H :    0.090813
  14 H :    0.103023
  15 O :   -0.340503
  16 C :    0.017534
  17 C :    0.039837
  18 C :   -0.241987
  19 C :   -0.037657
  20 O :   -0.332978
  21 H :    0.119437
  22 O :   -0.414348
  23 H :    0.130041
  24 H :    0.127163
  25 H :    0.112541
  26 H :    0.102086
  27 H :    0.102728
  28 H :    0.280978

  Mayer bond orders larger than 0.100000
B(  0-C ,  1-C ) :   0.9288 B(  0-C ,  4-O ) :   0.9420 B(  0-C ,  5-H ) :   0.9220
B(  0-C , 15-O ) :   0.8273 B(  1-C ,  2-C ) :   0.9501 B(  1-C ,  6-H ) :   0.9339
B(  1-C ,  7-H ) :   0.9292 B(  2-C ,  3-C ) :   0.9550 B(  2-C ,  8-H ) :   0.9451
B(  2-C ,  9-H ) :   0.9458 B(  3-C ,  4-O ) :   0.8348 B(  3-C , 10-H ) :   0.9344
B(  3-C , 11-H ) :   0.9395 B( 12-C , 13-H ) :   0.9183 B( 12-C , 14-H ) :   0.9160
B( 12-C , 15-O ) :   0.8306 B( 12-C , 16-C ) :   0.8962 B( 16-C , 17-C ) :   0.9155
B( 16-C , 20-O ) :   0.8412 B( 16-C , 21-H ) :   0.9254 B( 17-C , 18-C ) :   0.9113
B( 17-C , 22-O ) :   0.8876 B( 17-C , 23-H ) :   0.9234 B( 18-C , 19-C ) :   0.9390
B( 18-C , 24-H ) :   0.9379 B( 18-C , 25-H ) :   0.9352 B( 19-C , 20-O ) :   0.8443
B( 19-C , 26-H ) :   0.9365 B( 19-C , 27-H ) :   0.9384 B( 22-O , 28-H ) :   0.7958

FINAL SINGLE POINT ENERGY      -652.860150797108

DIPOLE MOMENT
-------------
                                X             Y             Z
Electronic contribution:     -2.83071      -5.93093      -0.79066
Nuclear contribution   :      3.61199       7.50294       0.39459
                        -----------------------------------------
Total Dipole Moment    :      0.78129       1.57201      -0.39607
                        -----------------------------------------
Magnitude (a.u.)       :      1.79958
Magnitude (Debye)      :      4.57417

Rotational constants in cm-1:     0.055325     0.012443     0.011925
Rotational constants in MHz :  1658.587374   373.022276   357.510065

                             ****ORCA TERMINATED NORMALLY****
TOTAL RUN TIME: 0 days 0 hours 56 minutes 33 seconds 694 msec
