                         Program Version 4.2.0 -  RELEASE  -
|  1> # Test redundant internal optimization
|  2> #
|  3> ! RKS B3LYP  Opt TightSCF SmallPrint
|  4>
|  5> %basis
|  6>         Basis "6-31G"
|  7> end
|  8>
|  9> %geom
| 10> Constraints
| 11> { D 4  0  15  12  150.0   C } # D for Dihedral angle
| 12> { D 0  15  12  16  195.0   C } # D for Dihedral angle
| 13> { D 0  4  3  2   C } # D for Dihedral angle
| 14> { D 4  3  2  1   C } # D for Dihedral angle
| 15> { D 3  2  1  0   C } # D for Dihedral angle
| 16> { D 2  1  0  4   C } # D for Dihedral angle
| 17> { D 1  0  4  3   C } # D for Dihedral angle
| 18> { D 16  20  19  18   C } # D for Dihedral angle
| 19> { D 20  19  18  17   C } # D for Dihedral angle
| 20> { D 19  18  17  16   C } # D for Dihedral angle
| 21> { D 18  17  16  20   C } # D for Dihedral angle
| 22> { D 17  16  20  19   C } # D for Dihedral angle
| 23> { D 15  12  16  20   C } # D for Dihedral angle
| 24> end
| 25> end
| 26>
| 27>
| 28> #%pal
| 29> #nprocs 8
| 30> #end
| 31>
| 32> * xyz 0 1
| 33> C  -21.048   26.222   46.251
| 34> C  -20.361   27.558   45.944
| 35> C  -20.329   28.222   47.341
| 36> C  -20.110   27.022   48.296
| 37> O  -20.473   25.807   47.535
| 38> H  -20.833   25.428   45.533
| 39> H  -19.344   27.382   45.576
| 40> H  -20.898   28.157   45.201
| 41> H  -19.543   28.978   47.434
| 42> H  -21.289   28.710   47.548
| 43> H  -20.733   27.082   49.195
| 44> H  -19.064   26.913   48.597
| 45> C  -23.210   27.459   45.431
| 46> H  -22.588   28.363   45.445
| 47> H  -23.247   27.083   44.401
| 48> O  -22.586   26.394   46.375
| 49> C  -24.655   27.854   45.844
| 50> C  -25.280   28.816   44.828
| 51> C  -25.702   27.848   43.697
| 52> C  -26.126   26.572   44.467
| 53> O  -25.534   26.680   45.818
| 54> H  -24.645   28.224   46.871
| 55> H  -26.157   29.307   45.264
| 56> O  -24.295   29.915   44.343
| 57> H  -26.510   28.248   43.075
| 58> H  -24.848   27.638   43.043
| 59> H  -25.765   25.655   43.989
| 60> H  -27.210   26.502   44.594
| 61> H  -23.409   29.448   43.901
| 62> *
| 63>
| 64>                          ****END OF INPUT****
 Total Charge           Charge          ....    0
 Multiplicity           Mult            ....    1
 Number of Electrons    NEL             ....  102
FINAL SINGLE POINT ENERGY      -652.816574590180
FINAL SINGLE POINT ENERGY      -652.840906551988
FINAL SINGLE POINT ENERGY      -652.845610085780
FINAL SINGLE POINT ENERGY      -652.847784380675
FINAL SINGLE POINT ENERGY      -652.848090741662
FINAL SINGLE POINT ENERGY      -652.848210187559
FINAL SINGLE POINT ENERGY      -652.848220443793
FINAL SINGLE POINT ENERGY      -652.848223659000
                    ***********************HURRAY********************

CARTESIAN COORDINATES (ANGSTROEM)
---------------------------------
  C    -21.063770   26.268552   46.218417
  C    -20.188564   27.497721   45.971116
  C    -20.265328   28.230466   47.336506
  C    -20.323985   27.060769   48.342145
  O    -20.726886   25.870027   47.555625
  H    -20.850939   25.414546   45.569480
  H    -19.166146   27.152105   45.780287
  H    -20.490029   28.118478   45.124357
  H    -19.405939   28.885979   47.506238
  H    -21.174183   28.839204   47.392612
  H    -21.053285   27.216604   49.141037
  H    -19.348522   26.831202   48.781197
  C    -23.074117   27.489607   45.297532
  H    -22.523157   28.439047   45.317716
  H    -23.068704   27.105604   44.264015
  O    -22.504740   26.512906   46.199765
  C    -24.497636   27.777103   45.773860
  C    -25.254229   28.778584   44.886257
  C    -25.796551   27.857521   43.751982
  C    -26.104870   26.543316   44.503195
  O    -25.355576   26.598359   45.783231
  H    -24.437039   28.106724   46.814766
  H    -26.080808   29.211483   45.453482
  O    -24.479855   29.918853   44.435023
  H    -26.673137   28.282993   43.256563
  H    -25.015735   27.709892   42.993427
  H    -25.797196   25.652156   43.947271
  H    -27.165312   26.450821   44.756716
  H    -23.905763   29.666376   43.683181

 Multiplicity           Mult            ....    1
 Number of Electrons    NEL             ....  102
 Basis Dimension        Dim             ....  149

ORBITAL ENERGIES
----------------

  NO   OCC          E(Eh)            E(eV)
   0   2.0000     -19.152798      -521.1741
   1   2.0000     -19.136484      -520.7302
   2   2.0000     -19.134947      -520.6884
   3   2.0000     -19.134479      -520.6756
   4   2.0000     -10.277815      -279.6736
   5   2.0000     -10.246461      -278.8204
   6   2.0000     -10.232133      -278.4305
   7   2.0000     -10.230114      -278.3756
   8   2.0000     -10.229376      -278.3555
   9   2.0000     -10.223930      -278.2073
  10   2.0000     -10.197350      -277.4840
  11   2.0000     -10.191674      -277.3295
  12   2.0000     -10.190338      -277.2932
  13   2.0000      -1.049673       -28.5630
  14   2.0000      -1.034907       -28.1612
  15   2.0000      -1.015548       -27.6345
  16   2.0000      -0.989331       -26.9211
  17   2.0000      -0.788319       -21.4512
  18   2.0000      -0.783779       -21.3277
  19   2.0000      -0.769474       -20.9385
  20   2.0000      -0.731553       -19.9066
  21   2.0000      -0.683437       -18.5973
  22   2.0000      -0.612719       -16.6729
  23   2.0000      -0.603408       -16.4196
  24   2.0000      -0.590773       -16.0757
  25   2.0000      -0.572200       -15.5704
  26   2.0000      -0.526682       -14.3317
  27   2.0000      -0.513095       -13.9620
  28   2.0000      -0.501081       -13.6351
  29   2.0000      -0.497362       -13.5339
  30   2.0000      -0.467004       -12.7078
  31   2.0000      -0.459126       -12.4935
  32   2.0000      -0.447887       -12.1876
  33   2.0000      -0.434825       -11.8322
  34   2.0000      -0.430442       -11.7129
  35   2.0000      -0.417614       -11.3639
  36   2.0000      -0.409900       -11.1539
  37   2.0000      -0.396624       -10.7927
  38   2.0000      -0.379167       -10.3177
  39   2.0000      -0.375770       -10.2252
  40   2.0000      -0.361783        -9.8446
  41   2.0000      -0.356683        -9.7058
  42   2.0000      -0.352179        -9.5833
  43   2.0000      -0.331316        -9.0156
  44   2.0000      -0.316968        -8.6251
  45   2.0000      -0.309679        -8.4268
  46   2.0000      -0.292148        -7.9497
  47   2.0000      -0.272765        -7.4223
  48   2.0000      -0.261333        -7.1112
  49   2.0000      -0.246463        -6.7066
  50   2.0000      -0.239347        -6.5130
  51   0.0000       0.046959         1.2778
  52   0.0000       0.073253         1.9933
  53   0.0000       0.085398         2.3238
  54   0.0000       0.090508         2.4629
  55   0.0000       0.105496         2.8707

MULLIKEN ATOMIC CHARGES
-----------------------
   0 C :    0.319194
   1 C :   -0.299143
   2 C :   -0.301633
   3 C :    0.000021
   4 O :   -0.494549
   5 H :    0.147055
   6 H :    0.152861
   7 H :    0.139124
   8 H :    0.144722
   9 H :    0.156015
  10 H :    0.155076
  11 H :    0.142746
  12 C :   -0.014338
  13 H :    0.131007
  14 H :    0.111360
  15 O :   -0.509131
  16 C :    0.098754
  17 C :    0.081444
  18 C :   -0.325879
  19 C :   -0.009572
  20 O :   -0.497950
  21 H :    0.163694
  22 H :    0.169521
  23 O :   -0.601156
  24 H :    0.156777
  25 H :    0.133085
  26 H :    0.145853
  27 H :    0.150350
  28 H :    0.354692
Sum of atomic charges:   -0.0000000

LOEWDIN ATOMIC CHARGES
----------------------
   0 C :    0.184491
   1 C :   -0.235062
   2 C :   -0.217787
   3 C :   -0.026484
   4 O :   -0.303034
   5 H :    0.100106
   6 H :    0.119907
   7 H :    0.111481
   8 H :    0.115592
   9 H :    0.113410
  10 H :    0.109706
  11 H :    0.102946
  12 C :   -0.052684
  13 H :    0.095027
  14 H :    0.082652
  15 O :   -0.321519
  16 C :    0.023477
  17 C :    0.033937
  18 C :   -0.241999
  19 C :   -0.029566
  20 O :   -0.307648
  21 H :    0.119988
  22 H :    0.120202
  23 O :   -0.409546
  24 H :    0.122029
  25 H :    0.103138
  26 H :    0.103949
  27 H :    0.106259
  28 H :    0.277033

  Mayer bond orders larger than 0.100000
B(  0-C ,  1-C ) :   0.9288 B(  0-C ,  4-O ) :   0.9333 B(  0-C ,  5-H ) :   0.9249
B(  0-C , 15-O ) :   0.8448 B(  1-C ,  2-C ) :   0.9499 B(  1-C ,  6-H ) :   0.9338
B(  1-C ,  7-H ) :   0.9282 B(  2-C ,  3-C ) :   0.9528 B(  2-C ,  8-H ) :   0.9454
B(  2-C ,  9-H ) :   0.9438 B(  3-C ,  4-O ) :   0.8391 B(  3-C , 10-H ) :   0.9339
B(  3-C , 11-H ) :   0.9395 B( 12-C , 13-H ) :   0.8888 B( 12-C , 14-H ) :   0.9164
B( 12-C , 15-O ) :   0.8538 B( 12-C , 16-C ) :   0.9041 B( 16-C , 17-C ) :   0.8720
B( 16-C , 20-O ) :   0.8784 B( 16-C , 21-H ) :   0.9285 B( 17-C , 18-C ) :   0.9267
B( 17-C , 22-H ) :   0.9331 B( 17-C , 23-O ) :   0.8907 B( 18-C , 19-C ) :   0.9379
B( 18-C , 24-H ) :   0.9418 B( 18-C , 25-H ) :   0.9400 B( 19-C , 20-O ) :   0.8518
B( 19-C , 26-H ) :   0.9316 B( 19-C , 27-H ) :   0.9375 B( 23-O , 28-H ) :   0.7996

FINAL SINGLE POINT ENERGY      -652.848224192744

DIPOLE MOMENT
-------------
                                X             Y             Z
Electronic contribution:     -2.02955      -3.08557       2.09268
Nuclear contribution   :      2.51791       4.03286      -3.45268
                        -----------------------------------------
Total Dipole Moment    :      0.48836       0.94730      -1.36000
                        -----------------------------------------
Magnitude (a.u.)       :      1.72785
Magnitude (Debye)      :      4.39185

Rotational constants in cm-1:     0.053810     0.013171     0.011770
Rotational constants in MHz :  1613.177574   394.841663   352.860550

                             ****ORCA TERMINATED NORMALLY****
TOTAL RUN TIME: 0 days 1 hours 53 minutes 14 seconds 768 msec
