                         Program Version 4.2.0 -  RELEASE  -
|  1> # Test redundant internal optimization
|  2> #
|  3> ! RKS B3LYP  Opt TightSCF SmallPrint
|  4>
|  5> %basis
|  6>         Basis "6-31G"
|  7> end
|  8>
|  9> %geom
| 10> Constraints
| 11> { D 4  0  15  12  60.0   C } # D for Dihedral angle
| 12> { D 0  15  12  16  195.0   C } # D for Dihedral angle
| 13> { D 0  4  3  2   C } # D for Dihedral angle
| 14> { D 4  3  2  1   C } # D for Dihedral angle
| 15> { D 3  2  1  0   C } # D for Dihedral angle
| 16> { D 2  1  0  4   C } # D for Dihedral angle
| 17> { D 1  0  4  3   C } # D for Dihedral angle
| 18> { D 16  20  19  18   C } # D for Dihedral angle
| 19> { D 20  19  18  17   C } # D for Dihedral angle
| 20> { D 19  18  17  16   C } # D for Dihedral angle
| 21> { D 18  17  16  20   C } # D for Dihedral angle
| 22> { D 17  16  20  19   C } # D for Dihedral angle
| 23> { D 15  12  16  20   C } # D for Dihedral angle
| 24> end
| 25> end
| 26>
| 27>
| 28> #%pal
| 29> #nprocs 8
| 30> #end
| 31>
| 32> * xyz 0 1
| 33> C  -21.048   26.222   46.251
| 34> C  -20.361   27.558   45.944
| 35> C  -20.329   28.222   47.341
| 36> C  -20.110   27.022   48.296
| 37> O  -20.473   25.807   47.535
| 38> H  -20.833   25.428   45.533
| 39> H  -19.344   27.382   45.576
| 40> H  -20.898   28.157   45.201
| 41> H  -19.543   28.978   47.434
| 42> H  -21.289   28.710   47.548
| 43> H  -20.733   27.082   49.195
| 44> H  -19.064   26.913   48.597
| 45> C  -23.051   27.452   47.413
| 46> H  -22.470   27.332   48.337
| 47> H  -22.881   28.466   47.030
| 48> O  -22.586   26.394   46.375
| 49> C  -24.559   27.326   47.765
| 50> C  -24.858   25.995   48.466
| 51> C  -24.387   26.289   49.910
| 52> C  -24.750   27.784   50.101
| 53> O  -24.943   28.345   48.747
| 54> H  -25.152   27.507   46.867
| 55> H  -25.935   25.793   48.444
| 56> O  -24.119   24.789   47.825
| 57> H  -24.868   25.645   50.653
| 58> H  -23.304   26.141   49.990
| 59> H  -23.960   28.344   50.613
| 60> H  -25.689   27.919   50.644
| 61> H  -23.039   24.970   47.836
| 62> *
| 63>
| 64>                          ****END OF INPUT****
 Total Charge           Charge          ....    0
 Multiplicity           Mult            ....    1
 Number of Electrons    NEL             ....  102
FINAL SINGLE POINT ENERGY      -652.814722734936
FINAL SINGLE POINT ENERGY      -652.842761164133
FINAL SINGLE POINT ENERGY      -652.856505870745
FINAL SINGLE POINT ENERGY      -652.859842454729
FINAL SINGLE POINT ENERGY      -652.861299104161
FINAL SINGLE POINT ENERGY      -652.862144912659
FINAL SINGLE POINT ENERGY      -652.862501956818
FINAL SINGLE POINT ENERGY      -652.862587125812
FINAL SINGLE POINT ENERGY      -652.862605099482
                    ***********************HURRAY********************

CARTESIAN COORDINATES (ANGSTROEM)
---------------------------------
  C    -21.138316   26.332727   46.435112
  C    -20.333856   27.523099   45.897950
  C    -19.977894   28.289544   47.204131
  C    -19.772877   27.142702   48.224480
  O    -20.430876   25.947513   47.631003
  H    -21.119387   25.465668   45.773899
  H    -19.430354   27.141067   45.411997
  H    -20.894903   28.123804   45.177405
  H    -19.074372   28.897020   47.093248
  H    -20.789432   28.957528   47.502747
  H    -20.218639   27.343936   49.202795
  H    -18.718744   26.884745   48.358631
  C    -23.077401   27.536551   47.556657
  H    -22.526422   27.481584   48.501777
  H    -22.980248   28.542596   47.136461
  O    -22.564817   26.530307   46.618249
  C    -24.563345   27.241938   47.797286
  C    -24.875701   25.896081   48.477224
  C    -24.548071   26.212038   49.966756
  C    -24.981562   27.684730   50.114840
  O    -25.072599   28.243388   48.732596
  H    -25.115308   27.364382   46.861788
  H    -25.950839   25.706690   48.380185
  O    -24.194819   24.742930   47.955730
  H    -25.079226   25.542618   50.647930
  H    -23.473701   26.075360   50.131399
  H    -24.275929   28.291559   50.691466
  H    -25.976763   27.788478   50.556806
  H    -23.419601   25.041418   47.426449

 Multiplicity           Mult            ....    1
 Number of Electrons    NEL             ....  102
 Basis Dimension        Dim             ....  149

ORBITAL ENERGIES
----------------

  NO   OCC          E(Eh)            E(eV)
   0   2.0000     -19.166852      -521.5566
   1   2.0000     -19.156774      -521.2823
   2   2.0000     -19.140559      -520.8411
   3   2.0000     -19.110687      -520.0282
   4   2.0000     -10.292783      -280.0809
   5   2.0000     -10.241051      -278.6732
   6   2.0000     -10.240448      -278.6568
   7   2.0000     -10.234220      -278.4873
   8   2.0000     -10.228871      -278.3417
   9   2.0000     -10.226911      -278.2884
  10   2.0000     -10.202452      -277.6228
  11   2.0000     -10.200987      -277.5830
  12   2.0000     -10.177727      -276.9500
  13   2.0000      -1.068261       -29.0689
  14   2.0000      -1.026277       -27.9264
  15   2.0000      -1.010795       -27.5051
  16   2.0000      -0.991731       -26.9864
  17   2.0000      -0.799595       -21.7581
  18   2.0000      -0.779957       -21.2237
  19   2.0000      -0.767796       -20.8928
  20   2.0000      -0.738777       -20.1032
  21   2.0000      -0.683262       -18.5925
  22   2.0000      -0.615077       -16.7371
  23   2.0000      -0.603260       -16.4155
  24   2.0000      -0.595579       -16.2065
  25   2.0000      -0.578191       -15.7334
  26   2.0000      -0.525607       -14.3025
  27   2.0000      -0.521224       -14.1832
  28   2.0000      -0.512589       -13.9483
  29   2.0000      -0.486463       -13.2373
  30   2.0000      -0.476525       -12.9669
  31   2.0000      -0.465553       -12.6683
  32   2.0000      -0.443135       -12.0583
  33   2.0000      -0.433025       -11.7832
  34   2.0000      -0.427697       -11.6382
  35   2.0000      -0.423280       -11.5180
  36   2.0000      -0.412942       -11.2367
  37   2.0000      -0.392338       -10.6761
  38   2.0000      -0.387971       -10.5572
  39   2.0000      -0.371763       -10.1162
  40   2.0000      -0.367450        -9.9988
  41   2.0000      -0.362064        -9.8523
  42   2.0000      -0.347720        -9.4620
  43   2.0000      -0.339085        -9.2270
  44   2.0000      -0.327965        -8.9244
  45   2.0000      -0.322706        -8.7813
  46   2.0000      -0.296484        -8.0678
  47   2.0000      -0.276437        -7.5222
  48   2.0000      -0.266952        -7.2641
  49   2.0000      -0.249683        -6.7942
  50   2.0000      -0.239507        -6.5173
  51   0.0000       0.055006         1.4968
  52   0.0000       0.066728         1.8158
  53   0.0000       0.086578         2.3559
  54   0.0000       0.094653         2.5757
  55   0.0000       0.102493         2.7890

MULLIKEN ATOMIC CHARGES
-----------------------
   0 C :    0.298797
   1 C :   -0.274362
   2 C :   -0.316850
   3 C :   -0.016208
   4 O :   -0.503916
   5 H :    0.173893
   6 H :    0.160253
   7 H :    0.156763
   8 H :    0.151590
   9 H :    0.154545
  10 H :    0.147051
  11 H :    0.155121
  12 C :   -0.023720
  13 H :    0.148516
  14 H :    0.156602
  15 O :   -0.548595
  16 C :    0.051157
  17 C :    0.117784
  18 C :   -0.304915
  19 C :   -0.023662
  20 O :   -0.522351
  21 H :    0.162865
  22 H :    0.148890
  23 O :   -0.632151
  24 H :    0.153239
  25 H :    0.148109
  26 H :    0.139646
  27 H :    0.149838
  28 H :    0.392071
Sum of atomic charges:   -0.0000000

LOEWDIN ATOMIC CHARGES
----------------------
   0 C :    0.173286
   1 C :   -0.225060
   2 C :   -0.224014
   3 C :   -0.033122
   4 O :   -0.318091
   5 H :    0.116844
   6 H :    0.124166
   7 H :    0.122823
   8 H :    0.119180
   9 H :    0.113145
  10 H :    0.102880
  11 H :    0.108670
  12 C :   -0.049882
  13 H :    0.102098
  14 H :    0.107731
  15 O :   -0.326527
  16 C :    0.020587
  17 C :    0.042384
  18 C :   -0.239084
  19 C :   -0.034082
  20 O :   -0.325156
  21 H :    0.116944
  22 H :    0.106034
  23 O :   -0.428644
  24 H :    0.122342
  25 H :    0.112206
  26 H :    0.100155
  27 H :    0.106372
  28 H :    0.285814

  Mayer bond orders larger than 0.100000
B(  0-C ,  1-C ) :   0.9251 B(  0-C ,  4-O ) :   0.9146 B(  0-C ,  5-H ) :   0.9336
B(  0-C , 15-O ) :   0.8515 B(  1-C ,  2-C ) :   0.9551 B(  1-C ,  6-H ) :   0.9347
B(  1-C ,  7-H ) :   0.9358 B(  2-C ,  3-C ) :   0.9479 B(  2-C ,  8-H ) :   0.9444
B(  2-C ,  9-H ) :   0.9394 B(  3-C ,  4-O ) :   0.8353 B(  3-C , 10-H ) :   0.9320
B(  3-C , 11-H ) :   0.9384 B( 12-C , 13-H ) :   0.9127 B( 12-C , 14-H ) :   0.9187
B( 12-C , 15-O ) :   0.7910 B( 12-C , 16-C ) :   0.9062 B( 16-C , 17-C ) :   0.9121
B( 16-C , 20-O ) :   0.8558 B( 16-C , 21-H ) :   0.9287 B( 17-C , 18-C ) :   0.8988
B( 17-C , 22-H ) :   0.9304 B( 17-C , 23-O ) :   0.9424 B( 18-C , 19-C ) :   0.9393
B( 18-C , 24-H ) :   0.9439 B( 18-C , 25-H ) :   0.9431 B( 19-C , 20-O ) :   0.8298
B( 19-C , 26-H ) :   0.9345 B( 19-C , 27-H ) :   0.9387 B( 23-O , 28-H ) :   0.7265

FINAL SINGLE POINT ENERGY      -652.862607062038

DIPOLE MOMENT
-------------
                                X             Y             Z
Electronic contribution:     -3.20674      -3.42544      -2.34831
Nuclear contribution   :      4.42486       4.65533       2.39140
                        -----------------------------------------
Total Dipole Moment    :      1.21812       1.22989       0.04309
                        -----------------------------------------
Magnitude (a.u.)       :      1.73156
Magnitude (Debye)      :      4.40128

Rotational constants in cm-1:     0.047109     0.015703     0.014714
Rotational constants in MHz :  1412.278232   470.751520   441.116440

                             ****ORCA TERMINATED NORMALLY****
TOTAL RUN TIME: 0 days 0 hours 30 minutes 5 seconds 175 msec
