                         Program Version 4.2.0 -  RELEASE  -
|  1> # Test redundant internal optimization
|  2> #
|  3> ! RKS B3LYP  Opt TightSCF SmallPrint
|  4>
|  5> %basis
|  6>         Basis "6-31G"
|  7> end
|  8>
|  9> %geom
| 10> Constraints
| 11> { D 4  0  15  12  330.0   C } # D for Dihedral angle
| 12> { D 0  15  12  16  255.0   C } # D for Dihedral angle
| 13> { D 0  4  3  2   C } # D for Dihedral angle
| 14> { D 4  3  2  1   C } # D for Dihedral angle
| 15> { D 3  2  1  0   C } # D for Dihedral angle
| 16> { D 2  1  0  4   C } # D for Dihedral angle
| 17> { D 1  0  4  3   C } # D for Dihedral angle
| 18> { D 16  20  19  18   C } # D for Dihedral angle
| 19> { D 20  19  18  17   C } # D for Dihedral angle
| 20> { D 19  18  17  16   C } # D for Dihedral angle
| 21> { D 18  17  16  20   C } # D for Dihedral angle
| 22> { D 17  16  20  19   C } # D for Dihedral angle
| 23> { D 15  12  16  20   C } # D for Dihedral angle
| 24> end
| 25> end
| 26>
| 27>
| 28> #%pal
| 29> #nprocs 8
| 30> #end
| 31>
| 32> * xyz 0 1
| 33> C  -21.048   26.222   46.251
| 34> C  -20.361   27.558   45.944
| 35> C  -20.329   28.222   47.341
| 36> C  -20.110   27.022   48.296
| 37> O  -20.473   25.807   47.535
| 38> H  -20.833   25.428   45.533
| 39> H  -19.344   27.382   45.576
| 40> H  -20.898   28.157   45.201
| 41> H  -19.543   28.978   47.434
| 42> H  -21.289   28.710   47.548
| 43> H  -20.733   27.082   49.195
| 44> H  -19.064   26.913   48.597
| 45> C  -23.271   25.476   47.424
| 46> H  -22.507   25.056   48.091
| 47> H  -23.980   26.051   48.033
| 48> O  -22.586   26.394   46.375
| 49> C  -24.051   24.300   46.774
| 50> C  -25.080   24.808   45.757
| 51> C  -24.187   25.098   44.527
| 52> C  -23.113   23.984   44.601
| 53> O  -23.147   23.459   45.984
| 54> H  -24.469   23.669   47.561
| 55> O  -26.109   23.691   45.436
| 56> H  -25.626   25.693   46.102
| 57> H  -24.743   25.079   43.584
| 58> H  -23.723   26.087   44.622
| 59> H  -22.107   24.355   44.382
| 60> H  -23.334   23.146   43.934
| 61> H  -25.583   22.795   45.087
| 62> *
| 63>
| 64>                          ****END OF INPUT****
 Total Charge           Charge          ....    0
 Multiplicity           Mult            ....    1
 Number of Electrons    NEL             ....  102
FINAL SINGLE POINT ENERGY      -652.837181781012
FINAL SINGLE POINT ENERGY      -652.859747733862
FINAL SINGLE POINT ENERGY      -652.863967353748
FINAL SINGLE POINT ENERGY      -652.865945832100
FINAL SINGLE POINT ENERGY      -652.866116978340
FINAL SINGLE POINT ENERGY      -652.866145294059
FINAL SINGLE POINT ENERGY      -652.866146630964
                    ***********************HURRAY********************

CARTESIAN COORDINATES (ANGSTROEM)
---------------------------------
  C    -21.018730   26.219484   46.307031
  C    -20.405648   27.591367   46.031281
  C    -20.365597   28.208644   47.446727
  C    -20.065906   26.997471   48.354561
  O    -20.401977   25.792834   47.539684
  H    -20.795709   25.437336   45.578252
  H    -19.396119   27.459833   45.625444
  H    -21.001533   28.174015   45.325426
  H    -19.609644   28.994100   47.541856
  H    -21.342248   28.639817   47.686148
  H    -20.664304   26.981138   49.269069
  H    -19.007568   26.906403   48.613515
  C    -23.187284   25.543946   47.355365
  H    -22.470430   25.113119   48.059743
  H    -23.878015   26.201164   47.897034
  O    -22.467837   26.388718   46.404274
  C    -23.972012   24.414575   46.688069
  C    -25.070419   24.813737   45.690635
  C    -24.256167   24.999202   44.383182
  C    -23.161381   23.909790   44.495716
  O    -23.103171   23.514809   45.923750
  H    -24.412676   23.811180   47.492116
  O    -26.068528   23.759824   45.574908
  H    -25.626730   25.704936   45.982918
  H    -24.895276   24.872898   43.505138
  H    -23.809466   25.995344   44.374545
  H    -22.177024   24.271446   44.184666
  H    -23.397867   23.006537   43.922885
  H    -25.611733   22.898332   45.471060

 Multiplicity           Mult            ....    1
 Number of Electrons    NEL             ....  102
 Basis Dimension        Dim             ....  149

ORBITAL ENERGIES
----------------

  NO   OCC          E(Eh)            E(eV)
   0   2.0000     -19.150773      -521.1190
   1   2.0000     -19.144096      -520.9373
   2   2.0000     -19.137929      -520.7695
   3   2.0000     -19.132182      -520.6131
   4   2.0000     -10.280589      -279.7491
   5   2.0000     -10.233595      -278.4703
   6   2.0000     -10.232167      -278.4314
   7   2.0000     -10.228385      -278.3285
   8   2.0000     -10.224458      -278.2216
   9   2.0000     -10.224407      -278.2203
  10   2.0000     -10.190421      -277.2955
  11   2.0000     -10.188356      -277.2393
  12   2.0000     -10.175738      -276.8959
  13   2.0000      -1.056923       -28.7603
  14   2.0000      -1.030512       -28.0416
  15   2.0000      -1.001353       -27.2482
  16   2.0000      -0.991443       -26.9785
  17   2.0000      -0.793566       -21.5940
  18   2.0000      -0.773437       -21.0463
  19   2.0000      -0.763356       -20.7720
  20   2.0000      -0.733895       -19.9703
  21   2.0000      -0.671055       -18.2603
  22   2.0000      -0.605314       -16.4714
  23   2.0000      -0.599033       -16.3005
  24   2.0000      -0.595549       -16.2057
  25   2.0000      -0.567293       -15.4368
  26   2.0000      -0.524889       -14.2829
  27   2.0000      -0.507706       -13.8154
  28   2.0000      -0.493366       -13.4252
  29   2.0000      -0.489697       -13.3253
  30   2.0000      -0.468874       -12.7587
  31   2.0000      -0.461769       -12.5654
  32   2.0000      -0.446960       -12.1624
  33   2.0000      -0.439883       -11.9698
  34   2.0000      -0.415942       -11.3184
  35   2.0000      -0.411240       -11.1904
  36   2.0000      -0.397449       -10.8151
  37   2.0000      -0.386662       -10.5216
  38   2.0000      -0.373784       -10.1712
  39   2.0000      -0.367500       -10.0002
  40   2.0000      -0.361482        -9.8364
  41   2.0000      -0.359232        -9.7752
  42   2.0000      -0.348179        -9.4744
  43   2.0000      -0.336201        -9.1485
  44   2.0000      -0.324846        -8.8395
  45   2.0000      -0.305397        -8.3103
  46   2.0000      -0.294511        -8.0140
  47   2.0000      -0.270501        -7.3607
  48   2.0000      -0.267453        -7.2778
  49   2.0000      -0.259692        -7.0666
  50   2.0000      -0.236640        -6.4393
  51   0.0000       0.067224         1.8293
  52   0.0000       0.082705         2.2505
  53   0.0000       0.102374         2.7857
  54   0.0000       0.103559         2.8180
  55   0.0000       0.108328         2.9477

MULLIKEN ATOMIC CHARGES
-----------------------
   0 C :    0.298731
   1 C :   -0.260895
   2 C :   -0.300896
   3 C :   -0.014019
   4 O :   -0.507745
   5 H :    0.159655
   6 H :    0.145726
   7 H :    0.158182
   8 H :    0.145429
   9 H :    0.159270
  10 H :    0.146820
  11 H :    0.150388
  12 C :   -0.028796
  13 H :    0.180515
  14 H :    0.134594
  15 O :   -0.538708
  16 C :    0.073475
  17 C :    0.081840
  18 C :   -0.283218
  19 C :   -0.026059
  20 O :   -0.526332
  21 H :    0.151298
  22 O :   -0.606450
  23 H :    0.150696
  24 H :    0.148065
  25 H :    0.167780
  26 H :    0.138214
  27 H :    0.139685
  28 H :    0.362757
Sum of atomic charges:    0.0000000

LOEWDIN ATOMIC CHARGES
----------------------
   0 C :    0.180501
   1 C :   -0.216851
   2 C :   -0.216976
   3 C :   -0.030535
   4 O :   -0.315330
   5 H :    0.102258
   6 H :    0.114351
   7 H :    0.124771
   8 H :    0.116023
   9 H :    0.117643
  10 H :    0.104648
  11 H :    0.107110
  12 C :   -0.047676
  13 H :    0.123617
  14 H :    0.104592
  15 O :   -0.342379
  16 C :    0.007963
  17 C :    0.038400
  18 C :   -0.240926
  19 C :   -0.034807
  20 O :   -0.331348
  21 H :    0.113910
  22 O :   -0.418711
  23 H :    0.115643
  24 H :    0.118710
  25 H :    0.127123
  26 H :    0.098709
  27 H :    0.097869
  28 H :    0.281698

  Mayer bond orders larger than 0.100000
B(  0-C ,  1-C ) :   0.9423 B(  0-C ,  4-O ) :   0.9078 B(  0-C ,  5-H ) :   0.9152
B(  0-C , 15-O ) :   0.8330 B(  1-C ,  2-C ) :   0.9536 B(  1-C ,  6-H ) :   0.9374
B(  1-C ,  7-H ) :   0.9356 B(  2-C ,  3-C ) :   0.9554 B(  2-C ,  8-H ) :   0.9448
B(  2-C ,  9-H ) :   0.9448 B(  3-C ,  4-O ) :   0.8291 B(  3-C , 10-H ) :   0.9352
B(  3-C , 11-H ) :   0.9405 B( 12-C , 13-H ) :   0.9029 B( 12-C , 14-H ) :   0.9277
B( 12-C , 15-O ) :   0.8567 B( 12-C , 16-C ) :   0.8906 B( 16-C , 17-C ) :   0.9107
B( 16-C , 20-O ) :   0.8667 B( 16-C , 21-H ) :   0.9186 B( 17-C , 18-C ) :   0.9231
B( 17-C , 22-O ) :   0.8888 B( 17-C , 23-H ) :   0.9359 B( 18-C , 19-C ) :   0.9432
B( 18-C , 24-H ) :   0.9376 B( 18-C , 25-H ) :   0.9214 B( 19-C , 20-O ) :   0.8445
B( 19-C , 26-H ) :   0.9297 B( 19-C , 27-H ) :   0.9377 B( 22-O , 28-H ) :   0.7961

FINAL SINGLE POINT ENERGY      -652.866144997454

DIPOLE MOMENT
-------------
                                X             Y             Z
Electronic contribution:     -2.50353      -4.68802       0.57844
Nuclear contribution   :      3.25859       5.69108      -0.58942
                        -----------------------------------------
Total Dipole Moment    :      0.75505       1.00306      -0.01098
                        -----------------------------------------
Magnitude (a.u.)       :      1.25553
Magnitude (Debye)      :      3.19130

Rotational constants in cm-1:     0.064165     0.013712     0.013418
Rotational constants in MHz :  1923.613847   411.079338   402.262111

                             ****ORCA TERMINATED NORMALLY****
TOTAL RUN TIME: 0 days 0 hours 25 minutes 28 seconds 37 msec
