                         Program Version 4.2.0 -  RELEASE  -
|  1> # Test redundant internal optimization
|  2> #
|  3> ! RKS B3LYP  Opt TightSCF SmallPrint
|  4>
|  5> %basis
|  6>         Basis "6-31G"
|  7> end
|  8>
|  9> %geom
| 10> Constraints
| 11> { D 4  0  15  12  300.0   C } # D for Dihedral angle
| 12> { D 0  15  12  16  75.0   C } # D for Dihedral angle
| 13> { D 0  4  3  2   C } # D for Dihedral angle
| 14> { D 4  3  2  1   C } # D for Dihedral angle
| 15> { D 3  2  1  0   C } # D for Dihedral angle
| 16> { D 2  1  0  4   C } # D for Dihedral angle
| 17> { D 1  0  4  3   C } # D for Dihedral angle
| 18> { D 16  20  19  18   C } # D for Dihedral angle
| 19> { D 20  19  18  17   C } # D for Dihedral angle
| 20> { D 19  18  17  16   C } # D for Dihedral angle
| 21> { D 18  17  16  20   C } # D for Dihedral angle
| 22> { D 17  16  20  19   C } # D for Dihedral angle
| 23> { D 15  12  16  20   C } # D for Dihedral angle
| 24> end
| 25> end
| 26>
| 27>
| 28> #%pal
| 29> #nprocs 8
| 30> #end
| 31>
| 32> * xyz 0 1
| 33> C  -21.048   26.222   46.251
| 34> C  -20.361   27.558   45.944
| 35> C  -20.329   28.222   47.341
| 36> C  -20.110   27.022   48.296
| 37> O  -20.473   25.807   47.535
| 38> H  -20.833   25.428   45.533
| 39> H  -19.344   27.382   45.576
| 40> H  -20.898   28.157   45.201
| 41> H  -19.543   28.978   47.434
| 42> H  -21.289   28.710   47.548
| 43> H  -20.733   27.082   49.195
| 44> H  -19.064   26.913   48.597
| 45> C  -23.362   25.116   46.798
| 46> H  -24.430   25.256   46.591
| 47> H  -23.012   24.248   46.225
| 48> O  -22.586   26.394   46.375
| 49> C  -23.196   24.785   48.307
| 50> C  -23.816   25.876   49.187
| 51> C  -25.320   25.519   49.116
| 52> C  -25.311   23.971   49.057
| 53> O  -23.947   23.573   48.651
| 54> H  -22.144   24.579   48.514
| 55> O  -23.290   25.747   50.643
| 56> H  -23.602   26.889   48.832
| 57> H  -25.887   25.901   49.970
| 58> H  -25.763   25.938   48.205
| 59> H  -26.031   23.575   48.333
| 60> H  -25.504   23.515   50.032
| 61> H  -23.494   24.738   51.021
| 62> *
| 63>
| 64>                          ****END OF INPUT****
 Total Charge           Charge          ....    0
 Multiplicity           Mult            ....    1
 Number of Electrons    NEL             ....  102
FINAL SINGLE POINT ENERGY      -652.843737172255
FINAL SINGLE POINT ENERGY      -652.866407940811
FINAL SINGLE POINT ENERGY      -652.870316336240
FINAL SINGLE POINT ENERGY      -652.871232550338
FINAL SINGLE POINT ENERGY      -652.871362099282
FINAL SINGLE POINT ENERGY      -652.871380955371
                    ***********************HURRAY********************

CARTESIAN COORDINATES (ANGSTROEM)
---------------------------------
  C    -21.062726   26.134397   46.306402
  C    -20.489739   27.519874   46.002575
  C    -20.487625   28.174665   47.403614
  C    -20.160164   26.993889   48.346435
  O    -20.446353   25.759112   47.560281
  H    -20.805792   25.337975   45.599116
  H    -19.470446   27.409899   45.616050
  H    -21.093415   28.061620   45.271969
  H    -19.756346   28.984308   47.488143
  H    -21.479130   28.582126   47.621297
  H    -20.768384   26.974979   49.253969
  H    -19.101402   26.947078   48.616404
  C    -23.269897   25.095942   46.773611
  H    -24.296890   25.321267   46.473267
  H    -22.931228   24.212556   46.214436
  O    -22.499820   26.273255   46.377723
  C    -23.176855   24.793006   48.273521
  C    -23.749014   25.889698   49.182245
  C    -25.267768   25.592563   49.112329
  C    -25.323843   24.046436   49.019459
  O    -23.972659   23.601810   48.594543
  H    -22.142471   24.564470   48.531233
  O    -23.223006   25.783929   50.534989
  H    -23.495035   26.894430   48.847081
  H    -25.782342   25.984812   49.993461
  H    -25.703620   26.063183   48.224485
  H    -26.062732   23.690108   48.294835
  H    -25.528371   23.575424   49.985788
  H    -23.172928   24.838189   50.788740

 Multiplicity           Mult            ....    1
 Number of Electrons    NEL             ....  102
 Basis Dimension        Dim             ....  149

ORBITAL ENERGIES
----------------

  NO   OCC          E(Eh)            E(eV)
   0   2.0000     -19.148419      -521.0550
   1   2.0000     -19.144884      -520.9588
   2   2.0000     -19.140218      -520.8318
   3   2.0000     -19.136223      -520.7231
   4   2.0000     -10.280696      -279.7520
   5   2.0000     -10.233827      -278.4766
   6   2.0000     -10.228914      -278.3429
   7   2.0000     -10.227993      -278.3179
   8   2.0000     -10.224519      -278.2233
   9   2.0000     -10.222409      -278.1659
  10   2.0000     -10.186328      -277.1841
  11   2.0000     -10.186047      -277.1764
  12   2.0000     -10.185123      -277.1513
  13   2.0000      -1.056089       -28.7376
  14   2.0000      -1.031618       -28.0717
  15   2.0000      -1.002692       -27.2846
  16   2.0000      -0.996315       -27.1111
  17   2.0000      -0.790840       -21.5199
  18   2.0000      -0.776222       -21.1221
  19   2.0000      -0.762188       -20.7402
  20   2.0000      -0.729847       -19.8601
  21   2.0000      -0.672662       -18.3041
  22   2.0000      -0.600213       -16.3326
  23   2.0000      -0.599231       -16.3059
  24   2.0000      -0.596421       -16.2294
  25   2.0000      -0.576013       -15.6741
  26   2.0000      -0.520374       -14.1601
  27   2.0000      -0.516012       -14.0414
  28   2.0000      -0.490072       -13.3355
  29   2.0000      -0.488617       -13.2959
  30   2.0000      -0.469451       -12.7744
  31   2.0000      -0.458566       -12.4782
  32   2.0000      -0.445495       -12.1225
  33   2.0000      -0.437028       -11.8921
  34   2.0000      -0.416551       -11.3349
  35   2.0000      -0.411246       -11.1906
  36   2.0000      -0.402625       -10.9560
  37   2.0000      -0.390079       -10.6146
  38   2.0000      -0.373304       -10.1581
  39   2.0000      -0.365561        -9.9474
  40   2.0000      -0.357525        -9.7287
  41   2.0000      -0.356033        -9.6882
  42   2.0000      -0.348871        -9.4933
  43   2.0000      -0.333739        -9.0815
  44   2.0000      -0.326498        -8.8845
  45   2.0000      -0.304538        -8.2869
  46   2.0000      -0.301320        -8.1993
  47   2.0000      -0.275972        -7.5096
  48   2.0000      -0.266972        -7.2647
  49   2.0000      -0.259557        -7.0629
  50   2.0000      -0.237452        -6.4614
  51   0.0000       0.066924         1.8211
  52   0.0000       0.079031         2.1506
  53   0.0000       0.095526         2.5994
  54   0.0000       0.100007         2.7213
  55   0.0000       0.104281         2.8376

MULLIKEN ATOMIC CHARGES
-----------------------
   0 C :    0.289734
   1 C :   -0.261865
   2 C :   -0.300739
   3 C :   -0.023063
   4 O :   -0.513675
   5 H :    0.146169
   6 H :    0.146886
   7 H :    0.159732
   8 H :    0.143556
   9 H :    0.160665
  10 H :    0.171818
  11 H :    0.145682
  12 C :   -0.021099
  13 H :    0.145456
  14 H :    0.144250
  15 O :   -0.522987
  16 C :    0.039780
  17 C :    0.097568
  18 C :   -0.301732
  19 C :   -0.027293
  20 O :   -0.528803
  21 H :    0.199541
  22 O :   -0.612866
  23 H :    0.162985
  24 H :    0.160348
  25 H :    0.145752
  26 H :    0.143974
  27 H :    0.144978
  28 H :    0.365252
Sum of atomic charges:   -0.0000000

LOEWDIN ATOMIC CHARGES
----------------------
   0 C :    0.172538
   1 C :   -0.213826
   2 C :   -0.215468
   3 C :   -0.033590
   4 O :   -0.327292
   5 H :    0.097075
   6 H :    0.115172
   7 H :    0.125607
   8 H :    0.114864
   9 H :    0.116990
  10 H :    0.115732
  11 H :    0.104809
  12 C :   -0.039059
  13 H :    0.108936
  14 H :    0.104713
  15 O :   -0.328558
  16 C :   -0.003355
  17 C :    0.036511
  18 C :   -0.240881
  19 C :   -0.038411
  20 O :   -0.331484
  21 H :    0.130967
  22 O :   -0.418750
  23 H :    0.118558
  24 H :    0.125837
  25 H :    0.113999
  26 H :    0.102578
  27 H :    0.102239
  28 H :    0.283548

  Mayer bond orders larger than 0.100000
B(  0-C ,  1-C ) :   0.9492 B(  0-C ,  4-O ) :   0.9000 B(  0-C ,  5-H ) :   0.9197
B(  0-C , 15-O ) :   0.8590 B(  1-C ,  2-C ) :   0.9556 B(  1-C ,  6-H ) :   0.9399
B(  1-C ,  7-H ) :   0.9360 B(  2-C ,  3-C ) :   0.9548 B(  2-C ,  8-H ) :   0.9450
B(  2-C ,  9-H ) :   0.9439 B(  3-C ,  4-O ) :   0.8229 B(  3-C , 10-H ) :   0.9235
B(  3-C , 11-H ) :   0.9408 B( 12-C , 13-H ) :   0.9422 B( 12-C , 14-H ) :   0.9204
B( 12-C , 15-O ) :   0.8406 B( 12-C , 16-C ) :   0.8813 B( 16-C , 17-C ) :   0.9133
B( 16-C , 20-O ) :   0.8268 B( 16-C , 21-H ) :   0.9033 B( 17-C , 18-C ) :   0.9135
B( 17-C , 22-O ) :   0.8768 B( 17-C , 23-H ) :   0.9263 B( 18-C , 19-C ) :   0.9429
B( 18-C , 24-H ) :   0.9380 B( 18-C , 25-H ) :   0.9347 B( 19-C , 20-O ) :   0.8478
B( 19-C , 26-H ) :   0.9353 B( 19-C , 27-H ) :   0.9384 B( 22-O , 28-H ) :   0.7955

FINAL SINGLE POINT ENERGY      -652.871384166728

DIPOLE MOMENT
-------------
                                X             Y             Z
Electronic contribution:      0.50516      -3.76162       0.44621
Nuclear contribution   :     -0.71531       4.27468      -0.84403
                        -----------------------------------------
Total Dipole Moment    :     -0.21015       0.51306      -0.39782
                        -----------------------------------------
Magnitude (a.u.)       :      0.68239
Magnitude (Debye)      :      1.73449

Rotational constants in cm-1:     0.051174     0.016354     0.014675
Rotational constants in MHz :  1534.151422   490.277292   439.958503

                             ****ORCA TERMINATED NORMALLY****
TOTAL RUN TIME: 0 days 1 hours 6 minutes 34 seconds 504 msec
