                         Program Version 4.2.0 -  RELEASE  -
|  1> # Test redundant internal optimization
|  2> #
|  3> ! RKS B3LYP  Opt TightSCF SmallPrint
|  4>
|  5> %basis
|  6>         Basis "6-31G"
|  7> end
|  8>
|  9> %geom
| 10> Constraints
| 11> { D 4  0  15  12  180.0   C } # D for Dihedral angle
| 12> { D 0  15  12  16  45.0   C } # D for Dihedral angle
| 13> { D 0  4  3  2   C } # D for Dihedral angle
| 14> { D 4  3  2  1   C } # D for Dihedral angle
| 15> { D 3  2  1  0   C } # D for Dihedral angle
| 16> { D 2  1  0  4   C } # D for Dihedral angle
| 17> { D 1  0  4  3   C } # D for Dihedral angle
| 18> { D 16  20  19  18   C } # D for Dihedral angle
| 19> { D 20  19  18  17   C } # D for Dihedral angle
| 20> { D 19  18  17  16   C } # D for Dihedral angle
| 21> { D 18  17  16  20   C } # D for Dihedral angle
| 22> { D 17  16  20  19   C } # D for Dihedral angle
| 23> { D 15  12  16  20   C } # D for Dihedral angle
| 24> end
| 25> end
| 26>
| 27>
| 28> #%pal
| 29> #nprocs 8
| 30> #end
| 31>
| 32> * xyz 0 1
| 33> C  -21.048   26.222   46.251
| 34> C  -20.361   27.558   45.944
| 35> C  -20.329   28.222   47.341
| 36> C  -20.110   27.022   48.296
| 37> O  -20.473   25.807   47.535
| 38> H  -20.833   25.428   45.533
| 39> H  -19.344   27.382   45.576
| 40> H  -20.898   28.157   45.201
| 41> H  -19.543   28.978   47.434
| 42> H  -21.289   28.710   47.548
| 43> H  -20.733   27.082   49.195
| 44> H  -19.064   26.913   48.597
| 45> C  -23.309   26.834   45.072
| 46> H  -24.388   26.677   45.187
| 47> H  -23.136   27.900   44.878
| 48> O  -22.586   26.394   46.375
| 49> C  -22.830   26.042   43.824
| 50> C  -23.477   26.580   42.542
| 51> C  -22.622   27.839   42.263
| 52> C  -21.208   27.415   42.733
| 53> O  -21.392   26.240   43.612
| 54> H  -22.984   24.975   43.995
| 55> O  -23.322   25.546   41.393
| 56> H  -24.542   26.807   42.661
| 57> H  -22.640   28.139   41.211
| 58> H  -22.990   28.683   42.859
| 59> H  -20.698   28.206   43.294
| 60> H  -20.569   27.100   41.903
| 61> H  -22.262   25.304   41.256
| 62> *
| 63>
| 64>                          ****END OF INPUT****
 Total Charge           Charge          ....    0
 Multiplicity           Mult            ....    1
 Number of Electrons    NEL             ....  102
FINAL SINGLE POINT ENERGY      -652.825592944411
FINAL SINGLE POINT ENERGY      -652.848711103399
FINAL SINGLE POINT ENERGY      -652.854565783725
FINAL SINGLE POINT ENERGY      -652.857016319807
FINAL SINGLE POINT ENERGY      -652.857341131268
FINAL SINGLE POINT ENERGY      -652.857393902801
FINAL SINGLE POINT ENERGY      -652.857397628222
                    ***********************HURRAY********************

CARTESIAN COORDINATES (ANGSTROEM)
---------------------------------
  C    -20.912719   26.224206   46.251856
  C    -20.185285   27.554826   46.066179
  C    -20.368435   28.220370   47.453904
  C    -20.304428   27.015529   48.416648
  O    -20.552578   25.817081   47.578520
  H    -20.627544   25.431389   45.563568
  H    -19.127064   27.356950   45.859398
  H    -20.582594   28.158174   45.248161
  H    -19.598070   28.967425   47.668086
  H    -21.347277   28.706106   47.508230
  H    -21.059794   27.053258   49.206100
  H    -19.315686   26.883751   48.867044
  C    -23.100177   26.809010   45.087624
  H    -24.145640   26.583723   45.321198
  H    -23.009079   27.900223   44.959680
  O    -22.369424   26.396181   46.270590
  C    -22.725317   26.108712   43.776046
  C    -23.519085   26.602270   42.555384
  C    -22.701641   27.851985   42.131720
  C    -21.241658   27.441365   42.450549
  O    -21.321475   26.295194   43.391585
  H    -22.856060   25.028654   43.905130
  O    -23.550299   25.596086   41.507752
  H    -24.564812   26.825298   42.770431
  H    -22.860591   28.076494   41.074469
  H    -23.008502   28.723612   42.720242
  H    -20.665786   28.246662   42.916479
  H    -20.699084   27.091345   41.567070
  H    -22.659895   25.196121   41.415357

 Multiplicity           Mult            ....    1
 Number of Electrons    NEL             ....  102
 Basis Dimension        Dim             ....  149

ORBITAL ENERGIES
----------------

  NO   OCC          E(Eh)            E(eV)
   0   2.0000     -19.157218      -521.2944
   1   2.0000     -19.146963      -521.0154
   2   2.0000     -19.132786      -520.6296
   3   2.0000     -19.131149      -520.5850
   4   2.0000     -10.267707      -279.3985
   5   2.0000     -10.252374      -278.9813
   6   2.0000     -10.242820      -278.7213
   7   2.0000     -10.242678      -278.7174
   8   2.0000     -10.236032      -278.5366
   9   2.0000     -10.218044      -278.0471
  10   2.0000     -10.199429      -277.5406
  11   2.0000     -10.180821      -277.0342
  12   2.0000     -10.178770      -276.9784
  13   2.0000      -1.050583       -28.5878
  14   2.0000      -1.041262       -28.3342
  15   2.0000      -1.016383       -27.6572
  16   2.0000      -0.984612       -26.7926
  17   2.0000      -0.793741       -21.5988
  18   2.0000      -0.779072       -21.1996
  19   2.0000      -0.772755       -21.0277
  20   2.0000      -0.729639       -19.8545
  21   2.0000      -0.679266       -18.4838
  22   2.0000      -0.614426       -16.7194
  23   2.0000      -0.607234       -16.5237
  24   2.0000      -0.591965       -16.1082
  25   2.0000      -0.568595       -15.4723
  26   2.0000      -0.533954       -14.5296
  27   2.0000      -0.512863       -13.9557
  28   2.0000      -0.497354       -13.5337
  29   2.0000      -0.486280       -13.2324
  30   2.0000      -0.478050       -13.0084
  31   2.0000      -0.459998       -12.5172
  32   2.0000      -0.450505       -12.2589
  33   2.0000      -0.443884       -12.0787
  34   2.0000      -0.429377       -11.6839
  35   2.0000      -0.408207       -11.1079
  36   2.0000      -0.405954       -11.0466
  37   2.0000      -0.398986       -10.8570
  38   2.0000      -0.382907       -10.4194
  39   2.0000      -0.371611       -10.1120
  40   2.0000      -0.364099        -9.9076
  41   2.0000      -0.352447        -9.5906
  42   2.0000      -0.348050        -9.4709
  43   2.0000      -0.339434        -9.2365
  44   2.0000      -0.322041        -8.7632
  45   2.0000      -0.305355        -8.3091
  46   2.0000      -0.297756        -8.1024
  47   2.0000      -0.281564        -7.6617
  48   2.0000      -0.262149        -7.1334
  49   2.0000      -0.249304        -6.7839
  50   2.0000      -0.240540        -6.5454
  51   0.0000       0.050888         1.3847
  52   0.0000       0.076283         2.0758
  53   0.0000       0.087088         2.3698
  54   0.0000       0.091308         2.4846
  55   0.0000       0.099710         2.7133

MULLIKEN ATOMIC CHARGES
-----------------------
   0 C :    0.310991
   1 C :   -0.269505
   2 C :   -0.302489
   3 C :    0.001683
   4 O :   -0.504642
   5 H :    0.167181
   6 H :    0.145875
   7 H :    0.135294
   8 H :    0.137473
   9 H :    0.153605
  10 H :    0.151037
  11 H :    0.138897
  12 C :    0.004235
  13 H :    0.156878
  14 H :    0.118248
  15 O :   -0.522205
  16 C :    0.042654
  17 C :    0.078730
  18 C :   -0.290684
  19 C :   -0.036924
  20 O :   -0.527191
  21 H :    0.171794
  22 O :   -0.599240
  23 H :    0.157793
  24 H :    0.165402
  25 H :    0.144369
  26 H :    0.149461
  27 H :    0.154246
  28 H :    0.367034
Sum of atomic charges:   -0.0000000

LOEWDIN ATOMIC CHARGES
----------------------
   0 C :    0.184643
   1 C :   -0.226135
   2 C :   -0.220082
   3 C :   -0.025373
   4 O :   -0.303827
   5 H :    0.110236
   6 H :    0.116109
   7 H :    0.108962
   8 H :    0.111806
   9 H :    0.114146
  10 H :    0.107361
  11 H :    0.100731
  12 C :   -0.042113
  13 H :    0.119954
  14 H :    0.085328
  15 O :   -0.335564
  16 C :    0.001369
  17 C :    0.038490
  18 C :   -0.239144
  19 C :   -0.039856
  20 O :   -0.330410
  21 H :    0.119597
  22 O :   -0.411461
  23 H :    0.118579
  24 H :    0.128743
  25 H :    0.113594
  26 H :    0.103520
  27 H :    0.106090
  28 H :    0.284706

  Mayer bond orders larger than 0.100000
B(  0-C ,  1-C ) :   0.9335 B(  0-C ,  4-O ) :   0.9228 B(  0-C ,  5-H ) :   0.9154
B(  0-C , 15-O ) :   0.8136 B(  1-C ,  2-C ) :   0.9464 B(  1-C ,  6-H ) :   0.9368
B(  1-C ,  7-H ) :   0.9313 B(  2-C ,  3-C ) :   0.9549 B(  2-C ,  8-H ) :   0.9455
B(  2-C ,  9-H ) :   0.9459 B(  3-C ,  4-O ) :   0.8391 B(  3-C , 10-H ) :   0.9351
B(  3-C , 11-H ) :   0.9402 B( 12-C , 13-H ) :   0.9260 B( 12-C , 14-H ) :   0.9154
B( 12-C , 15-O ) :   0.8711 B( 12-C , 16-C ) :   0.8891 B( 16-C , 17-C ) :   0.8977
B( 16-C , 20-O ) :   0.8413 B( 16-C , 21-H ) :   0.9211 B( 17-C , 18-C ) :   0.9104
B( 17-C , 22-O ) :   0.8982 B( 17-C , 23-H ) :   0.9332 B( 18-C , 19-C ) :   0.9419
B( 18-C , 24-H ) :   0.9369 B( 18-C , 25-H ) :   0.9334 B( 19-C , 20-O ) :   0.8385
B( 19-C , 26-H ) :   0.9277 B( 19-C , 27-H ) :   0.9371 B( 22-O , 28-H ) :   0.7935

FINAL SINGLE POINT ENERGY      -652.857384810418

DIPOLE MOMENT
-------------
                                X             Y             Z
Electronic contribution:     -1.63217      -6.26815      -0.14134
Nuclear contribution   :      1.94594       7.76218      -0.57688
                        -----------------------------------------
Total Dipole Moment    :      0.31377       1.49402      -0.71822
                        -----------------------------------------
Magnitude (a.u.)       :      1.68713
Magnitude (Debye)      :      4.28833

Rotational constants in cm-1:     0.064986     0.013600     0.012792
Rotational constants in MHz :  1948.231277   407.706350   383.484605

                             ****ORCA TERMINATED NORMALLY****
TOTAL RUN TIME: 0 days 0 hours 25 minutes 26 seconds 634 msec
