                         Program Version 4.2.0 -  RELEASE  -
|  1> # Test redundant internal optimization
|  2> #
|  3> ! RKS B3LYP  Opt TightSCF SmallPrint
|  4>
|  5> %basis
|  6>         Basis "6-31G"
|  7> end
|  8>
|  9> %geom
| 10> Constraints
| 11> { D 4  0  15  12  330.0   C } # D for Dihedral angle
| 12> { D 0  15  12  16  210.0   C } # D for Dihedral angle
| 13> { D 0  4  3  2   C } # D for Dihedral angle
| 14> { D 4  3  2  1   C } # D for Dihedral angle
| 15> { D 3  2  1  0   C } # D for Dihedral angle
| 16> { D 2  1  0  4   C } # D for Dihedral angle
| 17> { D 1  0  4  3   C } # D for Dihedral angle
| 18> { D 16  20  19  18   C } # D for Dihedral angle
| 19> { D 20  19  18  17   C } # D for Dihedral angle
| 20> { D 19  18  17  16   C } # D for Dihedral angle
| 21> { D 18  17  16  20   C } # D for Dihedral angle
| 22> { D 17  16  20  19   C } # D for Dihedral angle
| 23> { D 15  12  16  20   C } # D for Dihedral angle
| 24> end
| 25> end
| 26>
| 27>
| 28> #%pal
| 29> #nprocs 8
| 30> #end
| 31>
| 32> * xyz 0 1
| 33> C  -21.048   26.222   46.251
| 34> C  -20.361   27.558   45.944
| 35> C  -20.329   28.222   47.341
| 36> C  -20.110   27.022   48.296
| 37> O  -20.473   25.807   47.535
| 38> H  -20.833   25.428   45.533
| 39> H  -19.344   27.382   45.576
| 40> H  -20.898   28.157   45.201
| 41> H  -19.543   28.978   47.434
| 42> H  -21.289   28.710   47.548
| 43> H  -20.733   27.082   49.195
| 44> H  -19.064   26.913   48.597
| 45> C  -23.271   25.476   47.424
| 46> H  -22.699   24.544   47.517
| 47> H  -23.292   25.965   48.407
| 48> O  -22.586   26.394   46.375
| 49> C  -24.734   25.115   47.043
| 50> C  -24.784   24.277   45.761
| 51> C  -24.413   22.871   46.290
| 52> C  -25.063   22.842   47.696
| 53> O  -25.331   24.249   48.065
| 54> H  -25.330   26.029   47.010
| 55> H  -25.800   24.279   45.350
| 56> O  -23.811   24.784   44.661
| 57> H  -24.777   22.065   45.646
| 58> H  -23.323   22.774   46.366
| 59> H  -24.409   22.392   48.451
| 60> H  -26.022   22.319   47.702
| 61> H  -22.787   24.790   45.051
| 62> *
| 63>
| 64>                          ****END OF INPUT****
 Total Charge           Charge          ....    0
 Multiplicity           Mult            ....    1
 Number of Electrons    NEL             ....  102
FINAL SINGLE POINT ENERGY      -652.828193143960
FINAL SINGLE POINT ENERGY      -652.853605322809
FINAL SINGLE POINT ENERGY      -652.860068786140
FINAL SINGLE POINT ENERGY      -652.862810377634
FINAL SINGLE POINT ENERGY      -652.864415075059
FINAL SINGLE POINT ENERGY      -652.865781359799
FINAL SINGLE POINT ENERGY      -652.866733767003
FINAL SINGLE POINT ENERGY      -652.867259760734
FINAL SINGLE POINT ENERGY      -652.867415073945
FINAL SINGLE POINT ENERGY      -652.867437706879
FINAL SINGLE POINT ENERGY      -652.867445940654
                    ***********************HURRAY********************

CARTESIAN COORDINATES (ANGSTROEM)
---------------------------------
  C    -21.040576   26.119935   46.335540
  C    -20.453776   27.477640   45.957448
  C    -20.420452   28.197021   47.322635
  C    -20.096059   27.062728   48.316832
  O    -20.414090   25.795441   47.590969
  H    -20.822164   25.288952   45.659009
  H    -19.443969   27.331277   45.557984
  H    -21.058070   27.999513   45.212120
  H    -19.678345   29.000463   47.355102
  H    -21.403063   28.629013   47.534447
  H    -20.693289   27.099141   49.231057
  H    -19.035868   27.008169   48.577542
  C    -23.161411   25.443552   47.479418
  H    -22.587230   24.529522   47.658573
  H    -23.207153   26.007404   48.415007
  O    -22.496040   26.258777   46.443413
  C    -24.579412   25.120614   46.996708
  C    -24.664661   24.266339   45.721261
  C    -24.395556   22.838101   46.278098
  C    -25.066733   22.874121   47.667346
  O    -25.247436   24.313142   48.015589
  H    -25.153128   26.047635   46.903984
  H    -25.690441   24.320371   45.334610
  O    -23.756377   24.630419   44.660498
  H    -24.807593   22.061715   45.627956
  H    -23.313257   22.686539   46.342360
  H    -24.468435   22.396117   48.449591
  H    -26.065070   22.427425   47.665081
  H    -23.237347   25.414914   44.955821

 Multiplicity           Mult            ....    1
 Number of Electrons    NEL             ....  102
 Basis Dimension        Dim             ....  149

ORBITAL ENERGIES
----------------

  NO   OCC          E(Eh)            E(eV)
   0   2.0000     -19.161317      -521.4059
   1   2.0000     -19.158456      -521.3281
   2   2.0000     -19.138224      -520.7775
   3   2.0000     -19.114804      -520.1403
   4   2.0000     -10.291297      -280.0404
   5   2.0000     -10.237918      -278.5879
   6   2.0000     -10.232149      -278.4309
   7   2.0000     -10.232009      -278.4271
   8   2.0000     -10.229668      -278.3634
   9   2.0000     -10.224745      -278.2294
  10   2.0000     -10.195720      -277.4397
  11   2.0000     -10.195290      -277.4280
  12   2.0000     -10.178002      -276.9575
  13   2.0000      -1.067206       -29.0402
  14   2.0000      -1.024762       -27.8852
  15   2.0000      -1.005976       -27.3740
  16   2.0000      -0.992279       -27.0013
  17   2.0000      -0.799750       -21.7623
  18   2.0000      -0.772572       -21.0227
  19   2.0000      -0.766460       -20.8564
  20   2.0000      -0.736635       -20.0449
  21   2.0000      -0.675673       -18.3860
  22   2.0000      -0.610807       -16.6209
  23   2.0000      -0.598500       -16.2860
  24   2.0000      -0.593586       -16.1523
  25   2.0000      -0.575582       -15.6624
  26   2.0000      -0.529228       -14.4010
  27   2.0000      -0.517678       -14.0867
  28   2.0000      -0.503016       -13.6878
  29   2.0000      -0.488088       -13.2815
  30   2.0000      -0.474625       -12.9152
  31   2.0000      -0.457150       -12.4397
  32   2.0000      -0.441899       -12.0247
  33   2.0000      -0.432874       -11.7791
  34   2.0000      -0.426957       -11.6181
  35   2.0000      -0.416258       -11.3269
  36   2.0000      -0.409443       -11.1415
  37   2.0000      -0.386522       -10.5178
  38   2.0000      -0.380220       -10.3463
  39   2.0000      -0.369130       -10.0445
  40   2.0000      -0.365163        -9.9366
  41   2.0000      -0.361440        -9.8353
  42   2.0000      -0.354777        -9.6540
  43   2.0000      -0.338970        -9.2238
  44   2.0000      -0.333631        -9.0786
  45   2.0000      -0.314404        -8.5554
  46   2.0000      -0.290669        -7.9095
  47   2.0000      -0.275718        -7.5027
  48   2.0000      -0.269140        -7.3237
  49   2.0000      -0.246072        -6.6960
  50   2.0000      -0.243187        -6.6175
  51   0.0000       0.059423         1.6170
  52   0.0000       0.076521         2.0822
  53   0.0000       0.094035         2.5588
  54   0.0000       0.099169         2.6985
  55   0.0000       0.103430         2.8145

MULLIKEN ATOMIC CHARGES
-----------------------
   0 C :    0.291859
   1 C :   -0.259760
   2 C :   -0.302389
   3 C :   -0.014911
   4 O :   -0.510400
   5 H :    0.163191
   6 H :    0.151163
   7 H :    0.162637
   8 H :    0.148984
   9 H :    0.162588
  10 H :    0.152131
  11 H :    0.152938
  12 C :   -0.005861
  13 H :    0.162447
  14 H :    0.155253
  15 O :   -0.567750
  16 C :    0.041899
  17 C :    0.120392
  18 C :   -0.303530
  19 C :   -0.021516
  20 O :   -0.520541
  21 H :    0.158390
  22 H :    0.142504
  23 O :   -0.645123
  24 H :    0.151540
  25 H :    0.151333
  26 H :    0.143781
  27 H :    0.149160
  28 H :    0.389590
Sum of atomic charges:   -0.0000000

LOEWDIN ATOMIC CHARGES
----------------------
   0 C :    0.176557
   1 C :   -0.214781
   2 C :   -0.216719
   3 C :   -0.029101
   4 O :   -0.317530
   5 H :    0.105697
   6 H :    0.117474
   7 H :    0.126765
   8 H :    0.118197
   9 H :    0.119314
  10 H :    0.107385
  11 H :    0.108484
  12 C :   -0.042619
  13 H :    0.112345
  14 H :    0.110550
  15 O :   -0.351056
  16 C :    0.015036
  17 C :    0.041354
  18 C :   -0.234590
  19 C :   -0.032647
  20 O :   -0.322947
  21 H :    0.113800
  22 H :    0.101083
  23 O :   -0.439228
  24 H :    0.121140
  25 H :    0.113895
  26 H :    0.102565
  27 H :    0.105800
  28 H :    0.283778

  Mayer bond orders larger than 0.100000
B(  0-C ,  1-C ) :   0.9464 B(  0-C ,  4-O ) :   0.9192 B(  0-C ,  5-H ) :   0.9200
B(  0-C , 15-O ) :   0.7956 B(  1-C ,  2-C ) :   0.9521 B(  1-C ,  6-H ) :   0.9362
B(  1-C ,  7-H ) :   0.9353 B(  2-C ,  3-C ) :   0.9558 B(  2-C ,  8-H ) :   0.9440
B(  2-C ,  9-H ) :   0.9444 B(  3-C ,  4-O ) :   0.8242 B(  3-C , 10-H ) :   0.9342
B(  3-C , 11-H ) :   0.9399 B( 12-C , 13-H ) :   0.9188 B( 12-C , 14-H ) :   0.9292
B( 12-C , 15-O ) :   0.7750 B( 12-C , 16-C ) :   0.9036 B( 16-C , 17-C ) :   0.9171
B( 16-C , 20-O ) :   0.8579 B( 16-C , 21-H ) :   0.9278 B( 17-C , 18-C ) :   0.9093
B( 17-C , 22-H ) :   0.9267 B( 17-C , 23-O ) :   0.9243 B( 18-C , 19-C ) :   0.9408
B( 18-C , 24-H ) :   0.9445 B( 18-C , 25-H ) :   0.9418 B( 19-C , 20-O ) :   0.8315
B( 19-C , 26-H ) :   0.9340 B( 19-C , 27-H ) :   0.9385 B( 23-O , 28-H ) :   0.7235

FINAL SINGLE POINT ENERGY      -652.867447563611

DIPOLE MOMENT
-------------
                                X             Y             Z
Electronic contribution:     -2.31629      -0.93502      -0.80513
Nuclear contribution   :      3.17941       1.57789       1.21886
                        -----------------------------------------
Total Dipole Moment    :      0.86312       0.64287       0.41374
                        -----------------------------------------
Magnitude (a.u.)       :      1.15301
Magnitude (Debye)      :      2.93072

Rotational constants in cm-1:     0.056100     0.014048     0.012814
Rotational constants in MHz :  1681.842274   421.151682   384.145466

                             ****ORCA TERMINATED NORMALLY****
TOTAL RUN TIME: 0 days 0 hours 36 minutes 3 seconds 990 msec
