                         Program Version 4.2.0 -  RELEASE  -
|  1> # Test redundant internal optimization
|  2> #
|  3> ! RKS B3LYP  Opt TightSCF SmallPrint
|  4>
|  5> %basis
|  6>         Basis "6-31G"
|  7> end
|  8>
|  9> %geom
| 10> Constraints
| 11> { D 4  0  15  12  210.0   C } # D for Dihedral angle
| 12> { D 0  15  12  16  165.0   C } # D for Dihedral angle
| 13> { D 0  4  3  2   C } # D for Dihedral angle
| 14> { D 4  3  2  1   C } # D for Dihedral angle
| 15> { D 3  2  1  0   C } # D for Dihedral angle
| 16> { D 2  1  0  4   C } # D for Dihedral angle
| 17> { D 1  0  4  3   C } # D for Dihedral angle
| 18> { D 16  20  19  18   C } # D for Dihedral angle
| 19> { D 20  19  18  17   C } # D for Dihedral angle
| 20> { D 19  18  17  16   C } # D for Dihedral angle
| 21> { D 18  17  16  20   C } # D for Dihedral angle
| 22> { D 17  16  20  19   C } # D for Dihedral angle
| 23> { D 15  12  16  20   C } # D for Dihedral angle
| 24> end
| 25> end
| 26>
| 27>
| 28> #%pal
| 29> #nprocs 8
| 30> #end
| 31>
| 32> * xyz 0 1
| 33> C  -21.048   26.222   46.251
| 34> C  -20.361   27.558   45.944
| 35> C  -20.329   28.222   47.341
| 36> C  -20.110   27.022   48.296
| 37> O  -20.473   25.807   47.535
| 38> H  -20.833   25.428   45.533
| 39> H  -19.344   27.382   45.576
| 40> H  -20.898   28.157   45.201
| 41> H  -19.543   28.978   47.434
| 42> H  -21.289   28.710   47.548
| 43> H  -20.733   27.082   49.195
| 44> H  -19.064   26.913   48.597
| 45> C  -23.389   26.110   45.076
| 46> H  -23.255   26.946   44.378
| 47> H  -23.024   25.196   44.591
| 48> O  -22.586   26.394   46.375
| 49> C  -24.910   25.932   45.337
| 50> C  -25.541   27.228   45.860
| 51> C  -25.703   28.046   44.556
| 52> C  -26.037   26.962   43.501
| 53> O  -25.619   25.668   44.080
| 54> H  -25.064   25.064   45.980
| 55> O  -26.926   26.928   46.496
| 56> H  -24.922   27.738   46.607
| 57> H  -26.482   28.811   44.630
| 58> H  -24.761   28.550   44.309
| 59> H  -25.508   27.120   42.556
| 60> H  -27.109   26.893   43.299
| 61> H  -27.564   26.418   45.765
| 62> *
| 63>
| 64>                          ****END OF INPUT****
 Total Charge           Charge          ....    0
 Multiplicity           Mult            ....    1
 Number of Electrons    NEL             ....  102
FINAL SINGLE POINT ENERGY      -652.835889324859
FINAL SINGLE POINT ENERGY      -652.859323946189
FINAL SINGLE POINT ENERGY      -652.862856646492
FINAL SINGLE POINT ENERGY      -652.863497577225
FINAL SINGLE POINT ENERGY      -652.863583275504
FINAL SINGLE POINT ENERGY      -652.863592793997
FINAL SINGLE POINT ENERGY      -652.863594945708
                    ***********************HURRAY********************

CARTESIAN COORDINATES (ANGSTROEM)
---------------------------------
  C    -21.131835   26.194809   46.184070
  C    -20.413018   27.513887   45.909850
  C    -20.492328   28.214353   47.287231
  C    -20.365729   27.039439   48.279607
  O    -20.680774   25.816381   47.492485
  H    -20.888562   25.373473   45.501472
  H    -19.371866   27.310849   45.632476
  H    -20.878664   28.092584   45.106702
  H    -19.707050   28.963738   47.423993
  H    -21.463488   28.706397   47.394964
  H    -21.064530   27.102995   49.117075
  H    -19.348859   26.910976   48.661710
  C    -23.283811   26.100301   44.987340
  H    -23.113205   26.895035   44.244972
  H    -22.943977   25.151131   44.550044
  O    -22.574410   26.382210   46.222488
  C    -24.766641   25.987888   45.333947
  C    -25.402637   27.269083   45.892484
  C    -25.655384   28.082731   44.597629
  C    -26.017800   26.992647   43.558650
  O    -25.533753   25.703552   44.116167
  H    -24.914494   25.147958   46.017636
  O    -26.644556   26.969229   46.587325
  H    -24.769255   27.776746   46.617779
  H    -26.456730   28.810113   44.750582
  H    -24.749506   28.625931   44.306048
  H    -25.547401   27.157080   42.584636
  H    -27.097728   26.893220   43.411808
  H    -27.147008   26.300266   46.075831

 Multiplicity           Mult            ....    1
 Number of Electrons    NEL             ....  102
 Basis Dimension        Dim             ....  149

ORBITAL ENERGIES
----------------

  NO   OCC          E(Eh)            E(eV)
   0   2.0000     -19.146429      -521.0008
   1   2.0000     -19.145749      -520.9823
   2   2.0000     -19.142029      -520.8811
   3   2.0000     -19.134336      -520.6718
   4   2.0000     -10.282696      -279.8064
   5   2.0000     -10.235691      -278.5273
   6   2.0000     -10.235167      -278.5131
   7   2.0000     -10.233574      -278.4697
   8   2.0000     -10.232563      -278.4422
   9   2.0000     -10.226297      -278.2717
  10   2.0000     -10.189600      -277.2731
  11   2.0000     -10.188547      -277.2445
  12   2.0000     -10.188407      -277.2406
  13   2.0000      -1.056576       -28.7509
  14   2.0000      -1.036278       -28.1986
  15   2.0000      -1.004204       -27.3258
  16   2.0000      -0.998956       -27.1830
  17   2.0000      -0.790228       -21.5032
  18   2.0000      -0.780030       -21.2257
  19   2.0000      -0.769068       -20.9274
  20   2.0000      -0.731478       -19.9045
  21   2.0000      -0.676390       -18.4055
  22   2.0000      -0.604650       -16.4534
  23   2.0000      -0.602562       -16.3966
  24   2.0000      -0.591338       -16.0911
  25   2.0000      -0.584219       -15.8974
  26   2.0000      -0.524490       -14.2721
  27   2.0000      -0.518672       -14.1138
  28   2.0000      -0.499668       -13.5966
  29   2.0000      -0.490059       -13.3352
  30   2.0000      -0.471964       -12.8428
  31   2.0000      -0.455881       -12.4051
  32   2.0000      -0.452169       -12.3041
  33   2.0000      -0.446352       -12.1459
  34   2.0000      -0.426452       -11.6044
  35   2.0000      -0.415497       -11.3062
  36   2.0000      -0.401706       -10.9310
  37   2.0000      -0.392577       -10.6826
  38   2.0000      -0.375903       -10.2288
  39   2.0000      -0.367463        -9.9992
  40   2.0000      -0.362835        -9.8732
  41   2.0000      -0.357280        -9.7221
  42   2.0000      -0.355433        -9.6718
  43   2.0000      -0.332419        -9.0456
  44   2.0000      -0.315948        -8.5974
  45   2.0000      -0.314109        -8.5473
  46   2.0000      -0.303283        -8.2527
  47   2.0000      -0.273224        -7.4348
  48   2.0000      -0.263101        -7.1593
  49   2.0000      -0.253810        -6.9065
  50   2.0000      -0.247771        -6.7422
  51   0.0000       0.065212         1.7745
  52   0.0000       0.067445         1.8353
  53   0.0000       0.093145         2.5346
  54   0.0000       0.098460         2.6792
  55   0.0000       0.103456         2.8152

MULLIKEN ATOMIC CHARGES
-----------------------
   0 C :    0.301912
   1 C :   -0.264368
   2 C :   -0.299683
   3 C :   -0.003333
   4 O :   -0.502050
   5 H :    0.140005
   6 H :    0.146054
   7 H :    0.140682
   8 H :    0.143210
   9 H :    0.160312
  10 H :    0.156847
  11 H :    0.142832
  12 C :   -0.003418
  13 H :    0.123707
  14 H :    0.144053
  15 O :   -0.521212
  16 C :    0.056401
  17 C :    0.091755
  18 C :   -0.301055
  19 C :   -0.032548
  20 O :   -0.527888
  21 H :    0.172567
  22 O :   -0.603173
  23 H :    0.174908
  24 H :    0.164238
  25 H :    0.141921
  26 H :    0.145101
  27 H :    0.149177
  28 H :    0.363047
Sum of atomic charges:    0.0000000

LOEWDIN ATOMIC CHARGES
----------------------
   0 C :    0.179711
   1 C :   -0.227286
   2 C :   -0.216798
   3 C :   -0.025449
   4 O :   -0.305367
   5 H :    0.097723
   6 H :    0.114432
   7 H :    0.113801
   8 H :    0.114958
   9 H :    0.117797
  10 H :    0.110628
  11 H :    0.103081
  12 C :   -0.038915
  13 H :    0.086739
  14 H :    0.103464
  15 O :   -0.335988
  16 C :    0.018661
  17 C :    0.038932
  18 C :   -0.242678
  19 C :   -0.039157
  20 O :   -0.331145
  21 H :    0.121968
  22 O :   -0.414315
  23 H :    0.126608
  24 H :    0.127554
  25 H :    0.111953
  26 H :    0.103430
  27 H :    0.103865
  28 H :    0.281794

  Mayer bond orders larger than 0.100000
B(  0-C ,  1-C ) :   0.9332 B(  0-C ,  4-O ) :   0.9391 B(  0-C ,  5-H ) :   0.9189
B(  0-C , 15-O ) :   0.8251 B(  1-C ,  2-C ) :   0.9543 B(  1-C ,  6-H ) :   0.9343
B(  1-C ,  7-H ) :   0.9381 B(  2-C ,  3-C ) :   0.9550 B(  2-C ,  8-H ) :   0.9450
B(  2-C ,  9-H ) :   0.9441 B(  3-C ,  4-O ) :   0.8354 B(  3-C , 10-H ) :   0.9340
B(  3-C , 11-H ) :   0.9396 B( 12-C , 13-H ) :   0.9166 B( 12-C , 14-H ) :   0.9135
B( 12-C , 15-O ) :   0.8296 B( 12-C , 16-C ) :   0.9052 B( 16-C , 17-C ) :   0.9142
B( 16-C , 20-O ) :   0.8413 B( 16-C , 21-H ) :   0.9241 B( 17-C , 18-C ) :   0.9114
B( 17-C , 22-O ) :   0.8911 B( 17-C , 23-H ) :   0.9240 B( 18-C , 19-C ) :   0.9421
B( 18-C , 24-H ) :   0.9371 B( 18-C , 25-H ) :   0.9351 B( 19-C , 20-O ) :   0.8446
B( 19-C , 26-H ) :   0.9357 B( 19-C , 27-H ) :   0.9375 B( 22-O , 28-H ) :   0.7954

FINAL SINGLE POINT ENERGY      -652.863595096189

DIPOLE MOMENT
-------------
                                X             Y             Z
Electronic contribution:     -2.92761      -5.26963       1.61236
Nuclear contribution   :      3.60235       6.34113      -2.58248
                        -----------------------------------------
Total Dipole Moment    :      0.67474       1.07150      -0.97012
                        -----------------------------------------
Magnitude (a.u.)       :      1.59516
Magnitude (Debye)      :      4.05456

Rotational constants in cm-1:     0.055746     0.012148     0.011769
Rotational constants in MHz :  1671.222213   364.196378   352.822645

                             ****ORCA TERMINATED NORMALLY****
TOTAL RUN TIME: 0 days 1 hours 7 minutes 39 seconds 957 msec
