                         Program Version 4.2.0 -  RELEASE  -
|  1> # Test redundant internal optimization
|  2> #
|  3> ! RKS B3LYP  Opt TightSCF SmallPrint
|  4>
|  5> %basis
|  6>         Basis "6-31G"
|  7> end
|  8>
|  9> %geom
| 10> Constraints
| 11> { D 4  0  15  12  195.0   C } # D for Dihedral angle
| 12> { D 0  15  12  16  90.0   C } # D for Dihedral angle
| 13> { D 0  4  3  2   C } # D for Dihedral angle
| 14> { D 4  3  2  1   C } # D for Dihedral angle
| 15> { D 3  2  1  0   C } # D for Dihedral angle
| 16> { D 2  1  0  4   C } # D for Dihedral angle
| 17> { D 1  0  4  3   C } # D for Dihedral angle
| 18> { D 16  20  19  18   C } # D for Dihedral angle
| 19> { D 20  19  18  17   C } # D for Dihedral angle
| 20> { D 19  18  17  16   C } # D for Dihedral angle
| 21> { D 18  17  16  20   C } # D for Dihedral angle
| 22> { D 17  16  20  19   C } # D for Dihedral angle
| 23> { D 15  12  16  20   C } # D for Dihedral angle
| 24> end
| 25> end
| 26>
| 27>
| 28> #%pal
| 29> #nprocs 8
| 30> #end
| 31>
| 32> * xyz 0 1
| 33> C  -21.048   26.222   46.251
| 34> C  -20.361   27.558   45.944
| 35> C  -20.329   28.222   47.341
| 36> C  -20.110   27.022   48.296
| 37> O  -20.473   25.807   47.535
| 38> H  -20.833   25.428   45.533
| 39> H  -19.344   27.382   45.576
| 40> H  -20.898   28.157   45.201
| 41> H  -19.543   28.978   47.434
| 42> H  -21.289   28.710   47.548
| 43> H  -20.733   27.082   49.195
| 44> H  -19.064   26.913   48.597
| 45> C  -23.353   26.472   45.026
| 46> H  -24.243   27.101   45.152
| 47> H  -22.721   26.924   44.251
| 48> O  -22.586   26.394   46.375
| 49> C  -23.808   25.078   44.513
| 50> C  -24.833   24.444   45.459
| 51> C  -26.130   25.186   45.060
| 52> C  -25.963   25.389   43.533
| 53> O  -24.525   25.210   43.240
| 54> H  -22.927   24.462   44.321
| 55> O  -24.958   22.923   45.167
| 56> H  -24.579   24.571   46.517
| 57> H  -27.035   24.623   45.309
| 58> H  -26.184   26.152   45.575
| 59> H  -26.275   26.386   43.206
| 60> H  -26.506   24.640   42.950
| 61> H  -25.213   22.771   44.111
| 62> *
| 63>
| 64>                          ****END OF INPUT****
 Total Charge           Charge          ....    0
 Multiplicity           Mult            ....    1
 Number of Electrons    NEL             ....  102
FINAL SINGLE POINT ENERGY      -652.836108649151
FINAL SINGLE POINT ENERGY      -652.858447229538
FINAL SINGLE POINT ENERGY      -652.861561270850
FINAL SINGLE POINT ENERGY      -652.862124241849
FINAL SINGLE POINT ENERGY      -652.862217662570
FINAL SINGLE POINT ENERGY      -652.862227466685
FINAL SINGLE POINT ENERGY      -652.862229848206
                    ***********************HURRAY********************

CARTESIAN COORDINATES (ANGSTROEM)
---------------------------------
  C    -21.113647   26.198608   46.162175
  C    -20.375155   27.508845   45.900265
  C    -20.402485   28.177369   47.295772
  C    -20.273937   26.976441   48.254761
  O    -20.636076   25.780301   47.446216
  H    -20.906237   25.391471   45.453261
  H    -19.347040   27.288214   45.589636
  H    -20.843224   28.121342   45.124317
  H    -19.596995   28.905959   47.427391
  H    -21.359429   28.686916   47.441653
  H    -20.948414   27.032258   49.112267
  H    -19.250210   26.816099   48.604878
  C    -23.284382   26.516362   45.014271
  H    -24.127333   27.185658   45.209833
  H    -22.672865   26.968893   44.222196
  O    -22.555739   26.417134   46.273291
  C    -23.774000   25.142013   44.548389
  C    -24.778687   24.462740   45.489293
  C    -26.097209   25.183212   45.112115
  C    -25.948440   25.423056   43.589026
  O    -24.501412   25.284097   43.279988
  H    -22.923107   24.481281   44.354105
  O    -24.850491   23.033851   45.224899
  H    -24.506675   24.558148   46.539390
  H    -26.960366   24.561114   45.362275
  H    -26.185853   26.127452   45.659493
  H    -26.283403   26.417243   43.277906
  H    -26.477201   24.674322   42.991045
  H    -24.883987   22.886602   44.255892

 Multiplicity           Mult            ....    1
 Number of Electrons    NEL             ....  102
 Basis Dimension        Dim             ....  149

ORBITAL ENERGIES
----------------

  NO   OCC          E(Eh)            E(eV)
   0   2.0000     -19.145884      -520.9860
   1   2.0000     -19.144754      -520.9553
   2   2.0000     -19.142112      -520.8833
   3   2.0000     -19.133819      -520.6577
   4   2.0000     -10.281807      -279.7822
   5   2.0000     -10.234585      -278.4972
   6   2.0000     -10.233770      -278.4750
   7   2.0000     -10.233211      -278.4598
   8   2.0000     -10.232515      -278.4409
   9   2.0000     -10.225946      -278.2621
  10   2.0000     -10.188869      -277.2532
  11   2.0000     -10.187726      -277.2221
  12   2.0000     -10.187364      -277.2123
  13   2.0000      -1.055027       -28.7087
  14   2.0000      -1.035670       -28.1820
  15   2.0000      -1.003560       -27.3083
  16   2.0000      -0.996435       -27.1144
  17   2.0000      -0.788691       -21.4614
  18   2.0000      -0.778949       -21.1963
  19   2.0000      -0.766867       -20.8675
  20   2.0000      -0.733460       -19.9585
  21   2.0000      -0.676913       -18.4197
  22   2.0000      -0.604112       -16.4387
  23   2.0000      -0.602522       -16.3955
  24   2.0000      -0.599731       -16.3195
  25   2.0000      -0.574289       -15.6272
  26   2.0000      -0.522465       -14.2170
  27   2.0000      -0.518488       -14.1088
  28   2.0000      -0.495240       -13.4762
  29   2.0000      -0.492976       -13.4146
  30   2.0000      -0.469805       -12.7840
  31   2.0000      -0.460154       -12.5214
  32   2.0000      -0.455126       -12.3846
  33   2.0000      -0.438114       -11.9217
  34   2.0000      -0.424619       -11.5545
  35   2.0000      -0.411322       -11.1927
  36   2.0000      -0.404262       -11.0005
  37   2.0000      -0.391740       -10.6598
  38   2.0000      -0.376406       -10.2425
  39   2.0000      -0.367814       -10.0087
  40   2.0000      -0.362273        -9.8579
  41   2.0000      -0.357779        -9.7357
  42   2.0000      -0.355578        -9.6758
  43   2.0000      -0.331457        -9.0194
  44   2.0000      -0.316416        -8.6101
  45   2.0000      -0.310961        -8.4617
  46   2.0000      -0.303148        -8.2491
  47   2.0000      -0.275698        -7.5021
  48   2.0000      -0.262730        -7.1493
  49   2.0000      -0.258018        -7.0210
  50   2.0000      -0.240000        -6.5307
  51   0.0000       0.063785         1.7357
  52   0.0000       0.073527         2.0008
  53   0.0000       0.094224         2.5640
  54   0.0000       0.097978         2.6661
  55   0.0000       0.101189         2.7535

MULLIKEN ATOMIC CHARGES
-----------------------
   0 C :    0.294369
   1 C :   -0.270504
   2 C :   -0.298030
   3 C :   -0.001778
   4 O :   -0.501605
   5 H :    0.144913
   6 H :    0.147058
   7 H :    0.145233
   8 H :    0.142771
   9 H :    0.160060
  10 H :    0.155226
  11 H :    0.143059
  12 C :   -0.040718
  13 H :    0.150537
  14 H :    0.142218
  15 O :   -0.505469
  16 C :    0.056739
  17 C :    0.092258
  18 C :   -0.301277
  19 C :   -0.030141
  20 O :   -0.527491
  21 H :    0.159256
  22 O :   -0.602003
  23 H :    0.182259
  24 H :    0.162008
  25 H :    0.147970
  26 H :    0.143438
  27 H :    0.148631
  28 H :    0.361012
Sum of atomic charges:   -0.0000000

LOEWDIN ATOMIC CHARGES
----------------------
   0 C :    0.178905
   1 C :   -0.229620
   2 C :   -0.216570
   3 C :   -0.024489
   4 O :   -0.302230
   5 H :    0.097898
   6 H :    0.115020
   7 H :    0.114820
   8 H :    0.114764
   9 H :    0.118151
  10 H :    0.110067
  11 H :    0.103248
  12 C :   -0.047961
  13 H :    0.110474
  14 H :    0.102064
  15 O :   -0.334105
  16 C :    0.005934
  17 C :    0.038628
  18 C :   -0.241768
  19 C :   -0.038114
  20 O :   -0.333375
  21 H :    0.112622
  22 O :   -0.413795
  23 H :    0.130703
  24 H :    0.126895
  25 H :    0.114901
  26 H :    0.102994
  27 H :    0.103384
  28 H :    0.280553

  Mayer bond orders larger than 0.100000
B(  0-C ,  1-C ) :   0.9305 B(  0-C ,  4-O ) :   0.9422 B(  0-C ,  5-H ) :   0.9182
B(  0-C , 15-O ) :   0.8244 B(  1-C ,  2-C ) :   0.9517 B(  1-C ,  6-H ) :   0.9339
B(  1-C ,  7-H ) :   0.9339 B(  2-C ,  3-C ) :   0.9562 B(  2-C ,  8-H ) :   0.9449
B(  2-C ,  9-H ) :   0.9443 B(  3-C ,  4-O ) :   0.8338 B(  3-C , 10-H ) :   0.9344
B(  3-C , 11-H ) :   0.9397 B( 12-C , 13-H ) :   0.9382 B( 12-C , 14-H ) :   0.9160
B( 12-C , 15-O ) :   0.8485 B( 12-C , 16-C ) :   0.8766 B( 16-C , 17-C ) :   0.9122
B( 16-C , 20-O ) :   0.8411 B( 16-C , 21-H ) :   0.9264 B( 17-C , 18-C ) :   0.9123
B( 17-C , 22-O ) :   0.8909 B( 17-C , 23-H ) :   0.9224 B( 18-C , 19-C ) :   0.9411
B( 18-C , 24-H ) :   0.9379 B( 18-C , 25-H ) :   0.9342 B( 19-C , 20-O ) :   0.8416
B( 19-C , 26-H ) :   0.9365 B( 19-C , 27-H ) :   0.9377 B( 22-O , 28-H ) :   0.7965

FINAL SINGLE POINT ENERGY      -652.862230192449

DIPOLE MOMENT
-------------
                                X             Y             Z
Electronic contribution:     -0.40742      -5.04805      -0.60584
Nuclear contribution   :      0.39684       6.40254       0.17269
                        -----------------------------------------
Total Dipole Moment    :     -0.01058       1.35449      -0.43315
                        -----------------------------------------
Magnitude (a.u.)       :      1.42211
Magnitude (Debye)      :      3.61471

Rotational constants in cm-1:     0.061765     0.012049     0.011225
Rotational constants in MHz :  1851.656336   361.223187   336.526250

                             ****ORCA TERMINATED NORMALLY****
TOTAL RUN TIME: 0 days 0 hours 20 minutes 57 seconds 932 msec
