                         Program Version 4.2.0 -  RELEASE  -
|  1> # Test redundant internal optimization
|  2> #
|  3> ! RKS B3LYP  Opt TightSCF SmallPrint
|  4>
|  5> %basis
|  6>         Basis "6-31G"
|  7> end
|  8>
|  9> %geom
| 10> Constraints
| 11> { D 4  0  15  12  150.0   C } # D for Dihedral angle
| 12> { D 0  15  12  16  90.0   C } # D for Dihedral angle
| 13> { D 0  4  3  2   C } # D for Dihedral angle
| 14> { D 4  3  2  1   C } # D for Dihedral angle
| 15> { D 3  2  1  0   C } # D for Dihedral angle
| 16> { D 2  1  0  4   C } # D for Dihedral angle
| 17> { D 1  0  4  3   C } # D for Dihedral angle
| 18> { D 16  20  19  18   C } # D for Dihedral angle
| 19> { D 20  19  18  17   C } # D for Dihedral angle
| 20> { D 19  18  17  16   C } # D for Dihedral angle
| 21> { D 18  17  16  20   C } # D for Dihedral angle
| 22> { D 17  16  20  19   C } # D for Dihedral angle
| 23> { D 15  12  16  20   C } # D for Dihedral angle
| 24> end
| 25> end
| 26>
| 27>
| 28> #%pal
| 29> #nprocs 8
| 30> #end
| 31>
| 32> * xyz 0 1
| 33> C  -21.048   26.222   46.251
| 34> C  -20.361   27.558   45.944
| 35> C  -20.329   28.222   47.341
| 36> C  -20.110   27.022   48.296
| 37> O  -20.473   25.807   47.535
| 38> H  -20.833   25.428   45.533
| 39> H  -19.344   27.382   45.576
| 40> H  -20.898   28.157   45.201
| 41> H  -19.543   28.978   47.434
| 42> H  -21.289   28.710   47.548
| 43> H  -20.733   27.082   49.195
| 44> H  -19.064   26.913   48.597
| 45> C  -23.210   27.459   45.431
| 46> H  -24.093   27.897   45.914
| 47> H  -22.491   28.265   45.234
| 48> O  -22.586   26.394   46.375
| 49> C  -23.644   26.867   44.062
| 50> C  -24.775   25.846   44.231
| 51> C  -26.007   26.767   44.397
| 52> C  -25.680   27.962   43.467
| 53> O  -24.225   27.912   43.213
| 54> H  -22.764   26.485   43.542
| 55> O  -24.907   24.981   42.947
| 56> H  -24.627   25.175   45.084
| 57> H  -26.946   26.273   44.129
| 58> H  -26.089   27.100   45.439
| 59> H  -25.933   28.927   43.919
| 60> H  -26.180   27.885   42.497
| 61> H  -25.057   25.632   42.078
| 62> *
| 63>
| 64>                          ****END OF INPUT****
 Total Charge           Charge          ....    0
 Multiplicity           Mult            ....    1
 Number of Electrons    NEL             ....  102
FINAL SINGLE POINT ENERGY      -652.827420695808
FINAL SINGLE POINT ENERGY      -652.850513381521
FINAL SINGLE POINT ENERGY      -652.854741754089
FINAL SINGLE POINT ENERGY      -652.857100756697
FINAL SINGLE POINT ENERGY      -652.857347109623
FINAL SINGLE POINT ENERGY      -652.857405588496
FINAL SINGLE POINT ENERGY      -652.857410920225
                    ***********************HURRAY********************

CARTESIAN COORDINATES (ANGSTROEM)
---------------------------------
  C    -21.112531   26.286936   46.179647
  C    -20.238939   27.513647   45.917281
  C    -20.241075   28.214337   47.300749
  C    -20.261251   27.023151   48.281930
  O    -20.714455   25.853867   47.488569
  H    -20.943648   25.444810   45.504734
  H    -19.231650   27.160878   45.668390
  H    -20.571000   28.157983   45.100151
  H    -19.367398   28.857546   47.441990
  H    -21.139684   28.829905   47.414835
  H    -20.949002   27.166054   49.119103
  H    -19.268030   26.774274   48.666577
  C    -23.197438   27.549456   45.412854
  H    -24.050071   27.904922   46.000188
  H    -22.553828   28.410607   45.206591
  O    -22.553465   26.548596   46.247358
  C    -23.669959   26.947047   44.086665
  C    -24.735472   25.849595   44.219470
  C    -26.023198   26.687238   44.415401
  C    -25.777130   27.933603   43.528441
  O    -24.314572   27.985382   43.272091
  H    -22.811151   26.582947   43.512507
  O    -24.794838   25.035430   43.015547
  H    -24.530924   25.158927   45.035821
  H    -26.904104   26.115985   44.111647
  H    -26.142123   26.963502   45.468424
  H    -26.086404   28.866684   44.009334
  H    -26.271804   27.863730   42.554722
  H    -24.783856   25.620962   42.228983

 Multiplicity           Mult            ....    1
 Number of Electrons    NEL             ....  102
 Basis Dimension        Dim             ....  149

ORBITAL ENERGIES
----------------

  NO   OCC          E(Eh)            E(eV)
   0   2.0000     -19.146439      -521.0011
   1   2.0000     -19.142442      -520.8923
   2   2.0000     -19.140663      -520.8439
   3   2.0000     -19.135749      -520.7102
   4   2.0000     -10.282567      -279.8029
   5   2.0000     -10.235592      -278.5246
   6   2.0000     -10.233372      -278.4642
   7   2.0000     -10.233289      -278.4619
   8   2.0000     -10.233229      -278.4603
   9   2.0000     -10.227296      -278.2989
  10   2.0000     -10.194231      -277.3991
  11   2.0000     -10.192954      -277.3644
  12   2.0000     -10.188056      -277.2311
  13   2.0000      -1.053058       -28.6552
  14   2.0000      -1.036556       -28.2061
  15   2.0000      -1.004932       -27.3456
  16   2.0000      -0.993847       -27.0439
  17   2.0000      -0.791355       -21.5339
  18   2.0000      -0.780665       -21.2430
  19   2.0000      -0.768690       -20.9171
  20   2.0000      -0.735565       -20.0158
  21   2.0000      -0.679970       -18.5029
  22   2.0000      -0.605593       -16.4790
  23   2.0000      -0.603384       -16.4189
  24   2.0000      -0.602165       -16.3858
  25   2.0000      -0.571870       -15.5614
  26   2.0000      -0.526974       -14.3397
  27   2.0000      -0.514248       -13.9934
  28   2.0000      -0.500366       -13.6156
  29   2.0000      -0.494121       -13.4457
  30   2.0000      -0.473850       -12.8941
  31   2.0000      -0.460913       -12.5421
  32   2.0000      -0.452884       -12.3236
  33   2.0000      -0.439356       -11.9555
  34   2.0000      -0.426311       -11.6005
  35   2.0000      -0.411643       -11.2014
  36   2.0000      -0.406983       -11.0746
  37   2.0000      -0.392895       -10.6912
  38   2.0000      -0.381988       -10.3944
  39   2.0000      -0.367851       -10.0097
  40   2.0000      -0.364136        -9.9086
  41   2.0000      -0.359339        -9.7781
  42   2.0000      -0.357151        -9.7186
  43   2.0000      -0.331497        -9.0205
  44   2.0000      -0.316419        -8.6102
  45   2.0000      -0.307957        -8.3799
  46   2.0000      -0.297786        -8.1032
  47   2.0000      -0.276431        -7.5221
  48   2.0000      -0.265415        -7.2223
  49   2.0000      -0.258797        -7.0422
  50   2.0000      -0.239418        -6.5149
  51   0.0000       0.062827         1.7096
  52   0.0000       0.071084         1.9343
  53   0.0000       0.093543         2.5454
  54   0.0000       0.096260         2.6194
  55   0.0000       0.104629         2.8471

MULLIKEN ATOMIC CHARGES
-----------------------
   0 C :    0.314062
   1 C :   -0.302941
   2 C :   -0.300336
   3 C :   -0.000180
   4 O :   -0.495383
   5 H :    0.154757
   6 H :    0.156050
   7 H :    0.149593
   8 H :    0.145834
   9 H :    0.154839
  10 H :    0.153134
  11 H :    0.144148
  12 C :   -0.026297
  13 H :    0.148790
  14 H :    0.143142
  15 O :   -0.521271
  16 C :    0.054028
  17 C :    0.094478
  18 C :   -0.303335
  19 C :   -0.030330
  20 O :   -0.527252
  21 H :    0.152648
  22 O :   -0.603569
  23 H :    0.179239
  24 H :    0.161902
  25 H :    0.151150
  26 H :    0.144665
  27 H :    0.147234
  28 H :    0.361200
Sum of atomic charges:    0.0000000

LOEWDIN ATOMIC CHARGES
----------------------
   0 C :    0.183071
   1 C :   -0.234466
   2 C :   -0.217519
   3 C :   -0.026247
   4 O :   -0.303823
   5 H :    0.103324
   6 H :    0.121810
   7 H :    0.116156
   8 H :    0.116201
   9 H :    0.113363
  10 H :    0.108843
  11 H :    0.103857
  12 C :   -0.044758
  13 H :    0.109039
  14 H :    0.102375
  15 O :   -0.335048
  16 C :    0.003779
  17 C :    0.038448
  18 C :   -0.241832
  19 C :   -0.038030
  20 O :   -0.333607
  21 H :    0.110133
  22 O :   -0.414934
  23 H :    0.129554
  24 H :    0.126827
  25 H :    0.116456
  26 H :    0.103384
  27 H :    0.102845
  28 H :    0.280800

  Mayer bond orders larger than 0.100000
B(  0-C ,  1-C ) :   0.9315 B(  0-C ,  4-O ) :   0.9344 B(  0-C ,  5-H ) :   0.9249
B(  0-C , 15-O ) :   0.8352 B(  1-C ,  2-C ) :   0.9494 B(  1-C ,  6-H ) :   0.9330
B(  1-C ,  7-H ) :   0.9257 B(  2-C ,  3-C ) :   0.9537 B(  2-C ,  8-H ) :   0.9453
B(  2-C ,  9-H ) :   0.9450 B(  3-C ,  4-O ) :   0.8378 B(  3-C , 10-H ) :   0.9344
B(  3-C , 11-H ) :   0.9396 B( 12-C , 13-H ) :   0.9365 B( 12-C , 14-H ) :   0.9079
B( 12-C , 15-O ) :   0.8484 B( 12-C , 16-C ) :   0.8767 B( 16-C , 17-C ) :   0.9116
B( 16-C , 20-O ) :   0.8418 B( 16-C , 21-H ) :   0.9287 B( 17-C , 18-C ) :   0.9131
B( 17-C , 22-O ) :   0.8901 B( 17-C , 23-H ) :   0.9225 B( 18-C , 19-C ) :   0.9415
B( 18-C , 24-H ) :   0.9379 B( 18-C , 25-H ) :   0.9338 B( 19-C , 20-O ) :   0.8413
B( 19-C , 26-H ) :   0.9364 B( 19-C , 27-H ) :   0.9376 B( 22-O , 28-H ) :   0.7970

FINAL SINGLE POINT ENERGY      -652.857412368573

DIPOLE MOMENT
-------------
                                X             Y             Z
Electronic contribution:     -0.70763      -4.22881      -1.81190
Nuclear contribution   :      0.85551       5.62283       1.83426
                        -----------------------------------------
Total Dipole Moment    :      0.14788       1.39402       0.02237
                        -----------------------------------------
Magnitude (a.u.)       :      1.40202
Magnitude (Debye)      :      3.56365

Rotational constants in cm-1:     0.061625     0.012158     0.011471
Rotational constants in MHz :  1847.465376   364.476102   343.902066

                             ****ORCA TERMINATED NORMALLY****
TOTAL RUN TIME: 0 days 1 hours 9 minutes 56 seconds 235 msec
