                         Program Version 4.2.0 -  RELEASE  -
|  1> # Test redundant internal optimization
|  2> #
|  3> ! RKS B3LYP  Opt TightSCF SmallPrint
|  4>
|  5> %basis
|  6>         Basis "6-31G"
|  7> end
|  8>
|  9> %geom
| 10> Constraints
| 11> { D 4  0  15  12  30.0   C } # D for Dihedral angle
| 12> { D 0  15  12  16  195.0   C } # D for Dihedral angle
| 13> { D 0  4  3  2   C } # D for Dihedral angle
| 14> { D 4  3  2  1   C } # D for Dihedral angle
| 15> { D 3  2  1  0   C } # D for Dihedral angle
| 16> { D 2  1  0  4   C } # D for Dihedral angle
| 17> { D 1  0  4  3   C } # D for Dihedral angle
| 18> { D 16  20  19  18   C } # D for Dihedral angle
| 19> { D 20  19  18  17   C } # D for Dihedral angle
| 20> { D 19  18  17  16   C } # D for Dihedral angle
| 21> { D 18  17  16  20   C } # D for Dihedral angle
| 22> { D 17  16  20  19   C } # D for Dihedral angle
| 23> { D 15  12  16  20   C } # D for Dihedral angle
| 24> end
| 25> end
| 26>
| 27>
| 28> #%pal
| 29> #nprocs 8
| 30> #end
| 31>
| 32> * xyz 0 1
| 33> C  -21.048   26.222   46.251
| 34> C  -20.361   27.558   45.944
| 35> C  -20.329   28.222   47.341
| 36> C  -20.110   27.022   48.296
| 37> O  -20.473   25.807   47.535
| 38> H  -20.833   25.428   45.533
| 39> H  -19.344   27.382   45.576
| 40> H  -20.898   28.157   45.201
| 41> H  -19.543   28.978   47.434
| 42> H  -21.289   28.710   47.548
| 43> H  -20.733   27.082   49.195
| 44> H  -19.064   26.913   48.597
| 45> C  -23.091   26.824   47.779
| 46> H  -22.576   26.232   48.546
| 47> H  -22.871   27.884   47.959
| 48> O  -22.586   26.394   46.375
| 49> C  -24.622   26.623   47.954
| 50> C  -25.408   27.352   46.858
| 51> C  -25.261   26.375   45.666
| 52> C  -25.278   24.984   46.347
| 53> O  -24.978   25.212   47.777
| 54> H  -24.905   26.899   48.972
| 55> H  -26.459   27.448   47.150
| 56> O  -24.853   28.768   46.547
| 57> H  -26.058   26.487   44.924
| 58> H  -24.304   26.544   45.157
| 59> H  -24.531   24.302   45.927
| 60> H  -26.261   24.506   46.296
| 61> H  -23.801   28.695   46.252
| 62> *
| 63>
| 64>                          ****END OF INPUT****
 Total Charge           Charge          ....    0
 Multiplicity           Mult            ....    1
 Number of Electrons    NEL             ....  102
FINAL SINGLE POINT ENERGY      -652.827266294041
FINAL SINGLE POINT ENERGY      -652.851408113324
FINAL SINGLE POINT ENERGY      -652.857311755811
FINAL SINGLE POINT ENERGY      -652.859714684966
FINAL SINGLE POINT ENERGY      -652.859906290630
FINAL SINGLE POINT ENERGY      -652.859942629083
FINAL SINGLE POINT ENERGY      -652.859943663326
                    ***********************HURRAY********************

CARTESIAN COORDINATES (ANGSTROEM)
---------------------------------
  C    -21.115201   26.279144   46.425455
  C    -20.381558   27.554267   45.995974
  C    -20.139114   28.260819   47.357686
  C    -19.890860   27.074758   48.318594
  O    -20.431810   25.872160   47.627991
  H    -21.016143   25.456976   45.715038
  H    -19.431197   27.276057   45.527039
  H    -20.961833   28.153325   45.289856
  H    -19.286059   28.945708   47.326692
  H    -21.018341   28.840794   47.654779
  H    -20.393381   27.183440   49.283414
  H    -18.827379   26.884205   48.486675
  C    -23.119059   26.828149   47.855608
  H    -22.646291   26.237582   48.645822
  H    -22.955852   27.896297   48.051817
  O    -22.556531   26.432138   46.567968
  C    -24.622782   26.567545   47.876692
  C    -25.437878   27.323176   46.813045
  C    -25.325447   26.368688   45.583749
  C    -25.329125   24.971963   46.240969
  O    -24.988542   25.175046   47.672482
  H    -24.963268   26.827772   48.886633
  H    -26.473840   27.429116   47.140813
  O    -24.981079   28.676235   46.561768
  H    -26.151858   26.507775   44.880258
  H    -24.378097   26.555093   45.073261
  H    -24.591110   24.296975   45.799578
  H    -26.315433   24.497620   46.215849
  H    -24.138931   28.637179   46.061493

 Multiplicity           Mult            ....    1
 Number of Electrons    NEL             ....  102
 Basis Dimension        Dim             ....  149

ORBITAL ENERGIES
----------------

  NO   OCC          E(Eh)            E(eV)
   0   2.0000     -19.154511      -521.2207
   1   2.0000     -19.149044      -521.0720
   2   2.0000     -19.138902      -520.7960
   3   2.0000     -19.129399      -520.5374
   4   2.0000     -10.285990      -279.8960
   5   2.0000     -10.237591      -278.5790
   6   2.0000     -10.233726      -278.4738
   7   2.0000     -10.228308      -278.3264
   8   2.0000     -10.227632      -278.3080
   9   2.0000     -10.217595      -278.0349
  10   2.0000     -10.199358      -277.5386
  11   2.0000     -10.195298      -277.4282
  12   2.0000     -10.176204      -276.9086
  13   2.0000      -1.060788       -28.8655
  14   2.0000      -1.025268       -27.8990
  15   2.0000      -1.007462       -27.4144
  16   2.0000      -0.997377       -27.1400
  17   2.0000      -0.796552       -21.6753
  18   2.0000      -0.774538       -21.0763
  19   2.0000      -0.763988       -20.7892
  20   2.0000      -0.736361       -20.0374
  21   2.0000      -0.677261       -18.4292
  22   2.0000      -0.611145       -16.6301
  23   2.0000      -0.602141       -16.3851
  24   2.0000      -0.598385       -16.2829
  25   2.0000      -0.562020       -15.2934
  26   2.0000      -0.526287       -14.3210
  27   2.0000      -0.514810       -14.0087
  28   2.0000      -0.501209       -13.6386
  29   2.0000      -0.489099       -13.3091
  30   2.0000      -0.473385       -12.8815
  31   2.0000      -0.458592       -12.4789
  32   2.0000      -0.442462       -12.0400
  33   2.0000      -0.429809       -11.6957
  34   2.0000      -0.425263       -11.5720
  35   2.0000      -0.418165       -11.3788
  36   2.0000      -0.400328       -10.8935
  37   2.0000      -0.394142       -10.7252
  38   2.0000      -0.382498       -10.4083
  39   2.0000      -0.374066       -10.1788
  40   2.0000      -0.368189       -10.0189
  41   2.0000      -0.359102        -9.7716
  42   2.0000      -0.346570        -9.4306
  43   2.0000      -0.331134        -9.0106
  44   2.0000      -0.323228        -8.7955
  45   2.0000      -0.311367        -8.4727
  46   2.0000      -0.304367        -8.2823
  47   2.0000      -0.270594        -7.3632
  48   2.0000      -0.261425        -7.1137
  49   2.0000      -0.256701        -6.9852
  50   2.0000      -0.235249        -6.4015
  51   0.0000       0.053295         1.4502
  52   0.0000       0.081957         2.2302
  53   0.0000       0.091841         2.4991
  54   0.0000       0.097292         2.6475
  55   0.0000       0.099267         2.7012

MULLIKEN ATOMIC CHARGES
-----------------------
   0 C :    0.305954
   1 C :   -0.261368
   2 C :   -0.317611
   3 C :   -0.015248
   4 O :   -0.505574
   5 H :    0.164844
   6 H :    0.152311
   7 H :    0.146316
   8 H :    0.151265
   9 H :    0.154666
  10 H :    0.147665
  11 H :    0.154178
  12 C :   -0.025712
  13 H :    0.171693
  14 H :    0.127828
  15 O :   -0.546786
  16 C :    0.096872
  17 C :    0.082781
  18 C :   -0.309502
  19 C :   -0.003013
  20 O :   -0.519091
  21 H :    0.144299
  22 H :    0.159540
  23 O :   -0.608199
  24 H :    0.142343
  25 H :    0.161720
  26 H :    0.149541
  27 H :    0.138374
  28 H :    0.359913
Sum of atomic charges:   -0.0000000

LOEWDIN ATOMIC CHARGES
----------------------
   0 C :    0.180496
   1 C :   -0.225737
   2 C :   -0.222801
   3 C :   -0.032698
   4 O :   -0.313260
   5 H :    0.112165
   6 H :    0.118794
   7 H :    0.117603
   8 H :    0.118922
   9 H :    0.111822
  10 H :    0.104350
  11 H :    0.108798
  12 C :   -0.052173
  13 H :    0.118478
  14 H :    0.092076
  15 O :   -0.341070
  16 C :    0.021565
  17 C :    0.036722
  18 C :   -0.242653
  19 C :   -0.024503
  20 O :   -0.320577
  21 H :    0.112546
  22 H :    0.115329
  23 O :   -0.413748
  24 H :    0.113927
  25 H :    0.120538
  26 H :    0.106542
  27 H :    0.099467
  28 H :    0.279082

  Mayer bond orders larger than 0.100000
B(  0-C ,  1-C ) :   0.9195 B(  0-C ,  4-O ) :   0.9158 B(  0-C ,  5-H ) :   0.9349
B(  0-C , 15-O ) :   0.8538 B(  1-C ,  2-C ) :   0.9534 B(  1-C ,  6-H ) :   0.9339
B(  1-C ,  7-H ) :   0.9384 B(  2-C ,  3-C ) :   0.9496 B(  2-C ,  8-H ) :   0.9444
B(  2-C ,  9-H ) :   0.9413 B(  3-C ,  4-O ) :   0.8326 B(  3-C , 10-H ) :   0.9323
B(  3-C , 11-H ) :   0.9398 B( 12-C , 13-H ) :   0.9126 B( 12-C , 14-H ) :   0.8949
B( 12-C , 15-O ) :   0.8254 B( 12-C , 16-C ) :   0.9132 B( 16-C , 17-C ) :   0.8843
B( 16-C , 20-O ) :   0.8863 B( 16-C , 21-H ) :   0.9302 B( 17-C , 18-C ) :   0.9354
B( 17-C , 22-H ) :   0.9368 B( 17-C , 23-O ) :   0.8979 B( 18-C , 19-C ) :   0.9453
B( 18-C , 24-H ) :   0.9416 B( 18-C , 25-H ) :   0.9264 B( 19-C , 20-O ) :   0.8383
B( 19-C , 26-H ) :   0.9321 B( 19-C , 27-H ) :   0.9376 B( 23-O , 28-H ) :   0.7936

FINAL SINGLE POINT ENERGY      -652.859941849749

DIPOLE MOMENT
-------------
                                X             Y             Z
Electronic contribution:     -2.48378      -2.96095       1.21792
Nuclear contribution   :      3.45340       3.71813      -1.71438
                        -----------------------------------------
Total Dipole Moment    :      0.96962       0.75718      -0.49646
                        -----------------------------------------
Magnitude (a.u.)       :      1.32663
Magnitude (Debye)      :      3.37203

Rotational constants in cm-1:     0.049264     0.015832     0.014598
Rotational constants in MHz :  1476.886393   474.642792   437.624396

                             ****ORCA TERMINATED NORMALLY****
TOTAL RUN TIME: 0 days 0 hours 28 minutes 3 seconds 979 msec
