                         Program Version 4.2.1 -  RELEASE  -
|  1> # Test redundant internal optimization
|  2> #
|  3> ! RKS B3LYP  Opt TightSCF SmallPrint
|  4>
|  5> %basis
|  6>         Basis "6-31G"
|  7> end
|  8>
|  9> %geom
| 10> Constraints
| 11> { D 4  0  19  14  75.0   C } # D for Dihedral angle
| 12> { D 0  19  14  12  75.0   C } # D for Dihedral angle
| 13> { D 0  4  3  2   C } # D for Dihedral angle
| 14> { D 4  3  2  1   C } # D for Dihedral angle
| 15> { D 3  2  1  0   C } # D for Dihedral angle
| 16> { D 2  1  0  4   C } # D for Dihedral angle
| 17> { D 1  0  4  3   C } # D for Dihedral angle
| 18> { D 14  15  16  17   C } # D for Dihedral angle
| 19> { D 15  16  17  12   C } # D for Dihedral angle
| 20> { D 16  17  12  14   C } # D for Dihedral angle
| 21> { D 17  12  14  15   C } # D for Dihedral angle
| 22> { D 12  14  15  16   C } # D for Dihedral angle
| 23> end
| 24> end
| 25>
| 26>
| 27> #%pal
| 28> #nprocs 8
| 29> #end
| 30>
| 31> * xyz 0 1
| 32> C  -21.048   26.222   46.251
| 33> C  -20.361   27.558   45.944
| 34> C  -20.329   28.222   47.341
| 35> C  -20.110   27.022   48.296
| 36> O  -20.473   25.807   47.535
| 37> H  -20.833   25.428   45.533
| 38> H  -19.344   27.382   45.576
| 39> H  -20.898   28.157   45.201
| 40> H  -19.543   28.978   47.434
| 41> H  -21.289   28.710   47.548
| 42> H  -20.733   27.082   49.195
| 43> H  -19.064   26.913   48.597
| 44> C  -22.693   28.796   46.158
| 45> H  -22.717   29.730   46.740
| 46> C  -22.881   27.571   47.060
| 47> C  -24.411   27.575   47.281
| 48> C  -24.962   28.086   45.926
| 49> O  -23.830   28.741   45.233
| 50> H  -21.787   28.776   45.550
| 51> O  -22.472   26.381   46.366
| 52> H  -22.316   27.636   47.996
| 53> H  -24.806   26.589   47.547
| 54> H  -24.674   28.269   48.090
| 55> H  -25.775   28.810   46.048
| 56> H  -25.306   27.272   45.281
| 57> *
| 58>
| 59>                          ****END OF INPUT****
 Total Charge           Charge          ....    0
 Multiplicity           Mult            ....    1
 Number of Electrons    NEL             ....   86
FINAL SINGLE POINT ENERGY      -538.352491562417
FINAL SINGLE POINT ENERGY      -538.419070477776
FINAL SINGLE POINT ENERGY      -538.423590774252
FINAL SINGLE POINT ENERGY      -538.424606168139
FINAL SINGLE POINT ENERGY      -538.424798930224
FINAL SINGLE POINT ENERGY      -538.424894385880
FINAL SINGLE POINT ENERGY      -538.424905796084
FINAL SINGLE POINT ENERGY      -538.424907371584
                    ***********************HURRAY********************

CARTESIAN COORDINATES (ANGSTROEM)
---------------------------------
  C    -21.115512   26.321126   46.409203
  C    -20.161635   27.425021   45.927583
  C    -19.821990   28.165572   47.255388
  C    -19.802391   27.005797   48.285365
  O    -20.526705   25.879920   47.656818
  H    -21.109002   25.447891   45.755618
  H    -19.264078   26.940951   45.528640
  H    -20.584979   28.058967   45.146986
  H    -18.859546   28.684121   47.207442
  H    -20.583589   28.908790   47.506412
  H    -20.290224   27.262703   49.230927
  H    -18.786906   26.656768   48.495099
  C    -23.037193   29.049770   46.360689
  H    -23.316604   29.893044   47.012399
  C    -23.129710   27.747046   47.155311
  C    -24.646380   27.480786   47.140216
  C    -25.088666   27.995140   45.749972
  O    -24.002646   28.883086   45.272220
  H    -22.076461   29.262050   45.899493
  O    -22.530433   26.579736   46.513210
  H    -22.739026   27.849054   48.176439
  H    -24.844202   26.417522   47.288558
  H    -25.128878   28.046031   47.945095
  H    -26.023673   28.564452   45.788220
  H    -25.184573   27.187656   45.019697

 Multiplicity           Mult            ....    1
 Number of Electrons    NEL             ....   86
 Basis Dimension        Dim             ....  127

ORBITAL ENERGIES
----------------

  NO   OCC          E(Eh)            E(eV)
   0   2.0000     -19.141452      -520.8654
   1   2.0000     -19.140227      -520.8321
   2   2.0000     -19.130087      -520.5561
   3   2.0000     -10.278476      -279.6915
   4   2.0000     -10.243187      -278.7313
   5   2.0000     -10.230185      -278.3775
   6   2.0000     -10.226004      -278.2637
   7   2.0000     -10.219635      -278.0904
   8   2.0000     -10.195835      -277.4428
   9   2.0000     -10.192529      -277.3528
  10   2.0000     -10.184193      -277.1260
  11   2.0000      -1.051099       -28.6018
  12   2.0000      -1.015211       -27.6253
  13   2.0000      -0.990457       -26.9517
  14   2.0000      -0.791599       -21.5405
  15   2.0000      -0.786694       -21.4070
  16   2.0000      -0.740094       -20.1390
  17   2.0000      -0.726969       -19.7818
  18   2.0000      -0.623914       -16.9776
  19   2.0000      -0.605806       -16.4848
  20   2.0000      -0.598709       -16.2917
  21   2.0000      -0.566419       -15.4130
  22   2.0000      -0.515661       -14.0319
  23   2.0000      -0.504644       -13.7321
  24   2.0000      -0.492548       -13.4029
  25   2.0000      -0.486970       -13.2511
  26   2.0000      -0.453196       -12.3321
  27   2.0000      -0.442250       -12.0342
  28   2.0000      -0.437825       -11.9138
  29   2.0000      -0.417619       -11.3640
  30   2.0000      -0.408250       -11.1090
  31   2.0000      -0.390639       -10.6298
  32   2.0000      -0.372077       -10.1247
  33   2.0000      -0.367330        -9.9956
  34   2.0000      -0.364906        -9.9296
  35   2.0000      -0.362135        -9.8542
  36   2.0000      -0.343718        -9.3530
  37   2.0000      -0.316211        -8.6045
  38   2.0000      -0.305694        -8.3184
  39   2.0000      -0.298560        -8.1242
  40   2.0000      -0.267829        -7.2880
  41   2.0000      -0.251758        -6.8507
  42   2.0000      -0.235937        -6.4202
  43   0.0000       0.067193         1.8284
  44   0.0000       0.090695         2.4679
  45   0.0000       0.094224         2.5640
  46   0.0000       0.098070         2.6686
  47   0.0000       0.114520         3.1162

MULLIKEN ATOMIC CHARGES
-----------------------
   0 C :    0.308932
   1 C :   -0.291153
   2 C :   -0.318369
   3 C :   -0.008913
   4 O :   -0.503615
   5 H :    0.167021
   6 H :    0.156704
   7 H :    0.162077
   8 H :    0.147676
   9 H :    0.146893
  10 H :    0.141932
  11 H :    0.146895
  12 C :   -0.003790
  13 H :    0.123167
  14 C :    0.067812
  15 C :   -0.286333
  16 C :   -0.004573
  17 O :   -0.524564
  18 H :    0.153458
  19 O :   -0.519313
  20 H :    0.132903
  21 H :    0.171460
  22 H :    0.139707
  23 H :    0.134898
  24 H :    0.159089
Sum of atomic charges:   -0.0000000

LOEWDIN ATOMIC CHARGES
----------------------
   0 C :    0.177715
   1 C :   -0.231073
   2 C :   -0.225495
   3 C :   -0.033105
   4 O :   -0.321379
   5 H :    0.114457
   6 H :    0.123280
   7 H :    0.121944
   8 H :    0.117026
   9 H :    0.107568
  10 H :    0.100378
  11 H :    0.103961
  12 C :   -0.051654
  13 H :    0.092196
  14 C :    0.037219
  15 C :   -0.220540
  16 C :   -0.028579
  17 O :   -0.332086
  18 H :    0.113073
  19 O :   -0.315361
  20 H :    0.097301
  21 H :    0.133057
  22 H :    0.111397
  23 H :    0.097924
  24 H :    0.110780

  Mayer bond orders larger than 0.100000
B(  0-C ,  1-C ) :   0.9168 B(  0-C ,  4-O ) :   0.8976 B(  0-C ,  5-H ) :   0.9355
B(  0-C , 19-O ) :   0.9051 B(  1-C ,  2-C ) :   0.9549 B(  1-C ,  6-H ) :   0.9324
B(  1-C ,  7-H ) :   0.9267 B(  2-C ,  3-C ) :   0.9448 B(  2-C ,  8-H ) :   0.9454
B(  2-C ,  9-H ) :   0.9380 B(  3-C ,  4-O ) :   0.8500 B(  3-C , 10-H ) :   0.9336
B(  3-C , 11-H ) :   0.9385 B( 12-C , 13-H ) :   0.9089 B( 12-C , 14-C ) :   0.9058
B( 12-C , 17-O ) :   0.8714 B( 12-C , 18-H ) :   0.9241 B( 14-C , 15-C ) :   0.9572
B( 14-C , 19-O ) :   0.8351 B( 14-C , 20-H ) :   0.9167 B( 15-C , 16-C ) :   0.9485
B( 15-C , 21-H ) :   0.9346 B( 15-C , 22-H ) :   0.9429 B( 16-C , 17-O ) :   0.8512
B( 16-C , 23-H ) :   0.9336 B( 16-C , 24-H ) :   0.9356

FINAL SINGLE POINT ENERGY      -538.424906980474

DIPOLE MOMENT
-------------
                                X             Y             Z
Electronic contribution:     -1.07748      -3.18789      -1.44644
Nuclear contribution   :      1.52447       3.90491       2.06293
                        -----------------------------------------
Total Dipole Moment    :      0.44700       0.71702       0.61649
                        -----------------------------------------
Magnitude (a.u.)       :      1.04594
Magnitude (Debye)      :      2.65856

Rotational constants in cm-1:     0.078050     0.023054     0.021349
Rotational constants in MHz :  2339.869812   691.142028   640.012578

                             ****ORCA TERMINATED NORMALLY****
TOTAL RUN TIME: 0 days 0 hours 20 minutes 53 seconds 87 msec
