                         Program Version 4.2.0 -  RELEASE  -
|  1> # Test redundant internal optimization
|  2> #
|  3> ! RKS B3LYP  Opt TightSCF SmallPrint
|  4>
|  5> %basis
|  6>         Basis "6-31G"
|  7> end
|  8>
|  9> %geom
| 10> Constraints
| 11> { D 4  0  15  12  255.0   C } # D for Dihedral angle
| 12> { D 0  15  12  16  180.0   C } # D for Dihedral angle
| 13> { D 0  4  3  2   C } # D for Dihedral angle
| 14> { D 4  3  2  1   C } # D for Dihedral angle
| 15> { D 3  2  1  0   C } # D for Dihedral angle
| 16> { D 2  1  0  4   C } # D for Dihedral angle
| 17> { D 1  0  4  3   C } # D for Dihedral angle
| 18> { D 16  20  19  18   C } # D for Dihedral angle
| 19> { D 20  19  18  17   C } # D for Dihedral angle
| 20> { D 19  18  17  16   C } # D for Dihedral angle
| 21> { D 18  17  16  20   C } # D for Dihedral angle
| 22> { D 17  16  20  19   C } # D for Dihedral angle
| 23> { D 15  12  16  20   C } # D for Dihedral angle
| 24> end
| 25> end
| 26>
| 27>
| 28> #%pal
| 29> #nprocs 8
| 30> #end
| 31>
| 32> * xyz 0 1
| 33> C  -21.048   26.222   46.251
| 34> C  -20.361   27.558   45.944
| 35> C  -20.329   28.222   47.341
| 36> C  -20.110   27.022   48.296
| 37> O  -20.473   25.807   47.535
| 38> H  -20.833   25.428   45.533
| 39> H  -19.344   27.382   45.576
| 40> H  -20.898   28.157   45.201
| 41> H  -19.543   28.978   47.434
| 42> H  -21.289   28.710   47.548
| 43> H  -20.733   27.082   49.195
| 44> H  -19.064   26.913   48.597
| 45> C  -23.431   25.260   45.734
| 46> H  -23.200   25.197   44.663
| 47> H  -23.189   24.293   46.194
| 48> O  -22.586   26.394   46.375
| 49> C  -24.960   25.488   45.890
| 50> C  -25.417   26.736   45.127
| 51> C  -25.489   26.208   43.675
| 52> C  -25.967   24.745   43.856
| 53> O  -25.709   24.391   45.268
| 54> H  -25.215   25.488   46.951
| 55> H  -26.409   27.047   45.475
| 56> O  -24.445   27.938   45.284
| 57> H  -26.165   26.792   43.043
| 58> H  -24.493   26.235   43.215
| 59> H  -25.431   24.045   43.207
| 60> H  -27.041   24.633   43.687
| 61> H  -23.445   27.649   44.942
| 62> *
| 63>
| 64>                          ****END OF INPUT****
 Total Charge           Charge          ....    0
 Multiplicity           Mult            ....    1
 Number of Electrons    NEL             ....  102
FINAL SINGLE POINT ENERGY      -652.830736041541
FINAL SINGLE POINT ENERGY      -652.855727767713
FINAL SINGLE POINT ENERGY      -652.862143346018
FINAL SINGLE POINT ENERGY      -652.864769123119
FINAL SINGLE POINT ENERGY      -652.866303874188
FINAL SINGLE POINT ENERGY      -652.867286687595
FINAL SINGLE POINT ENERGY      -652.867747775577
FINAL SINGLE POINT ENERGY      -652.867861960918
FINAL SINGLE POINT ENERGY      -652.867879887989
                    ***********************HURRAY********************

CARTESIAN COORDINATES (ANGSTROEM)
---------------------------------
  C    -21.066134   26.132787   46.207484
  C    -20.453111   27.495134   45.887026
  C    -20.509891   28.202408   47.262203
  C    -20.253438   27.049023   48.255616
  O    -20.523302   25.797994   47.496787
  H    -20.808901   25.318638   45.525766
  H    -19.415542   27.354647   45.563002
  H    -20.997159   28.025781   45.101984
  H    -19.768769   29.002150   47.351651
  H    -21.501886   28.636786   47.418818
  H    -20.910773   27.076169   49.127741
  H    -19.212434   26.992636   48.585943
  C    -23.311233   25.185555   45.702203
  H    -23.057473   25.056997   44.641351
  H    -23.100148   24.251409   46.233358
  O    -22.514483   26.281191   46.269234
  C    -24.789467   25.548014   45.872939
  C    -25.249156   26.803945   45.112877
  C    -25.423429   26.253388   43.667053
  C    -25.936880   24.817029   43.899975
  O    -25.606579   24.472706   45.315285
  H    -25.021703   25.604725   46.939909
  H    -26.226608   27.108146   45.505026
  O    -24.369817   27.944162   45.188819
  H    -26.116849   26.863062   43.081664
  H    -24.451870   26.270050   43.162072
  H    -25.471514   24.076827   43.241790
  H    -27.023863   24.736887   43.807512
  H    -23.524589   27.661755   45.611913

 Multiplicity           Mult            ....    1
 Number of Electrons    NEL             ....  102
 Basis Dimension        Dim             ....  149

ORBITAL ENERGIES
----------------

  NO   OCC          E(Eh)            E(eV)
   0   2.0000     -19.165218      -521.5121
   1   2.0000     -19.148323      -521.0524
   2   2.0000     -19.141128      -520.8566
   3   2.0000     -19.114730      -520.1382
   4   2.0000     -10.292288      -280.0674
   5   2.0000     -10.239947      -278.6431
   6   2.0000     -10.235584      -278.5244
   7   2.0000     -10.231563      -278.4150
   8   2.0000     -10.231541      -278.4144
   9   2.0000     -10.227805      -278.3127
  10   2.0000     -10.194996      -277.4199
  11   2.0000     -10.192685      -277.3571
  12   2.0000     -10.180667      -277.0300
  13   2.0000      -1.065726       -28.9999
  14   2.0000      -1.026664       -27.9370
  15   2.0000      -1.008578       -27.4448
  16   2.0000      -0.993634       -27.0382
  17   2.0000      -0.796571       -21.6758
  18   2.0000      -0.774049       -21.0629
  19   2.0000      -0.768862       -20.9218
  20   2.0000      -0.735890       -20.0246
  21   2.0000      -0.679486       -18.4898
  22   2.0000      -0.606892       -16.5144
  23   2.0000      -0.603083       -16.4107
  24   2.0000      -0.594067       -16.1654
  25   2.0000      -0.582923       -15.8621
  26   2.0000      -0.528379       -14.3779
  27   2.0000      -0.524161       -14.2631
  28   2.0000      -0.501029       -13.6337
  29   2.0000      -0.487091       -13.2544
  30   2.0000      -0.473863       -12.8945
  31   2.0000      -0.462198       -12.5771
  32   2.0000      -0.441471       -12.0130
  33   2.0000      -0.433334       -11.7916
  34   2.0000      -0.427647       -11.6369
  35   2.0000      -0.425706       -11.5840
  36   2.0000      -0.406994       -11.0749
  37   2.0000      -0.388710       -10.5774
  38   2.0000      -0.382796       -10.4164
  39   2.0000      -0.370607       -10.0847
  40   2.0000      -0.364409        -9.9161
  41   2.0000      -0.358857        -9.7650
  42   2.0000      -0.348557        -9.4847
  43   2.0000      -0.344404        -9.3717
  44   2.0000      -0.325760        -8.8644
  45   2.0000      -0.319083        -8.6827
  46   2.0000      -0.293893        -7.9972
  47   2.0000      -0.277500        -7.5511
  48   2.0000      -0.261873        -7.1259
  49   2.0000      -0.249549        -6.7906
  50   2.0000      -0.244192        -6.6448
  51   0.0000       0.053879         1.4661
  52   0.0000       0.081699         2.2231
  53   0.0000       0.089874         2.4456
  54   0.0000       0.095508         2.5989
  55   0.0000       0.102835         2.7983

MULLIKEN ATOMIC CHARGES
-----------------------
   0 C :    0.295465
   1 C :   -0.268256
   2 C :   -0.305309
   3 C :   -0.003172
   4 O :   -0.500451
   5 H :    0.150619
   6 H :    0.152351
   7 H :    0.155157
   8 H :    0.148068
   9 H :    0.167543
  10 H :    0.155668
  11 H :    0.146287
  12 C :   -0.014293
  13 H :    0.137501
  14 H :    0.170147
  15 O :   -0.557133
  16 C :    0.046058
  17 C :    0.116365
  18 C :   -0.304041
  19 C :   -0.023214
  20 O :   -0.519766
  21 H :    0.166640
  22 H :    0.145288
  23 O :   -0.646178
  24 H :    0.153931
  25 H :    0.143949
  26 H :    0.142320
  27 H :    0.151811
  28 H :    0.396645
Sum of atomic charges:   -0.0000000

LOEWDIN ATOMIC CHARGES
----------------------
   0 C :    0.177657
   1 C :   -0.220165
   2 C :   -0.216741
   3 C :   -0.026038
   4 O :   -0.315726
   5 H :    0.104745
   6 H :    0.117774
   7 H :    0.121632
   8 H :    0.117460
   9 H :    0.120450
  10 H :    0.110143
  11 H :    0.105033
  12 C :   -0.042636
  13 H :    0.095767
  14 H :    0.116921
  15 O :   -0.341236
  16 C :    0.018949
  17 C :    0.042015
  18 C :   -0.237565
  19 C :   -0.033532
  20 O :   -0.322594
  21 H :    0.118603
  22 H :    0.104322
  23 O :   -0.439554
  24 H :    0.122134
  25 H :    0.110299
  26 H :    0.101957
  27 H :    0.107114
  28 H :    0.282815

  Mayer bond orders larger than 0.100000
B(  0-C ,  1-C ) :   0.9461 B(  0-C ,  4-O ) :   0.9416 B(  0-C ,  5-H ) :   0.9207
B(  0-C , 15-O ) :   0.8074 B(  1-C ,  2-C ) :   0.9542 B(  1-C ,  6-H ) :   0.9377
B(  1-C ,  7-H ) :   0.9350 B(  2-C ,  3-C ) :   0.9528 B(  2-C ,  8-H ) :   0.9447
B(  2-C ,  9-H ) :   0.9431 B(  3-C ,  4-O ) :   0.8310 B(  3-C , 10-H ) :   0.9346
B(  3-C , 11-H ) :   0.9397 B( 12-C , 13-H ) :   0.9202 B( 12-C , 14-H ) :   0.9211
B( 12-C , 15-O ) :   0.7868 B( 12-C , 16-C ) :   0.9101 B( 16-C , 17-C ) :   0.9154
B( 16-C , 20-O ) :   0.8564 B( 16-C , 21-H ) :   0.9278 B( 17-C , 18-C ) :   0.9023
B( 17-C , 22-H ) :   0.9291 B( 17-C , 23-O ) :   0.9347 B( 18-C , 19-C ) :   0.9417
B( 18-C , 24-H ) :   0.9440 B( 18-C , 25-H ) :   0.9428 B( 19-C , 20-O ) :   0.8324
B( 19-C , 26-H ) :   0.9338 B( 19-C , 27-H ) :   0.9380 B( 23-O , 28-H ) :   0.7136

FINAL SINGLE POINT ENERGY      -652.867882199767

DIPOLE MOMENT
-------------
                                X             Y             Z
Electronic contribution:     -1.63051      -2.71014       2.18278
Nuclear contribution   :      2.46895       2.90956      -2.66471
                        -----------------------------------------
Total Dipole Moment    :      0.83844       0.19943      -0.48193
                        -----------------------------------------
Magnitude (a.u.)       :      0.98742
Magnitude (Debye)      :      2.50983

Rotational constants in cm-1:     0.060865     0.013211     0.012061
Rotational constants in MHz :  1824.693007   396.060367   361.588683

                             ****ORCA TERMINATED NORMALLY****
TOTAL RUN TIME: 0 days 0 hours 45 minutes 31 seconds 931 msec
