                         Program Version 4.2.0 -  RELEASE  -
|  1> # Test redundant internal optimization
|  2> #
|  3> ! RKS B3LYP  Opt TightSCF SmallPrint
|  4>
|  5> %basis
|  6>         Basis "6-31G"
|  7> end
|  8>
|  9> %geom
| 10> Constraints
| 11> { D 4  0  15  12  75.0   C } # D for Dihedral angle
| 12> { D 0  15  12  16  180.0   C } # D for Dihedral angle
| 13> { D 0  4  3  2   C } # D for Dihedral angle
| 14> { D 4  3  2  1   C } # D for Dihedral angle
| 15> { D 3  2  1  0   C } # D for Dihedral angle
| 16> { D 2  1  0  4   C } # D for Dihedral angle
| 17> { D 1  0  4  3   C } # D for Dihedral angle
| 18> { D 16  20  19  18   C } # D for Dihedral angle
| 19> { D 20  19  18  17   C } # D for Dihedral angle
| 20> { D 19  18  17  16   C } # D for Dihedral angle
| 21> { D 18  17  16  20   C } # D for Dihedral angle
| 22> { D 17  16  20  19   C } # D for Dihedral angle
| 23> { D 15  12  16  20   C } # D for Dihedral angle
| 24> end
| 25> end
| 26>
| 27>
| 28> #%pal
| 29> #nprocs 8
| 30> #end
| 31>
| 32> * xyz 0 1
| 33> C  -21.048   26.222   46.251
| 34> C  -20.361   27.558   45.944
| 35> C  -20.329   28.222   47.341
| 36> C  -20.110   27.022   48.296
| 37> O  -20.473   25.807   47.535
| 38> H  -20.833   25.428   45.533
| 39> H  -19.344   27.382   45.576
| 40> H  -20.898   28.157   45.201
| 41> H  -19.543   28.978   47.434
| 42> H  -21.289   28.710   47.548
| 43> H  -20.733   27.082   49.195
| 44> H  -19.064   26.913   48.597
| 45> C  -23.049   27.675   47.122
| 46> H  -22.643   27.666   48.141
| 47> H  -22.677   28.573   46.612
| 48> O  -22.586   26.394   46.375
| 49> C  -24.596   27.790   47.213
| 50> C  -25.018   29.118   47.852
| 51> C  -24.861   30.100   46.667
| 52> C  -25.273   29.244   45.443
| 53> O  -25.187   27.831   45.872
| 54> H  -24.992   26.903   47.711
| 55> O  -26.501   29.043   48.308
| 56> H  -24.404   29.394   48.716
| 57> H  -25.478   30.998   46.774
| 58> H  -23.816   30.421   46.580
| 59> H  -24.612   29.398   44.582
| 60> H  -26.306   29.426   45.135
| 61> H  -27.134   28.768   47.458
| 62> *
| 63>
| 64>                          ****END OF INPUT****
 Total Charge           Charge          ....    0
 Multiplicity           Mult            ....    1
 Number of Electrons    NEL             ....  102
FINAL SINGLE POINT ENERGY      -652.810389979187
FINAL SINGLE POINT ENERGY      -652.838186791722
FINAL SINGLE POINT ENERGY      -652.852116699537
FINAL SINGLE POINT ENERGY      -652.854544906888
FINAL SINGLE POINT ENERGY      -652.854961017863
FINAL SINGLE POINT ENERGY      -652.855015552180
FINAL SINGLE POINT ENERGY      -652.855022283438
FINAL SINGLE POINT ENERGY      -652.855021375511
                    ***********************HURRAY********************

CARTESIAN COORDINATES (ANGSTROEM)
---------------------------------
  C    -21.230732   26.355851   46.406295
  C    -20.270186   27.468286   45.959189
  C    -19.894643   28.138685   47.313734
  C    -19.871773   26.931885   48.288165
  O    -20.625723   25.846053   47.619533
  H    -21.259691   25.510768   45.717592
  H    -19.390589   27.006841   45.499579
  H    -20.721142   28.156665   45.239082
  H    -18.923715   28.642330   47.271710
  H    -20.638738   28.881860   47.609164
  H    -20.338184   27.149122   49.254157
  H    -18.858111   26.558072   48.460219
  C    -23.076290   27.869919   47.218235
  H    -22.770635   27.849743   48.274314
  H    -22.665766   28.772723   46.746110
  O    -22.627588   26.679112   46.524736
  C    -24.601433   27.877315   47.139183
  C    -25.258069   29.102214   47.793121
  C    -25.151569   30.159579   46.662362
  C    -25.341451   29.316143   45.377223
  O    -25.087030   27.905776   45.758290
  H    -24.972069   26.944969   47.574167
  O    -26.641904   28.823732   48.138328
  H    -24.785502   29.416435   48.724957
  H    -25.915293   30.931711   46.785378
  H    -24.168237   30.642966   46.683193
  H    -24.650734   29.599234   44.577299
  H    -26.363616   29.366378   44.989240
  H    -27.057589   28.318634   47.407445

 Multiplicity           Mult            ....    1
 Number of Electrons    NEL             ....  102
 Basis Dimension        Dim             ....  149

ORBITAL ENERGIES
----------------

  NO   OCC          E(Eh)            E(eV)
   0   2.0000     -19.143680      -520.9260
   1   2.0000     -19.141852      -520.8763
   2   2.0000     -19.140397      -520.8367
   3   2.0000     -19.139892      -520.8229
   4   2.0000     -10.277335      -279.6605
   5   2.0000     -10.245236      -278.7871
   6   2.0000     -10.236698      -278.5547
   7   2.0000     -10.235171      -278.5132
   8   2.0000     -10.231808      -278.4217
   9   2.0000     -10.230255      -278.3794
  10   2.0000     -10.195500      -277.4337
  11   2.0000     -10.192745      -277.3587
  12   2.0000     -10.192419      -277.3498
  13   2.0000      -1.053061       -28.6553
  14   2.0000      -1.037373       -28.2283
  15   2.0000      -1.008035       -27.4300
  16   2.0000      -0.996001       -27.1026
  17   2.0000      -0.790633       -21.5142
  18   2.0000      -0.787666       -21.4335
  19   2.0000      -0.773108       -21.0373
  20   2.0000      -0.733887       -19.9701
  21   2.0000      -0.680703       -18.5229
  22   2.0000      -0.607767       -16.5382
  23   2.0000      -0.605280       -16.4705
  24   2.0000      -0.599548       -16.3145
  25   2.0000      -0.578915       -15.7531
  26   2.0000      -0.527134       -14.3441
  27   2.0000      -0.509456       -13.8630
  28   2.0000      -0.501367       -13.6429
  29   2.0000      -0.492408       -13.3991
  30   2.0000      -0.482909       -13.1406
  31   2.0000      -0.462615       -12.5884
  32   2.0000      -0.454244       -12.3606
  33   2.0000      -0.436121       -11.8675
  34   2.0000      -0.430582       -11.7167
  35   2.0000      -0.415854       -11.3160
  36   2.0000      -0.405443       -11.0327
  37   2.0000      -0.395551       -10.7635
  38   2.0000      -0.384921       -10.4742
  39   2.0000      -0.373983       -10.1766
  40   2.0000      -0.362977        -9.8771
  41   2.0000      -0.361631        -9.8405
  42   2.0000      -0.353507        -9.6194
  43   2.0000      -0.331523        -9.0212
  44   2.0000      -0.316261        -8.6059
  45   2.0000      -0.310577        -8.4512
  46   2.0000      -0.300962        -8.1896
  47   2.0000      -0.272696        -7.4204
  48   2.0000      -0.267498        -7.2790
  49   2.0000      -0.251976        -6.8566
  50   2.0000      -0.246276        -6.7015
  51   0.0000       0.058971         1.6047
  52   0.0000       0.073879         2.0103
  53   0.0000       0.078854         2.1457
  54   0.0000       0.097629         2.6566
  55   0.0000       0.102395         2.7863

MULLIKEN ATOMIC CHARGES
-----------------------
   0 C :    0.302332
   1 C :   -0.284545
   2 C :   -0.313090
   3 C :   -0.009955
   4 O :   -0.502648
   5 H :    0.169857
   6 H :    0.157511
   7 H :    0.150502
   8 H :    0.145552
   9 H :    0.142144
  10 H :    0.143073
  11 H :    0.147516
  12 C :    0.003061
  13 H :    0.134098
  14 H :    0.122648
  15 O :   -0.505892
  16 C :    0.067315
  17 C :    0.076920
  18 C :   -0.295137
  19 C :   -0.028272
  20 O :   -0.508954
  21 H :    0.175657
  22 O :   -0.600908
  23 H :    0.148617
  24 H :    0.165325
  25 H :    0.137550
  26 H :    0.146748
  27 H :    0.146423
  28 H :    0.366549
Sum of atomic charges:   -0.0000000

LOEWDIN ATOMIC CHARGES
----------------------
   0 C :    0.174042
   1 C :   -0.230034
   2 C :   -0.224534
   3 C :   -0.033764
   4 O :   -0.321748
   5 H :    0.115707
   6 H :    0.123272
   7 H :    0.118449
   8 H :    0.115723
   9 H :    0.106588
  10 H :    0.101027
  11 H :    0.104433
  12 C :   -0.043042
  13 H :    0.098281
  14 H :    0.088906
  15 O :   -0.304097
  16 C :    0.019903
  17 C :    0.035648
  18 C :   -0.241781
  19 C :   -0.038580
  20 O :   -0.318531
  21 H :    0.124423
  22 O :   -0.413006
  23 H :    0.113835
  24 H :    0.127722
  25 H :    0.109526
  26 H :    0.104202
  27 H :    0.102979
  28 H :    0.284449

  Mayer bond orders larger than 0.100000
B(  0-C ,  1-C ) :   0.9199 B(  0-C ,  4-O ) :   0.8977 B(  0-C ,  5-H ) :   0.9355
B(  0-C , 15-O ) :   0.9042 B(  1-C ,  2-C ) :   0.9543 B(  1-C ,  6-H ) :   0.9355
B(  1-C ,  7-H ) :   0.9355 B(  2-C ,  3-C ) :   0.9473 B(  2-C ,  8-H ) :   0.9457
B(  2-C ,  9-H ) :   0.9413 B(  3-C ,  4-O ) :   0.8500 B(  3-C , 10-H ) :   0.9332
B(  3-C , 11-H ) :   0.9385 B( 12-C , 13-H ) :   0.9068 B( 12-C , 14-H ) :   0.9085
B( 12-C , 15-O ) :   0.8468 B( 12-C , 16-C ) :   0.8977 B( 16-C , 17-C ) :   0.9012
B( 16-C , 20-O ) :   0.8668 B( 16-C , 21-H ) :   0.9218 B( 17-C , 18-C ) :   0.9096
B( 17-C , 22-O ) :   0.8956 B( 17-C , 23-H ) :   0.9334 B( 18-C , 19-C ) :   0.9402
B( 18-C , 24-H ) :   0.9370 B( 18-C , 25-H ) :   0.9345 B( 19-C , 20-O ) :   0.8532
B( 19-C , 26-H ) :   0.9341 B( 19-C , 27-H ) :   0.9375 B( 22-O , 28-H ) :   0.7928

FINAL SINGLE POINT ENERGY      -652.855019303560

DIPOLE MOMENT
-------------
                                X             Y             Z
Electronic contribution:     -4.46984      -5.69384       0.00156
Nuclear contribution   :      5.43660       7.23206      -0.25888
                        -----------------------------------------
Total Dipole Moment    :      0.96676       1.53822      -0.25732
                        -----------------------------------------
Magnitude (a.u.)       :      1.83493
Magnitude (Debye)      :      4.66402

Rotational constants in cm-1:     0.056806     0.012464     0.012213
Rotational constants in MHz :  1703.010131   373.662626   366.136475

                             ****ORCA TERMINATED NORMALLY****
TOTAL RUN TIME: 0 days 0 hours 27 minutes 23 seconds 286 msec
