                         Program Version 4.2.0 -  RELEASE  -
|  1> # Test redundant internal optimization
|  2> #
|  3> ! RKS B3LYP  Opt TightSCF SmallPrint
|  4>
|  5> %basis
|  6>         Basis "6-31G"
|  7> end
|  8>
|  9> %geom
| 10> Constraints
| 11> { D 4  0  15  12  345.0   C } # D for Dihedral angle
| 12> { D 0  15  12  16  210.0   C } # D for Dihedral angle
| 13> { D 0  4  3  2   C } # D for Dihedral angle
| 14> { D 4  3  2  1   C } # D for Dihedral angle
| 15> { D 3  2  1  0   C } # D for Dihedral angle
| 16> { D 2  1  0  4   C } # D for Dihedral angle
| 17> { D 1  0  4  3   C } # D for Dihedral angle
| 18> { D 16  20  19  18   C } # D for Dihedral angle
| 19> { D 20  19  18  17   C } # D for Dihedral angle
| 20> { D 19  18  17  16   C } # D for Dihedral angle
| 21> { D 18  17  16  20   C } # D for Dihedral angle
| 22> { D 17  16  20  19   C } # D for Dihedral angle
| 23> { D 15  12  16  20   C } # D for Dihedral angle
| 24> end
| 25> end
| 26>
| 27>
| 28> #%pal
| 29> #nprocs 8
| 30> #end
| 31>
| 32> * xyz 0 1
| 33> C  -21.048   26.222   46.251
| 34> C  -20.361   27.558   45.944
| 35> C  -20.329   28.222   47.341
| 36> C  -20.110   27.022   48.296
| 37> O  -20.473   25.807   47.535
| 38> H  -20.833   25.428   45.533
| 39> H  -19.344   27.382   45.576
| 40> H  -20.898   28.157   45.201
| 41> H  -19.543   28.978   47.434
| 42> H  -21.289   28.710   47.548
| 43> H  -20.733   27.082   49.195
| 44> H  -19.064   26.913   48.597
| 45> C  -23.221   25.764   47.645
| 46> H  -22.624   24.897   47.956
| 47> H  -23.229   26.489   48.470
| 48> O  -22.586   26.394   46.375
| 49> C  -24.684   25.294   47.415
| 50> C  -25.560   26.437   46.891
| 51> C  -25.172   26.467   45.393
| 52> C  -24.929   24.973   45.062
| 53> O  -24.736   24.282   46.355
| 54> H  -25.055   24.821   48.327
| 55> H  -26.619   26.183   47.010
| 56> O  -25.296   27.788   47.608
| 57> H  -25.947   26.914   44.762
| 58> H  -24.252   27.048   45.254
| 59> H  -24.043   24.820   44.436
| 60> H  -25.791   24.508   44.574
| 61> H  -24.241   28.061   47.502
| 62> *
| 63>
| 64>                          ****END OF INPUT****
 Total Charge           Charge          ....    0
 Multiplicity           Mult            ....    1
 Number of Electrons    NEL             ....  102
FINAL SINGLE POINT ENERGY      -652.834934172878
FINAL SINGLE POINT ENERGY      -652.857329959560
FINAL SINGLE POINT ENERGY      -652.861723064341
FINAL SINGLE POINT ENERGY      -652.862976454473
FINAL SINGLE POINT ENERGY      -652.863098028887
FINAL SINGLE POINT ENERGY      -652.863117477542
                    ***********************HURRAY********************

CARTESIAN COORDINATES (ANGSTROEM)
---------------------------------
  C    -21.060031   26.178978   46.345544
  C    -20.449622   27.535458   45.995816
  C    -20.342815   28.202001   47.386134
  C    -20.012086   27.018553   48.321196
  O    -20.392669   25.791156   47.563606
  H    -20.875166   25.376082   45.628137
  H    -19.458301   27.381122   45.554492
  H    -21.067326   28.098191   45.292422
  H    -19.577717   28.983460   47.420617
  H    -21.302178   28.654682   47.656891
  H    -20.570004   27.036770   49.260851
  H    -18.943944   26.929083   48.536835
  C    -23.150961   25.767594   47.673840
  H    -22.586966   24.898610   48.022703
  H    -23.170289   26.514371   48.479676
  O    -22.507965   26.327953   46.485308
  C    -24.581126   25.342615   47.357368
  C    -25.512862   26.464146   46.867831
  C    -25.209548   26.489641   45.337497
  C    -24.955339   25.000627   45.020018
  O    -24.674135   24.330511   46.315026
  H    -24.975744   24.879621   48.270289
  H    -26.553916   26.197736   47.062375
  O    -25.319157   27.736456   47.534509
  H    -26.038920   26.909822   44.760774
  H    -24.308249   27.082735   45.166722
  H    -24.099263   24.852407   44.355637
  H    -25.833633   24.506399   44.592421
  H    -24.480067   28.134220   47.221464

 Multiplicity           Mult            ....    1
 Number of Electrons    NEL             ....  102
 Basis Dimension        Dim             ....  149

ORBITAL ENERGIES
----------------

  NO   OCC          E(Eh)            E(eV)
   0   2.0000     -19.155209      -521.2397
   1   2.0000     -19.146017      -520.9896
   2   2.0000     -19.137694      -520.7631
   3   2.0000     -19.129702      -520.5456
   4   2.0000     -10.285176      -279.8739
   5   2.0000     -10.236753      -278.5562
   6   2.0000     -10.232824      -278.4493
   7   2.0000     -10.225719      -278.2560
   8   2.0000     -10.224834      -278.2319
   9   2.0000     -10.218558      -278.0611
  10   2.0000     -10.196830      -277.4699
  11   2.0000     -10.192993      -277.3654
  12   2.0000     -10.176182      -276.9080
  13   2.0000      -1.060451       -28.8563
  14   2.0000      -1.024437       -27.8764
  15   2.0000      -1.006663       -27.3927
  16   2.0000      -0.994161       -27.0525
  17   2.0000      -0.797502       -21.7011
  18   2.0000      -0.771002       -20.9800
  19   2.0000      -0.763244       -20.7689
  20   2.0000      -0.735490       -20.0137
  21   2.0000      -0.674241       -18.3470
  22   2.0000      -0.609659       -16.5897
  23   2.0000      -0.598987       -16.2993
  24   2.0000      -0.597434       -16.2570
  25   2.0000      -0.561909       -15.2903
  26   2.0000      -0.527078       -14.3425
  27   2.0000      -0.513011       -13.9597
  28   2.0000      -0.498221       -13.5573
  29   2.0000      -0.490534       -13.3481
  30   2.0000      -0.468119       -12.7382
  31   2.0000      -0.457815       -12.4578
  32   2.0000      -0.445295       -12.1171
  33   2.0000      -0.425557       -11.5800
  34   2.0000      -0.422629       -11.5003
  35   2.0000      -0.417112       -11.3502
  36   2.0000      -0.398446       -10.8423
  37   2.0000      -0.395813       -10.7706
  38   2.0000      -0.380387       -10.3509
  39   2.0000      -0.370488       -10.0815
  40   2.0000      -0.365846        -9.9552
  41   2.0000      -0.357166        -9.7190
  42   2.0000      -0.350668        -9.5422
  43   2.0000      -0.334812        -9.1107
  44   2.0000      -0.321231        -8.7411
  45   2.0000      -0.307679        -8.3724
  46   2.0000      -0.302868        -8.2415
  47   2.0000      -0.270307        -7.3554
  48   2.0000      -0.263156        -7.1608
  49   2.0000      -0.255189        -6.9440
  50   2.0000      -0.234626        -6.3845
  51   0.0000       0.053254         1.4491
  52   0.0000       0.083831         2.2812
  53   0.0000       0.092665         2.5215
  54   0.0000       0.098138         2.6705
  55   0.0000       0.106302         2.8926

MULLIKEN ATOMIC CHARGES
-----------------------
   0 C :    0.306626
   1 C :   -0.259447
   2 C :   -0.306011
   3 C :   -0.015037
   4 O :   -0.508822
   5 H :    0.160989
   6 H :    0.148165
   7 H :    0.155188
   8 H :    0.150280
   9 H :    0.150847
  10 H :    0.149872
  11 H :    0.153066
  12 C :   -0.020348
  13 H :    0.174924
  14 H :    0.129777
  15 O :   -0.558466
  16 C :    0.095678
  17 C :    0.087022
  18 C :   -0.310800
  19 C :   -0.002082
  20 O :   -0.522951
  21 H :    0.145700
  22 H :    0.158676
  23 O :   -0.610032
  24 H :    0.141249
  25 H :    0.162933
  26 H :    0.142714
  27 H :    0.139112
  28 H :    0.361178
Sum of atomic charges:    0.0000000

LOEWDIN ATOMIC CHARGES
----------------------
   0 C :    0.183414
   1 C :   -0.218548
   2 C :   -0.218157
   3 C :   -0.030927
   4 O :   -0.315792
   5 H :    0.106566
   6 H :    0.115757
   7 H :    0.122659
   8 H :    0.118665
   9 H :    0.112415
  10 H :    0.105746
  11 H :    0.108508
  12 C :   -0.048839
  13 H :    0.121409
  14 H :    0.095366
  15 O :   -0.354304
  16 C :    0.019270
  17 C :    0.037241
  18 C :   -0.243085
  19 C :   -0.024907
  20 O :   -0.323187
  21 H :    0.113023
  22 H :    0.114722
  23 O :   -0.413662
  24 H :    0.113657
  25 H :    0.120465
  26 H :    0.103110
  27 H :    0.099631
  28 H :    0.279781

  Mayer bond orders larger than 0.100000
B(  0-C ,  1-C ) :   0.9393 B(  0-C ,  4-O ) :   0.9139 B(  0-C ,  5-H ) :   0.9263
B(  0-C , 15-O ) :   0.8262 B(  1-C ,  2-C ) :   0.9516 B(  1-C ,  6-H ) :   0.9354
B(  1-C ,  7-H ) :   0.9367 B(  2-C ,  3-C ) :   0.9544 B(  2-C ,  8-H ) :   0.9443
B(  2-C ,  9-H ) :   0.9461 B(  3-C ,  4-O ) :   0.8283 B(  3-C , 10-H ) :   0.9334
B(  3-C , 11-H ) :   0.9399 B( 12-C , 13-H ) :   0.9154 B( 12-C , 14-H ) :   0.9088
B( 12-C , 15-O ) :   0.8189 B( 12-C , 16-C ) :   0.9104 B( 16-C , 17-C ) :   0.8850
B( 16-C , 20-O ) :   0.8785 B( 16-C , 21-H ) :   0.9288 B( 17-C , 18-C ) :   0.9351
B( 17-C , 22-H ) :   0.9372 B( 17-C , 23-O ) :   0.8981 B( 18-C , 19-C ) :   0.9455
B( 18-C , 24-H ) :   0.9413 B( 18-C , 25-H ) :   0.9265 B( 19-C , 20-O ) :   0.8392
B( 19-C , 26-H ) :   0.9331 B( 19-C , 27-H ) :   0.9377 B( 23-O , 28-H ) :   0.7934

FINAL SINGLE POINT ENERGY      -652.863118064884

DIPOLE MOMENT
-------------
                                X             Y             Z
Electronic contribution:     -2.13638      -3.87863       0.99035
Nuclear contribution   :      3.03805       4.86613      -1.32528
                        -----------------------------------------
Total Dipole Moment    :      0.90168       0.98750      -0.33493
                        -----------------------------------------
Magnitude (a.u.)       :      1.37853
Magnitude (Debye)      :      3.50395

Rotational constants in cm-1:     0.048571     0.015621     0.014751
Rotational constants in MHz :  1456.108107   468.311972   442.235412

                             ****ORCA TERMINATED NORMALLY****
TOTAL RUN TIME: 0 days 0 hours 28 minutes 58 seconds 49 msec
