                         Program Version 4.2.0 -  RELEASE  -
|  1> # Test redundant internal optimization
|  2> #
|  3> ! RKS B3LYP  Opt TightSCF SmallPrint
|  4>
|  5> %basis
|  6>         Basis "6-31G"
|  7> end
|  8>
|  9> %geom
| 10> Constraints
| 11> { D 4  0  15  12  180.0   C } # D for Dihedral angle
| 12> { D 0  15  12  16  90.0   C } # D for Dihedral angle
| 13> { D 0  4  3  2   C } # D for Dihedral angle
| 14> { D 4  3  2  1   C } # D for Dihedral angle
| 15> { D 3  2  1  0   C } # D for Dihedral angle
| 16> { D 2  1  0  4   C } # D for Dihedral angle
| 17> { D 1  0  4  3   C } # D for Dihedral angle
| 18> { D 16  20  19  18   C } # D for Dihedral angle
| 19> { D 20  19  18  17   C } # D for Dihedral angle
| 20> { D 19  18  17  16   C } # D for Dihedral angle
| 21> { D 18  17  16  20   C } # D for Dihedral angle
| 22> { D 17  16  20  19   C } # D for Dihedral angle
| 23> { D 15  12  16  20   C } # D for Dihedral angle
| 24> end
| 25> end
| 26>
| 27>
| 28> #%pal
| 29> #nprocs 8
| 30> #end
| 31>
| 32> * xyz 0 1
| 33> C  -21.048   26.222   46.251
| 34> C  -20.361   27.558   45.944
| 35> C  -20.329   28.222   47.341
| 36> C  -20.110   27.022   48.296
| 37> O  -20.473   25.807   47.535
| 38> H  -20.833   25.428   45.533
| 39> H  -19.344   27.382   45.576
| 40> H  -20.898   28.157   45.201
| 41> H  -19.543   28.978   47.434
| 42> H  -21.289   28.710   47.548
| 43> H  -20.733   27.082   49.195
| 44> H  -19.064   26.913   48.597
| 45> C  -23.309   26.834   45.072
| 46> H  -24.192   27.431   45.332
| 47> H  -22.645   27.453   44.455
| 48> O  -22.586   26.394   46.375
| 49> C  -23.771   25.629   44.206
| 50> C  -24.374   26.098   42.878
| 51> C  -23.105   26.406   42.048
| 52> C  -22.103   25.325   42.524
| 53> O  -22.620   24.811   43.811
| 54> H  -24.428   24.992   44.801
| 55> O  -25.190   24.947   42.227
| 56> H  -25.032   26.968   42.987
| 57> H  -23.283   26.363   40.968
| 58> H  -22.733   27.409   42.287
| 59> H  -21.095   25.726   42.677
| 60> H  -22.046   24.476   41.837
| 61> H  -24.550   24.065   42.107
| 62> *
| 63>
| 64>                          ****END OF INPUT****
 Total Charge           Charge          ....    0
 Multiplicity           Mult            ....    1
 Number of Electrons    NEL             ....  102
FINAL SINGLE POINT ENERGY      -652.831817154216
FINAL SINGLE POINT ENERGY      -652.854478475244
FINAL SINGLE POINT ENERGY      -652.858751267336
FINAL SINGLE POINT ENERGY      -652.859497373120
FINAL SINGLE POINT ENERGY      -652.859594763739
FINAL SINGLE POINT ENERGY      -652.859606029662
                    ***********************HURRAY********************

CARTESIAN COORDINATES (ANGSTROEM)
---------------------------------
  C    -21.008273   26.249499   46.164475
  C    -20.282039   27.579875   45.972055
  C    -20.385389   28.212501   47.383659
  C    -20.278684   26.984789   48.311986
  O    -20.580825   25.808053   47.458361
  H    -20.777425   25.462837   45.445977
  H    -19.236757   27.376680   45.710385
  H    -20.706630   28.215708   45.190349
  H    -19.598858   28.949436   47.571838
  H    -21.356326   28.702966   47.500414
  H    -20.990739   27.007472   49.140693
  H    -19.268424   26.835396   48.704777
  C    -23.173319   26.867225   45.064454
  H    -24.053108   27.406804   45.432729
  H    -22.567277   27.567860   44.472838
  O    -22.463831   26.420829   46.247119
  C    -23.628127   25.683985   44.208200
  C    -24.359180   26.063921   42.911861
  C    -23.172619   26.358868   41.957023
  C    -22.099905   25.332224   42.399682
  O    -22.487579   24.873255   43.757349
  H    -24.237721   25.022537   44.830925
  O    -25.177225   24.963876   42.429987
  H    -25.043498   26.906686   43.020598
  H    -23.476883   26.236475   40.914498
  H    -22.820822   27.387441   42.095246
  H    -21.094007   25.761559   42.440376
  H    -22.073044   24.447124   41.756591
  H    -24.688486   24.122121   42.548554

 Multiplicity           Mult            ....    1
 Number of Electrons    NEL             ....  102
 Basis Dimension        Dim             ....  149

ORBITAL ENERGIES
----------------

  NO   OCC          E(Eh)            E(eV)
   0   2.0000     -19.150145      -521.1019
   1   2.0000     -19.142699      -520.8993
   2   2.0000     -19.135328      -520.6987
   3   2.0000     -19.134784      -520.6839
   4   2.0000     -10.270307      -279.4693
   5   2.0000     -10.247564      -278.8504
   6   2.0000     -10.237465      -278.5756
   7   2.0000     -10.235899      -278.5330
   8   2.0000     -10.234748      -278.5017
   9   2.0000     -10.220916      -278.1253
  10   2.0000     -10.195584      -277.4360
  11   2.0000     -10.186240      -277.1817
  12   2.0000     -10.185021      -277.1485
  13   2.0000      -1.049248       -28.5515
  14   2.0000      -1.039769       -28.2936
  15   2.0000      -1.011222       -27.5168
  16   2.0000      -0.987855       -26.8809
  17   2.0000      -0.789436       -21.4817
  18   2.0000      -0.783455       -21.3189
  19   2.0000      -0.770081       -20.9550
  20   2.0000      -0.730241       -19.8709
  21   2.0000      -0.678695       -18.4682
  22   2.0000      -0.609286       -16.5795
  23   2.0000      -0.602983       -16.4080
  24   2.0000      -0.593946       -16.1621
  25   2.0000      -0.575214       -15.6524
  26   2.0000      -0.530740       -14.4422
  27   2.0000      -0.506060       -13.7706
  28   2.0000      -0.500974       -13.6322
  29   2.0000      -0.490265       -13.3408
  30   2.0000      -0.478570       -13.0226
  31   2.0000      -0.459035       -12.4910
  32   2.0000      -0.450813       -12.2672
  33   2.0000      -0.446261       -12.1434
  34   2.0000      -0.427031       -11.6201
  35   2.0000      -0.406575       -11.0635
  36   2.0000      -0.401107       -10.9147
  37   2.0000      -0.399215       -10.8632
  38   2.0000      -0.378710       -10.3052
  39   2.0000      -0.373433       -10.1616
  40   2.0000      -0.367492       -10.0000
  41   2.0000      -0.353588        -9.6216
  42   2.0000      -0.350836        -9.5467
  43   2.0000      -0.336218        -9.1490
  44   2.0000      -0.314593        -8.5605
  45   2.0000      -0.307957        -8.3799
  46   2.0000      -0.297003        -8.0819
  47   2.0000      -0.277382        -7.5479
  48   2.0000      -0.269599        -7.3362
  49   2.0000      -0.252619        -6.8741
  50   2.0000      -0.236049        -6.4232
  51   0.0000       0.057164         1.5555
  52   0.0000       0.076613         2.0847
  53   0.0000       0.087389         2.3780
  54   0.0000       0.095902         2.6096
  55   0.0000       0.103321         2.8115

MULLIKEN ATOMIC CHARGES
-----------------------
   0 C :    0.297353
   1 C :   -0.285812
   2 C :   -0.297076
   3 C :    0.000779
   4 O :   -0.500453
   5 H :    0.175521
   6 H :    0.147857
   7 H :    0.136859
   8 H :    0.140151
   9 H :    0.156020
  10 H :    0.153333
  11 H :    0.139866
  12 C :   -0.026126
  13 H :    0.151065
  14 H :    0.116128
  15 O :   -0.506014
  16 C :    0.067561
  17 C :    0.077930
  18 C :   -0.289922
  19 C :   -0.036181
  20 O :   -0.516855
  21 H :    0.174800
  22 O :   -0.601713
  23 H :    0.153969
  24 H :    0.165884
  25 H :    0.140220
  26 H :    0.144134
  27 H :    0.153186
  28 H :    0.367535
Sum of atomic charges:   -0.0000000

LOEWDIN ATOMIC CHARGES
----------------------
   0 C :    0.179505
   1 C :   -0.234015
   2 C :   -0.217263
   3 C :   -0.025700
   4 O :   -0.300520
   5 H :    0.113349
   6 H :    0.115681
   7 H :    0.109157
   8 H :    0.113100
   9 H :    0.115627
  10 H :    0.108951
  11 H :    0.101461
  12 C :   -0.045789
  13 H :    0.114475
  14 H :    0.087476
  15 O :   -0.328810
  16 C :    0.007371
  17 C :    0.034923
  18 C :   -0.239659
  19 C :   -0.040864
  20 O :   -0.326845
  21 H :    0.122961
  22 O :   -0.413670
  23 H :    0.116518
  24 H :    0.128328
  25 H :    0.110854
  26 H :    0.102480
  27 H :    0.105875
  28 H :    0.285047

  Mayer bond orders larger than 0.100000
B(  0-C ,  1-C ) :   0.9294 B(  0-C ,  4-O ) :   0.9314 B(  0-C ,  5-H ) :   0.9071
B(  0-C , 15-O ) :   0.8177 B(  1-C ,  2-C ) :   0.9492 B(  1-C ,  6-H ) :   0.9345
B(  1-C ,  7-H ) :   0.9310 B(  2-C ,  3-C ) :   0.9568 B(  2-C ,  8-H ) :   0.9452
B(  2-C ,  9-H ) :   0.9455 B(  3-C ,  4-O ) :   0.8385 B(  3-C , 10-H ) :   0.9345
B(  3-C , 11-H ) :   0.9399 B( 12-C , 13-H ) :   0.9284 B( 12-C , 14-H ) :   0.9134
B( 12-C , 15-O ) :   0.8772 B( 12-C , 16-C ) :   0.8831 B( 16-C , 17-C ) :   0.8950
B( 16-C , 20-O ) :   0.8521 B( 16-C , 21-H ) :   0.9236 B( 17-C , 18-C ) :   0.9079
B( 17-C , 22-O ) :   0.8940 B( 17-C , 23-H ) :   0.9335 B( 18-C , 19-C ) :   0.9405
B( 18-C , 24-H ) :   0.9368 B( 18-C , 25-H ) :   0.9345 B( 19-C , 20-O ) :   0.8469
B( 19-C , 26-H ) :   0.9344 B( 19-C , 27-H ) :   0.9370 B( 22-O , 28-H ) :   0.7932

FINAL SINGLE POINT ENERGY      -652.859608533547

DIPOLE MOMENT
-------------
                                X             Y             Z
Electronic contribution:     -3.15315      -5.73985       1.19080
Nuclear contribution   :      3.81186       7.10332      -2.02552
                        -----------------------------------------
Total Dipole Moment    :      0.65871       1.36347      -0.83472
                        -----------------------------------------
Magnitude (a.u.)       :      1.72908
Magnitude (Debye)      :      4.39497

Rotational constants in cm-1:     0.068058     0.012295     0.012075
Rotational constants in MHz :  2040.334948   368.600401   362.011666

                             ****ORCA TERMINATED NORMALLY****
TOTAL RUN TIME: 0 days 0 hours 56 minutes 11 seconds 410 msec
