                         Program Version 4.2.0 -  RELEASE  -
|  1> # Test redundant internal optimization
|  2> #
|  3> ! RKS B3LYP  Opt TightSCF SmallPrint
|  4>
|  5> %basis
|  6>         Basis "6-31G"
|  7> end
|  8>
|  9> %geom
| 10> Constraints
| 11> { D 4  0  15  12  0.0   C } # D for Dihedral angle
| 12> { D 0  15  12  16  210.0   C } # D for Dihedral angle
| 13> { D 0  4  3  2   C } # D for Dihedral angle
| 14> { D 4  3  2  1   C } # D for Dihedral angle
| 15> { D 3  2  1  0   C } # D for Dihedral angle
| 16> { D 2  1  0  4   C } # D for Dihedral angle
| 17> { D 1  0  4  3   C } # D for Dihedral angle
| 18> { D 16  20  19  18   C } # D for Dihedral angle
| 19> { D 20  19  18  17   C } # D for Dihedral angle
| 20> { D 19  18  17  16   C } # D for Dihedral angle
| 21> { D 18  17  16  20   C } # D for Dihedral angle
| 22> { D 17  16  20  19   C } # D for Dihedral angle
| 23> { D 15  12  16  20   C } # D for Dihedral angle
| 24> end
| 25> end
| 26>
| 27>
| 28> #%pal
| 29> #nprocs 8
| 30> #end
| 31>
| 32> * xyz 0 1
| 33> C  -21.048   26.222   46.251
| 34> C  -20.361   27.558   45.944
| 35> C  -20.329   28.222   47.341
| 36> C  -20.110   27.022   48.296
| 37> O  -20.473   25.807   47.535
| 38> H  -20.833   25.428   45.533
| 39> H  -19.344   27.382   45.576
| 40> H  -20.898   28.157   45.201
| 41> H  -19.543   28.978   47.434
| 42> H  -21.289   28.710   47.548
| 43> H  -20.733   27.082   49.195
| 44> H  -19.064   26.913   48.597
| 45> C  -23.172   26.101   47.783
| 46> H  -22.547   25.353   48.287
| 47> H  -23.176   27.012   48.395
| 48> O  -22.586   26.394   46.375
| 49> C  -24.628   25.562   47.728
| 50> C  -25.546   26.517   46.955
| 51> C  -25.198   26.169   45.488
| 52> C  -24.927   24.644   45.544
| 53> O  -24.684   24.311   46.964
| 54> H  -24.964   25.334   48.741
| 55> O  -27.033   26.188   47.258
| 56> H  -25.370   27.572   47.195
| 57> H  -26.000   26.425   44.789
| 58> H  -24.296   26.710   45.177
| 59> H  -24.054   24.351   44.951
| 60> H  -25.790   24.055   45.218
| 61> H  -27.233   25.136   47.025
| 62> *
| 63>
| 64>                          ****END OF INPUT****
 Total Charge           Charge          ....    0
 Multiplicity           Mult            ....    1
 Number of Electrons    NEL             ....  102
FINAL SINGLE POINT ENERGY      -652.835491392494
FINAL SINGLE POINT ENERGY      -652.857279625170
FINAL SINGLE POINT ENERGY      -652.861440889247
FINAL SINGLE POINT ENERGY      -652.862372825501
FINAL SINGLE POINT ENERGY      -652.862483594656
FINAL SINGLE POINT ENERGY      -652.862500619569
                    ***********************HURRAY********************

CARTESIAN COORDINATES (ANGSTROEM)
---------------------------------
  C    -21.090764   26.196265   46.371884
  C    -20.456885   27.535277   45.994590
  C    -20.317820   28.220477   47.374475
  C    -19.999296   27.042836   48.321201
  O    -20.415174   25.813356   47.586394
  H    -20.928845   25.386493   45.657999
  H    -19.474185   27.355742   45.543117
  H    -21.074534   28.099033   45.292279
  H    -19.534828   28.984757   47.388148
  H    -21.262710   28.700295   47.650326
  H    -20.543534   27.084942   49.268301
  H    -18.930447   26.933818   48.523699
  C    -23.158877   26.110806   47.807209
  H    -22.578291   25.365020   48.356968
  H    -23.183104   27.041826   48.394801
  O    -22.540257   26.347954   46.510881
  C    -24.585576   25.594135   47.629805
  C    -25.566202   26.506778   46.878538
  C    -25.257884   26.155237   45.399335
  C    -24.929701   24.643094   45.463338
  O    -24.623854   24.337934   46.881253
  H    -24.976872   25.377126   48.631676
  O    -26.940765   26.196590   47.247831
  H    -25.442861   27.566002   47.106257
  H    -26.117055   26.379713   44.760377
  H    -24.388426   26.722678   45.064204
  H    -24.061784   24.380332   44.852630
  H    -25.775283   24.009857   45.173837
  H    -27.073186   25.226628   47.192645

 Multiplicity           Mult            ....    1
 Number of Electrons    NEL             ....  102
 Basis Dimension        Dim             ....  149

ORBITAL ENERGIES
----------------

  NO   OCC          E(Eh)            E(eV)
   0   2.0000     -19.155154      -521.2382
   1   2.0000     -19.142182      -520.8852
   2   2.0000     -19.133188      -520.6405
   3   2.0000     -19.131054      -520.5825
   4   2.0000     -10.283718      -279.8342
   5   2.0000     -10.236590      -278.5518
   6   2.0000     -10.232150      -278.4310
   7   2.0000     -10.229270      -278.3526
   8   2.0000     -10.227843      -278.3138
   9   2.0000     -10.219003      -278.0732
  10   2.0000     -10.195668      -277.4382
  11   2.0000     -10.190286      -277.2918
  12   2.0000     -10.172373      -276.8044
  13   2.0000      -1.059394       -28.8276
  14   2.0000      -1.028493       -27.9867
  15   2.0000      -1.000614       -27.2281
  16   2.0000      -0.991508       -26.9803
  17   2.0000      -0.795678       -21.6515
  18   2.0000      -0.775136       -21.0925
  19   2.0000      -0.761238       -20.7143
  20   2.0000      -0.735571       -20.0159
  21   2.0000      -0.670707       -18.2509
  22   2.0000      -0.608620       -16.5614
  23   2.0000      -0.599762       -16.3204
  24   2.0000      -0.592691       -16.1279
  25   2.0000      -0.567430       -15.4406
  26   2.0000      -0.525014       -14.2864
  27   2.0000      -0.510820       -13.9001
  28   2.0000      -0.497131       -13.5276
  29   2.0000      -0.487245       -13.2586
  30   2.0000      -0.471002       -12.8166
  31   2.0000      -0.459064       -12.4918
  32   2.0000      -0.447692       -12.1823
  33   2.0000      -0.437808       -11.9134
  34   2.0000      -0.421268       -11.4633
  35   2.0000      -0.407508       -11.0889
  36   2.0000      -0.400869       -10.9082
  37   2.0000      -0.383487       -10.4352
  38   2.0000      -0.375999       -10.2315
  39   2.0000      -0.369274       -10.0485
  40   2.0000      -0.364958        -9.9310
  41   2.0000      -0.358159        -9.7460
  42   2.0000      -0.349062        -9.4985
  43   2.0000      -0.336972        -9.1695
  44   2.0000      -0.322551        -8.7771
  45   2.0000      -0.307895        -8.3782
  46   2.0000      -0.296141        -8.0584
  47   2.0000      -0.270335        -7.3562
  48   2.0000      -0.264059        -7.1854
  49   2.0000      -0.252280        -6.8649
  50   2.0000      -0.237115        -6.4522
  51   0.0000       0.066233         1.8023
  52   0.0000       0.078140         2.1263
  53   0.0000       0.095910         2.6099
  54   0.0000       0.101553         2.7634
  55   0.0000       0.108001         2.9389

MULLIKEN ATOMIC CHARGES
-----------------------
   0 C :    0.305742
   1 C :   -0.255121
   2 C :   -0.310815
   3 C :   -0.016353
   4 O :   -0.508622
   5 H :    0.160872
   6 H :    0.145703
   7 H :    0.157615
   8 H :    0.149823
   9 H :    0.156033
  10 H :    0.147065
  11 H :    0.153549
  12 C :    0.000677
  13 H :    0.177014
  14 H :    0.116024
  15 O :   -0.549315
  16 C :    0.065765
  17 C :    0.075834
  18 C :   -0.287548
  19 C :   -0.019754
  20 O :   -0.523727
  21 H :    0.153132
  22 O :   -0.603945
  23 H :    0.147330
  24 H :    0.145685
  25 H :    0.173877
  26 H :    0.146525
  27 H :    0.135169
  28 H :    0.361764
Sum of atomic charges:   -0.0000000

LOEWDIN ATOMIC CHARGES
----------------------
   0 C :    0.184607
   1 C :   -0.220541
   2 C :   -0.219563
   3 C :   -0.031944
   4 O :   -0.313713
   5 H :    0.108039
   6 H :    0.114480
   7 H :    0.123983
   8 H :    0.118566
   9 H :    0.114591
  10 H :    0.104176
  11 H :    0.108872
  12 C :   -0.040100
  13 H :    0.121165
  14 H :    0.087779
  15 O :   -0.346468
  16 C :    0.013989
  17 C :    0.038013
  18 C :   -0.242901
  19 C :   -0.033498
  20 O :   -0.328700
  21 H :    0.114625
  22 O :   -0.418652
  23 H :    0.113924
  24 H :    0.116936
  25 H :    0.129906
  26 H :    0.105630
  27 H :    0.095416
  28 H :    0.281384

  Mayer bond orders larger than 0.100000
B(  0-C ,  1-C ) :   0.9322 B(  0-C ,  4-O ) :   0.9165 B(  0-C ,  5-H ) :   0.9296
B(  0-C , 15-O ) :   0.8301 B(  1-C ,  2-C ) :   0.9517 B(  1-C ,  6-H ) :   0.9347
B(  1-C ,  7-H ) :   0.9364 B(  2-C ,  3-C ) :   0.9534 B(  2-C ,  8-H ) :   0.9445
B(  2-C ,  9-H ) :   0.9450 B(  3-C ,  4-O ) :   0.8275 B(  3-C , 10-H ) :   0.9335
B(  3-C , 11-H ) :   0.9401 B( 12-C , 13-H ) :   0.9068 B( 12-C , 14-H ) :   0.9112
B( 12-C , 15-O ) :   0.8348 B( 12-C , 16-C ) :   0.9048 B( 16-C , 17-C ) :   0.9075
B( 16-C , 20-O ) :   0.8732 B( 16-C , 21-H ) :   0.9221 B( 17-C , 18-C ) :   0.9255
B( 17-C , 22-O ) :   0.8905 B( 17-C , 23-H ) :   0.9364 B( 18-C , 19-C ) :   0.9458
B( 18-C , 24-H ) :   0.9375 B( 18-C , 25-H ) :   0.9186 B( 19-C , 20-O ) :   0.8420
B( 19-C , 26-H ) :   0.9349 B( 19-C , 27-H ) :   0.9366 B( 22-O , 28-H ) :   0.7964

FINAL SINGLE POINT ENERGY      -652.862500494446

DIPOLE MOMENT
-------------
                                X             Y             Z
Electronic contribution:     -2.89300      -4.30778       1.08300
Nuclear contribution   :      3.89235       5.18644      -1.28926
                        -----------------------------------------
Total Dipole Moment    :      0.99935       0.87865      -0.20626
                        -----------------------------------------
Magnitude (a.u.)       :      1.34658
Magnitude (Debye)      :      3.42272

Rotational constants in cm-1:     0.059043     0.013470     0.013319
Rotational constants in MHz :  1770.057700   403.809907   399.282376

                             ****ORCA TERMINATED NORMALLY****
TOTAL RUN TIME: 0 days 0 hours 28 minutes 49 seconds 389 msec
