                         Program Version 4.2.0 -  RELEASE  -
|  1> # Test redundant internal optimization
|  2> #
|  3> ! RKS B3LYP  Opt TightSCF SmallPrint
|  4>
|  5> %basis
|  6>         Basis "6-31G"
|  7> end
|  8>
|  9> %geom
| 10> Constraints
| 11> { D 4  0  15  12  255.0   C } # D for Dihedral angle
| 12> { D 0  15  12  16  105.0   C } # D for Dihedral angle
| 13> { D 0  4  3  2   C } # D for Dihedral angle
| 14> { D 4  3  2  1   C } # D for Dihedral angle
| 15> { D 3  2  1  0   C } # D for Dihedral angle
| 16> { D 2  1  0  4   C } # D for Dihedral angle
| 17> { D 1  0  4  3   C } # D for Dihedral angle
| 18> { D 16  20  19  18   C } # D for Dihedral angle
| 19> { D 20  19  18  17   C } # D for Dihedral angle
| 20> { D 19  18  17  16   C } # D for Dihedral angle
| 21> { D 18  17  16  20   C } # D for Dihedral angle
| 22> { D 17  16  20  19   C } # D for Dihedral angle
| 23> { D 15  12  16  20   C } # D for Dihedral angle
| 24> end
| 25> end
| 26>
| 27>
| 28> #%pal
| 29> #nprocs 8
| 30> #end
| 31>
| 32> * xyz 0 1
| 33> C  -21.048   26.222   46.251
| 34> C  -20.361   27.558   45.944
| 35> C  -20.329   28.222   47.341
| 36> C  -20.110   27.022   48.296
| 37> O  -20.473   25.807   47.535
| 38> H  -20.833   25.428   45.533
| 39> H  -19.344   27.382   45.576
| 40> H  -20.898   28.157   45.201
| 41> H  -19.543   28.978   47.434
| 42> H  -21.289   28.710   47.548
| 43> H  -20.733   27.082   49.195
| 44> H  -19.064   26.913   48.597
| 45> C  -23.431   25.260   45.734
| 46> H  -24.247   25.703   45.149
| 47> H  -22.813   24.656   45.056
| 48> O  -22.586   26.394   46.375
| 49> C  -24.050   24.302   46.789
| 50> C  -25.064   25.032   47.677
| 51> C  -26.310   25.075   46.759
| 52> C  -26.227   23.732   45.991
| 53> O  -24.836   23.253   46.130
| 54> H  -23.246   23.804   47.335
| 55> H  -25.268   24.442   48.578
| 56> O  -24.588   26.444   48.113
| 57> H  -27.245   25.180   47.319
| 58> H  -26.237   25.922   46.067
| 59> H  -26.465   23.842   44.928
| 60> H  -26.877   22.965   46.421
| 61> H  -24.378   27.052   47.226
| 62> *
| 63>
| 64>                          ****END OF INPUT****
 Total Charge           Charge          ....    0
 Multiplicity           Mult            ....    1
 Number of Electrons    NEL             ....  102
FINAL SINGLE POINT ENERGY      -652.833160629788
FINAL SINGLE POINT ENERGY      -652.857723173310
FINAL SINGLE POINT ENERGY      -652.863962962565
FINAL SINGLE POINT ENERGY      -652.866231984830
FINAL SINGLE POINT ENERGY      -652.867507892716
FINAL SINGLE POINT ENERGY      -652.868275383633
FINAL SINGLE POINT ENERGY      -652.868578524042
FINAL SINGLE POINT ENERGY      -652.868644281155
FINAL SINGLE POINT ENERGY      -652.868651043979
                    ***********************HURRAY********************

CARTESIAN COORDINATES (ANGSTROEM)
---------------------------------
  C    -21.070033   26.140524   46.212845
  C    -20.451742   27.511709   45.942401
  C    -20.549036   28.185412   47.332139
  C    -20.317430   27.008706   48.305413
  O    -20.562597   25.775272   47.509264
  H    -20.795071   25.343410   45.517481
  H    -19.405272   27.381247   45.643647
  H    -20.980304   28.057136   45.158095
  H    -19.812904   28.983879   47.463719
  H    -21.546142   28.615108   47.469126
  H    -21.000884   27.012008   49.157918
  H    -19.286351   26.947562   48.664332
  C    -23.340843   25.226756   45.635531
  H    -24.092931   25.730791   45.020985
  H    -22.730766   24.586284   44.987831
  O    -22.516951   26.281900   46.237790
  C    -23.984360   24.378635   46.739559
  C    -24.957722   25.141301   47.653669
  C    -26.244461   25.181567   46.778428
  C    -26.208374   23.828813   46.037901
  O    -24.803342   23.330427   46.134637
  H    -23.194704   23.879273   47.308617
  H    -25.143990   24.536082   48.548024
  O    -24.522004   26.442898   48.093825
  H    -27.144509   25.310043   47.385551
  H    -26.180159   26.032888   46.091699
  H    -26.481641   23.903803   44.980838
  H    -26.839377   23.071507   46.512064
  H    -23.729100   26.714059   47.574669

 Multiplicity           Mult            ....    1
 Number of Electrons    NEL             ....  102
 Basis Dimension        Dim             ....  149

ORBITAL ENERGIES
----------------

  NO   OCC          E(Eh)            E(eV)
   0   2.0000     -19.164156      -521.4832
   1   2.0000     -19.148341      -521.0529
   2   2.0000     -19.138635      -520.7887
   3   2.0000     -19.112321      -520.0727
   4   2.0000     -10.292577      -280.0753
   5   2.0000     -10.240243      -278.6512
   6   2.0000     -10.230850      -278.3956
   7   2.0000     -10.230189      -278.3776
   8   2.0000     -10.228399      -278.3289
   9   2.0000     -10.225243      -278.2430
  10   2.0000     -10.193345      -277.3750
  11   2.0000     -10.192285      -277.3462
  12   2.0000     -10.177952      -276.9561
  13   2.0000      -1.065332       -28.9892
  14   2.0000      -1.023658       -27.8552
  15   2.0000      -1.007031       -27.4027
  16   2.0000      -0.991266       -26.9737
  17   2.0000      -0.795471       -21.6459
  18   2.0000      -0.771472       -20.9928
  19   2.0000      -0.766091       -20.8464
  20   2.0000      -0.735710       -20.0197
  21   2.0000      -0.679169       -18.4811
  22   2.0000      -0.606182       -16.4950
  23   2.0000      -0.601148       -16.3581
  24   2.0000      -0.594442       -16.1756
  25   2.0000      -0.581804       -15.8317
  26   2.0000      -0.527199       -14.3458
  27   2.0000      -0.522776       -14.2255
  28   2.0000      -0.496521       -13.5110
  29   2.0000      -0.487425       -13.2635
  30   2.0000      -0.471401       -12.8275
  31   2.0000      -0.455790       -12.4027
  32   2.0000      -0.447300       -12.1717
  33   2.0000      -0.437629       -11.9085
  34   2.0000      -0.424770       -11.5586
  35   2.0000      -0.413164       -11.2428
  36   2.0000      -0.407282       -11.0827
  37   2.0000      -0.386561       -10.5189
  38   2.0000      -0.381514       -10.3815
  39   2.0000      -0.364904        -9.9296
  40   2.0000      -0.363054        -9.8792
  41   2.0000      -0.358532        -9.7561
  42   2.0000      -0.347607        -9.4589
  43   2.0000      -0.341840        -9.3020
  44   2.0000      -0.329764        -8.9733
  45   2.0000      -0.317868        -8.6496
  46   2.0000      -0.290080        -7.8935
  47   2.0000      -0.280540        -7.6339
  48   2.0000      -0.262458        -7.1419
  49   2.0000      -0.245790        -6.6883
  50   2.0000      -0.239019        -6.5040
  51   0.0000       0.055299         1.5048
  52   0.0000       0.083787         2.2800
  53   0.0000       0.091437         2.4881
  54   0.0000       0.098056         2.6682
  55   0.0000       0.104053         2.8314

MULLIKEN ATOMIC CHARGES
-----------------------
   0 C :    0.290142
   1 C :   -0.254154
   2 C :   -0.306357
   3 C :   -0.010293
   4 O :   -0.502129
   5 H :    0.150947
   6 H :    0.149643
   7 H :    0.153568
   8 H :    0.147288
   9 H :    0.164362
  10 H :    0.162632
  11 H :    0.146926
  12 C :   -0.034149
  13 H :    0.156058
  14 H :    0.153354
  15 O :   -0.553206
  16 C :    0.058174
  17 C :    0.119558
  18 C :   -0.298997
  19 C :   -0.023865
  20 O :   -0.521811
  21 H :    0.169018
  22 H :    0.148435
  23 O :   -0.646397
  24 H :    0.149912
  25 H :    0.143726
  26 H :    0.141046
  27 H :    0.150893
  28 H :    0.395676
Sum of atomic charges:   -0.0000000

LOEWDIN ATOMIC CHARGES
----------------------
   0 C :    0.176687
   1 C :   -0.217814
   2 C :   -0.216978
   3 C :   -0.028548
   4 O :   -0.318950
   5 H :    0.104224
   6 H :    0.116425
   7 H :    0.122239
   8 H :    0.117049
   9 H :    0.118996
  10 H :    0.112765
  11 H :    0.105551
  12 C :   -0.042150
  13 H :    0.110096
  14 H :    0.110599
  15 O :   -0.338110
  16 C :    0.009520
  17 C :    0.042689
  18 C :   -0.236237
  19 C :   -0.033600
  20 O :   -0.325901
  21 H :    0.119212
  22 H :    0.105400
  23 O :   -0.437148
  24 H :    0.120858
  25 H :    0.110397
  26 H :    0.101246
  27 H :    0.106442
  28 H :    0.285042

  Mayer bond orders larger than 0.100000
B(  0-C ,  1-C ) :   0.9474 B(  0-C ,  4-O ) :   0.9394 B(  0-C ,  5-H ) :   0.9181
B(  0-C , 15-O ) :   0.8056 B(  1-C ,  2-C ) :   0.9551 B(  1-C ,  6-H ) :   0.9369
B(  1-C ,  7-H ) :   0.9370 B(  2-C ,  3-C ) :   0.9524 B(  2-C ,  8-H ) :   0.9449
B(  2-C ,  9-H ) :   0.9436 B(  3-C ,  4-O ) :   0.8291 B(  3-C , 10-H ) :   0.9327
B(  3-C , 11-H ) :   0.9397 B( 12-C , 13-H ) :   0.9347 B( 12-C , 14-H ) :   0.9258
B( 12-C , 15-O ) :   0.7966 B( 12-C , 16-C ) :   0.8894 B( 16-C , 17-C ) :   0.9158
B( 16-C , 20-O ) :   0.8506 B( 16-C , 21-H ) :   0.9274 B( 17-C , 18-C ) :   0.9016
B( 17-C , 22-H ) :   0.9302 B( 17-C , 23-O ) :   0.9308 B( 18-C , 19-C ) :   0.9406
B( 18-C , 24-H ) :   0.9455 B( 18-C , 25-H ) :   0.9435 B( 19-C , 20-O ) :   0.8336
B( 19-C , 26-H ) :   0.9340 B( 19-C , 27-H ) :   0.9380 B( 23-O , 28-H ) :   0.7209

FINAL SINGLE POINT ENERGY      -652.868652679964

DIPOLE MOMENT
-------------
                                X             Y             Z
Electronic contribution:      0.19409      -3.48522       0.74474
Nuclear contribution   :      0.31970       4.18007      -1.56929
                        -----------------------------------------
Total Dipole Moment    :      0.51378       0.69486      -0.82456
                        -----------------------------------------
Magnitude (a.u.)       :      1.19444
Magnitude (Debye)      :      3.03603

Rotational constants in cm-1:     0.060082     0.013771     0.012887
Rotational constants in MHz :  1801.214089   412.851850   386.352553

                             ****ORCA TERMINATED NORMALLY****
TOTAL RUN TIME: 0 days 0 hours 26 minutes 2 seconds 722 msec
