                         Program Version 4.2.1 -  RELEASE  -
|  1> # Test redundant internal optimization
|  2> #
|  3> ! RKS B3LYP  Opt TightSCF SmallPrint
|  4>
|  5> %basis
|  6>         Basis "6-31G"
|  7> end
|  8>
|  9> %geom
| 10> Constraints
| 11> { D 4  0  19  14  300.0   C } # D for Dihedral angle
| 12> { D 0  19  14  12  345.0   C } # D for Dihedral angle
| 13> { D 0  4  3  2   C } # D for Dihedral angle
| 14> { D 4  3  2  1   C } # D for Dihedral angle
| 15> { D 3  2  1  0   C } # D for Dihedral angle
| 16> { D 2  1  0  4   C } # D for Dihedral angle
| 17> { D 1  0  4  3   C } # D for Dihedral angle
| 18> { D 14  15  16  17   C } # D for Dihedral angle
| 19> { D 15  16  17  12   C } # D for Dihedral angle
| 20> { D 16  17  12  14   C } # D for Dihedral angle
| 21> { D 17  12  14  15   C } # D for Dihedral angle
| 22> { D 12  14  15  16   C } # D for Dihedral angle
| 23> end
| 24> end
| 25>
| 26>
| 27> #%pal
| 28> #nprocs 8
| 29> #end
| 30>
| 31> * xyz 0 1
| 32> C  -21.048   26.222   46.251
| 33> C  -20.361   27.558   45.944
| 34> C  -20.329   28.222   47.341
| 35> C  -20.110   27.022   48.296
| 36> O  -20.473   25.807   47.535
| 37> H  -20.833   25.428   45.533
| 38> H  -19.344   27.382   45.576
| 39> H  -20.898   28.157   45.201
| 40> H  -19.543   28.978   47.434
| 41> H  -21.289   28.710   47.548
| 42> H  -20.733   27.082   49.195
| 43> H  -19.064   26.913   48.597
| 44> C  -22.261   23.967   46.592
| 45> H  -22.840   23.030   46.602
| 46> C  -23.171   25.189   46.758
| 47> C  -23.430   25.183   48.282
| 48> C  -22.088   24.677   48.866
| 49> O  -21.364   24.025   47.752
| 50> H  -21.631   23.989   45.701
| 51> O  -22.472   26.381   46.366
| 52> H  -24.093   25.120   46.170
| 53> H  -23.709   26.168   48.670
| 54> H  -24.243   24.487   48.524
| 55> H  -22.227   23.953   49.676
| 56> H  -21.455   25.494   49.226
| 57> *
| 58>
| 59>                          ****END OF INPUT****
 Total Charge           Charge          ....    0
 Multiplicity           Mult            ....    1
 Number of Electrons    NEL             ....   86
FINAL SINGLE POINT ENERGY      -538.359152166157
FINAL SINGLE POINT ENERGY      -538.422199741983
FINAL SINGLE POINT ENERGY      -538.426047269732
FINAL SINGLE POINT ENERGY      -538.426892850344
FINAL SINGLE POINT ENERGY      -538.427112393035
FINAL SINGLE POINT ENERGY      -538.427222492373
FINAL SINGLE POINT ENERGY      -538.427225514953
FINAL SINGLE POINT ENERGY      -538.427228678611
                    ***********************HURRAY********************

CARTESIAN COORDINATES (ANGSTROEM)
---------------------------------
  C    -20.812103   26.304093   46.212322
  C    -20.416682   27.751781   45.918308
  C    -20.356480   28.357268   47.339724
  C    -19.824559   27.189223   48.197890
  O    -20.048390   25.957902   47.392295
  H    -20.513518   25.574642   45.453528
  H    -19.430035   27.762755   45.441402
  H    -21.135867   28.251333   45.266318
  H    -19.712684   29.240445   47.394713
  H    -21.363447   28.643365   47.656835
  H    -20.343557   27.088524   49.154816
  H    -18.747384   27.249583   48.380144
  C    -22.404673   23.728704   46.702977
  H    -23.202560   22.974783   46.626930
  C    -23.034986   25.118370   46.775581
  C    -23.464378   25.185172   48.250104
  C    -22.351872   24.406350   48.992113
  O    -21.659462   23.595135   47.958183
  H    -21.696364   23.581627   45.885334
  O    -22.243035   26.288509   46.382014
  H    -23.906857   25.183379   46.115171
  H    -23.563911   26.221408   48.581423
  H    -24.435603   24.690145   48.366083
  H    -22.745717   23.737410   49.765124
  H    -21.594877   25.062093   49.426669

 Multiplicity           Mult            ....    1
 Number of Electrons    NEL             ....   86
 Basis Dimension        Dim             ....  127

ORBITAL ENERGIES
----------------

  NO   OCC          E(Eh)            E(eV)
   0   2.0000     -19.138047      -520.7727
   1   2.0000     -19.134529      -520.6770
   2   2.0000     -19.122294      -520.3441
   3   2.0000     -10.275171      -279.6016
   4   2.0000     -10.238494      -278.6036
   5   2.0000     -10.222889      -278.1790
   6   2.0000     -10.221741      -278.1477
   7   2.0000     -10.214429      -277.9487
   8   2.0000     -10.182487      -277.0796
   9   2.0000     -10.181862      -277.0625
  10   2.0000     -10.180634      -277.0291
  11   2.0000      -1.046090       -28.4655
  12   2.0000      -1.005324       -27.3563
  13   2.0000      -0.985367       -26.8132
  14   2.0000      -0.790511       -21.5109
  15   2.0000      -0.774357       -21.0713
  16   2.0000      -0.734600       -19.9895
  17   2.0000      -0.721012       -19.6197
  18   2.0000      -0.618318       -16.8253
  19   2.0000      -0.594771       -16.1845
  20   2.0000      -0.593203       -16.1419
  21   2.0000      -0.560192       -15.2436
  22   2.0000      -0.517235       -14.0747
  23   2.0000      -0.496787       -13.5183
  24   2.0000      -0.486075       -13.2268
  25   2.0000      -0.477251       -12.9867
  26   2.0000      -0.445386       -12.1196
  27   2.0000      -0.436378       -11.8744
  28   2.0000      -0.426308       -11.6004
  29   2.0000      -0.408915       -11.1271
  30   2.0000      -0.399981       -10.8840
  31   2.0000      -0.378532       -10.3004
  32   2.0000      -0.375430       -10.2160
  33   2.0000      -0.360960        -9.8222
  34   2.0000      -0.356655        -9.7051
  35   2.0000      -0.351717        -9.5707
  36   2.0000      -0.340230        -9.2581
  37   2.0000      -0.323970        -8.8157
  38   2.0000      -0.301304        -8.1989
  39   2.0000      -0.283534        -7.7154
  40   2.0000      -0.263151        -7.1607
  41   2.0000      -0.246880        -6.7179
  42   2.0000      -0.226375        -6.1600
  43   0.0000       0.074706         2.0328
  44   0.0000       0.092701         2.5225
  45   0.0000       0.102511         2.7895
  46   0.0000       0.112307         3.0560
  47   0.0000       0.114859         3.1255

MULLIKEN ATOMIC CHARGES
-----------------------
   0 C :    0.304093
   1 C :   -0.261997
   2 C :   -0.297392
   3 C :   -0.011769
   4 O :   -0.492962
   5 H :    0.142383
   6 H :    0.145595
   7 H :    0.156827
   8 H :    0.139359
   9 H :    0.156873
  10 H :    0.138187
  11 H :    0.146320
  12 C :   -0.031736
  13 H :    0.131350
  14 C :    0.107436
  15 C :   -0.295632
  16 C :   -0.002753
  17 O :   -0.506047
  18 H :    0.156729
  19 O :   -0.547985
  20 H :    0.143631
  21 H :    0.155385
  22 H :    0.137104
  23 H :    0.132038
  24 H :    0.154964
Sum of atomic charges:   -0.0000000

LOEWDIN ATOMIC CHARGES
----------------------
   0 C :    0.177544
   1 C :   -0.213554
   2 C :   -0.216704
   3 C :   -0.031709
   4 O :   -0.315670
   5 H :    0.094289
   6 H :    0.113904
   7 H :    0.124004
   8 H :    0.112873
   9 H :    0.116111
  10 H :    0.098642
  11 H :    0.104080
  12 C :   -0.050063
  13 H :    0.097671
  14 C :    0.045227
  15 C :   -0.231652
  16 C :   -0.031340
  17 O :   -0.322878
  18 H :    0.115338
  19 O :   -0.333906
  20 H :    0.107913
  21 H :    0.123726
  22 H :    0.111319
  23 H :    0.096870
  24 H :    0.107968

  Mayer bond orders larger than 0.100000
B(  0-C ,  1-C ) :   0.9416 B(  0-C ,  4-O ) :   0.9128 B(  0-C ,  5-H ) :   0.9218
B(  0-C , 19-O ) :   0.8496 B(  1-C ,  2-C ) :   0.9587 B(  1-C ,  6-H ) :   0.9404
B(  1-C ,  7-H ) :   0.9364 B(  2-C ,  3-C ) :   0.9538 B(  2-C ,  8-H ) :   0.9451
B(  2-C ,  9-H ) :   0.9449 B(  3-C ,  4-O ) :   0.8460 B(  3-C , 10-H ) :   0.9310
B(  3-C , 11-H ) :   0.9396 B( 12-C , 13-H ) :   0.9081 B( 12-C , 14-C ) :   0.9274
B( 12-C , 17-O ) :   0.8769 B( 12-C , 18-H ) :   0.9297 B( 14-C , 15-C ) :   0.9336
B( 14-C , 19-O ) :   0.8482 B( 14-C , 20-H ) :   0.9341 B( 15-C , 16-C ) :   0.9500
B( 15-C , 21-H ) :   0.9384 B( 15-C , 22-H ) :   0.9394 B( 16-C , 17-O ) :   0.8543
B( 16-C , 23-H ) :   0.9336 B( 16-C , 24-H ) :   0.9275

FINAL SINGLE POINT ENERGY      -538.427230657281

DIPOLE MOMENT
-------------
                                X             Y             Z
Electronic contribution:      0.69924      -3.11520      -1.47046
Nuclear contribution   :     -1.24700       3.88150       1.35461
                        -----------------------------------------
Total Dipole Moment    :     -0.54776       0.76630      -0.11585
                        -----------------------------------------
Magnitude (a.u.)       :      0.94904
Magnitude (Debye)      :      2.41226

Rotational constants in cm-1:     0.067959     0.027134     0.025075
Rotational constants in MHz :  2037.362191   813.470283   751.719436

                             ****ORCA TERMINATED NORMALLY****
TOTAL RUN TIME: 0 days 0 hours 10 minutes 24 seconds 812 msec
