                         Program Version 4.2.0 -  RELEASE  -
|  1> # Test redundant internal optimization
|  2> #
|  3> ! RKS B3LYP  Opt TightSCF SmallPrint
|  4>
|  5> %basis
|  6>         Basis "6-31G"
|  7> end
|  8>
|  9> %geom
| 10> Constraints
| 11> { D 4  0  15  12  225.0   C } # D for Dihedral angle
| 12> { D 0  15  12  16  195.0   C } # D for Dihedral angle
| 13> { D 0  4  3  2   C } # D for Dihedral angle
| 14> { D 4  3  2  1   C } # D for Dihedral angle
| 15> { D 3  2  1  0   C } # D for Dihedral angle
| 16> { D 2  1  0  4   C } # D for Dihedral angle
| 17> { D 1  0  4  3   C } # D for Dihedral angle
| 18> { D 16  20  19  18   C } # D for Dihedral angle
| 19> { D 20  19  18  17   C } # D for Dihedral angle
| 20> { D 19  18  17  16   C } # D for Dihedral angle
| 21> { D 18  17  16  20   C } # D for Dihedral angle
| 22> { D 17  16  20  19   C } # D for Dihedral angle
| 23> { D 15  12  16  20   C } # D for Dihedral angle
| 24> end
| 25> end
| 26>
| 27>
| 28> #%pal
| 29> #nprocs 8
| 30> #end
| 31>
| 32> * xyz 0 1
| 33> C  -21.048   26.222   46.251
| 34> C  -20.361   27.558   45.944
| 35> C  -20.329   28.222   47.341
| 36> C  -20.110   27.022   48.296
| 37> O  -20.473   25.807   47.535
| 38> H  -20.833   25.428   45.533
| 39> H  -19.344   27.382   45.576
| 40> H  -20.898   28.157   45.201
| 41> H  -19.543   28.978   47.434
| 42> H  -21.289   28.710   47.548
| 43> H  -20.733   27.082   49.195
| 44> H  -19.064   26.913   48.597
| 45> C  -23.415   25.773   45.218
| 46> H  -22.945   26.025   44.259
| 47> H  -23.443   24.679   45.309
| 48> O  -22.586   26.394   46.375
| 49> C  -24.883   26.282   45.190
| 50> C  -24.945   27.785   44.895
| 51> C  -24.745   27.812   43.361
| 52> C  -25.471   26.527   42.889
| 53> O  -25.619   25.665   44.081
| 54> H  -25.384   25.981   46.113
| 55> O  -26.343   28.345   45.276
| 56> H  -24.186   28.362   45.434
| 57> H  -25.150   28.716   42.896
| 58> H  -23.676   27.762   43.121
| 59> H  -24.909   25.986   42.122
| 60> H  -26.477   26.732   42.512
| 61> H  -27.122   27.782   44.747
| 62> *
| 63>
| 64>                          ****END OF INPUT****
 Total Charge           Charge          ....    0
 Multiplicity           Mult            ....    1
 Number of Electrons    NEL             ....  102
FINAL SINGLE POINT ENERGY      -652.835458941664
FINAL SINGLE POINT ENERGY      -652.858538150066
FINAL SINGLE POINT ENERGY      -652.861912384996
FINAL SINGLE POINT ENERGY      -652.862539132271
FINAL SINGLE POINT ENERGY      -652.862638449806
FINAL SINGLE POINT ENERGY      -652.862648066249
                    ***********************HURRAY********************

CARTESIAN COORDINATES (ANGSTROEM)
---------------------------------
  C    -21.109574   26.172620   46.196308
  C    -20.444412   27.512059   45.884962
  C    -20.517724   28.231430   47.252980
  C    -20.326858   27.077276   48.260284
  O    -20.614870   25.831218   47.502164
  H    -20.850105   25.347575   45.526467
  H    -19.402331   27.342473   45.588503
  H    -20.951555   28.056280   45.083862
  H    -19.757408   29.010746   47.360226
  H    -21.503585   28.689578   47.376053
  H    -21.008522   27.131949   49.112442
  H    -19.297839   26.992151   48.621758
  C    -23.311456   25.706331   45.174934
  H    -22.834404   25.894089   44.200675
  H    -23.368488   24.620526   45.322632
  O    -22.555383   26.334627   46.247606
  C    -24.718716   26.298563   45.199954
  C    -24.799127   27.807196   44.926813
  C    -24.695054   27.852143   43.380941
  C    -25.448768   26.572645   42.938616
  O    -25.522242   25.693287   44.132291
  H    -25.199892   26.050338   46.150035
  O    -26.064279   28.351090   45.394073
  H    -24.025138   28.374196   45.440025
  H    -25.144741   28.767487   42.989239
  H    -23.645434   27.825302   43.067815
  H    -24.940071   26.035716   42.132222
  H    -26.477436   26.776962   42.626460
  H    -26.788587   27.733148   45.158659

 Multiplicity           Mult            ....    1
 Number of Electrons    NEL             ....  102
 Basis Dimension        Dim             ....  149

ORBITAL ENERGIES
----------------

  NO   OCC          E(Eh)            E(eV)
   0   2.0000     -19.147020      -521.0169
   1   2.0000     -19.144650      -520.9524
   2   2.0000     -19.140775      -520.8470
   3   2.0000     -19.136492      -520.7304
   4   2.0000     -10.282450      -279.7997
   5   2.0000     -10.237479      -278.5760
   6   2.0000     -10.234749      -278.5017
   7   2.0000     -10.234580      -278.4971
   8   2.0000     -10.233991      -278.4811
   9   2.0000     -10.225354      -278.2460
  10   2.0000     -10.190254      -277.2909
  11   2.0000     -10.188918      -277.2546
  12   2.0000     -10.187286      -277.2101
  13   2.0000      -1.054600       -28.6971
  14   2.0000      -1.037819       -28.2405
  15   2.0000      -1.005880       -27.3714
  16   2.0000      -0.997559       -27.1450
  17   2.0000      -0.789893       -21.4941
  18   2.0000      -0.781002       -21.2521
  19   2.0000      -0.769741       -20.9457
  20   2.0000      -0.731412       -19.9027
  21   2.0000      -0.676465       -18.4076
  22   2.0000      -0.606150       -16.4942
  23   2.0000      -0.600888       -16.3510
  24   2.0000      -0.590394       -16.0655
  25   2.0000      -0.587446       -15.9852
  26   2.0000      -0.524482       -14.2719
  27   2.0000      -0.520331       -14.1589
  28   2.0000      -0.497586       -13.5400
  29   2.0000      -0.491068       -13.3626
  30   2.0000      -0.472341       -12.8530
  31   2.0000      -0.457272       -12.4430
  32   2.0000      -0.453395       -12.3375
  33   2.0000      -0.441969       -12.0266
  34   2.0000      -0.425968       -11.5912
  35   2.0000      -0.415855       -11.3160
  36   2.0000      -0.403996       -10.9933
  37   2.0000      -0.394083       -10.7236
  38   2.0000      -0.376024       -10.2321
  39   2.0000      -0.369599       -10.0573
  40   2.0000      -0.362929        -9.8758
  41   2.0000      -0.357898        -9.7389
  42   2.0000      -0.353960        -9.6317
  43   2.0000      -0.332091        -9.0367
  44   2.0000      -0.316356        -8.6085
  45   2.0000      -0.313661        -8.5352
  46   2.0000      -0.306056        -8.3282
  47   2.0000      -0.272412        -7.4127
  48   2.0000      -0.264968        -7.2101
  49   2.0000      -0.254804        -6.9336
  50   2.0000      -0.245000        -6.6668
  51   0.0000       0.061519         1.6740
  52   0.0000       0.065457         1.7812
  53   0.0000       0.088260         2.4017
  54   0.0000       0.094499         2.5714
  55   0.0000       0.103201         2.8083

MULLIKEN ATOMIC CHARGES
-----------------------
   0 C :    0.290693
   1 C :   -0.256817
   2 C :   -0.302508
   3 C :   -0.001909
   4 O :   -0.500564
   5 H :    0.141781
   6 H :    0.144566
   7 H :    0.139624
   8 H :    0.143047
   9 H :    0.165119
  10 H :    0.155684
  11 H :    0.141940
  12 C :   -0.007230
  13 H :    0.121801
  14 H :    0.157855
  15 O :   -0.521967
  16 C :    0.057551
  17 C :    0.090786
  18 C :   -0.292981
  19 C :   -0.033970
  20 O :   -0.527477
  21 H :    0.171451
  22 O :   -0.604101
  23 H :    0.168491
  24 H :    0.160784
  25 H :    0.138552
  26 H :    0.145865
  27 H :    0.150029
  28 H :    0.363905
Sum of atomic charges:   -0.0000000

LOEWDIN ATOMIC CHARGES
----------------------
   0 C :    0.178528
   1 C :   -0.224280
   2 C :   -0.216934
   3 C :   -0.025581
   4 O :   -0.309497
   5 H :    0.099772
   6 H :    0.113305
   7 H :    0.113630
   8 H :    0.114926
   9 H :    0.119715
  10 H :    0.110047
  11 H :    0.102552
  12 C :   -0.038288
  13 H :    0.087772
  14 H :    0.109254
  15 O :   -0.338970
  16 C :    0.018636
  17 C :    0.038197
  18 C :   -0.240216
  19 C :   -0.038990
  20 O :   -0.329944
  21 H :    0.121251
  22 O :   -0.414675
  23 H :    0.123165
  24 H :    0.126521
  25 H :    0.110010
  26 H :    0.103543
  27 H :    0.104194
  28 H :    0.282355

  Mayer bond orders larger than 0.100000
B(  0-C ,  1-C ) :   0.9371 B(  0-C ,  4-O ) :   0.9377 B(  0-C ,  5-H ) :   0.9209
B(  0-C , 15-O ) :   0.8293 B(  1-C ,  2-C ) :   0.9553 B(  1-C ,  6-H ) :   0.9350
B(  1-C ,  7-H ) :   0.9386 B(  2-C ,  3-C ) :   0.9543 B(  2-C ,  8-H ) :   0.9449
B(  2-C ,  9-H ) :   0.9425 B(  3-C ,  4-O ) :   0.8358 B(  3-C , 10-H ) :   0.9342
B(  3-C , 11-H ) :   0.9397 B( 12-C , 13-H ) :   0.9177 B( 12-C , 14-H ) :   0.9153
B( 12-C , 15-O ) :   0.8282 B( 12-C , 16-C ) :   0.9091 B( 16-C , 17-C ) :   0.9110
B( 16-C , 20-O ) :   0.8420 B( 16-C , 21-H ) :   0.9240 B( 17-C , 18-C ) :   0.9111
B( 17-C , 22-O ) :   0.8904 B( 17-C , 23-H ) :   0.9239 B( 18-C , 19-C ) :   0.9416
B( 18-C , 24-H ) :   0.9383 B( 18-C , 25-H ) :   0.9355 B( 19-C , 20-O ) :   0.8445
B( 19-C , 26-H ) :   0.9355 B( 19-C , 27-H ) :   0.9373 B( 22-O , 28-H ) :   0.7949

FINAL SINGLE POINT ENERGY      -652.862650724617

DIPOLE MOMENT
-------------
                                X             Y             Z
Electronic contribution:     -3.59544      -3.75784       2.22607
Nuclear contribution   :      4.32940       4.31574      -3.26573
                        -----------------------------------------
Total Dipole Moment    :      0.73396       0.55790      -1.03966
                        -----------------------------------------
Magnitude (a.u.)       :      1.38954
Magnitude (Debye)      :      3.53194

Rotational constants in cm-1:     0.055703     0.012599     0.011946
Rotational constants in MHz :  1669.939998   377.716726   358.131338

                             ****ORCA TERMINATED NORMALLY****
TOTAL RUN TIME: 0 days 0 hours 43 minutes 48 seconds 871 msec
