                         Program Version 4.2.1 -  RELEASE  -
|  1> # Test redundant internal optimization
|  2> #
|  3> ! RKS B3LYP  Opt TightSCF SmallPrint
|  4>
|  5> %basis
|  6>         Basis "6-31G"
|  7> end
|  8>
|  9> %geom
| 10> Constraints
| 11> { D 4  0  19  14  270.0   C } # D for Dihedral angle
| 12> { D 0  19  14  12  300.0   C } # D for Dihedral angle
| 13> { D 0  4  3  2   C } # D for Dihedral angle
| 14> { D 4  3  2  1   C } # D for Dihedral angle
| 15> { D 3  2  1  0   C } # D for Dihedral angle
| 16> { D 2  1  0  4   C } # D for Dihedral angle
| 17> { D 1  0  4  3   C } # D for Dihedral angle
| 18> { D 14  15  16  17   C } # D for Dihedral angle
| 19> { D 15  16  17  12   C } # D for Dihedral angle
| 20> { D 16  17  12  14   C } # D for Dihedral angle
| 21> { D 17  12  14  15   C } # D for Dihedral angle
| 22> { D 12  14  15  16   C } # D for Dihedral angle
| 23> end
| 24> end
| 25>
| 26>
| 27> #%pal
| 28> #nprocs 8
| 29> #end
| 30>
| 31> * xyz 0 1
| 32> C  -21.048   26.222   46.251
| 33> C  -20.361   27.558   45.944
| 34> C  -20.329   28.222   47.341
| 35> C  -20.110   27.022   48.296
| 36> O  -20.473   25.807   47.535
| 37> H  -20.833   25.428   45.533
| 38> H  -19.344   27.382   45.576
| 39> H  -20.898   28.157   45.201
| 40> H  -19.543   28.978   47.434
| 41> H  -21.289   28.710   47.548
| 42> H  -20.733   27.082   49.195
| 43> H  -19.064   26.913   48.597
| 44> C  -22.950   24.724   44.649
| 45> H  -23.712   24.006   44.308
| 46> C  -23.226   25.191   46.082
| 47> C  -22.694   23.998   46.910
| 48> C  -21.476   23.512   46.085
| 49> O  -21.636   24.076   44.726
| 50> H  -22.866   25.530   43.918
| 51> O  -22.472   26.381   46.366
| 52> H  -24.285   25.400   46.270
| 53> H  -22.422   24.277   47.932
| 54> H  -23.457   23.211   46.970
| 55> H  -21.422   22.421   46.016
| 56> H  -20.527   23.889   46.480
| 57> *
| 58>
| 59>                          ****END OF INPUT****
 Total Charge           Charge          ....    0
 Multiplicity           Mult            ....    1
 Number of Electrons    NEL             ....   86
FINAL SINGLE POINT ENERGY      -538.419855664820
FINAL SINGLE POINT ENERGY      -538.434899716189
FINAL SINGLE POINT ENERGY      -538.437538044101
FINAL SINGLE POINT ENERGY      -538.438044770347
FINAL SINGLE POINT ENERGY      -538.438091742312
FINAL SINGLE POINT ENERGY      -538.438109157473
                    ***********************HURRAY********************

CARTESIAN COORDINATES (ANGSTROEM)
---------------------------------
  C    -20.843444   26.298805   46.209360
  C    -20.350396   27.729401   45.980757
  C    -20.414965   28.320110   47.410197
  C    -20.033215   27.115052   48.300616
  O    -20.226213   25.907773   47.461281
  H    -20.548554   25.564877   45.459761
  H    -19.318197   27.700631   45.613279
  H    -20.971712   28.267180   45.262074
  H    -19.738206   29.168685   47.547908
  H    -21.435593   28.649445   47.624653
  H    -20.658315   27.030034   49.193463
  H    -18.980211   27.125477   48.598386
  C    -22.940898   24.638649   44.631537
  H    -23.830080   24.060655   44.340702
  C    -23.091571   25.180569   46.056748
  C    -22.746685   23.933870   46.899900
  C    -21.655526   23.220587   46.067596
  O    -21.753989   23.774202   44.686633
  H    -22.751664   25.416185   43.888871
  O    -22.287591   26.366009   46.333442
  H    -24.109010   25.530517   46.250796
  H    -22.394862   24.212184   47.895053
  H    -23.642155   23.309848   46.999642
  H    -21.796985   22.135895   46.016297
  H    -20.649962   23.440360   46.434047

 Multiplicity           Mult            ....    1
 Number of Electrons    NEL             ....   86
 Basis Dimension        Dim             ....  127

ORBITAL ENERGIES
----------------

  NO   OCC          E(Eh)            E(eV)
   0   2.0000     -19.139117      -520.8018
   1   2.0000     -19.135591      -520.7059
   2   2.0000     -19.135057      -520.6914
   3   2.0000     -10.268710      -279.4258
   4   2.0000     -10.238833      -278.6128
   5   2.0000     -10.224106      -278.2121
   6   2.0000     -10.221201      -278.1330
   7   2.0000     -10.218925      -278.0711
   8   2.0000     -10.181266      -277.0463
   9   2.0000     -10.180490      -277.0252
  10   2.0000     -10.179425      -276.9962
  11   2.0000      -1.048507       -28.5313
  12   2.0000      -1.013755       -27.5857
  13   2.0000      -0.986654       -26.8482
  14   2.0000      -0.788425       -21.4541
  15   2.0000      -0.771456       -20.9924
  16   2.0000      -0.740101       -20.1392
  17   2.0000      -0.717891       -19.5348
  18   2.0000      -0.614295       -16.7158
  19   2.0000      -0.597560       -16.2604
  20   2.0000      -0.593020       -16.1369
  21   2.0000      -0.564896       -15.3716
  22   2.0000      -0.520154       -14.1541
  23   2.0000      -0.499808       -13.6005
  24   2.0000      -0.476931       -12.9780
  25   2.0000      -0.474232       -12.9045
  26   2.0000      -0.448857       -12.2140
  27   2.0000      -0.446043       -12.1375
  28   2.0000      -0.416960       -11.3461
  29   2.0000      -0.411908       -11.2086
  30   2.0000      -0.400384       -10.8950
  31   2.0000      -0.392118       -10.6701
  32   2.0000      -0.369063       -10.0427
  33   2.0000      -0.367616       -10.0033
  34   2.0000      -0.354059        -9.6344
  35   2.0000      -0.350630        -9.5411
  36   2.0000      -0.339032        -9.2255
  37   2.0000      -0.317869        -8.6497
  38   2.0000      -0.312622        -8.5069
  39   2.0000      -0.292867        -7.9693
  40   2.0000      -0.268908        -7.3174
  41   2.0000      -0.246965        -6.7203
  42   2.0000      -0.234949        -6.3933
  43   0.0000       0.079465         2.1623
  44   0.0000       0.101409         2.7595
  45   0.0000       0.104888         2.8542
  46   0.0000       0.110963         3.0195
  47   0.0000       0.119101         3.2409

MULLIKEN ATOMIC CHARGES
-----------------------
   0 C :    0.264480
   1 C :   -0.254173
   2 C :   -0.297339
   3 C :   -0.001318
   4 O :   -0.520001
   5 H :    0.183372
   6 H :    0.144233
   7 H :    0.151118
   8 H :    0.137700
   9 H :    0.161308
  10 H :    0.144060
  11 H :    0.140536
  12 C :   -0.025125
  13 H :    0.132585
  14 C :    0.081183
  15 C :   -0.295499
  16 C :   -0.037265
  17 O :   -0.523886
  18 H :    0.160055
  19 O :   -0.524283
  20 H :    0.145132
  21 H :    0.176660
  22 H :    0.140741
  23 H :    0.142727
  24 H :    0.172997
Sum of atomic charges:   -0.0000000

LOEWDIN ATOMIC CHARGES
----------------------
   0 C :    0.162563
   1 C :   -0.214149
   2 C :   -0.215888
   3 C :   -0.028292
   4 O :   -0.332006
   5 H :    0.117105
   6 H :    0.113188
   7 H :    0.121195
   8 H :    0.111895
   9 H :    0.118762
  10 H :    0.103550
  11 H :    0.101379
  12 C :   -0.052924
  13 H :    0.097868
  14 C :    0.041011
  15 C :   -0.237150
  16 C :   -0.040856
  17 O :   -0.339147
  18 H :    0.116090
  19 O :   -0.322889
  20 H :    0.112741
  21 H :    0.134599
  22 H :    0.113590
  23 H :    0.102581
  24 H :    0.115183

  Mayer bond orders larger than 0.100000
B(  0-C ,  1-C ) :   0.9475 B(  0-C ,  4-O ) :   0.8858 B(  0-C ,  5-H ) :   0.8931
B(  0-C , 19-O ) :   0.8429 B(  1-C ,  2-C ) :   0.9559 B(  1-C ,  6-H ) :   0.9410
B(  1-C ,  7-H ) :   0.9382 B(  2-C ,  3-C ) :   0.9555 B(  2-C ,  8-H ) :   0.9458
B(  2-C ,  9-H ) :   0.9440 B(  3-C ,  4-O ) :   0.8376 B(  3-C , 10-H ) :   0.9360
B(  3-C , 11-H ) :   0.9404 B( 12-C , 13-H ) :   0.9153 B( 12-C , 14-C ) :   0.9166
B( 12-C , 17-O ) :   0.8576 B( 12-C , 18-H ) :   0.9327 B( 14-C , 15-C ) :   0.9283
B( 14-C , 19-O ) :   0.8785 B( 14-C , 20-H ) :   0.9389 B( 15-C , 16-C ) :   0.9465
B( 15-C , 21-H ) :   0.9296 B( 15-C , 22-H ) :   0.9376 B( 16-C , 17-O ) :   0.8352
B( 16-C , 23-H ) :   0.9363 B( 16-C , 24-H ) :   0.9261

FINAL SINGLE POINT ENERGY      -538.438110486707

DIPOLE MOMENT
-------------
                                X             Y             Z
Electronic contribution:     -0.31183      -1.68602      -1.54718
Nuclear contribution   :     -0.08026       2.09684       1.89287
                        -----------------------------------------
Total Dipole Moment    :     -0.39209       0.41082       0.34569
                        -----------------------------------------
Magnitude (a.u.)       :      0.66484
Magnitude (Debye)      :      1.68989

Rotational constants in cm-1:     0.076099     0.024381     0.022792
Rotational constants in MHz :  2281.392258   730.916947   683.289598

                             ****ORCA TERMINATED NORMALLY****
TOTAL RUN TIME: 0 days 0 hours 7 minutes 36 seconds 567 msec
