                         Program Version 4.2.0 -  RELEASE  -
|  1> # Test redundant internal optimization
|  2> #
|  3> ! RKS B3LYP  Opt TightSCF SmallPrint
|  4>
|  5> %basis
|  6>         Basis "6-31G"
|  7> end
|  8>
|  9> %geom
| 10> Constraints
| 11> { D 4  0  15  12  0.0   C } # D for Dihedral angle
| 12> { D 0  15  12  16  210.0   C } # D for Dihedral angle
| 13> { D 0  4  3  2   C } # D for Dihedral angle
| 14> { D 4  3  2  1   C } # D for Dihedral angle
| 15> { D 3  2  1  0   C } # D for Dihedral angle
| 16> { D 2  1  0  4   C } # D for Dihedral angle
| 17> { D 1  0  4  3   C } # D for Dihedral angle
| 18> { D 16  20  19  18   C } # D for Dihedral angle
| 19> { D 20  19  18  17   C } # D for Dihedral angle
| 20> { D 19  18  17  16   C } # D for Dihedral angle
| 21> { D 18  17  16  20   C } # D for Dihedral angle
| 22> { D 17  16  20  19   C } # D for Dihedral angle
| 23> { D 15  12  16  20   C } # D for Dihedral angle
| 24> end
| 25> end
| 26>
| 27>
| 28> #%pal
| 29> #nprocs 8
| 30> #end
| 31>
| 32> * xyz 0 1
| 33> C  -21.048   26.222   46.251
| 34> C  -20.361   27.558   45.944
| 35> C  -20.329   28.222   47.341
| 36> C  -20.110   27.022   48.296
| 37> O  -20.473   25.807   47.535
| 38> H  -20.833   25.428   45.533
| 39> H  -19.344   27.382   45.576
| 40> H  -20.898   28.157   45.201
| 41> H  -19.543   28.978   47.434
| 42> H  -21.289   28.710   47.548
| 43> H  -20.733   27.082   49.195
| 44> H  -19.064   26.913   48.597
| 45> C  -23.172   26.101   47.783
| 46> H  -22.547   25.353   48.287
| 47> H  -23.176   27.012   48.395
| 48> O  -22.586   26.394   46.375
| 49> C  -24.628   25.562   47.728
| 50> C  -24.691   24.197   47.034
| 51> C  -24.219   23.249   48.163
| 52> C  -24.803   23.906   49.439
| 53> O  -25.131   25.303   49.081
| 54> H  -25.275   26.323   47.287
| 55> O  -26.153   23.875   46.622
| 56> H  -24.061   24.139   46.139
| 57> H  -24.567   22.221   48.026
| 58> H  -23.124   23.230   48.204
| 59> H  -24.093   23.906   50.272
| 60> H  -25.732   23.430   49.766
| 61> H  -26.804   23.926   47.503
| 62> *
| 63>
| 64>                          ****END OF INPUT****
 Total Charge           Charge          ....    0
 Multiplicity           Mult            ....    1
 Number of Electrons    NEL             ....  102
FINAL SINGLE POINT ENERGY      -652.836698694085
FINAL SINGLE POINT ENERGY      -652.858874380386
FINAL SINGLE POINT ENERGY      -652.862434574299
FINAL SINGLE POINT ENERGY      -652.863000294548
FINAL SINGLE POINT ENERGY      -652.863090057519
FINAL SINGLE POINT ENERGY      -652.863103375719
                    ***********************HURRAY********************

CARTESIAN COORDINATES (ANGSTROEM)
---------------------------------
  C    -21.121397   26.185023   46.379647
  C    -20.535356   27.530238   45.950014
  C    -20.350655   28.243537   47.309796
  C    -19.963697   27.091927   48.263024
  O    -20.383581   25.838743   47.570468
  H    -20.970585   25.367807   45.671171
  H    -19.570572   27.364793   45.456179
  H    -21.199542   28.065197   45.268114
  H    -19.585290   29.024866   47.274726
  H    -21.293008   28.707188   47.618934
  H    -20.466927   27.140873   49.232203
  H    -18.884578   27.009931   48.419702
  C    -23.122407   26.082719   47.910866
  H    -22.498034   25.380615   48.471581
  H    -23.173119   27.023604   48.473541
  O    -22.563967   26.308126   46.583636
  C    -24.538278   25.536544   47.727668
  C    -24.622848   24.176772   47.020602
  C    -24.263044   23.202717   48.171572
  C    -24.890643   23.879574   49.416405
  O    -25.133326   25.297211   49.048677
  H    -25.162683   26.276723   47.220504
  O    -25.966798   23.939769   46.515271
  H    -23.965131   24.104536   46.156473
  H    -24.671744   22.208065   47.977588
  H    -23.175698   23.113794   48.270018
  H    -24.236998   23.846911   50.293779
  H    -25.858934   23.447510   49.687094
  H    -26.618160   24.212684   47.195746

 Multiplicity           Mult            ....    1
 Number of Electrons    NEL             ....  102
 Basis Dimension        Dim             ....  149

ORBITAL ENERGIES
----------------

  NO   OCC          E(Eh)            E(eV)
   0   2.0000     -19.155108      -521.2370
   1   2.0000     -19.141393      -520.8638
   2   2.0000     -19.140239      -520.8324
   3   2.0000     -19.130997      -520.5809
   4   2.0000     -10.282918      -279.8124
   5   2.0000     -10.235937      -278.5340
   6   2.0000     -10.231450      -278.4119
   7   2.0000     -10.228552      -278.3331
   8   2.0000     -10.228141      -278.3219
   9   2.0000     -10.225817      -278.2586
  10   2.0000     -10.193706      -277.3848
  11   2.0000     -10.188105      -277.2324
  12   2.0000     -10.183362      -277.1034
  13   2.0000      -1.058286       -28.7974
  14   2.0000      -1.032256       -28.0891
  15   2.0000      -1.000385       -27.2219
  16   2.0000      -0.994262       -27.0552
  17   2.0000      -0.794328       -21.6148
  18   2.0000      -0.776250       -21.1228
  19   2.0000      -0.766480       -20.8570
  20   2.0000      -0.733647       -19.9635
  21   2.0000      -0.671900       -18.2833
  22   2.0000      -0.606911       -16.5149
  23   2.0000      -0.599563       -16.3149
  24   2.0000      -0.592961       -16.1353
  25   2.0000      -0.575225       -15.6527
  26   2.0000      -0.518774       -14.1166
  27   2.0000      -0.517648       -14.0859
  28   2.0000      -0.502030       -13.6609
  29   2.0000      -0.489285       -13.3141
  30   2.0000      -0.472338       -12.8530
  31   2.0000      -0.457218       -12.4415
  32   2.0000      -0.449701       -12.2370
  33   2.0000      -0.434862       -11.8332
  34   2.0000      -0.419305       -11.4099
  35   2.0000      -0.414200       -11.2710
  36   2.0000      -0.405617       -11.0374
  37   2.0000      -0.388334       -10.5671
  38   2.0000      -0.376914       -10.2564
  39   2.0000      -0.364348        -9.9144
  40   2.0000      -0.363389        -9.8883
  41   2.0000      -0.357603        -9.7309
  42   2.0000      -0.351486        -9.5644
  43   2.0000      -0.336972        -9.1695
  44   2.0000      -0.326349        -8.8804
  45   2.0000      -0.309206        -8.4139
  46   2.0000      -0.301606        -8.2071
  47   2.0000      -0.270303        -7.3553
  48   2.0000      -0.265397        -7.2218
  49   2.0000      -0.254733        -6.9316
  50   2.0000      -0.239836        -6.5263
  51   0.0000       0.068360         1.8602
  52   0.0000       0.071116         1.9352
  53   0.0000       0.095318         2.5937
  54   0.0000       0.098461         2.6793
  55   0.0000       0.102098         2.7782

MULLIKEN ATOMIC CHARGES
-----------------------
   0 C :    0.300706
   1 C :   -0.254721
   2 C :   -0.310696
   3 C :   -0.017856
   4 O :   -0.513800
   5 H :    0.156794
   6 H :    0.144339
   7 H :    0.163018
   8 H :    0.149089
   9 H :    0.159349
  10 H :    0.148164
  11 H :    0.153267
  12 C :   -0.009310
  13 H :    0.159061
  14 H :    0.137503
  15 O :   -0.546703
  16 C :    0.057080
  17 C :    0.092603
  18 C :   -0.302709
  19 C :   -0.032908
  20 O :   -0.528826
  21 H :    0.164452
  22 O :   -0.604868
  23 H :    0.169419
  24 H :    0.159631
  25 H :    0.154529
  26 H :    0.145766
  27 H :    0.145704
  28 H :    0.361924
Sum of atomic charges:    0.0000000

LOEWDIN ATOMIC CHARGES
----------------------
   0 C :    0.182750
   1 C :   -0.220229
   2 C :   -0.219292
   3 C :   -0.032174
   4 O :   -0.319186
   5 H :    0.105359
   6 H :    0.113698
   7 H :    0.126841
   8 H :    0.118353
   9 H :    0.116406
  10 H :    0.104766
  11 H :    0.108430
  12 C :   -0.042685
  13 H :    0.108552
  14 H :    0.098247
  15 O :   -0.347275
  16 C :    0.017117
  17 C :    0.038906
  18 C :   -0.243034
  19 C :   -0.039117
  20 O :   -0.332156
  21 H :    0.117077
  22 O :   -0.415837
  23 H :    0.124588
  24 H :    0.125786
  25 H :    0.117578
  26 H :    0.103431
  27 H :    0.102219
  28 H :    0.280881

  Mayer bond orders larger than 0.100000
B(  0-C ,  1-C ) :   0.9321 B(  0-C ,  4-O ) :   0.9143 B(  0-C ,  5-H ) :   0.9293
B(  0-C , 15-O ) :   0.8384 B(  1-C ,  2-C ) :   0.9520 B(  1-C ,  6-H ) :   0.9349
B(  1-C ,  7-H ) :   0.9356 B(  2-C ,  3-C ) :   0.9540 B(  2-C ,  8-H ) :   0.9444
B(  2-C ,  9-H ) :   0.9445 B(  3-C ,  4-O ) :   0.8255 B(  3-C , 10-H ) :   0.9337
B(  3-C , 11-H ) :   0.9402 B( 12-C , 13-H ) :   0.9104 B( 12-C , 14-H ) :   0.9193
B( 12-C , 15-O ) :   0.8163 B( 12-C , 16-C ) :   0.9045 B( 16-C , 17-C ) :   0.9124
B( 16-C , 20-O ) :   0.8408 B( 16-C , 21-H ) :   0.9260 B( 17-C , 18-C ) :   0.9126
B( 17-C , 22-O ) :   0.8882 B( 17-C , 23-H ) :   0.9255 B( 18-C , 19-C ) :   0.9429
B( 18-C , 24-H ) :   0.9379 B( 18-C , 25-H ) :   0.9330 B( 19-C , 20-O ) :   0.8436
B( 19-C , 26-H ) :   0.9354 B( 19-C , 27-H ) :   0.9382 B( 22-O , 28-H ) :   0.7962

FINAL SINGLE POINT ENERGY      -652.863105945638

DIPOLE MOMENT
-------------
                                X             Y             Z
Electronic contribution:     -3.84695      -1.68747      -1.50832
Nuclear contribution   :      4.85721       2.12716       2.03663
                        -----------------------------------------
Total Dipole Moment    :      1.01026       0.43969       0.52831
                        -----------------------------------------
Magnitude (a.u.)       :      1.22191
Magnitude (Debye)      :      3.10585

Rotational constants in cm-1:     0.057440     0.013142     0.012409
Rotational constants in MHz :  1722.010051   393.982706   372.006325

                             ****ORCA TERMINATED NORMALLY****
TOTAL RUN TIME: 0 days 0 hours 41 minutes 11 seconds 83 msec
