                         Program Version 4.2.0 -  RELEASE  -
|  1> # Test redundant internal optimization
|  2> #
|  3> ! RKS B3LYP  Opt TightSCF SmallPrint
|  4>
|  5> %basis
|  6>         Basis "6-31G"
|  7> end
|  8>
|  9> %geom
| 10> Constraints
| 11> { D 4  0  15  12  300.0   C } # D for Dihedral angle
| 12> { D 0  15  12  16  135.0   C } # D for Dihedral angle
| 13> { D 0  4  3  2   C } # D for Dihedral angle
| 14> { D 4  3  2  1   C } # D for Dihedral angle
| 15> { D 3  2  1  0   C } # D for Dihedral angle
| 16> { D 2  1  0  4   C } # D for Dihedral angle
| 17> { D 1  0  4  3   C } # D for Dihedral angle
| 18> { D 16  20  19  18   C } # D for Dihedral angle
| 19> { D 20  19  18  17   C } # D for Dihedral angle
| 20> { D 19  18  17  16   C } # D for Dihedral angle
| 21> { D 18  17  16  20   C } # D for Dihedral angle
| 22> { D 17  16  20  19   C } # D for Dihedral angle
| 23> { D 15  12  16  20   C } # D for Dihedral angle
| 24> end
| 25> end
| 26>
| 27>
| 28> #%pal
| 29> #nprocs 8
| 30> #end
| 31>
| 32> * xyz 0 1
| 33> C  -21.048   26.222   46.251
| 34> C  -20.361   27.558   45.944
| 35> C  -20.329   28.222   47.341
| 36> C  -20.110   27.022   48.296
| 37> O  -20.473   25.807   47.535
| 38> H  -20.833   25.428   45.533
| 39> H  -19.344   27.382   45.576
| 40> H  -20.898   28.157   45.201
| 41> H  -19.543   28.978   47.434
| 42> H  -21.289   28.710   47.548
| 43> H  -20.733   27.082   49.195
| 44> H  -19.064   26.913   48.597
| 45> C  -23.362   25.116   46.798
| 46> H  -23.871   24.696   45.922
| 47> H  -22.670   24.359   47.188
| 48> O  -22.586   26.394   46.375
| 49> C  -24.425   25.395   47.895
| 50> C  -25.533   26.318   47.375
| 51> C  -26.406   25.333   46.562
| 52> C  -26.308   24.020   47.378
| 53> O  -25.126   24.158   48.256
| 54> H  -23.924   25.753   48.796
| 55> O  -26.337   26.909   48.566
| 56> H  -25.153   27.149   46.770
| 57> H  -27.439   25.677   46.447
| 58> H  -25.984   25.197   45.558
| 59> H  -26.180   23.138   46.741
| 60> H  -27.175   23.865   48.026
| 61> H  -26.728   26.094   49.186
| 62> *
| 63>
| 64>                          ****END OF INPUT****
 Total Charge           Charge          ....    0
 Multiplicity           Mult            ....    1
 Number of Electrons    NEL             ....  102
FINAL SINGLE POINT ENERGY      -652.841676162275
FINAL SINGLE POINT ENERGY      -652.865415919537
FINAL SINGLE POINT ENERGY      -652.869124699931
FINAL SINGLE POINT ENERGY      -652.869770140331
FINAL SINGLE POINT ENERGY      -652.869853290104
FINAL SINGLE POINT ENERGY      -652.869863794059
FINAL SINGLE POINT ENERGY      -652.869866025694
                    ***********************HURRAY********************

CARTESIAN COORDINATES (ANGSTROEM)
---------------------------------
  C    -21.108525   26.136868   46.262854
  C    -20.565077   27.540498   45.996607
  C    -20.602814   28.165952   47.408888
  C    -20.262868   26.975644   48.332277
  O    -20.504195   25.751508   47.519954
  H    -20.826064   25.363912   45.541556
  H    -19.537668   27.463626   45.623629
  H    -21.170008   28.083974   45.267955
  H    -19.894776   28.992554   47.521520
  H    -21.608832   28.540679   47.617174
  H    -20.886905   26.933601   49.228346
  H    -19.209285   26.949239   48.624834
  C    -23.250148   25.019279   46.740758
  H    -23.717950   24.580947   45.850364
  H    -22.553871   24.296284   47.175397
  O    -22.546096   26.242043   46.354184
  C    -24.289668   25.393756   47.794891
  C    -25.381832   26.361596   47.317440
  C    -26.344038   25.404097   46.570366
  C    -26.264285   24.100066   47.403139
  O    -25.026065   24.195765   48.217102
  H    -23.778331   25.786736   48.677847
  O    -26.030985   27.007409   48.448374
  H    -24.993813   27.168524   46.697916
  H    -27.352592   25.823238   46.530959
  H    -25.999731   25.243456   45.543009
  H    -26.212197   23.200567   46.782033
  H    -27.100810   23.993929   48.100804
  H    -26.212570   26.336251   49.139822

 Multiplicity           Mult            ....    1
 Number of Electrons    NEL             ....  102
 Basis Dimension        Dim             ....  149

ORBITAL ENERGIES
----------------

  NO   OCC          E(Eh)            E(eV)
   0   2.0000     -19.146573      -521.0047
   1   2.0000     -19.143183      -520.9125
   2   2.0000     -19.142752      -520.9008
   3   2.0000     -19.133105      -520.6382
   4   2.0000     -10.280171      -279.7377
   5   2.0000     -10.233445      -278.4662
   6   2.0000     -10.230013      -278.3728
   7   2.0000     -10.229675      -278.3636
   8   2.0000     -10.226608      -278.2802
   9   2.0000     -10.225967      -278.2627
  10   2.0000     -10.186183      -277.1801
  11   2.0000     -10.185831      -277.1706
  12   2.0000     -10.185413      -277.1592
  13   2.0000      -1.056211       -28.7410
  14   2.0000      -1.033373       -28.1195
  15   2.0000      -1.002051       -27.2672
  16   2.0000      -0.994740       -27.0683
  17   2.0000      -0.791049       -21.5255
  18   2.0000      -0.776826       -21.1385
  19   2.0000      -0.765245       -20.8234
  20   2.0000      -0.729292       -19.8450
  21   2.0000      -0.671815       -18.2810
  22   2.0000      -0.601913       -16.3789
  23   2.0000      -0.599599       -16.3159
  24   2.0000      -0.590541       -16.0694
  25   2.0000      -0.580116       -15.7858
  26   2.0000      -0.521617       -14.1939
  27   2.0000      -0.514053       -13.9881
  28   2.0000      -0.496229       -13.5031
  29   2.0000      -0.487793       -13.2735
  30   2.0000      -0.470386       -12.7999
  31   2.0000      -0.455730       -12.4010
  32   2.0000      -0.452195       -12.3048
  33   2.0000      -0.434836       -11.8325
  34   2.0000      -0.422059       -11.4848
  35   2.0000      -0.411080       -11.1861
  36   2.0000      -0.400925       -10.9097
  37   2.0000      -0.390244       -10.6191
  38   2.0000      -0.373859       -10.1732
  39   2.0000      -0.364050        -9.9063
  40   2.0000      -0.358748        -9.7620
  41   2.0000      -0.356098        -9.6899
  42   2.0000      -0.348557        -9.4847
  43   2.0000      -0.335778        -9.1370
  44   2.0000      -0.324239        -8.8230
  45   2.0000      -0.306368        -8.3367
  46   2.0000      -0.296589        -8.0706
  47   2.0000      -0.278285        -7.5725
  48   2.0000      -0.263433        -7.1684
  49   2.0000      -0.256231        -6.9724
  50   2.0000      -0.243582        -6.6282
  51   0.0000       0.066189         1.8011
  52   0.0000       0.079976         2.1763
  53   0.0000       0.094301         2.5661
  54   0.0000       0.100903         2.7457
  55   0.0000       0.107583         2.9275

MULLIKEN ATOMIC CHARGES
-----------------------
   0 C :    0.286009
   1 C :   -0.262188
   2 C :   -0.298602
   3 C :   -0.007973
   4 O :   -0.512421
   5 H :    0.146257
   6 H :    0.145962
   7 H :    0.157982
   8 H :    0.142119
   9 H :    0.165284
  10 H :    0.149557
  11 H :    0.145312
  12 C :   -0.014674
  13 H :    0.130138
  14 H :    0.174368
  15 O :   -0.531165
  16 C :    0.060704
  17 C :    0.092335
  18 C :   -0.306214
  19 C :   -0.027943
  20 O :   -0.527148
  21 H :    0.160915
  22 O :   -0.605493
  23 H :    0.174219
  24 H :    0.161743
  25 H :    0.149068
  26 H :    0.144761
  27 H :    0.145590
  28 H :    0.361498
Sum of atomic charges:   -0.0000000

LOEWDIN ATOMIC CHARGES
----------------------
   0 C :    0.173339
   1 C :   -0.214487
   2 C :   -0.215946
   3 C :   -0.028493
   4 O :   -0.329872
   5 H :    0.097249
   6 H :    0.114682
   7 H :    0.124732
   8 H :    0.114291
   9 H :    0.120460
  10 H :    0.106010
  11 H :    0.104236
  12 C :   -0.043802
  13 H :    0.095658
  14 H :    0.121790
  15 O :   -0.335232
  16 C :    0.016214
  17 C :    0.037338
  18 C :   -0.243247
  19 C :   -0.038044
  20 O :   -0.331471
  21 H :    0.116425
  22 O :   -0.416301
  23 H :    0.126583
  24 H :    0.126141
  25 H :    0.115312
  26 H :    0.103279
  27 H :    0.102233
  28 H :    0.280921

  Mayer bond orders larger than 0.100000
B(  0-C ,  1-C ) :   0.9505 B(  0-C ,  4-O ) :   0.9030 B(  0-C ,  5-H ) :   0.9213
B(  0-C , 15-O ) :   0.8580 B(  1-C ,  2-C ) :   0.9553 B(  1-C ,  6-H ) :   0.9400
B(  1-C ,  7-H ) :   0.9359 B(  2-C ,  3-C ) :   0.9555 B(  2-C ,  8-H ) :   0.9450
B(  2-C ,  9-H ) :   0.9434 B(  3-C ,  4-O ) :   0.8325 B(  3-C , 10-H ) :   0.9351
B(  3-C , 11-H ) :   0.9404 B( 12-C , 13-H ) :   0.9283 B( 12-C , 14-H ) :   0.9122
B( 12-C , 15-O ) :   0.8129 B( 12-C , 16-C ) :   0.9039 B( 16-C , 17-C ) :   0.9124
B( 16-C , 20-O ) :   0.8418 B( 16-C , 21-H ) :   0.9263 B( 17-C , 18-C ) :   0.9135
B( 17-C , 22-O ) :   0.8868 B( 17-C , 23-H ) :   0.9246 B( 18-C , 19-C ) :   0.9418
B( 18-C , 24-H ) :   0.9379 B( 18-C , 25-H ) :   0.9336 B( 19-C , 20-O ) :   0.8460
B( 19-C , 26-H ) :   0.9359 B( 19-C , 27-H ) :   0.9380 B( 22-O , 28-H ) :   0.7967

FINAL SINGLE POINT ENERGY      -652.869866172254

DIPOLE MOMENT
-------------
                                X             Y             Z
Electronic contribution:     -0.89717      -2.23038       1.72634
Nuclear contribution   :      1.07657       2.32591      -2.36201
                        -----------------------------------------
Total Dipole Moment    :      0.17940       0.09552      -0.63566
                        -----------------------------------------
Magnitude (a.u.)       :      0.66736
Magnitude (Debye)      :      1.69630

Rotational constants in cm-1:     0.054677     0.013186     0.012616
Rotational constants in MHz :  1639.170952   395.310870   378.221699

                             ****ORCA TERMINATED NORMALLY****
TOTAL RUN TIME: 0 days 0 hours 29 minutes 11 seconds 122 msec
