                         Program Version 4.2.1 -  RELEASE  -
|  1> # Test redundant internal optimization
|  2> #
|  3> ! RKS B3LYP  Opt TightSCF SmallPrint
|  4>
|  5> %basis
|  6>         Basis "6-31G"
|  7> end
|  8>
|  9> %geom
| 10> Constraints
| 11> { D 4  0  19  14  285.0   C } # D for Dihedral angle
| 12> { D 0  19  14  12  330.0   C } # D for Dihedral angle
| 13> { D 0  4  3  2   C } # D for Dihedral angle
| 14> { D 4  3  2  1   C } # D for Dihedral angle
| 15> { D 3  2  1  0   C } # D for Dihedral angle
| 16> { D 2  1  0  4   C } # D for Dihedral angle
| 17> { D 1  0  4  3   C } # D for Dihedral angle
| 18> { D 14  15  16  17   C } # D for Dihedral angle
| 19> { D 15  16  17  12   C } # D for Dihedral angle
| 20> { D 16  17  12  14   C } # D for Dihedral angle
| 21> { D 17  12  14  15   C } # D for Dihedral angle
| 22> { D 12  14  15  16   C } # D for Dihedral angle
| 23> end
| 24> end
| 25>
| 26>
| 27> #%pal
| 28> #nprocs 8
| 29> #end
| 30>
| 31> * xyz 0 1
| 32> C  -21.048   26.222   46.251
| 33> C  -20.361   27.558   45.944
| 34> C  -20.329   28.222   47.341
| 35> C  -20.110   27.022   48.296
| 36> O  -20.473   25.807   47.535
| 37> H  -20.833   25.428   45.533
| 38> H  -19.344   27.382   45.576
| 39> H  -20.898   28.157   45.201
| 40> H  -19.543   28.978   47.434
| 41> H  -21.289   28.710   47.548
| 42> H  -20.733   27.082   49.195
| 43> H  -19.064   26.913   48.597
| 44> C  -22.460   24.060   45.634
| 45> H  -23.117   23.204   45.413
| 46> C  -23.203   25.146   46.420
| 47> C  -23.187   24.564   47.853
| 48> C  -21.818   23.843   47.925
| 49> O  -21.370   23.650   46.527
| 50> H  -21.999   24.406   44.708
| 51> O  -22.472   26.381   46.366
| 52> H  -24.217   25.328   46.047
| 53> H  -23.296   25.331   48.625
| 54> H  -24.008   23.846   47.978
| 55> H  -21.881   22.867   48.419
| 56> H  -21.054   24.445   48.427
| 57> *
| 58>
| 59>                          ****END OF INPUT****
 Total Charge           Charge          ....    0
 Multiplicity           Mult            ....    1
 Number of Electrons    NEL             ....   86
FINAL SINGLE POINT ENERGY      -538.401904539549
FINAL SINGLE POINT ENERGY      -538.431252996565
FINAL SINGLE POINT ENERGY      -538.434071462652
FINAL SINGLE POINT ENERGY      -538.434516533065
FINAL SINGLE POINT ENERGY      -538.434547370922
FINAL SINGLE POINT ENERGY      -538.434558293943
                    ***********************HURRAY********************

CARTESIAN COORDINATES (ANGSTROEM)
---------------------------------
  C    -20.825858   26.289349   46.212214
  C    -20.377377   27.728981   45.949869
  C    -20.400371   28.331339   47.374675
  C    -19.955037   27.147905   48.262928
  O    -20.150219   25.923806   47.444340
  H    -20.508631   25.549227   45.476481
  H    -19.360324   27.719076   45.541828
  H    -21.039999   28.243793   45.251721
  H    -19.740548   29.198154   47.477167
  H    -21.419685   28.639286   47.624262
  H    -20.541546   27.059799   49.181613
  H    -18.891937   27.186466   48.518953
  C    -22.538039   23.880444   45.665366
  H    -23.363644   23.187331   45.444682
  C    -23.077002   25.101963   46.409466
  C    -23.210964   24.556436   47.842665
  C    -22.014406   23.584249   47.980050
  O    -21.573592   23.281017   46.588003
  H    -22.014905   24.110392   44.734381
  O    -22.261039   26.318875   46.342970
  H    -24.040049   25.432588   46.010602
  H    -23.190299   25.367874   48.574276
  H    -24.165458   24.025800   47.939200
  H    -22.286726   22.644198   48.471480
  H    -21.159345   24.043651   48.473808

 Multiplicity           Mult            ....    1
 Number of Electrons    NEL             ....   86
 Basis Dimension        Dim             ....  127

ORBITAL ENERGIES
----------------

  NO   OCC          E(Eh)            E(eV)
   0   2.0000     -19.139523      -520.8129
   1   2.0000     -19.135861      -520.7132
   2   2.0000     -19.125511      -520.4316
   3   2.0000     -10.273720      -279.5621
   4   2.0000     -10.238537      -278.6048
   5   2.0000     -10.223589      -278.1980
   6   2.0000     -10.222069      -278.1566
   7   2.0000     -10.208816      -277.7960
   8   2.0000     -10.181998      -277.0663
   9   2.0000     -10.181576      -277.0548
  10   2.0000     -10.179007      -276.9849
  11   2.0000      -1.048097       -28.5202
  12   2.0000      -1.007231       -27.4082
  13   2.0000      -0.985840       -26.8261
  14   2.0000      -0.789869       -21.4934
  15   2.0000      -0.772604       -21.0236
  16   2.0000      -0.734210       -19.9789
  17   2.0000      -0.719788       -19.5864
  18   2.0000      -0.617169       -16.7940
  19   2.0000      -0.594473       -16.1764
  20   2.0000      -0.591936       -16.1074
  21   2.0000      -0.561390       -15.2762
  22   2.0000      -0.519150       -14.1268
  23   2.0000      -0.498310       -13.5597
  24   2.0000      -0.481340       -13.0979
  25   2.0000      -0.475305       -12.9337
  26   2.0000      -0.446564       -12.1516
  27   2.0000      -0.442508       -12.0413
  28   2.0000      -0.420203       -11.4343
  29   2.0000      -0.408531       -11.1167
  30   2.0000      -0.397760       -10.8236
  31   2.0000      -0.383887       -10.4461
  32   2.0000      -0.371957       -10.1215
  33   2.0000      -0.362756        -9.8711
  34   2.0000      -0.355539        -9.6747
  35   2.0000      -0.351526        -9.5655
  36   2.0000      -0.338720        -9.2171
  37   2.0000      -0.320338        -8.7168
  38   2.0000      -0.304383        -8.2827
  39   2.0000      -0.289108        -7.8670
  40   2.0000      -0.265719        -7.2306
  41   2.0000      -0.247209        -6.7269
  42   2.0000      -0.229915        -6.2563
  43   0.0000       0.079528         2.1641
  44   0.0000       0.097358         2.6493
  45   0.0000       0.103988         2.8297
  46   0.0000       0.110646         3.0108
  47   0.0000       0.116388         3.1671

MULLIKEN ATOMIC CHARGES
-----------------------
   0 C :    0.293399
   1 C :   -0.259081
   2 C :   -0.295995
   3 C :   -0.006820
   4 O :   -0.503789
   5 H :    0.159708
   6 H :    0.145353
   7 H :    0.154825
   8 H :    0.138578
   9 H :    0.159764
  10 H :    0.139949
  11 H :    0.143574
  12 C :   -0.037782
  13 H :    0.133652
  14 C :    0.096143
  15 C :   -0.287118
  16 C :   -0.010669
  17 O :   -0.522342
  18 H :    0.152741
  19 O :   -0.537147
  20 H :    0.143557
  21 H :    0.155199
  22 H :    0.134320
  23 H :    0.129413
  24 H :    0.180567
Sum of atomic charges:   -0.0000000

LOEWDIN ATOMIC CHARGES
----------------------
   0 C :    0.174108
   1 C :   -0.214541
   2 C :   -0.215650
   3 C :   -0.031345
   4 O :   -0.320788
   5 H :    0.105021
   6 H :    0.113807
   7 H :    0.123257
   8 H :    0.112269
   9 H :    0.117857
  10 H :    0.100892
  11 H :    0.102809
  12 C :   -0.053057
  13 H :    0.098177
  14 C :    0.044048
  15 C :   -0.231864
  16 C :   -0.036825
  17 O :   -0.332937
  18 H :    0.111155
  19 O :   -0.327442
  20 H :    0.110414
  21 H :    0.124052
  22 H :    0.110065
  23 H :    0.095290
  24 H :    0.121228

  Mayer bond orders larger than 0.100000
B(  0-C ,  1-C ) :   0.9423 B(  0-C ,  4-O ) :   0.8944 B(  0-C ,  5-H ) :   0.9131
B(  0-C , 19-O ) :   0.8555 B(  1-C ,  2-C ) :   0.9574 B(  1-C ,  6-H ) :   0.9409
B(  1-C ,  7-H ) :   0.9369 B(  2-C ,  3-C ) :   0.9546 B(  2-C ,  8-H ) :   0.9457
B(  2-C ,  9-H ) :   0.9445 B(  3-C ,  4-O ) :   0.8412 B(  3-C , 10-H ) :   0.9355
B(  3-C , 11-H ) :   0.9398 B( 12-C , 13-H ) :   0.9117 B( 12-C , 14-C ) :   0.9267
B( 12-C , 17-O ) :   0.8705 B( 12-C , 18-H ) :   0.9287 B( 14-C , 15-C ) :   0.9310
B( 14-C , 19-O ) :   0.8567 B( 14-C , 20-H ) :   0.9363 B( 15-C , 16-C ) :   0.9513
B( 15-C , 21-H ) :   0.9378 B( 15-C , 22-H ) :   0.9387 B( 16-C , 17-O ) :   0.8360
B( 16-C , 23-H ) :   0.9337 B( 16-C , 24-H ) :   0.9169

FINAL SINGLE POINT ENERGY      -538.434559061826

DIPOLE MOMENT
-------------
                                X             Y             Z
Electronic contribution:      0.38095      -2.53275      -1.66777
Nuclear contribution   :     -0.89736       3.28379       1.74172
                        -----------------------------------------
Total Dipole Moment    :     -0.51641       0.75104       0.07395
                        -----------------------------------------
Magnitude (a.u.)       :      0.91444
Magnitude (Debye)      :      2.32433

Rotational constants in cm-1:     0.071751     0.026190     0.024241
Rotational constants in MHz :  2151.037059   785.147220   726.723584

                             ****ORCA TERMINATED NORMALLY****
TOTAL RUN TIME: 0 days 0 hours 7 minutes 45 seconds 521 msec
