                         Program Version 4.2.0 -  RELEASE  -
|  1> # Test redundant internal optimization
|  2> #
|  3> ! RKS B3LYP  Opt TightSCF SmallPrint
|  4>
|  5> %basis
|  6>         Basis "6-31G"
|  7> end
|  8>
|  9> %geom
| 10> Constraints
| 11> { D 4  0  15  12  345.0   C } # D for Dihedral angle
| 12> { D 0  15  12  16  135.0   C } # D for Dihedral angle
| 13> { D 0  4  3  2   C } # D for Dihedral angle
| 14> { D 4  3  2  1   C } # D for Dihedral angle
| 15> { D 3  2  1  0   C } # D for Dihedral angle
| 16> { D 2  1  0  4   C } # D for Dihedral angle
| 17> { D 1  0  4  3   C } # D for Dihedral angle
| 18> { D 16  20  19  18   C } # D for Dihedral angle
| 19> { D 20  19  18  17   C } # D for Dihedral angle
| 20> { D 19  18  17  16   C } # D for Dihedral angle
| 21> { D 18  17  16  20   C } # D for Dihedral angle
| 22> { D 17  16  20  19   C } # D for Dihedral angle
| 23> { D 15  12  16  20   C } # D for Dihedral angle
| 24> end
| 25> end
| 26>
| 27>
| 28> #%pal
| 29> #nprocs 8
| 30> #end
| 31>
| 32> * xyz 0 1
| 33> C  -21.048   26.222   46.251
| 34> C  -20.361   27.558   45.944
| 35> C  -20.329   28.222   47.341
| 36> C  -20.110   27.022   48.296
| 37> O  -20.473   25.807   47.535
| 38> H  -20.833   25.428   45.533
| 39> H  -19.344   27.382   45.576
| 40> H  -20.898   28.157   45.201
| 41> H  -19.543   28.978   47.434
| 42> H  -21.289   28.710   47.548
| 43> H  -20.733   27.082   49.195
| 44> H  -19.064   26.913   48.597
| 45> C  -23.221   25.764   47.645
| 46> H  -23.739   24.837   47.369
| 47> H  -22.444   25.517   48.380
| 48> O  -22.586   26.394   46.375
| 49> C  -24.243   26.708   48.337
| 50> C  -24.761   26.103   49.646
| 51> C  -23.594   26.405   50.615
| 52> C  -23.075   27.779   50.123
| 53> O  -23.591   27.956   48.749
| 54> H  -25.024   26.976   47.622
| 55> H  -25.673   26.621   49.966
| 56> O  -25.075   24.586   49.535
| 57> H  -23.907   26.429   51.664
| 58> H  -22.815   25.640   50.516
| 59> H  -21.980   27.832   50.104
| 60> H  -23.460   28.610   50.721
| 61> H  -24.176   24.046   49.218
| 62> *
| 63>
| 64>                          ****END OF INPUT****
 Total Charge           Charge          ....    0
 Multiplicity           Mult            ....    1
 Number of Electrons    NEL             ....  102
FINAL SINGLE POINT ENERGY      -652.826905514057
FINAL SINGLE POINT ENERGY      -652.850904238837
FINAL SINGLE POINT ENERGY      -652.855250882770
FINAL SINGLE POINT ENERGY      -652.858553551636
FINAL SINGLE POINT ENERGY      -652.858804956671
FINAL SINGLE POINT ENERGY      -652.858870105174
FINAL SINGLE POINT ENERGY      -652.858873666078
                    ***********************HURRAY********************

CARTESIAN COORDINATES (ANGSTROEM)
---------------------------------
  C    -21.059663   26.232750   46.265282
  C    -20.516693   27.627487   45.954452
  C    -20.319883   28.211683   47.371841
  C    -19.884118   26.987652   48.203301
  O    -20.287176   25.792945   47.403960
  H    -20.889411   25.484500   45.485586
  H    -19.563636   27.532193   45.420749
  H    -21.213436   28.208157   45.346342
  H    -19.574698   29.013062   47.395588
  H    -21.275056   28.598393   47.735906
  H    -20.366289   26.931973   49.182592
  H    -18.799970   26.916348   48.332672
  C    -23.090807   25.680942   47.654518
  H    -23.641175   24.786670   47.330274
  H    -22.300294   25.372706   48.348124
  O    -22.495066   26.318052   46.496005
  C    -24.078018   26.654104   48.299352
  C    -24.778320   26.111622   49.558199
  C    -23.736395   26.439374   50.669636
  C    -23.135253   27.778553   50.192147
  O    -23.464246   27.904482   48.746213
  H    -24.799116   26.950516   47.531808
  H    -25.703344   26.666563   49.727162
  O    -25.193522   24.727024   49.498829
  H    -24.194536   26.505855   51.659555
  H    -22.976034   25.647257   50.700325
  H    -22.049903   27.831492   50.319993
  H    -23.588860   28.637452   50.695218
  H    -24.414082   24.134192   49.510370

 Multiplicity           Mult            ....    1
 Number of Electrons    NEL             ....  102
 Basis Dimension        Dim             ....  149

ORBITAL ENERGIES
----------------

  NO   OCC          E(Eh)            E(eV)
   0   2.0000     -19.150001      -521.0980
   1   2.0000     -19.148448      -521.0558
   2   2.0000     -19.143849      -520.9306
   3   2.0000     -19.133373      -520.6455
   4   2.0000     -10.275665      -279.6151
   5   2.0000     -10.246167      -278.8124
   6   2.0000     -10.235080      -278.5107
   7   2.0000     -10.229699      -278.3643
   8   2.0000     -10.228488      -278.3313
   9   2.0000     -10.225453      -278.2487
  10   2.0000     -10.197352      -277.4840
  11   2.0000     -10.178807      -276.9794
  12   2.0000     -10.177437      -276.9421
  13   2.0000      -1.051778       -28.6203
  14   2.0000      -1.034904       -28.1612
  15   2.0000      -1.018010       -27.7015
  16   2.0000      -0.989070       -26.9140
  17   2.0000      -0.786953       -21.4141
  18   2.0000      -0.782470       -21.2921
  19   2.0000      -0.766919       -20.8689
  20   2.0000      -0.732198       -19.9241
  21   2.0000      -0.678005       -18.4495
  22   2.0000      -0.613593       -16.6967
  23   2.0000      -0.599053       -16.3011
  24   2.0000      -0.588972       -16.0267
  25   2.0000      -0.570974       -15.5370
  26   2.0000      -0.528713       -14.3870
  27   2.0000      -0.513192       -13.9647
  28   2.0000      -0.495166       -13.4741
  29   2.0000      -0.488946       -13.3049
  30   2.0000      -0.473314       -12.8795
  31   2.0000      -0.459824       -12.5125
  32   2.0000      -0.443602       -12.0710
  33   2.0000      -0.435749       -11.8573
  34   2.0000      -0.427618       -11.6361
  35   2.0000      -0.414211       -11.2712
  36   2.0000      -0.404909       -11.0181
  37   2.0000      -0.394437       -10.7332
  38   2.0000      -0.381715       -10.3870
  39   2.0000      -0.368193       -10.0190
  40   2.0000      -0.357525        -9.7288
  41   2.0000      -0.351744        -9.5714
  42   2.0000      -0.344133        -9.3643
  43   2.0000      -0.333030        -9.0622
  44   2.0000      -0.330125        -8.9832
  45   2.0000      -0.314788        -8.5658
  46   2.0000      -0.297594        -8.0979
  47   2.0000      -0.272129        -7.4050
  48   2.0000      -0.264063        -7.1855
  49   2.0000      -0.256461        -6.9786
  50   2.0000      -0.236925        -6.4471
  51   0.0000       0.050116         1.3637
  52   0.0000       0.061484         1.6731
  53   0.0000       0.090356         2.4587
  54   0.0000       0.096699         2.6313
  55   0.0000       0.102573         2.7911

MULLIKEN ATOMIC CHARGES
-----------------------
   0 C :    0.305305
   1 C :   -0.257011
   2 C :   -0.320676
   3 C :   -0.022782
   4 O :   -0.517940
   5 H :    0.148949
   6 H :    0.139209
   7 H :    0.163057
   8 H :    0.137544
   9 H :    0.198000
  10 H :    0.137971
  11 H :    0.148513
  12 C :   -0.028676
  13 H :    0.136554
  14 H :    0.149521
  15 O :   -0.533311
  16 C :    0.101035
  17 C :    0.083419
  18 C :   -0.323759
  19 C :   -0.017393
  20 O :   -0.510197
  21 H :    0.166051
  22 H :    0.168780
  23 O :   -0.597010
  24 H :    0.158230
  25 H :    0.138069
  26 H :    0.140486
  27 H :    0.151316
  28 H :    0.356744
Sum of atomic charges:    0.0000000

LOEWDIN ATOMIC CHARGES
----------------------
   0 C :    0.185362
   1 C :   -0.216223
   2 C :   -0.226502
   3 C :   -0.031181
   4 O :   -0.323671
   5 H :    0.098843
   6 H :    0.110429
   7 H :    0.127612
   8 H :    0.112690
   9 H :    0.134469
  10 H :    0.096473
  11 H :    0.104912
  12 C :   -0.054039
  13 H :    0.100833
  14 H :    0.104180
  15 O :   -0.333470
  16 C :    0.017498
  17 C :    0.035849
  18 C :   -0.241499
  19 C :   -0.033057
  20 O :   -0.316732
  21 H :    0.119607
  22 H :    0.119836
  23 O :   -0.404425
  24 H :    0.123384
  25 H :    0.106344
  26 H :    0.097490
  27 H :    0.106709
  28 H :    0.278281

  Mayer bond orders larger than 0.100000
B(  0-C ,  1-C ) :   0.9384 B(  0-C ,  4-O ) :   0.9066 B(  0-C ,  5-H ) :   0.9272
B(  0-C , 15-O ) :   0.8441 B(  1-C ,  2-C ) :   0.9547 B(  1-C ,  6-H ) :   0.9371
B(  1-C ,  7-H ) :   0.9353 B(  2-C ,  3-C ) :   0.9581 B(  2-C ,  8-H ) :   0.9439
B(  2-C ,  9-H ) :   0.9172 B(  3-C ,  4-O ) :   0.8256 B(  3-C , 10-H ) :   0.9274
B(  3-C , 11-H ) :   0.9404 B( 12-C , 13-H ) :   0.9118 B( 12-C , 14-H ) :   0.9062
B( 12-C , 15-O ) :   0.8465 B( 12-C , 16-C ) :   0.9017 B( 16-C , 17-C ) :   0.8717
B( 16-C , 20-O ) :   0.8553 B( 16-C , 21-H ) :   0.9293 B( 17-C , 18-C ) :   0.9200
B( 17-C , 22-H ) :   0.9332 B( 17-C , 23-O ) :   0.9012 B( 18-C , 19-C ) :   0.9434
B( 18-C , 24-H ) :   0.9423 B( 18-C , 25-H ) :   0.9404 B( 19-C , 20-O ) :   0.8477
B( 19-C , 26-H ) :   0.9218 B( 19-C , 27-H ) :   0.9373 B( 23-O , 28-H ) :   0.7971

FINAL SINGLE POINT ENERGY      -652.858872212761

DIPOLE MOMENT
-------------
                                X             Y             Z
Electronic contribution:     -3.24308      -2.73778      -2.64010
Nuclear contribution   :      3.98270       2.96537       3.49498
                        -----------------------------------------
Total Dipole Moment    :      0.73963       0.22759       0.85489
                        -----------------------------------------
Magnitude (a.u.)       :      1.15312
Magnitude (Debye)      :      2.93099

Rotational constants in cm-1:     0.047487     0.017113     0.015313
Rotational constants in MHz :  1423.638847   513.045267   459.065418

                             ****ORCA TERMINATED NORMALLY****
TOTAL RUN TIME: 0 days 2 hours 7 minutes 58 seconds 673 msec
