                         Program Version 4.2.0 -  RELEASE  -
|  1> # Test redundant internal optimization
|  2> #
|  3> ! RKS B3LYP  Opt TightSCF SmallPrint
|  4>
|  5> %basis
|  6>         Basis "6-31G"
|  7> end
|  8>
|  9> %geom
| 10> Constraints
| 11> { D 4  0  15  12  225.0   C } # D for Dihedral angle
| 12> { D 0  15  12  16  225.0   C } # D for Dihedral angle
| 13> { D 0  4  3  2   C } # D for Dihedral angle
| 14> { D 4  3  2  1   C } # D for Dihedral angle
| 15> { D 3  2  1  0   C } # D for Dihedral angle
| 16> { D 2  1  0  4   C } # D for Dihedral angle
| 17> { D 1  0  4  3   C } # D for Dihedral angle
| 18> { D 16  20  19  18   C } # D for Dihedral angle
| 19> { D 20  19  18  17   C } # D for Dihedral angle
| 20> { D 19  18  17  16   C } # D for Dihedral angle
| 21> { D 18  17  16  20   C } # D for Dihedral angle
| 22> { D 17  16  20  19   C } # D for Dihedral angle
| 23> { D 15  12  16  20   C } # D for Dihedral angle
| 24> end
| 25> end
| 26>
| 27>
| 28> #%pal
| 29> #nprocs 8
| 30> #end
| 31>
| 32> * xyz 0 1
| 33> C  -21.048   26.222   46.251
| 34> C  -20.361   27.558   45.944
| 35> C  -20.329   28.222   47.341
| 36> C  -20.110   27.022   48.296
| 37> O  -20.473   25.807   47.535
| 38> H  -20.833   25.428   45.533
| 39> H  -19.344   27.382   45.576
| 40> H  -20.898   28.157   45.201
| 41> H  -19.543   28.978   47.434
| 42> H  -21.289   28.710   47.548
| 43> H  -20.733   27.082   49.195
| 44> H  -19.064   26.913   48.597
| 45> C  -23.415   25.773   45.218
| 46> H  -22.748   25.541   44.378
| 47> H  -23.892   24.840   45.545
| 48> O  -22.586   26.394   46.375
| 49> C  -24.534   26.721   44.705
| 50> C  -25.457   27.162   45.847
| 51> C  -24.614   28.271   46.521
| 52> C  -23.884   28.933   45.325
| 53> O  -23.956   27.972   44.203
| 54> H  -25.048   26.247   43.866
| 55> H  -26.386   27.577   45.440
| 56> O  -25.820   26.007   46.819
| 57> H  -25.223   28.985   47.085
| 58> H  -23.892   27.825   47.215
| 59> H  -22.833   29.152   45.544
| 60> H  -24.375   29.853   44.993
| 61> H  -24.904   25.577   47.239
| 62> *
| 63>
| 64>                          ****END OF INPUT****
 Total Charge           Charge          ....    0
 Multiplicity           Mult            ....    1
 Number of Electrons    NEL             ....  102
FINAL SINGLE POINT ENERGY      -652.833597059729
FINAL SINGLE POINT ENERGY      -652.856313218225
FINAL SINGLE POINT ENERGY      -652.860409870484
FINAL SINGLE POINT ENERGY      -652.862258185281
FINAL SINGLE POINT ENERGY      -652.862388669584
FINAL SINGLE POINT ENERGY      -652.862411635948
                    ***********************HURRAY********************

CARTESIAN COORDINATES (ANGSTROEM)
---------------------------------
  C    -21.036849   26.178304   46.197355
  C    -20.371652   27.524021   45.916082
  C    -20.368990   28.178439   47.317590
  C    -20.142925   26.976421   48.260273
  O    -20.483106   25.770405   47.459728
  H    -20.812651   25.387378   45.475770
  H    -19.346919   27.355512   45.564256
  H    -20.913568   28.099908   45.162111
  H    -19.593338   28.942799   47.423872
  H    -21.338973   28.645741   47.513539
  H    -20.779081   26.996918   49.148534
  H    -19.098344   26.864854   48.564941
  C    -23.293056   25.762266   45.245566
  H    -22.660409   25.527844   44.380206
  H    -23.757058   24.831686   45.597428
  O    -22.480262   26.332549   46.314616
  C    -24.387377   26.720917   44.789448
  C    -25.402626   27.132357   45.870020
  C    -24.681071   28.337771   46.545342
  C    -23.949005   29.003155   45.360819
  O    -23.888967   27.989286   44.272624
  H    -24.896404   26.230904   43.949765
  H    -26.338543   27.443382   45.401495
  O    -25.773204   26.068676   46.778176
  H    -25.384377   29.013305   47.041143
  H    -23.967033   27.954735   47.279164
  H    -22.931784   29.314600   45.611097
  H    -24.496999   29.860707   44.959048
  H    -25.017430   25.866160   47.368992

 Multiplicity           Mult            ....    1
 Number of Electrons    NEL             ....  102
 Basis Dimension        Dim             ....  149

ORBITAL ENERGIES
----------------

  NO   OCC          E(Eh)            E(eV)
   0   2.0000     -19.147677      -521.0348
   1   2.0000     -19.143940      -520.9331
   2   2.0000     -19.139000      -520.7987
   3   2.0000     -19.138713      -520.7908
   4   2.0000     -10.284325      -279.8507
   5   2.0000     -10.237453      -278.5753
   6   2.0000     -10.233875      -278.4779
   7   2.0000     -10.231841      -278.4226
   8   2.0000     -10.229021      -278.3458
   9   2.0000     -10.225906      -278.2610
  10   2.0000     -10.190513      -277.2980
  11   2.0000     -10.187111      -277.2054
  12   2.0000     -10.181694      -277.0580
  13   2.0000      -1.056522       -28.7494
  14   2.0000      -1.028542       -27.9881
  15   2.0000      -1.010754       -27.5040
  16   2.0000      -0.997625       -27.1468
  17   2.0000      -0.790380       -21.5073
  18   2.0000      -0.774522       -21.0758
  19   2.0000      -0.768096       -20.9010
  20   2.0000      -0.734085       -19.9755
  21   2.0000      -0.680210       -18.5094
  22   2.0000      -0.603773       -16.4295
  23   2.0000      -0.603162       -16.4129
  24   2.0000      -0.596608       -16.2345
  25   2.0000      -0.576980       -15.7004
  26   2.0000      -0.527749       -14.3608
  27   2.0000      -0.508179       -13.8283
  28   2.0000      -0.496558       -13.5120
  29   2.0000      -0.491883       -13.3848
  30   2.0000      -0.473654       -12.8888
  31   2.0000      -0.463110       -12.6019
  32   2.0000      -0.439296       -11.9539
  33   2.0000      -0.437992       -11.9184
  34   2.0000      -0.424232       -11.5439
  35   2.0000      -0.417108       -11.3501
  36   2.0000      -0.404863       -11.0169
  37   2.0000      -0.394722       -10.7409
  38   2.0000      -0.381883       -10.3916
  39   2.0000      -0.371742       -10.1156
  40   2.0000      -0.360472        -9.8089
  41   2.0000      -0.355132        -9.6636
  42   2.0000      -0.350078        -9.5261
  43   2.0000      -0.328070        -8.9272
  44   2.0000      -0.317873        -8.6498
  45   2.0000      -0.315154        -8.5758
  46   2.0000      -0.306732        -8.3466
  47   2.0000      -0.270528        -7.3615
  48   2.0000      -0.264998        -7.2110
  49   2.0000      -0.256255        -6.9731
  50   2.0000      -0.239345        -6.5129
  51   0.0000       0.065692         1.7876
  52   0.0000       0.070012         1.9051
  53   0.0000       0.087107         2.3703
  54   0.0000       0.095677         2.6035
  55   0.0000       0.102927         2.8008

MULLIKEN ATOMIC CHARGES
-----------------------
   0 C :    0.293257
   1 C :   -0.263016
   2 C :   -0.309233
   3 C :   -0.002649
   4 O :   -0.502680
   5 H :    0.143214
   6 H :    0.144800
   7 H :    0.164543
   8 H :    0.145072
   9 H :    0.158139
  10 H :    0.149802
  11 H :    0.144468
  12 C :   -0.026319
  13 H :    0.144312
  14 H :    0.148221
  15 O :   -0.534950
  16 C :    0.097959
  17 C :    0.090298
  18 C :   -0.318194
  19 C :   -0.007825
  20 O :   -0.525467
  21 H :    0.148130
  22 H :    0.160383
  23 O :   -0.606766
  24 H :    0.145318
  25 H :    0.168377
  26 H :    0.139115
  27 H :    0.143056
  28 H :    0.368633
Sum of atomic charges:    0.0000000

LOEWDIN ATOMIC CHARGES
----------------------
   0 C :    0.181170
   1 C :   -0.225228
   2 C :   -0.217938
   3 C :   -0.026315
   4 O :   -0.311100
   5 H :    0.099846
   6 H :    0.114440
   7 H :    0.124692
   8 H :    0.115795
   9 H :    0.113815
  10 H :    0.106844
  11 H :    0.103761
  12 C :   -0.044957
  13 H :    0.105500
  14 H :    0.106668
  15 O :   -0.347043
  16 C :    0.014794
  17 C :    0.038562
  18 C :   -0.243918
  19 C :   -0.025678
  20 O :   -0.326355
  21 H :    0.113936
  22 H :    0.115787
  23 O :   -0.410299
  24 H :    0.115877
  25 H :    0.121435
  26 H :    0.098816
  27 H :    0.101570
  28 H :    0.285521

  Mayer bond orders larger than 0.100000
B(  0-C ,  1-C ) :   0.9373 B(  0-C ,  4-O ) :   0.9375 B(  0-C ,  5-H ) :   0.9195
B(  0-C , 15-O ) :   0.8265 B(  1-C ,  2-C ) :   0.9553 B(  1-C ,  6-H ) :   0.9344
B(  1-C ,  7-H ) :   0.9286 B(  2-C ,  3-C ) :   0.9527 B(  2-C ,  8-H ) :   0.9447
B(  2-C ,  9-H ) :   0.9403 B(  3-C ,  4-O ) :   0.8374 B(  3-C , 10-H ) :   0.9351
B(  3-C , 11-H ) :   0.9394 B( 12-C , 13-H ) :   0.9217 B( 12-C , 14-H ) :   0.9094
B( 12-C , 15-O ) :   0.8402 B( 12-C , 16-C ) :   0.9063 B( 16-C , 17-C ) :   0.8883
B( 16-C , 20-O ) :   0.8720 B( 16-C , 21-H ) :   0.9259 B( 17-C , 18-C ) :   0.9308
B( 17-C , 22-H ) :   0.9364 B( 17-C , 23-O ) :   0.9056 B( 18-C , 19-C ) :   0.9486
B( 18-C , 24-H ) :   0.9411 B( 18-C , 25-H ) :   0.9245 B( 19-C , 20-O ) :   0.8402
B( 19-C , 26-H ) :   0.9253 B( 19-C , 27-H ) :   0.9375 B( 23-O , 28-H ) :   0.7901

FINAL SINGLE POINT ENERGY      -652.862412351784

DIPOLE MOMENT
-------------
                                X             Y             Z
Electronic contribution:     -2.55449      -4.29782      -1.22946
Nuclear contribution   :      3.27151       5.05613       1.31869
                        -----------------------------------------
Total Dipole Moment    :      0.71702       0.75831       0.08923
                        -----------------------------------------
Magnitude (a.u.)       :      1.04743
Magnitude (Debye)      :      2.66236

Rotational constants in cm-1:     0.044726     0.016889     0.015765
Rotational constants in MHz :  1340.840549   506.319916   472.628437

                             ****ORCA TERMINATED NORMALLY****
TOTAL RUN TIME: 0 days 0 hours 33 minutes 11 seconds 368 msec
