                         Program Version 4.2.1 -  RELEASE  -
|  1> # Test redundant internal optimization
|  2> #
|  3> ! RKS B3LYP  Opt TightSCF SmallPrint
|  4>
|  5> %basis
|  6>         Basis "6-31G"
|  7> end
|  8>
|  9> %geom
| 10> Constraints
| 11> { D 4  0  19  14  180.0   C } # D for Dihedral angle
| 12> { D 0  19  14  12  345.0   C } # D for Dihedral angle
| 13> { D 0  4  3  2   C } # D for Dihedral angle
| 14> { D 4  3  2  1   C } # D for Dihedral angle
| 15> { D 3  2  1  0   C } # D for Dihedral angle
| 16> { D 2  1  0  4   C } # D for Dihedral angle
| 17> { D 1  0  4  3   C } # D for Dihedral angle
| 18> { D 14  15  16  17   C } # D for Dihedral angle
| 19> { D 15  16  17  12   C } # D for Dihedral angle
| 20> { D 16  17  12  14   C } # D for Dihedral angle
| 21> { D 17  12  14  15   C } # D for Dihedral angle
| 22> { D 12  14  15  16   C } # D for Dihedral angle
| 23> end
| 24> end
| 25>
| 26>
| 27> #%pal
| 28> #nprocs 8
| 29> #end
| 30>
| 31> * xyz 0 1
| 32> C  -21.048   26.222   46.251
| 33> C  -20.361   27.558   45.944
| 34> C  -20.329   28.222   47.341
| 35> C  -20.110   27.022   48.296
| 36> O  -20.473   25.807   47.535
| 37> H  -20.833   25.428   45.533
| 38> H  -19.344   27.382   45.576
| 39> H  -20.898   28.157   45.201
| 40> H  -19.543   28.978   47.434
| 41> H  -21.289   28.710   47.548
| 42> H  -20.733   27.082   49.195
| 43> H  -19.064   26.913   48.597
| 44> C  -22.085   27.303   44.147
| 45> H  -22.562   27.882   43.340
| 46> C  -23.122   26.788   45.152
| 47> C  -23.701   25.563   44.405
| 48> C  -22.473   25.000   43.647
| 49> O  -21.469   26.086   43.608
| 50> H  -21.284   27.898   44.588
| 51> O  -22.472   26.381   46.366
| 52> H  -23.886   27.533   45.401
| 53> H  -24.149   24.827   45.079
| 54> H  -24.477   25.884   43.698
| 55> H  -22.714   24.697   42.622
| 56> H  -22.013   24.154   44.167
| 57> *
| 58>
| 59>                          ****END OF INPUT****
 Total Charge           Charge          ....    0
 Multiplicity           Mult            ....    1
 Number of Electrons    NEL             ....   86
FINAL SINGLE POINT ENERGY      -538.298193558697
FINAL SINGLE POINT ENERGY      -538.351943407937
FINAL SINGLE POINT ENERGY      -538.381340811362
FINAL SINGLE POINT ENERGY      -538.398251084533
FINAL SINGLE POINT ENERGY      -538.407826230051
FINAL SINGLE POINT ENERGY      -538.413107752086
FINAL SINGLE POINT ENERGY      -538.415830798493
FINAL SINGLE POINT ENERGY      -538.416703576305
FINAL SINGLE POINT ENERGY      -538.416845347319
FINAL SINGLE POINT ENERGY      -538.416914053672
FINAL SINGLE POINT ENERGY      -538.419022763098
FINAL SINGLE POINT ENERGY      -538.419978274951
FINAL SINGLE POINT ENERGY      -538.420565912409
FINAL SINGLE POINT ENERGY      -538.420846950878
FINAL SINGLE POINT ENERGY      -538.420926446185
FINAL SINGLE POINT ENERGY      -538.420944207050
FINAL SINGLE POINT ENERGY      -538.420964063225
FINAL SINGLE POINT ENERGY      -538.420970751677
FINAL SINGLE POINT ENERGY      -538.420977715634
                    ***********************HURRAY********************

CARTESIAN COORDINATES (ANGSTROEM)
---------------------------------
  C    -20.801091   26.228483   46.292997
  C    -19.989636   27.511510   46.101935
  C    -20.226757   28.254150   47.447753
  C    -20.291796   27.087186   48.456026
  O    -20.549193   25.870525   47.657108
  H    -20.491772   25.394938   45.658221
  H    -18.934291   27.227032   46.006195
  H    -20.248101   28.110913   45.232990
  H    -19.429455   28.966506   47.678842
  H    -21.178372   28.793145   47.414925
  H    -21.093436   27.198493   49.191129
  H    -19.342848   26.926913   48.977745
  C    -22.365114   27.352488   43.835471
  H    -23.121104   27.829816   43.192951
  C    -23.067098   26.770993   45.064607
  C    -23.681116   25.480595   44.486290
  C    -22.633588   25.010510   43.452492
  O    -21.777608   26.190136   43.161427
  H    -21.570982   28.067574   44.023493
  O    -22.256524   26.400461   46.231794
  H    -23.825169   27.450922   45.464532
  H    -23.858282   24.758468   45.284879
  H    -24.637959   25.703259   43.997726
  H    -23.083885   24.664817   42.516658
  H    -21.976824   24.227168   43.842815

 Multiplicity           Mult            ....    1
 Number of Electrons    NEL             ....   86
 Basis Dimension        Dim             ....  127

ORBITAL ENERGIES
----------------

  NO   OCC          E(Eh)            E(eV)
   0   2.0000     -19.138553      -520.7865
   1   2.0000     -19.135407      -520.7009
   2   2.0000     -19.130445      -520.5659
   3   2.0000     -10.277302      -279.6596
   4   2.0000     -10.242935      -278.7244
   5   2.0000     -10.230770      -278.3934
   6   2.0000     -10.225484      -278.2496
   7   2.0000     -10.221599      -278.1438
   8   2.0000     -10.184999      -277.1479
   9   2.0000     -10.184117      -277.1239
  10   2.0000     -10.183151      -277.0976
  11   2.0000      -1.047334       -28.4994
  12   2.0000      -1.019681       -27.7469
  13   2.0000      -0.979878       -26.6638
  14   2.0000      -0.786621       -21.4050
  15   2.0000      -0.779503       -21.2114
  16   2.0000      -0.742588       -20.2069
  17   2.0000      -0.725886       -19.7524
  18   2.0000      -0.618758       -16.8373
  19   2.0000      -0.603467       -16.4212
  20   2.0000      -0.594907       -16.1882
  21   2.0000      -0.565785       -15.3958
  22   2.0000      -0.516066       -14.0429
  23   2.0000      -0.502175       -13.6649
  24   2.0000      -0.488641       -13.2966
  25   2.0000      -0.484752       -13.1908
  26   2.0000      -0.451370       -12.2824
  27   2.0000      -0.445221       -12.1151
  28   2.0000      -0.433814       -11.8047
  29   2.0000      -0.412700       -11.2301
  30   2.0000      -0.404328       -11.0023
  31   2.0000      -0.389242       -10.5918
  32   2.0000      -0.375340       -10.2135
  33   2.0000      -0.366379        -9.9697
  34   2.0000      -0.361828        -9.8458
  35   2.0000      -0.350118        -9.5272
  36   2.0000      -0.347171        -9.4470
  37   2.0000      -0.319048        -8.6817
  38   2.0000      -0.304672        -8.2906
  39   2.0000      -0.287167        -7.8142
  40   2.0000      -0.254462        -6.9243
  41   2.0000      -0.250357        -6.8125
  42   2.0000      -0.239847        -6.5266
  43   0.0000       0.074275         2.0211
  44   0.0000       0.088622         2.4115
  45   0.0000       0.098971         2.6931
  46   0.0000       0.105672         2.8755
  47   0.0000       0.112866         3.0712

MULLIKEN ATOMIC CHARGES
-----------------------
   0 C :    0.312383
   1 C :   -0.280064
   2 C :   -0.299796
   3 C :    0.002667
   4 O :   -0.498025
   5 H :    0.154487
   6 H :    0.150856
   7 H :    0.144510
   8 H :    0.141063
   9 H :    0.152766
  10 H :    0.151071
  11 H :    0.141430
  12 C :   -0.035185
  13 H :    0.134552
  14 C :    0.086936
  15 C :   -0.290281
  16 C :   -0.013435
  17 O :   -0.527392
  18 H :    0.156148
  19 O :   -0.535268
  20 H :    0.146532
  21 H :    0.174753
  22 H :    0.136866
  23 H :    0.141500
  24 H :    0.150927
Sum of atomic charges:    0.0000000

LOEWDIN ATOMIC CHARGES
----------------------
   0 C :    0.190696
   1 C :   -0.229672
   2 C :   -0.218274
   3 C :   -0.025890
   4 O :   -0.301283
   5 H :    0.102647
   6 H :    0.118230
   7 H :    0.113250
   8 H :    0.113777
   9 H :    0.113655
  10 H :    0.107564
  11 H :    0.101552
  12 C :   -0.053182
  13 H :    0.098638
  14 C :    0.043640
  15 C :   -0.232649
  16 C :   -0.032423
  17 O :   -0.338008
  18 H :    0.112148
  19 O :   -0.344921
  20 H :    0.110747
  21 H :    0.132851
  22 H :    0.109791
  23 H :    0.102205
  24 H :    0.104910

  Mayer bond orders larger than 0.100000
B(  0-C ,  1-C ) :   0.9284 B(  0-C ,  4-O ) :   0.9283 B(  0-C ,  5-H ) :   0.9172
B(  0-C , 19-O ) :   0.8240 B(  1-C ,  2-C ) :   0.9499 B(  1-C ,  6-H ) :   0.9320
B(  1-C ,  7-H ) :   0.9226 B(  2-C ,  3-C ) :   0.9543 B(  2-C ,  8-H ) :   0.9448
B(  2-C ,  9-H ) :   0.9458 B(  3-C ,  4-O ) :   0.8358 B(  3-C , 10-H ) :   0.9352
B(  3-C , 11-H ) :   0.9395 B( 12-C , 13-H ) :   0.9104 B( 12-C , 14-C ) :   0.9216
B( 12-C , 17-O ) :   0.8644 B( 12-C , 18-H ) :   0.9166 B( 14-C , 15-C ) :   0.9289
B( 14-C , 19-O ) :   0.8622 B( 14-C , 20-H ) :   0.9315 B( 15-C , 16-C ) :   0.9479
B( 15-C , 21-H ) :   0.9345 B( 15-C , 22-H ) :   0.9379 B( 16-C , 17-O ) :   0.8437
B( 16-C , 23-H ) :   0.9353 B( 16-C , 24-H ) :   0.9357

FINAL SINGLE POINT ENERGY      -538.420978904524

DIPOLE MOMENT
-------------
                                X             Y             Z
Electronic contribution:      0.04708      -2.52397       0.38924
Nuclear contribution   :     -0.36449       3.36248      -0.59673
                        -----------------------------------------
Total Dipole Moment    :     -0.31742       0.83851      -0.20748
                        -----------------------------------------
Magnitude (a.u.)       :      0.92027
Magnitude (Debye)      :      2.33914

Rotational constants in cm-1:     0.080128     0.022532     0.021137
Rotational constants in MHz :  2402.187873   675.492307   633.660039

                             ****ORCA TERMINATED NORMALLY****
TOTAL RUN TIME: 0 days 0 hours 54 minutes 24 seconds 358 msec
