                         Program Version 4.2.1 -  RELEASE  -
|  1> # Test redundant internal optimization
|  2> #
|  3> ! RKS B3LYP  Opt TightSCF SmallPrint
|  4>
|  5> %basis
|  6>         Basis "6-31G"
|  7> end
|  8>
|  9> %geom
| 10> Constraints
| 11> { D 4  0  19  14  45.0   C } # D for Dihedral angle
| 12> { D 0  19  14  12  165.0   C } # D for Dihedral angle
| 13> { D 0  4  3  2   C } # D for Dihedral angle
| 14> { D 4  3  2  1   C } # D for Dihedral angle
| 15> { D 3  2  1  0   C } # D for Dihedral angle
| 16> { D 2  1  0  4   C } # D for Dihedral angle
| 17> { D 1  0  4  3   C } # D for Dihedral angle
| 18> { D 14  15  16  17   C } # D for Dihedral angle
| 19> { D 15  16  17  12   C } # D for Dihedral angle
| 20> { D 16  17  12  14   C } # D for Dihedral angle
| 21> { D 17  12  14  15   C } # D for Dihedral angle
| 22> { D 12  14  15  16   C } # D for Dihedral angle
| 23> end
| 24> end
| 25>
| 26>
| 27> #%pal
| 28> #nprocs 8
| 29> #end
| 30>
| 31> * xyz 0 1
| 32> C  -21.048   26.222   46.251
| 33> C  -20.361   27.558   45.944
| 34> C  -20.329   28.222   47.341
| 35> C  -20.110   27.022   48.296
| 36> O  -20.473   25.807   47.535
| 37> H  -20.833   25.428   45.533
| 38> H  -19.344   27.382   45.576
| 39> H  -20.898   28.157   45.201
| 40> H  -19.543   28.978   47.434
| 41> H  -21.289   28.710   47.548
| 42> H  -20.733   27.082   49.195
| 43> H  -19.064   26.913   48.597
| 44> C  -24.357   27.532   47.390
| 45> H  -24.618   28.312   48.122
| 46> C  -22.896   27.093   47.540
| 47> C  -22.977   26.142   48.756
| 48> C  -24.357   25.461   48.580
| 49> O  -25.129   26.310   47.646
| 50> H  -24.626   27.875   46.390
| 51> O  -22.472   26.381   46.366
| 52> H  -22.210   27.932   47.701
| 53> H  -22.156   25.419   48.786
| 54> H  -22.948   26.719   49.689
| 55> H  -24.907   25.374   49.523
| 56> H  -24.279   24.469   48.123
| 57> *
| 58>
| 59>                          ****END OF INPUT****
 Total Charge           Charge          ....    0
 Multiplicity           Mult            ....    1
 Number of Electrons    NEL             ....   86
FINAL SINGLE POINT ENERGY      -538.391927926707
FINAL SINGLE POINT ENERGY      -538.424396966664
FINAL SINGLE POINT ENERGY      -538.427492769319
FINAL SINGLE POINT ENERGY      -538.427880594329
FINAL SINGLE POINT ENERGY      -538.427923536156
FINAL SINGLE POINT ENERGY      -538.427936958020
                    ***********************HURRAY********************

CARTESIAN COORDINATES (ANGSTROEM)
---------------------------------
  C    -21.072389   26.338408   46.377256
  C    -20.304256   27.586912   45.917226
  C    -19.969818   28.279053   47.270885
  C    -19.728299   27.074204   48.214761
  O    -20.346639   25.898701   47.552159
  H    -21.008148   25.519107   45.658813
  H    -19.388123   27.268541   45.408481
  H    -20.891878   28.209576   45.238730
  H    -19.084685   28.919648   47.201949
  H    -20.800363   28.904429   47.609077
  H    -20.179165   27.202005   49.203798
  H    -18.665419   26.845719   48.334775
  C    -24.551803   27.425435   47.352140
  H    -24.977061   28.165448   48.046973
  C    -23.092864   27.135247   47.707905
  C    -23.247240   26.154642   48.888469
  C    -24.506673   25.340729   48.510793
  O    -25.219068   26.130990   47.482055
  H    -24.678342   27.761684   46.322339
  O    -22.499126   26.480672   46.545028
  H    -22.549848   28.045188   47.981252
  H    -22.356474   25.535358   49.004786
  H    -23.408752   26.723361   49.812627
  H    -25.173874   25.176257   49.364374
  H    -24.256692   24.378685   48.056350

 Multiplicity           Mult            ....    1
 Number of Electrons    NEL             ....   86
 Basis Dimension        Dim             ....  127

ORBITAL ENERGIES
----------------

  NO   OCC          E(Eh)            E(eV)
   0   2.0000     -19.149395      -521.0815
   1   2.0000     -19.140902      -520.8504
   2   2.0000     -19.122249      -520.3429
   3   2.0000     -10.280724      -279.7527
   4   2.0000     -10.240095      -278.6471
   5   2.0000     -10.235481      -278.5216
   6   2.0000     -10.218873      -278.0697
   7   2.0000     -10.213979      -277.9365
   8   2.0000     -10.197579      -277.4902
   9   2.0000     -10.191613      -277.3279
  10   2.0000     -10.177542      -276.9450
  11   2.0000      -1.055057       -28.7096
  12   2.0000      -1.012027       -27.5386
  13   2.0000      -0.989953       -26.9380
  14   2.0000      -0.793259       -21.5857
  15   2.0000      -0.782133       -21.2829
  16   2.0000      -0.740079       -20.1386
  17   2.0000      -0.721958       -19.6455
  18   2.0000      -0.619715       -16.8633
  19   2.0000      -0.608123       -16.5479
  20   2.0000      -0.593602       -16.1527
  21   2.0000      -0.563689       -15.3388
  22   2.0000      -0.525559       -14.3012
  23   2.0000      -0.504067       -13.7164
  24   2.0000      -0.484790       -13.1918
  25   2.0000      -0.479810       -13.0563
  26   2.0000      -0.451328       -12.2813
  27   2.0000      -0.450003       -12.2452
  28   2.0000      -0.424831       -11.5602
  29   2.0000      -0.412514       -11.2251
  30   2.0000      -0.410493       -11.1701
  31   2.0000      -0.386645       -10.5212
  32   2.0000      -0.376578       -10.2472
  33   2.0000      -0.366795        -9.9810
  34   2.0000      -0.364089        -9.9074
  35   2.0000      -0.361807        -9.8453
  36   2.0000      -0.342474        -9.3192
  37   2.0000      -0.322752        -8.7825
  38   2.0000      -0.309630        -8.4255
  39   2.0000      -0.292308        -7.9541
  40   2.0000      -0.265838        -7.2338
  41   2.0000      -0.253917        -6.9094
  42   2.0000      -0.227937        -6.2025
  43   0.0000       0.065435         1.7806
  44   0.0000       0.089644         2.4393
  45   0.0000       0.096684         2.6309
  46   0.0000       0.111289         3.0283
  47   0.0000       0.120779         3.2866

MULLIKEN ATOMIC CHARGES
-----------------------
   0 C :    0.300658
   1 C :   -0.266211
   2 C :   -0.320219
   3 C :   -0.013587
   4 O :   -0.509940
   5 H :    0.167688
   6 H :    0.152931
   7 H :    0.155112
   8 H :    0.148017
   9 H :    0.152430
  10 H :    0.142509
  11 H :    0.152372
  12 C :    0.012362
  13 H :    0.121268
  14 C :    0.056514
  15 C :   -0.291501
  16 C :   -0.003769
  17 O :   -0.518811
  18 H :    0.160184
  19 O :   -0.518558
  20 H :    0.121093
  21 H :    0.182687
  22 H :    0.127143
  23 H :    0.133515
  24 H :    0.156113
Sum of atomic charges:   -0.0000000

LOEWDIN ATOMIC CHARGES
----------------------
   0 C :    0.177784
   1 C :   -0.226479
   2 C :   -0.224106
   3 C :   -0.034887
   4 O :   -0.322449
   5 H :    0.113541
   6 H :    0.119739
   7 H :    0.122296
   8 H :    0.116936
   9 H :    0.108550
  10 H :    0.101163
  11 H :    0.107365
  12 C :   -0.032932
  13 H :    0.089464
  14 C :    0.035636
  15 C :   -0.238003
  16 C :   -0.028471
  17 O :   -0.329066
  18 H :    0.119855
  19 O :   -0.316861
  20 H :    0.092749
  21 H :    0.135094
  22 H :    0.106377
  23 H :    0.097243
  24 H :    0.109464

  Mayer bond orders larger than 0.100000
B(  0-C ,  1-C ) :   0.9160 B(  0-C ,  4-O ) :   0.8893 B(  0-C ,  5-H ) :   0.9357
B(  0-C , 19-O ) :   0.8958 B(  1-C ,  2-C ) :   0.9549 B(  1-C ,  6-H ) :   0.9348
B(  1-C ,  7-H ) :   0.9373 B(  2-C ,  3-C ) :   0.9481 B(  2-C ,  8-H ) :   0.9440
B(  2-C ,  9-H ) :   0.9378 B(  3-C ,  4-O ) :   0.8406 B(  3-C , 10-H ) :   0.9323
B(  3-C , 11-H ) :   0.9391 B( 12-C , 13-H ) :   0.9153 B( 12-C , 14-C ) :   0.9390
B( 12-C , 17-O ) :   0.8759 B( 12-C , 18-H ) :   0.9316 B( 14-C , 15-C ) :   0.9343
B( 14-C , 19-O ) :   0.8260 B( 14-C , 20-H ) :   0.9076 B( 15-C , 16-C ) :   0.9472
B( 15-C , 21-H ) :   0.9239 B( 15-C , 22-H ) :   0.9379 B( 16-C , 17-O ) :   0.8546
B( 16-C , 23-H ) :   0.9331 B( 16-C , 24-H ) :   0.9357

FINAL SINGLE POINT ENERGY      -538.427937283882

DIPOLE MOMENT
-------------
                                X             Y             Z
Electronic contribution:     -2.51692      -3.32386      -2.34760
Nuclear contribution   :      3.69158       4.50669       2.89112
                        -----------------------------------------
Total Dipole Moment    :      1.17466       1.18283       0.54352
                        -----------------------------------------
Magnitude (a.u.)       :      1.75337
Magnitude (Debye)      :      4.45672

Rotational constants in cm-1:     0.078762     0.022895     0.021401
Rotational constants in MHz :  2361.221172   686.385023   641.592734

                             ****ORCA TERMINATED NORMALLY****
TOTAL RUN TIME: 0 days 0 hours 8 minutes 50 seconds 528 msec
