                         Program Version 4.2.0 -  RELEASE  -
|  1> # Test redundant internal optimization
|  2> #
|  3> ! RKS B3LYP  Opt TightSCF SmallPrint
|  4>
|  5> %basis
|  6>         Basis "6-31G"
|  7> end
|  8>
|  9> %geom
| 10> Constraints
| 11> { D 4  0  15  12  165.0   C } # D for Dihedral angle
| 12> { D 0  15  12  16  120.0   C } # D for Dihedral angle
| 13> { D 0  4  3  2   C } # D for Dihedral angle
| 14> { D 4  3  2  1   C } # D for Dihedral angle
| 15> { D 3  2  1  0   C } # D for Dihedral angle
| 16> { D 2  1  0  4   C } # D for Dihedral angle
| 17> { D 1  0  4  3   C } # D for Dihedral angle
| 18> { D 16  20  19  18   C } # D for Dihedral angle
| 19> { D 20  19  18  17   C } # D for Dihedral angle
| 20> { D 19  18  17  16   C } # D for Dihedral angle
| 21> { D 18  17  16  20   C } # D for Dihedral angle
| 22> { D 17  16  20  19   C } # D for Dihedral angle
| 23> { D 15  12  16  20   C } # D for Dihedral angle
| 24> end
| 25> end
| 26>
| 27>
| 28> #%pal
| 29> #nprocs 8
| 30> #end
| 31>
| 32> * xyz 0 1
| 33> C  -21.048   26.222   46.251
| 34> C  -20.361   27.558   45.944
| 35> C  -20.329   28.222   47.341
| 36> C  -20.110   27.022   48.296
| 37> O  -20.473   25.807   47.535
| 38> H  -20.833   25.428   45.533
| 39> H  -19.344   27.382   45.576
| 40> H  -20.898   28.157   45.201
| 41> H  -19.543   28.978   47.434
| 42> H  -21.289   28.710   47.548
| 43> H  -20.733   27.082   49.195
| 44> H  -19.064   26.913   48.597
| 45> C  -23.260   27.170   45.210
| 46> H  -23.749   28.068   45.609
| 47> H  -22.509   27.486   44.475
| 48> O  -22.586   26.394   46.375
| 49> C  -24.327   26.324   44.463
| 50> C  -25.506   25.979   45.380
| 51> C  -26.315   27.299   45.360
| 52> C  -26.109   27.815   43.913
| 53> O  -24.930   27.103   43.376
| 54> H  -23.842   25.459   44.006
| 55> O  -26.336   24.818   44.767
| 56> H  -25.197   25.686   46.388
| 57> H  -27.371   27.153   45.605
| 58> H  -25.897   28.006   46.086
| 59> H  -25.926   28.893   43.875
| 60> H  -26.954   27.577   43.261
| 61> H  -26.659   25.090   43.754
| 62> *
| 63>
| 64>                          ****END OF INPUT****
 Total Charge           Charge          ....    0
 Multiplicity           Mult            ....    1
 Number of Electrons    NEL             ....  102
FINAL SINGLE POINT ENERGY      -652.831613923059
FINAL SINGLE POINT ENERGY      -652.854185908024
FINAL SINGLE POINT ENERGY      -652.857900817462
FINAL SINGLE POINT ENERGY      -652.858503765833
FINAL SINGLE POINT ENERGY      -652.858602628346
FINAL SINGLE POINT ENERGY      -652.858618310495
                    ***********************HURRAY********************

CARTESIAN COORDINATES (ANGSTROEM)
---------------------------------
  C    -21.126485   26.257879   46.148592
  C    -20.283029   27.510261   45.914340
  C    -20.332653   28.198614   47.302892
  C    -20.339079   26.999798   48.273467
  O    -20.743740   25.825329   47.459266
  H    -20.935162   25.428192   45.462420
  H    -19.260236   27.199438   45.671476
  H    -20.637058   28.153879   45.105742
  H    -19.481657   28.866080   47.467763
  H    -21.252979   28.782807   47.399948
  H    -21.048743   27.114013   49.096474
  H    -19.347893   26.772812   48.676500
  C    -23.206890   27.286801   45.139297
  H    -23.641667   28.192032   45.579391
  H    -22.502083   27.594332   44.359417
  O    -22.564802   26.526229   46.203191
  C    -24.283378   26.412906   44.491870
  C    -25.427702   25.993234   45.424349
  C    -26.313782   27.264115   45.421390
  C    -26.161960   27.801143   43.975734
  O    -24.944862   27.160457   43.414968
  H    -23.815491   25.535766   44.034941
  O    -26.136863   24.841142   44.888782
  H    -25.080162   25.695927   46.412070
  H    -27.346799   27.015134   45.676288
  H    -25.945340   27.987824   46.156842
  H    -26.041920   28.888628   43.935023
  H    -27.000090   27.518827   43.330954
  H    -26.295494   24.977403   43.930615

 Multiplicity           Mult            ....    1
 Number of Electrons    NEL             ....  102
 Basis Dimension        Dim             ....  149

ORBITAL ENERGIES
----------------

  NO   OCC          E(Eh)            E(eV)
   0   2.0000     -19.144786      -520.9561
   1   2.0000     -19.142530      -520.8947
   2   2.0000     -19.142236      -520.8867
   3   2.0000     -19.133015      -520.6358
   4   2.0000     -10.283630      -279.8318
   5   2.0000     -10.233501      -278.4677
   6   2.0000     -10.233051      -278.4555
   7   2.0000     -10.232191      -278.4321
   8   2.0000     -10.231405      -278.4107
   9   2.0000     -10.227690      -278.3096
  10   2.0000     -10.192849      -277.3615
  11   2.0000     -10.191884      -277.3353
  12   2.0000     -10.186607      -277.1917
  13   2.0000      -1.054807       -28.7028
  14   2.0000      -1.034853       -28.1598
  15   2.0000      -1.002650       -27.2835
  16   2.0000      -0.994680       -27.0666
  17   2.0000      -0.791000       -21.5242
  18   2.0000      -0.779104       -21.2005
  19   2.0000      -0.768035       -20.8993
  20   2.0000      -0.733749       -19.9663
  21   2.0000      -0.678388       -18.4599
  22   2.0000      -0.605432       -16.4746
  23   2.0000      -0.602405       -16.3923
  24   2.0000      -0.597524       -16.2594
  25   2.0000      -0.574423       -15.6308
  26   2.0000      -0.522121       -14.2076
  27   2.0000      -0.517736       -14.0883
  28   2.0000      -0.499670       -13.5967
  29   2.0000      -0.493186       -13.4203
  30   2.0000      -0.472286       -12.8516
  31   2.0000      -0.458537       -12.4774
  32   2.0000      -0.454490       -12.3673
  33   2.0000      -0.439154       -11.9500
  34   2.0000      -0.426786       -11.6134
  35   2.0000      -0.410405       -11.1677
  36   2.0000      -0.407564       -11.0904
  37   2.0000      -0.391252       -10.6465
  38   2.0000      -0.380661       -10.3583
  39   2.0000      -0.367323        -9.9954
  40   2.0000      -0.361550        -9.8383
  41   2.0000      -0.359034        -9.7698
  42   2.0000      -0.355314        -9.6686
  43   2.0000      -0.330863        -9.0032
  44   2.0000      -0.316244        -8.6054
  45   2.0000      -0.307346        -8.3633
  46   2.0000      -0.298389        -8.1196
  47   2.0000      -0.274544        -7.4707
  48   2.0000      -0.262446        -7.1415
  49   2.0000      -0.259155        -7.0520
  50   2.0000      -0.240369        -6.5408
  51   0.0000       0.065039         1.7698
  52   0.0000       0.071682         1.9506
  53   0.0000       0.095863         2.6086
  54   0.0000       0.100205         2.7267
  55   0.0000       0.103892         2.8270

MULLIKEN ATOMIC CHARGES
-----------------------
   0 C :    0.309584
   1 C :   -0.287691
   2 C :   -0.299290
   3 C :   -0.000292
   4 O :   -0.497116
   5 H :    0.149226
   6 H :    0.152006
   7 H :    0.146451
   8 H :    0.144592
   9 H :    0.155484
  10 H :    0.154530
  11 H :    0.143995
  12 C :   -0.022918
  13 H :    0.136199
  14 H :    0.144017
  15 O :   -0.521424
  16 C :    0.064460
  17 C :    0.095536
  18 C :   -0.304785
  19 C :   -0.036481
  20 O :   -0.528540
  21 H :    0.157951
  22 O :   -0.602912
  23 H :    0.182051
  24 H :    0.162300
  25 H :    0.147771
  26 H :    0.147007
  27 H :    0.147746
  28 H :    0.360541
Sum of atomic charges:    0.0000000

LOEWDIN ATOMIC CHARGES
----------------------
   0 C :    0.185133
   1 C :   -0.233756
   2 C :   -0.216605
   3 C :   -0.025375
   4 O :   -0.300992
   5 H :    0.100806
   6 H :    0.118800
   7 H :    0.114840
   8 H :    0.115590
   9 H :    0.114639
  10 H :    0.109660
  11 H :    0.103784
  12 C :   -0.043751
  13 H :    0.099460
  14 H :    0.104711
  15 O :   -0.341384
  16 C :    0.012190
  17 C :    0.039664
  18 C :   -0.242817
  19 C :   -0.040529
  20 O :   -0.334180
  21 H :    0.114882
  22 O :   -0.414184
  23 H :    0.131169
  24 H :    0.126905
  25 H :    0.114618
  26 H :    0.103481
  27 H :    0.102969
  28 H :    0.280273

  Mayer bond orders larger than 0.100000
B(  0-C ,  1-C ) :   0.9312 B(  0-C ,  4-O ) :   0.9417 B(  0-C ,  5-H ) :   0.9229
B(  0-C , 15-O ) :   0.8289 B(  1-C ,  2-C ) :   0.9484 B(  1-C ,  6-H ) :   0.9335
B(  1-C ,  7-H ) :   0.9282 B(  2-C ,  3-C ) :   0.9555 B(  2-C ,  8-H ) :   0.9449
B(  2-C ,  9-H ) :   0.9462 B(  3-C ,  4-O ) :   0.8348 B(  3-C , 10-H ) :   0.9345
B(  3-C , 11-H ) :   0.9396 B( 12-C , 13-H ) :   0.9313 B( 12-C , 14-H ) :   0.9143
B( 12-C , 15-O ) :   0.8360 B( 12-C , 16-C ) :   0.8860 B( 16-C , 17-C ) :   0.9147
B( 16-C , 20-O ) :   0.8405 B( 16-C , 21-H ) :   0.9281 B( 17-C , 18-C ) :   0.9132
B( 17-C , 22-O ) :   0.8896 B( 17-C , 23-H ) :   0.9226 B( 18-C , 19-C ) :   0.9419
B( 18-C , 24-H ) :   0.9379 B( 18-C , 25-H ) :   0.9338 B( 19-C , 20-O ) :   0.8441
B( 19-C , 26-H ) :   0.9353 B( 19-C , 27-H ) :   0.9375 B( 22-O , 28-H ) :   0.7972

FINAL SINGLE POINT ENERGY      -652.858620558117

DIPOLE MOMENT
-------------
                                X             Y             Z
Electronic contribution:     -1.62334      -5.51750      -1.42399
Nuclear contribution   :      2.08315       7.11298       1.23382
                        -----------------------------------------
Total Dipole Moment    :      0.45982       1.59548      -0.19017
                        -----------------------------------------
Magnitude (a.u.)       :      1.67127
Magnitude (Debye)      :      4.24804

Rotational constants in cm-1:     0.059419     0.011959     0.011275
Rotational constants in MHz :  1781.339754   358.512455   338.005050

                             ****ORCA TERMINATED NORMALLY****
TOTAL RUN TIME: 0 days 1 hours 24 minutes 17 seconds 600 msec
