                         Program Version 4.2.0 -  RELEASE  -
|  1> # Test redundant internal optimization
|  2> #
|  3> ! RKS B3LYP  Opt TightSCF SmallPrint
|  4>
|  5> %basis
|  6>         Basis "6-31G"
|  7> end
|  8>
|  9> %geom
| 10> Constraints
| 11> { D 4  0  15  12  45.0   C } # D for Dihedral angle
| 12> { D 0  15  12  16  240.0   C } # D for Dihedral angle
| 13> { D 0  4  3  2   C } # D for Dihedral angle
| 14> { D 4  3  2  1   C } # D for Dihedral angle
| 15> { D 3  2  1  0   C } # D for Dihedral angle
| 16> { D 2  1  0  4   C } # D for Dihedral angle
| 17> { D 1  0  4  3   C } # D for Dihedral angle
| 18> { D 16  20  19  18   C } # D for Dihedral angle
| 19> { D 20  19  18  17   C } # D for Dihedral angle
| 20> { D 19  18  17  16   C } # D for Dihedral angle
| 21> { D 18  17  16  20   C } # D for Dihedral angle
| 22> { D 17  16  20  19   C } # D for Dihedral angle
| 23> { D 15  12  16  20   C } # D for Dihedral angle
| 24> end
| 25> end
| 26>
| 27>
| 28> #%pal
| 29> #nprocs 8
| 30> #end
| 31>
| 32> * xyz 0 1
| 33> C  -21.048   26.222   46.251
| 34> C  -20.361   27.558   45.944
| 35> C  -20.329   28.222   47.341
| 36> C  -20.110   27.022   48.296
| 37> O  -20.473   25.807   47.535
| 38> H  -20.833   25.428   45.533
| 39> H  -19.344   27.382   45.576
| 40> H  -20.898   28.157   45.201
| 41> H  -19.543   28.978   47.434
| 42> H  -21.289   28.710   47.548
| 43> H  -20.733   27.082   49.195
| 44> H  -19.064   26.913   48.597
| 45> C  -23.065   27.161   47.638
| 46> H  -22.193   27.462   48.231
| 47> H  -23.613   28.068   47.351
| 48> O  -22.586   26.394   46.375
| 49> C  -24.000   26.309   48.540
| 50> C  -24.545   27.133   49.712
| 51> C  -25.679   27.936   49.031
| 52> C  -26.236   26.939   47.984
| 53> O  -25.198   25.903   47.797
| 54> H  -23.479   25.395   48.833
| 55> O  -25.120   26.190   50.804
| 56> H  -23.788   27.776   50.174
| 57> H  -26.445   28.271   49.737
| 58> H  -25.267   28.824   48.537
| 59> H  -26.444   27.416   47.020
| 60> H  -27.140   26.431   48.331
| 61> H  -25.881   25.537   50.363
| 62> *
| 63>
| 64>                          ****END OF INPUT****
 Total Charge           Charge          ....    0
 Multiplicity           Mult            ....    1
 Number of Electrons    NEL             ....  102
FINAL SINGLE POINT ENERGY      -652.813628758508
FINAL SINGLE POINT ENERGY      -652.840128192967
FINAL SINGLE POINT ENERGY      -652.851538756016
FINAL SINGLE POINT ENERGY      -652.853706881540
FINAL SINGLE POINT ENERGY      -652.854081885959
FINAL SINGLE POINT ENERGY      -652.854127723279
                    ***********************HURRAY********************

CARTESIAN COORDINATES (ANGSTROEM)
---------------------------------
  C    -21.188569   26.317570   46.439986
  C    -20.347571   27.495945   45.929007
  C    -19.978382   28.227782   47.250902
  C    -19.810884   27.056008   48.251331
  O    -20.495610   25.890091   47.636875
  H    -21.178145   25.464139   45.760334
  H    -19.449514   27.102774   45.440509
  H    -20.893939   28.121012   45.218870
  H    -19.061088   28.817755   47.159903
  H    -20.779146   28.909462   47.553705
  H    -20.251596   27.253110   49.233807
  H    -18.762930   26.772349   48.385942
  C    -23.125661   27.301380   47.735709
  H    -22.331287   27.628644   48.412696
  H    -23.642780   28.185320   47.343579
  O    -22.602770   26.556723   46.601067
  C    -24.083684   26.406038   48.524412
  C    -24.739340   27.103850   49.724679
  C    -25.917244   27.855436   49.050041
  C    -26.348231   26.884989   47.921654
  O    -25.215897   25.953385   47.712745
  H    -23.539346   25.506788   48.827554
  O    -25.210362   26.131250   50.697825
  H    -24.068432   27.762627   50.279356
  H    -26.712687   28.054808   49.772205
  H    -25.573882   28.813483   48.643390
  H    -26.566605   27.399676   46.980958
  H    -27.218228   26.280774   48.197786
  H    -25.610192   25.372832   50.222172

 Multiplicity           Mult            ....    1
 Number of Electrons    NEL             ....  102
 Basis Dimension        Dim             ....  149

ORBITAL ENERGIES
----------------

  NO   OCC          E(Eh)            E(eV)
   0   2.0000     -19.146996      -521.0163
   1   2.0000     -19.139704      -520.8178
   2   2.0000     -19.137283      -520.7519
   3   2.0000     -19.137210      -520.7500
   4   2.0000     -10.278258      -279.6856
   5   2.0000     -10.241921      -278.6968
   6   2.0000     -10.234226      -278.4875
   7   2.0000     -10.233736      -278.4741
   8   2.0000     -10.229991      -278.3722
   9   2.0000     -10.227775      -278.3119
  10   2.0000     -10.196146      -277.4512
  11   2.0000     -10.189391      -277.2674
  12   2.0000     -10.188725      -277.2493
  13   2.0000      -1.053790       -28.6751
  14   2.0000      -1.033966       -28.1356
  15   2.0000      -1.004747       -27.3406
  16   2.0000      -0.993918       -27.0459
  17   2.0000      -0.791242       -21.5308
  18   2.0000      -0.784355       -21.3434
  19   2.0000      -0.769299       -20.9337
  20   2.0000      -0.734481       -19.9862
  21   2.0000      -0.677112       -18.4252
  22   2.0000      -0.606311       -16.4986
  23   2.0000      -0.604801       -16.4575
  24   2.0000      -0.599064       -16.3014
  25   2.0000      -0.575057       -15.6481
  26   2.0000      -0.522149       -14.2084
  27   2.0000      -0.515629       -14.0310
  28   2.0000      -0.502235       -13.6665
  29   2.0000      -0.489258       -13.3134
  30   2.0000      -0.474637       -12.9155
  31   2.0000      -0.462902       -12.5962
  32   2.0000      -0.449066       -12.2197
  33   2.0000      -0.438988       -11.9455
  34   2.0000      -0.423839       -11.5333
  35   2.0000      -0.419483       -11.4147
  36   2.0000      -0.401066       -10.9136
  37   2.0000      -0.391667       -10.6578
  38   2.0000      -0.380891       -10.3646
  39   2.0000      -0.371436       -10.1073
  40   2.0000      -0.363373        -9.8879
  41   2.0000      -0.358951        -9.7676
  42   2.0000      -0.350834        -9.5467
  43   2.0000      -0.330003        -8.9798
  44   2.0000      -0.322575        -8.7777
  45   2.0000      -0.312840        -8.5128
  46   2.0000      -0.299856        -8.1595
  47   2.0000      -0.269117        -7.3230
  48   2.0000      -0.266248        -7.2450
  49   2.0000      -0.256878        -6.9900
  50   2.0000      -0.235244        -6.4013
  51   0.0000       0.063939         1.7399
  52   0.0000       0.075312         2.0493
  53   0.0000       0.083941         2.2842
  54   0.0000       0.097987         2.6664
  55   0.0000       0.101244         2.7550

MULLIKEN ATOMIC CHARGES
-----------------------
   0 C :    0.291989
   1 C :   -0.263350
   2 C :   -0.316221
   3 C :   -0.019529
   4 O :   -0.507777
   5 H :    0.168965
   6 H :    0.151495
   7 H :    0.153803
   8 H :    0.148032
   9 H :    0.147605
  10 H :    0.145007
  11 H :    0.151436
  12 C :   -0.011302
  13 H :    0.130748
  14 H :    0.137599
  15 O :   -0.507671
  16 C :    0.070980
  17 C :    0.077974
  18 C :   -0.298507
  19 C :   -0.023700
  20 O :   -0.508718
  21 H :    0.177380
  22 O :   -0.603138
  23 H :    0.145263
  24 H :    0.164324
  25 H :    0.138787
  26 H :    0.146446
  27 H :    0.144861
  28 H :    0.367218
Sum of atomic charges:   -0.0000000

LOEWDIN ATOMIC CHARGES
----------------------
   0 C :    0.176568
   1 C :   -0.227368
   2 C :   -0.224935
   3 C :   -0.037348
   4 O :   -0.322186
   5 H :    0.114675
   6 H :    0.118906
   7 H :    0.121630
   8 H :    0.117194
   9 H :    0.108583
  10 H :    0.100051
  11 H :    0.107028
  12 C :   -0.042959
  13 H :    0.101812
  14 H :    0.101617
  15 O :   -0.311884
  16 C :    0.013087
  17 C :    0.033817
  18 C :   -0.242128
  19 C :   -0.037445
  20 O :   -0.319235
  21 H :    0.124992
  22 O :   -0.415018
  23 H :    0.111703
  24 H :    0.127156
  25 H :    0.110173
  26 H :    0.104638
  27 H :    0.102134
  28 H :    0.284741

  Mayer bond orders larger than 0.100000
B(  0-C ,  1-C ) :   0.9138 B(  0-C ,  4-O ) :   0.8960 B(  0-C ,  5-H ) :   0.9345
B(  0-C , 15-O ) :   0.8989 B(  1-C ,  2-C ) :   0.9544 B(  1-C ,  6-H ) :   0.9348
B(  1-C ,  7-H ) :   0.9377 B(  2-C ,  3-C ) :   0.9473 B(  2-C ,  8-H ) :   0.9448
B(  2-C ,  9-H ) :   0.9429 B(  3-C ,  4-O ) :   0.8422 B(  3-C , 10-H ) :   0.9296
B(  3-C , 11-H ) :   0.9382 B( 12-C , 13-H ) :   0.9043 B( 12-C , 14-H ) :   0.9309
B( 12-C , 15-O ) :   0.8434 B( 12-C , 16-C ) :   0.8884 B( 16-C , 17-C ) :   0.8984
B( 16-C , 20-O ) :   0.8643 B( 16-C , 21-H ) :   0.9221 B( 17-C , 18-C ) :   0.9099
B( 17-C , 22-O ) :   0.8942 B( 17-C , 23-H ) :   0.9335 B( 18-C , 19-C ) :   0.9411
B( 18-C , 24-H ) :   0.9368 B( 18-C , 25-H ) :   0.9343 B( 19-C , 20-O ) :   0.8526
B( 19-C , 26-H ) :   0.9344 B( 19-C , 27-H ) :   0.9377 B( 22-O , 28-H ) :   0.7924

FINAL SINGLE POINT ENERGY      -652.854132792505

DIPOLE MOMENT
-------------
                                X             Y             Z
Electronic contribution:     -2.10534      -5.95295       0.01006
Nuclear contribution   :      2.54982       7.47539      -0.18018
                        -----------------------------------------
Total Dipole Moment    :      0.44447       1.52244      -0.17012
                        -----------------------------------------
Magnitude (a.u.)       :      1.59510
Magnitude (Debye)      :      4.05442

Rotational constants in cm-1:     0.055235     0.013210     0.012357
Rotational constants in MHz :  1655.898167   396.034800   370.459778

                             ****ORCA TERMINATED NORMALLY****
TOTAL RUN TIME: 0 days 0 hours 27 minutes 19 seconds 146 msec
