                         Program Version 4.2.0 -  RELEASE  -
|  1> # Test redundant internal optimization
|  2> #
|  3> ! RKS B3LYP  Opt TightSCF SmallPrint
|  4>
|  5> %basis
|  6>         Basis "6-31G"
|  7> end
|  8>
|  9> %geom
| 10> Constraints
| 11> { D 4  0  15  12  195.0   C } # D for Dihedral angle
| 12> { D 0  15  12  16  45.0   C } # D for Dihedral angle
| 13> { D 0  4  3  2   C } # D for Dihedral angle
| 14> { D 4  3  2  1   C } # D for Dihedral angle
| 15> { D 3  2  1  0   C } # D for Dihedral angle
| 16> { D 2  1  0  4   C } # D for Dihedral angle
| 17> { D 1  0  4  3   C } # D for Dihedral angle
| 18> { D 16  20  19  18   C } # D for Dihedral angle
| 19> { D 20  19  18  17   C } # D for Dihedral angle
| 20> { D 19  18  17  16   C } # D for Dihedral angle
| 21> { D 18  17  16  20   C } # D for Dihedral angle
| 22> { D 17  16  20  19   C } # D for Dihedral angle
| 23> { D 15  12  16  20   C } # D for Dihedral angle
| 24> end
| 25> end
| 26>
| 27>
| 28> #%pal
| 29> #nprocs 8
| 30> #end
| 31>
| 32> * xyz 0 1
| 33> C  -21.048   26.222   46.251
| 34> C  -20.361   27.558   45.944
| 35> C  -20.329   28.222   47.341
| 36> C  -20.110   27.022   48.296
| 37> O  -20.473   25.807   47.535
| 38> H  -20.833   25.428   45.533
| 39> H  -19.344   27.382   45.576
| 40> H  -20.898   28.157   45.201
| 41> H  -19.543   28.978   47.434
| 42> H  -21.289   28.710   47.548
| 43> H  -20.733   27.082   49.195
| 44> H  -19.064   26.913   48.597
| 45> C  -23.353   26.472   45.026
| 46> H  -24.425   26.332   45.211
| 47> H  -23.211   27.456   44.560
| 48> O  -22.586   26.394   46.375
| 49> C  -22.887   25.395   44.008
| 50> C  -23.206   23.982   44.508
| 51> C  -24.713   23.864   44.177
| 52> C  -24.846   24.662   42.855
| 53> O  -23.642   25.514   42.756
| 54> H  -21.836   25.563   43.765
| 55> O  -22.385   22.936   43.705
| 56> H  -22.992   23.843   45.573
| 57> H  -25.045   22.827   44.074
| 58> H  -25.309   24.329   44.971
| 59> H  -25.738   25.297   42.837
| 60> H  -24.856   24.013   41.976
| 61> H  -22.584   23.055   42.633
| 62> *
| 63>
| 64>                          ****END OF INPUT****
 Total Charge           Charge          ....    0
 Multiplicity           Mult            ....    1
 Number of Electrons    NEL             ....  102
FINAL SINGLE POINT ENERGY      -652.832717142242
FINAL SINGLE POINT ENERGY      -652.854526720516
FINAL SINGLE POINT ENERGY      -652.858216310814
FINAL SINGLE POINT ENERGY      -652.858777100172
FINAL SINGLE POINT ENERGY      -652.858865786274
FINAL SINGLE POINT ENERGY      -652.858874878801
                    ***********************HURRAY********************

CARTESIAN COORDINATES (ANGSTROEM)
---------------------------------
  C    -21.024423   26.201295   46.211085
  C    -20.289953   27.509854   45.928116
  C    -20.376152   28.227734   47.296094
  C    -20.271082   27.064308   48.303520
  O    -20.590162   25.834400   47.528634
  H    -20.776726   25.366909   45.551625
  H    -19.248585   27.292193   45.662891
  H    -20.738137   28.088009   45.114294
  H    -19.583633   28.970034   47.430617
  H    -21.342779   28.731167   47.388547
  H    -20.977540   27.145573   49.133148
  H    -19.259413   26.929965   48.697360
  C    -23.229524   26.460130   45.033640
  H    -24.272231   26.373897   45.349792
  H    -23.105836   27.438469   44.546827
  O    -22.468496   26.403697   46.276059
  C    -22.884433   25.382758   43.997877
  C    -23.161786   23.937307   44.433166
  C    -24.691027   23.831581   44.209077
  C    -24.929925   24.706875   42.953791
  O    -23.732215   25.577037   42.814103
  H    -21.854129   25.492906   43.647710
  O    -22.417587   22.998128   43.609414
  H    -22.862781   23.729003   45.460376
  H    -24.988225   22.789746   44.066032
  H    -25.229075   24.223567   45.078545
  H    -25.819143   25.338676   43.036613
  H    -25.004893   24.116722   42.035292
  H    -22.509107   23.253063   42.666751

 Multiplicity           Mult            ....    1
 Number of Electrons    NEL             ....  102
 Basis Dimension        Dim             ....  149

ORBITAL ENERGIES
----------------

  NO   OCC          E(Eh)            E(eV)
   0   2.0000     -19.150270      -521.1054
   1   2.0000     -19.142312      -520.8888
   2   2.0000     -19.139606      -520.8152
   3   2.0000     -19.139521      -520.8128
   4   2.0000     -10.279492      -279.7192
   5   2.0000     -10.240914      -278.6694
   6   2.0000     -10.238889      -278.6143
   7   2.0000     -10.235804      -278.5304
   8   2.0000     -10.233610      -278.4707
   9   2.0000     -10.223942      -278.2076
  10   2.0000     -10.191224      -277.3173
  11   2.0000     -10.186969      -277.2015
  12   2.0000     -10.185859      -277.1713
  13   2.0000      -1.052736       -28.6464
  14   2.0000      -1.040075       -28.3019
  15   2.0000      -1.008926       -27.4543
  16   2.0000      -0.993397       -27.0317
  17   2.0000      -0.787084       -21.4177
  18   2.0000      -0.782298       -21.2874
  19   2.0000      -0.769057       -20.9271
  20   2.0000      -0.735803       -20.0222
  21   2.0000      -0.678484       -18.4625
  22   2.0000      -0.610308       -16.6073
  23   2.0000      -0.605593       -16.4790
  24   2.0000      -0.599038       -16.3007
  25   2.0000      -0.570884       -15.5345
  26   2.0000      -0.526867       -14.3368
  27   2.0000      -0.517659       -14.0862
  28   2.0000      -0.499411       -13.5897
  29   2.0000      -0.487022       -13.2526
  30   2.0000      -0.473274       -12.8784
  31   2.0000      -0.462330       -12.5806
  32   2.0000      -0.453691       -12.3456
  33   2.0000      -0.436648       -11.8818
  34   2.0000      -0.424096       -11.5402
  35   2.0000      -0.416012       -11.3203
  36   2.0000      -0.403216       -10.9721
  37   2.0000      -0.396410       -10.7869
  38   2.0000      -0.375817       -10.2265
  39   2.0000      -0.371191       -10.1006
  40   2.0000      -0.366266        -9.9666
  41   2.0000      -0.357291        -9.7224
  42   2.0000      -0.354774        -9.6539
  43   2.0000      -0.335308        -9.1242
  44   2.0000      -0.314584        -8.5603
  45   2.0000      -0.310475        -8.4484
  46   2.0000      -0.308647        -8.3987
  47   2.0000      -0.272228        -7.4077
  48   2.0000      -0.263437        -7.1685
  49   2.0000      -0.257549        -7.0083
  50   2.0000      -0.242692        -6.6040
  51   0.0000       0.061406         1.6709
  52   0.0000       0.072304         1.9675
  53   0.0000       0.090917         2.4740
  54   0.0000       0.093667         2.5488
  55   0.0000       0.099874         2.7177

MULLIKEN ATOMIC CHARGES
-----------------------
   0 C :    0.284453
   1 C :   -0.270113
   2 C :   -0.296797
   3 C :   -0.002000
   4 O :   -0.503925
   5 H :    0.154929
   6 H :    0.146923
   7 H :    0.144082
   8 H :    0.142071
   9 H :    0.160731
  10 H :    0.154229
  11 H :    0.142256
  12 C :   -0.004510
  13 H :    0.151768
  14 H :    0.141680
  15 O :   -0.514405
  16 C :    0.031064
  17 C :    0.090164
  18 C :   -0.305909
  19 C :   -0.030192
  20 O :   -0.529425
  21 H :    0.159119
  22 O :   -0.603726
  23 H :    0.179832
  24 H :    0.165624
  25 H :    0.154673
  26 H :    0.148858
  27 H :    0.146876
  28 H :    0.361668
Sum of atomic charges:   -0.0000000

LOEWDIN ATOMIC CHARGES
----------------------
   0 C :    0.174079
   1 C :   -0.229781
   2 C :   -0.215972
   3 C :   -0.025016
   4 O :   -0.303885
   5 H :    0.101688
   6 H :    0.115122
   7 H :    0.114786
   8 H :    0.114369
   9 H :    0.118409
  10 H :    0.109426
  11 H :    0.102735
  12 C :   -0.043241
  13 H :    0.113605
  14 H :    0.099332
  15 O :   -0.333313
  16 C :   -0.001463
  17 C :    0.035283
  18 C :   -0.240553
  19 C :   -0.037417
  20 O :   -0.329174
  21 H :    0.110260
  22 O :   -0.413865
  23 H :    0.127952
  24 H :    0.128445
  25 H :    0.118348
  26 H :    0.105377
  27 H :    0.103182
  28 H :    0.281284

  Mayer bond orders larger than 0.100000
B(  0-C ,  1-C ) :   0.9289 B(  0-C ,  4-O ) :   0.9329 B(  0-C ,  5-H ) :   0.9122
B(  0-C , 15-O ) :   0.8291 B(  1-C ,  2-C ) :   0.9521 B(  1-C ,  6-H ) :   0.9344
B(  1-C ,  7-H ) :   0.9357 B(  2-C ,  3-C ) :   0.9559 B(  2-C ,  8-H ) :   0.9450
B(  2-C ,  9-H ) :   0.9446 B(  3-C ,  4-O ) :   0.8355 B(  3-C , 10-H ) :   0.9346
B(  3-C , 11-H ) :   0.9397 B( 12-C , 13-H ) :   0.9379 B( 12-C , 14-H ) :   0.9139
B( 12-C , 15-O ) :   0.8476 B( 12-C , 16-C ) :   0.8806 B( 16-C , 17-C ) :   0.9015
B( 16-C , 20-O ) :   0.8331 B( 16-C , 21-H ) :   0.9246 B( 17-C , 18-C ) :   0.9139
B( 17-C , 22-O ) :   0.8850 B( 17-C , 23-H ) :   0.9234 B( 18-C , 19-C ) :   0.9416
B( 18-C , 24-H ) :   0.9369 B( 18-C , 25-H ) :   0.9329 B( 19-C , 20-O ) :   0.8418
B( 19-C , 26-H ) :   0.9352 B( 19-C , 27-H ) :   0.9384 B( 22-O , 28-H ) :   0.7972

FINAL SINGLE POINT ENERGY      -652.858876899965

DIPOLE MOMENT
-------------
                                X             Y             Z
Electronic contribution:      0.16821      -3.26099      -1.00572
Nuclear contribution   :     -0.49922       4.06962       0.64658
                        -----------------------------------------
Total Dipole Moment    :     -0.33101       0.80863      -0.35913
                        -----------------------------------------
Magnitude (a.u.)       :      0.94468
Magnitude (Debye)      :      2.40119

Rotational constants in cm-1:     0.061247     0.012755     0.012000
Rotational constants in MHz :  1836.140153   382.389813   359.759409

                             ****ORCA TERMINATED NORMALLY****
TOTAL RUN TIME: 0 days 0 hours 27 minutes 21 seconds 855 msec
