                         Program Version 4.2.0 -  RELEASE  -
|  1> # Test redundant internal optimization
|  2> #
|  3> ! RKS B3LYP  Opt TightSCF SmallPrint
|  4>
|  5> %basis
|  6>         Basis "6-31G"
|  7> end
|  8>
|  9> %geom
| 10> Constraints
| 11> { D 4  0  15  12  285.0   C } # D for Dihedral angle
| 12> { D 0  15  12  16  315.0   C } # D for Dihedral angle
| 13> { D 0  4  3  2   C } # D for Dihedral angle
| 14> { D 4  3  2  1   C } # D for Dihedral angle
| 15> { D 3  2  1  0   C } # D for Dihedral angle
| 16> { D 2  1  0  4   C } # D for Dihedral angle
| 17> { D 1  0  4  3   C } # D for Dihedral angle
| 18> { D 16  20  19  18   C } # D for Dihedral angle
| 19> { D 20  19  18  17   C } # D for Dihedral angle
| 20> { D 19  18  17  16   C } # D for Dihedral angle
| 21> { D 18  17  16  20   C } # D for Dihedral angle
| 22> { D 17  16  20  19   C } # D for Dihedral angle
| 23> { D 15  12  16  20   C } # D for Dihedral angle
| 24> end
| 25> end
| 26>
| 27>
| 28> #%pal
| 29> #nprocs 8
| 30> #end
| 31>
| 32> * xyz 0 1
| 33> C  -21.048   26.222   46.251
| 34> C  -20.361   27.558   45.944
| 35> C  -20.329   28.222   47.341
| 36> C  -20.110   27.022   48.296
| 37> O  -20.473   25.807   47.535
| 38> H  -20.833   25.428   45.533
| 39> H  -19.344   27.382   45.576
| 40> H  -20.898   28.157   45.201
| 41> H  -19.543   28.978   47.434
| 42> H  -21.289   28.710   47.548
| 43> H  -20.733   27.082   49.195
| 44> H  -19.064   26.913   48.597
| 45> C  -23.396   25.070   46.435
| 46> H  -23.284   24.622   47.431
| 47> H  -24.463   25.264   46.264
| 48> O  -22.586   26.394   46.375
| 49> C  -22.929   24.032   45.378
| 50> C  -21.491   23.573   45.645
| 51> C  -21.697   22.548   46.786
| 52> C  -23.054   21.892   46.429
| 53> O  -23.725   22.804   45.479
| 54> H  -23.095   24.439   44.379
| 55> O  -20.910   22.879   44.383
| 56> H  -20.822   24.393   45.926
| 57> H  -20.884   21.817   46.851
| 58> H  -21.759   23.066   47.750
| 59> H  -23.695   21.751   47.305
| 60> H  -22.932   20.930   45.923
| 61> H  -21.565   22.052   44.082
| 62> *
| 63>
| 64>                          ****END OF INPUT****
 Total Charge           Charge          ....    0
 Multiplicity           Mult            ....    1
 Number of Electrons    NEL             ....  102
FINAL SINGLE POINT ENERGY      -652.792250802321
FINAL SINGLE POINT ENERGY      -652.834411833464
FINAL SINGLE POINT ENERGY      -652.854799007450
FINAL SINGLE POINT ENERGY      -652.858196112742
FINAL SINGLE POINT ENERGY      -652.858760902552
FINAL SINGLE POINT ENERGY      -652.858877966125
FINAL SINGLE POINT ENERGY      -652.858892639696
FINAL SINGLE POINT ENERGY      -652.858902263268
                    ***********************HURRAY********************

CARTESIAN COORDINATES (ANGSTROEM)
---------------------------------
  C    -20.843051   26.326637   46.235350
  C    -20.415155   27.783542   46.044601
  C    -20.552729   28.345512   47.480505
  C    -20.138974   27.146280   48.363673
  O    -20.245793   25.944679   47.499597
  H    -20.461788   25.643345   45.479582
  H    -19.372287   27.811624   45.708919
  H    -21.041369   28.300831   45.315699
  H    -19.921741   29.222626   47.651032
  H    -21.593860   28.622114   47.667387
  H    -20.786013   27.013348   49.234728
  H    -19.097298   27.201547   48.693868
  C    -23.076804   25.110781   46.297673
  H    -23.070381   24.701632   47.317212
  H    -24.089226   25.458929   46.085587
  O    -22.275963   26.333826   46.294685
  C    -22.779634   23.947892   45.324336
  C    -21.444812   23.190516   45.450004
  C    -21.694435   22.314144   46.715472
  C    -23.199309   21.965249   46.595869
  O    -23.793249   22.937747   45.652148
  H    -22.946487   24.254174   44.287339
  O    -21.229462   22.377137   44.260839
  H    -20.552313   23.799119   45.541583
  H    -21.049877   21.432763   46.706172
  H    -21.479187   22.899380   47.615084
  H    -23.729695   22.030473   47.550566
  H    -23.364225   20.967981   46.175094
  H    -22.066885   21.923170   44.027396

 Multiplicity           Mult            ....    1
 Number of Electrons    NEL             ....  102
 Basis Dimension        Dim             ....  149

ORBITAL ENERGIES
----------------

  NO   OCC          E(Eh)            E(eV)
   0   2.0000     -19.148698      -521.0626
   1   2.0000     -19.143533      -520.9220
   2   2.0000     -19.140594      -520.8420
   3   2.0000     -19.138615      -520.7882
   4   2.0000     -10.278997      -279.7057
   5   2.0000     -10.241516      -278.6858
   6   2.0000     -10.238877      -278.6140
   7   2.0000     -10.232767      -278.4477
   8   2.0000     -10.229805      -278.3672
   9   2.0000     -10.225687      -278.2551
  10   2.0000     -10.186852      -277.1983
  11   2.0000     -10.183795      -277.1152
  12   2.0000     -10.183453      -277.1059
  13   2.0000      -1.053202       -28.6591
  14   2.0000      -1.040596       -28.3160
  15   2.0000      -1.007848       -27.4250
  16   2.0000      -0.992727       -27.0135
  17   2.0000      -0.788036       -21.4435
  18   2.0000      -0.776935       -21.1415
  19   2.0000      -0.766277       -20.8515
  20   2.0000      -0.736066       -20.0294
  21   2.0000      -0.675487       -18.3809
  22   2.0000      -0.605021       -16.4635
  23   2.0000      -0.603384       -16.4189
  24   2.0000      -0.596456       -16.2304
  25   2.0000      -0.577755       -15.7215
  26   2.0000      -0.523131       -14.2351
  27   2.0000      -0.521501       -14.1908
  28   2.0000      -0.499017       -13.5789
  29   2.0000      -0.479686       -13.0529
  30   2.0000      -0.469745       -12.7824
  31   2.0000      -0.459633       -12.5073
  32   2.0000      -0.451579       -12.2881
  33   2.0000      -0.429457       -11.6861
  34   2.0000      -0.423312       -11.5189
  35   2.0000      -0.420490       -11.4421
  36   2.0000      -0.400851       -10.9077
  37   2.0000      -0.393080       -10.6963
  38   2.0000      -0.374971       -10.2035
  39   2.0000      -0.369367       -10.0510
  40   2.0000      -0.362783        -9.8718
  41   2.0000      -0.354921        -9.6579
  42   2.0000      -0.346706        -9.4344
  43   2.0000      -0.332440        -9.0462
  44   2.0000      -0.323661        -8.8073
  45   2.0000      -0.310551        -8.4505
  46   2.0000      -0.300789        -8.1849
  47   2.0000      -0.274496        -7.4694
  48   2.0000      -0.270638        -7.3644
  49   2.0000      -0.250659        -6.8208
  50   2.0000      -0.245259        -6.6738
  51   0.0000       0.064888         1.7657
  52   0.0000       0.075558         2.0560
  53   0.0000       0.094917         2.5828
  54   0.0000       0.097676         2.6579
  55   0.0000       0.106460         2.8969

MULLIKEN ATOMIC CHARGES
-----------------------
   0 C :    0.281854
   1 C :   -0.254634
   2 C :   -0.295245
   3 C :   -0.002850
   4 O :   -0.521840
   5 H :    0.144256
   6 H :    0.143158
   7 H :    0.156666
   8 H :    0.138756
   9 H :    0.163536
  10 H :    0.146679
  11 H :    0.142780
  12 C :    0.012936
  13 H :    0.137269
  14 H :    0.167715
  15 O :   -0.529292
  16 C :    0.023642
  17 C :    0.075237
  18 C :   -0.296661
  19 C :   -0.031521
  20 O :   -0.522862
  21 H :    0.161364
  22 O :   -0.603290
  23 H :    0.176208
  24 H :    0.162530
  25 H :    0.164978
  26 H :    0.149535
  27 H :    0.144461
  28 H :    0.364633
Sum of atomic charges:    0.0000000

LOEWDIN ATOMIC CHARGES
----------------------
   0 C :    0.167747
   1 C :   -0.213098
   2 C :   -0.215090
   3 C :   -0.026635
   4 O :   -0.337058
   5 H :    0.096638
   6 H :    0.112437
   7 H :    0.124319
   8 H :    0.112701
   9 H :    0.119953
  10 H :    0.104815
  11 H :    0.102552
  12 C :   -0.040458
  13 H :    0.098389
  14 H :    0.124166
  15 O :   -0.326743
  16 C :    0.005368
  17 C :    0.032184
  18 C :   -0.239548
  19 C :   -0.039578
  20 O :   -0.325655
  21 H :    0.114493
  22 O :   -0.416292
  23 H :    0.123467
  24 H :    0.127273
  25 H :    0.123902
  26 H :    0.105453
  27 H :    0.101862
  28 H :    0.282435

  Mayer bond orders larger than 0.100000
B(  0-C ,  1-C ) :   0.9458 B(  0-C ,  4-O ) :   0.9006 B(  0-C ,  5-H ) :   0.9063
B(  0-C , 15-O ) :   0.8680 B(  1-C ,  2-C ) :   0.9569 B(  1-C ,  6-H ) :   0.9415
B(  1-C ,  7-H ) :   0.9364 B(  2-C ,  3-C ) :   0.9554 B(  2-C ,  8-H ) :   0.9459
B(  2-C ,  9-H ) :   0.9436 B(  3-C ,  4-O ) :   0.8341 B(  3-C , 10-H ) :   0.9361
B(  3-C , 11-H ) :   0.9403 B( 12-C , 13-H ) :   0.9240 B( 12-C , 14-H ) :   0.9336
B( 12-C , 15-O ) :   0.8392 B( 12-C , 16-C ) :   0.8788 B( 16-C , 17-C ) :   0.9096
B( 16-C , 20-O ) :   0.8268 B( 16-C , 21-H ) :   0.9246 B( 17-C , 18-C ) :   0.9111
B( 17-C , 22-O ) :   0.8859 B( 17-C , 23-H ) :   0.9133 B( 18-C , 19-C ) :   0.9407
B( 18-C , 24-H ) :   0.9374 B( 18-C , 25-H ) :   0.9289 B( 19-C , 20-O ) :   0.8344
B( 19-C , 26-H ) :   0.9354 B( 19-C , 27-H ) :   0.9386 B( 22-O , 28-H ) :   0.7936

FINAL SINGLE POINT ENERGY      -652.858905719518

DIPOLE MOMENT
-------------
                                X             Y             Z
Electronic contribution:     -1.92236      -2.74246      -3.25441
Nuclear contribution   :      2.04183       3.06014       3.80234
                        -----------------------------------------
Total Dipole Moment    :      0.11947       0.31768       0.54792
                        -----------------------------------------
Magnitude (a.u.)       :      0.64452
Magnitude (Debye)      :      1.63825

Rotational constants in cm-1:     0.054631     0.013684     0.013469
Rotational constants in MHz :  1637.785980   410.233740   403.797271

                             ****ORCA TERMINATED NORMALLY****
TOTAL RUN TIME: 0 days 1 hours 32 minutes 41 seconds 471 msec
