                         Program Version 4.2.0 -  RELEASE  -
|  1> # Test redundant internal optimization
|  2> #
|  3> ! RKS B3LYP  Opt TightSCF SmallPrint
|  4>
|  5> %basis
|  6>         Basis "6-31G"
|  7> end
|  8>
|  9> %geom
| 10> Constraints
| 11> { D 4  0  15  12  195.0   C } # D for Dihedral angle
| 12> { D 0  15  12  16  30.0   C } # D for Dihedral angle
| 13> { D 0  4  3  2   C } # D for Dihedral angle
| 14> { D 4  3  2  1   C } # D for Dihedral angle
| 15> { D 3  2  1  0   C } # D for Dihedral angle
| 16> { D 2  1  0  4   C } # D for Dihedral angle
| 17> { D 1  0  4  3   C } # D for Dihedral angle
| 18> { D 16  20  19  18   C } # D for Dihedral angle
| 19> { D 20  19  18  17   C } # D for Dihedral angle
| 20> { D 19  18  17  16   C } # D for Dihedral angle
| 21> { D 18  17  16  20   C } # D for Dihedral angle
| 22> { D 17  16  20  19   C } # D for Dihedral angle
| 23> { D 15  12  16  20   C } # D for Dihedral angle
| 24> end
| 25> end
| 26>
| 27>
| 28> #%pal
| 29> #nprocs 8
| 30> #end
| 31>
| 32> * xyz 0 1
| 33> C  -21.048   26.222   46.251
| 34> C  -20.361   27.558   45.944
| 35> C  -20.329   28.222   47.341
| 36> C  -20.110   27.022   48.296
| 37> O  -20.473   25.807   47.535
| 38> H  -20.833   25.428   45.533
| 39> H  -19.344   27.382   45.576
| 40> H  -20.898   28.157   45.201
| 41> H  -19.543   28.978   47.434
| 42> H  -21.289   28.710   47.548
| 43> H  -20.733   27.082   49.195
| 44> H  -19.064   26.913   48.597
| 45> C  -23.353   26.472   45.026
| 46> H  -24.365   26.072   45.162
| 47> H  -23.437   27.514   44.692
| 48> O  -22.586   26.394   46.375
| 49> C  -22.658   25.668   43.893
| 50> C  -22.649   24.166   44.202
| 51> C  -24.091   23.758   43.817
| 52> C  -24.403   24.670   42.604
| 53> O  -23.422   25.775   42.646
| 54> H  -21.672   26.096   43.703
| 55> H  -21.919   23.656   43.562
| 56> O  -22.307   23.850   45.683
| 57> H  -24.181   22.695   43.575
| 58> H  -24.775   23.971   44.647
| 59> H  -25.415   25.086   42.641
| 60> H  -24.268   24.154   41.649
| 61> H  -23.025   24.351   46.342
| 62> *
| 63>
| 64>                          ****END OF INPUT****
 Total Charge           Charge          ....    0
 Multiplicity           Mult            ....    1
 Number of Electrons    NEL             ....  102
FINAL SINGLE POINT ENERGY      -652.824542762666
FINAL SINGLE POINT ENERGY      -652.849589744274
FINAL SINGLE POINT ENERGY      -652.854889772011
FINAL SINGLE POINT ENERGY      -652.856618261341
FINAL SINGLE POINT ENERGY      -652.856805316610
FINAL SINGLE POINT ENERGY      -652.856852984064
FINAL SINGLE POINT ENERGY      -652.856862223351
                    ***********************HURRAY********************

CARTESIAN COORDINATES (ANGSTROEM)
---------------------------------
  C    -20.962518   26.219332   46.268685
  C    -20.222449   27.526145   45.993444
  C    -20.394901   28.280989   47.333440
  C    -20.341042   27.146364   48.376590
  O    -20.604593   25.893575   47.617871
  H    -20.697029   25.364594   45.649199
  H    -19.165585   27.308828   45.797105
  H    -20.624963   28.078342   45.138688
  H    -19.617319   29.033724   47.494594
  H    -21.369001   28.777628   47.354615
  H    -21.096052   27.243496   49.160823
  H    -19.353541   27.030992   48.833085
  C    -23.170005   26.455525   45.010454
  H    -24.177118   26.129945   45.285168
  H    -23.244359   27.491505   44.653563
  O    -22.418288   26.428062   46.268688
  C    -22.640057   25.616282   43.833161
  C    -22.654627   24.092036   44.064079
  C    -24.164839   23.750953   43.855449
  C    -24.586137   24.737591   42.746496
  O    -23.554986   25.811480   42.711224
  H    -21.663621   25.977486   43.499631
  H    -22.051231   23.601798   43.296451
  O    -22.110854   23.620077   45.315253
  H    -24.307335   22.705433   43.571379
  H    -24.711496   23.922818   44.789715
  H    -25.564188   25.195635   42.922331
  H    -24.587694   24.274643   41.755499
  H    -22.495170   24.113720   46.073320

 Multiplicity           Mult            ....    1
 Number of Electrons    NEL             ....  102
 Basis Dimension        Dim             ....  149

ORBITAL ENERGIES
----------------

  NO   OCC          E(Eh)            E(eV)
   0   2.0000     -19.148255      -521.0505
   1   2.0000     -19.145129      -520.9654
   2   2.0000     -19.142640      -520.8977
   3   2.0000     -19.140261      -520.8330
   4   2.0000     -10.275889      -279.6211
   5   2.0000     -10.244774      -278.7745
   6   2.0000     -10.241569      -278.6873
   7   2.0000     -10.234676      -278.4997
   8   2.0000     -10.234484      -278.4945
   9   2.0000     -10.224174      -278.2139
  10   2.0000     -10.192061      -277.3401
  11   2.0000     -10.186502      -277.1888
  12   2.0000     -10.185465      -277.1606
  13   2.0000      -1.052846       -28.6494
  14   2.0000      -1.035299       -28.1719
  15   2.0000      -1.016724       -27.6665
  16   2.0000      -0.991492       -26.9799
  17   2.0000      -0.785821       -21.3833
  18   2.0000      -0.781352       -21.2617
  19   2.0000      -0.768801       -20.9201
  20   2.0000      -0.735480       -20.0134
  21   2.0000      -0.682004       -18.5583
  22   2.0000      -0.610286       -16.6067
  23   2.0000      -0.609531       -16.5862
  24   2.0000      -0.598592       -16.2885
  25   2.0000      -0.565467       -15.3872
  26   2.0000      -0.534022       -14.5315
  27   2.0000      -0.518195       -14.1008
  28   2.0000      -0.497803       -13.5459
  29   2.0000      -0.486371       -13.2348
  30   2.0000      -0.467429       -12.7194
  31   2.0000      -0.459442       -12.5020
  32   2.0000      -0.448807       -12.2126
  33   2.0000      -0.433376       -11.7928
  34   2.0000      -0.426906       -11.6167
  35   2.0000      -0.418067       -11.3762
  36   2.0000      -0.409317       -11.1381
  37   2.0000      -0.400758       -10.9052
  38   2.0000      -0.378768       -10.3068
  39   2.0000      -0.374139       -10.1808
  40   2.0000      -0.361557        -9.8385
  41   2.0000      -0.357751        -9.7349
  42   2.0000      -0.353946        -9.6314
  43   2.0000      -0.339252        -9.2315
  44   2.0000      -0.317084        -8.6283
  45   2.0000      -0.311862        -8.4862
  46   2.0000      -0.308747        -8.4014
  47   2.0000      -0.265540        -7.2257
  48   2.0000      -0.261939        -7.1277
  49   2.0000      -0.255882        -6.9629
  50   2.0000      -0.246033        -6.6949
  51   0.0000       0.057004         1.5512
  52   0.0000       0.071535         1.9466
  53   0.0000       0.087063         2.3691
  54   0.0000       0.096665         2.6304
  55   0.0000       0.108477         2.9518

MULLIKEN ATOMIC CHARGES
-----------------------
   0 C :    0.263740
   1 C :   -0.270009
   2 C :   -0.296853
   3 C :   -0.002693
   4 O :   -0.506820
   5 H :    0.180013
   6 H :    0.148287
   7 H :    0.142365
   8 H :    0.141694
   9 H :    0.160717
  10 H :    0.153522
  11 H :    0.143561
  12 C :   -0.024431
  13 H :    0.151645
  14 H :    0.153920
  15 O :   -0.535668
  16 C :    0.045662
  17 C :    0.106374
  18 C :   -0.315392
  19 C :   -0.015029
  20 O :   -0.521407
  21 H :    0.154017
  22 H :    0.162807
  23 O :   -0.605347
  24 H :    0.158313
  25 H :    0.146096
  26 H :    0.145862
  27 H :    0.151773
  28 H :    0.383281
Sum of atomic charges:   -0.0000000

LOEWDIN ATOMIC CHARGES
----------------------
   0 C :    0.162469
   1 C :   -0.228678
   2 C :   -0.215929
   3 C :   -0.025375
   4 O :   -0.303567
   5 H :    0.112482
   6 H :    0.115511
   7 H :    0.113964
   8 H :    0.114110
   9 H :    0.118360
  10 H :    0.108989
  11 H :    0.103257
  12 C :   -0.054981
  13 H :    0.110284
  14 H :    0.106472
  15 O :   -0.346614
  16 C :    0.003045
  17 C :    0.035012
  18 C :   -0.239197
  19 C :   -0.030303
  20 O :   -0.319322
  21 H :    0.111198
  22 H :    0.116555
  23 O :   -0.404455
  24 H :    0.124374
  25 H :    0.110893
  26 H :    0.103794
  27 H :    0.107472
  28 H :    0.290177

  Mayer bond orders larger than 0.100000
B(  0-C ,  1-C ) :   0.9307 B(  0-C ,  4-O ) :   0.9277 B(  0-C ,  5-H ) :   0.8924
B(  0-C , 15-O ) :   0.7989 B(  1-C ,  2-C ) :   0.9508 B(  1-C ,  6-H ) :   0.9352
B(  1-C ,  7-H ) :   0.9367 B(  2-C ,  3-C ) :   0.9557 B(  2-C ,  8-H ) :   0.9451
B(  2-C ,  9-H ) :   0.9446 B(  3-C ,  4-O ) :   0.8339 B(  3-C , 10-H ) :   0.9351
B(  3-C , 11-H ) :   0.9398 B( 12-C , 13-H ) :   0.9351 B( 12-C , 14-H ) :   0.9203
B( 12-C , 15-O ) :   0.8311 B( 12-C , 16-C ) :   0.8873 B( 16-C , 17-C ) :   0.8876
B( 16-C , 20-O ) :   0.8405 B( 16-C , 21-H ) :   0.9292 B( 17-C , 18-C ) :   0.9129
B( 17-C , 22-H ) :   0.9329 B( 17-C , 23-O ) :   0.9129 B( 18-C , 19-C ) :   0.9377
B( 18-C , 24-H ) :   0.9433 B( 18-C , 25-H ) :   0.9423 B( 19-C , 20-O ) :   0.8310
B( 19-C , 26-H ) :   0.9334 B( 19-C , 27-H ) :   0.9388 B( 23-O , 28-H ) :   0.7604

FINAL SINGLE POINT ENERGY      -652.856863746041

DIPOLE MOMENT
-------------
                                X             Y             Z
Electronic contribution:      0.09259      -2.62913      -0.03613
Nuclear contribution   :     -0.37219       3.22777      -0.28554
                        -----------------------------------------
Total Dipole Moment    :     -0.27960       0.59864      -0.32167
                        -----------------------------------------
Magnitude (a.u.)       :      0.73486
Magnitude (Debye)      :      1.86786

Rotational constants in cm-1:     0.062935     0.014109     0.012728
Rotational constants in MHz :  1886.751184   422.965628   381.568588

                             ****ORCA TERMINATED NORMALLY****
TOTAL RUN TIME: 0 days 1 hours 34 minutes 35 seconds 667 msec
