                         Program Version 4.2.1 -  RELEASE  -
|  1> # Test redundant internal optimization
|  2> #
|  3> ! RKS B3LYP  Opt TightSCF SmallPrint
|  4>
|  5> %basis
|  6>         Basis "6-31G"
|  7> end
|  8>
|  9> %geom
| 10> Constraints
| 11> { D 4  0  19  14  240.0   C } # D for Dihedral angle
| 12> { D 0  19  14  12  120.0   C } # D for Dihedral angle
| 13> { D 0  4  3  2   C } # D for Dihedral angle
| 14> { D 4  3  2  1   C } # D for Dihedral angle
| 15> { D 3  2  1  0   C } # D for Dihedral angle
| 16> { D 2  1  0  4   C } # D for Dihedral angle
| 17> { D 1  0  4  3   C } # D for Dihedral angle
| 18> { D 14  15  16  17   C } # D for Dihedral angle
| 19> { D 15  16  17  12   C } # D for Dihedral angle
| 20> { D 16  17  12  14   C } # D for Dihedral angle
| 21> { D 17  12  14  15   C } # D for Dihedral angle
| 22> { D 12  14  15  16   C } # D for Dihedral angle
| 23> end
| 24> end
| 25>
| 26>
| 27> #%pal
| 28> #nprocs 8
| 29> #end
| 30>
| 31> * xyz 0 1
| 32> C  -21.048   26.222   46.251
| 33> C  -20.361   27.558   45.944
| 34> C  -20.329   28.222   47.341
| 35> C  -20.110   27.022   48.296
| 36> O  -20.473   25.807   47.535
| 37> H  -20.833   25.428   45.533
| 38> H  -19.344   27.382   45.576
| 39> H  -20.898   28.157   45.201
| 40> H  -19.543   28.978   47.434
| 41> H  -21.289   28.710   47.548
| 42> H  -20.733   27.082   49.195
| 43> H  -19.064   26.913   48.597
| 44> C  -24.151   24.619   46.322
| 45> H  -24.523   23.774   45.722
| 46> C  -23.235   25.530   45.496
| 47> C  -24.261   26.356   44.686
| 48> C  -25.439   26.525   45.677
| 49> O  -25.262   25.491   46.721
| 50> H  -23.701   24.236   47.239
| 51> O  -22.472   26.381   46.366
| 52> H  -22.539   24.974   44.858
| 53> H  -23.861   27.316   44.346
| 54> H  -24.581   25.795   43.798
| 55> H  -26.415   26.387   45.199
| 56> H  -25.426   27.496   46.181
| 57> *
| 58>
| 59>                          ****END OF INPUT****
 Total Charge           Charge          ....    0
 Multiplicity           Mult            ....    1
 Number of Electrons    NEL             ....   86
FINAL SINGLE POINT ENERGY      -538.429412766883
FINAL SINGLE POINT ENERGY      -538.431764292222
FINAL SINGLE POINT ENERGY      -538.431962953561
FINAL SINGLE POINT ENERGY      -538.432000752888
FINAL SINGLE POINT ENERGY      -538.432007154983
FINAL SINGLE POINT ENERGY      -538.432008369546
                    ***********************HURRAY********************

CARTESIAN COORDINATES (ANGSTROEM)
---------------------------------
  C    -20.973133   26.189522   46.223247
  C    -20.354306   27.559248   45.944253
  C    -20.407273   28.225078   47.341039
  C    -20.154654   27.038144   48.297153
  O    -20.429060   25.813983   47.503873
  H    -20.706601   25.398167   45.515351
  H    -19.316438   27.430404   45.613935
  H    -20.903007   28.113785   45.179769
  H    -19.666525   29.021608   47.458032
  H    -21.402927   28.646714   47.507678
  H    -20.811766   27.043306   49.170056
  H    -19.113267   26.971668   48.626410
  C    -24.165002   24.617110   46.322034
  H    -24.590105   23.788527   45.735220
  C    -23.243438   25.478846   45.457350
  C    -24.258062   26.350700   44.690578
  C    -25.383759   26.579513   45.727609
  O    -25.211487   25.539410   46.763711
  H    -23.667663   24.229341   47.211572
  O    -22.413157   26.326841   46.303045
  H    -22.609648   24.880961   44.789462
  H    -23.801473   27.280933   44.345148
  H    -24.629745   25.799282   43.819060
  H    -26.383866   26.489869   45.289171
  H    -25.294641   27.548041   46.227244

 Multiplicity           Mult            ....    1
 Number of Electrons    NEL             ....   86
 Basis Dimension        Dim             ....  127

ORBITAL ENERGIES
----------------

  NO   OCC          E(Eh)            E(eV)
   0   2.0000     -19.139351      -520.8082
   1   2.0000     -19.136614      -520.7337
   2   2.0000     -19.125304      -520.4260
   3   2.0000     -10.280180      -279.7379
   4   2.0000     -10.242430      -278.7107
   5   2.0000     -10.221888      -278.1517
   6   2.0000     -10.218736      -278.0659
   7   2.0000     -10.217471      -278.0315
   8   2.0000     -10.185762      -277.1687
   9   2.0000     -10.184429      -277.1324
  10   2.0000     -10.183498      -277.1071
  11   2.0000      -1.051543       -28.6139
  12   2.0000      -1.012228       -27.5441
  13   2.0000      -0.989043       -26.9132
  14   2.0000      -0.789696       -21.4887
  15   2.0000      -0.776621       -21.1329
  16   2.0000      -0.738080       -20.0842
  17   2.0000      -0.719935       -19.5904
  18   2.0000      -0.605983       -16.4896
  19   2.0000      -0.598167       -16.2770
  20   2.0000      -0.594700       -16.1826
  21   2.0000      -0.581202       -15.8153
  22   2.0000      -0.520316       -14.1585
  23   2.0000      -0.503141       -13.6912
  24   2.0000      -0.481316       -13.0973
  25   2.0000      -0.475673       -12.9437
  26   2.0000      -0.448667       -12.2088
  27   2.0000      -0.444746       -12.1022
  28   2.0000      -0.430364       -11.7108
  29   2.0000      -0.411578       -11.1996
  30   2.0000      -0.407353       -11.0846
  31   2.0000      -0.384937       -10.4747
  32   2.0000      -0.370840       -10.0911
  33   2.0000      -0.363297        -9.8858
  34   2.0000      -0.355298        -9.6682
  35   2.0000      -0.352693        -9.5973
  36   2.0000      -0.345127        -9.3914
  37   2.0000      -0.314914        -8.5693
  38   2.0000      -0.308483        -8.3942
  39   2.0000      -0.298738        -8.1291
  40   2.0000      -0.264508        -7.1976
  41   2.0000      -0.247578        -6.7369
  42   2.0000      -0.228973        -6.2307
  43   0.0000       0.073790         2.0079
  44   0.0000       0.090392         2.4597
  45   0.0000       0.097462         2.6521
  46   0.0000       0.114447         3.1143
  47   0.0000       0.125823         3.4238

MULLIKEN ATOMIC CHARGES
-----------------------
   0 C :    0.283275
   1 C :   -0.252271
   2 C :   -0.300139
   3 C :   -0.000372
   4 O :   -0.503326
   5 H :    0.136982
   6 H :    0.141564
   7 H :    0.142831
   8 H :    0.140179
   9 H :    0.164574
  10 H :    0.154735
  11 H :    0.139545
  12 C :    0.014187
  13 H :    0.119052
  14 C :    0.061685
  15 C :   -0.285791
  16 C :    0.008208
  17 O :   -0.519374
  18 H :    0.169433
  19 O :   -0.509900
  20 H :    0.122312
  21 H :    0.149716
  22 H :    0.139653
  23 H :    0.132680
  24 H :    0.150561
Sum of atomic charges:    0.0000000

LOEWDIN ATOMIC CHARGES
----------------------
   0 C :    0.176192
   1 C :   -0.221541
   2 C :   -0.216530
   3 C :   -0.026039
   4 O :   -0.317683
   5 H :    0.095964
   6 H :    0.111783
   7 H :    0.116054
   8 H :    0.113305
   9 H :    0.120379
  10 H :    0.109503
  11 H :    0.101189
  12 C :   -0.039798
  13 H :    0.089024
  14 C :    0.041037
  15 C :   -0.230026
  16 C :   -0.026752
  17 O :   -0.328816
  18 H :    0.124306
  19 O :   -0.324497
  20 H :    0.096066
  21 H :    0.121139
  22 H :    0.111798
  23 H :    0.097051
  24 H :    0.106892

  Mayer bond orders larger than 0.100000
B(  0-C ,  1-C ) :   0.9417 B(  0-C ,  4-O ) :   0.9308 B(  0-C ,  5-H ) :   0.9169
B(  0-C , 19-O ) :   0.8505 B(  1-C ,  2-C ) :   0.9579 B(  1-C ,  6-H ) :   0.9367
B(  1-C ,  7-H ) :   0.9387 B(  2-C ,  3-C ) :   0.9544 B(  2-C ,  8-H ) :   0.9452
B(  2-C ,  9-H ) :   0.9432 B(  3-C ,  4-O ) :   0.8371 B(  3-C , 10-H ) :   0.9343
B(  3-C , 11-H ) :   0.9399 B( 12-C , 13-H ) :   0.9118 B( 12-C , 14-C ) :   0.9255
B( 12-C , 17-O ) :   0.8718 B( 12-C , 18-H ) :   0.9308 B( 14-C , 15-C ) :   0.9483
B( 14-C , 19-O ) :   0.8338 B( 14-C , 20-H ) :   0.9180 B( 15-C , 16-C ) :   0.9477
B( 15-C , 21-H ) :   0.9400 B( 15-C , 22-H ) :   0.9389 B( 16-C , 17-O ) :   0.8588
B( 16-C , 23-H ) :   0.9334 B( 16-C , 24-H ) :   0.9365

FINAL SINGLE POINT ENERGY      -538.432008544058

DIPOLE MOMENT
-------------
                                X             Y             Z
Electronic contribution:     -0.86662      -3.21642       2.08179
Nuclear contribution   :      1.46461       3.76345      -3.26727
                        -----------------------------------------
Total Dipole Moment    :      0.59799       0.54702      -1.18548
                        -----------------------------------------
Magnitude (a.u.)       :      1.43603
Magnitude (Debye)      :      3.65010

Rotational constants in cm-1:     0.077733     0.020149     0.019241
Rotational constants in MHz :  2330.380203   604.052330   576.821947

                             ****ORCA TERMINATED NORMALLY****
TOTAL RUN TIME: 0 days 0 hours 6 minutes 31 seconds 614 msec
