                         Program Version 4.2.0 -  RELEASE  -
|  1> # Test redundant internal optimization
|  2> #
|  3> ! RKS B3LYP  Opt TightSCF SmallPrint
|  4>
|  5> %basis
|  6>         Basis "6-31G"
|  7> end
|  8>
|  9> %geom
| 10> Constraints
| 11> { D 4  0  15  12  105.0   C } # D for Dihedral angle
| 12> { D 0  15  12  16  165.0   C } # D for Dihedral angle
| 13> { D 0  4  3  2   C } # D for Dihedral angle
| 14> { D 4  3  2  1   C } # D for Dihedral angle
| 15> { D 3  2  1  0   C } # D for Dihedral angle
| 16> { D 2  1  0  4   C } # D for Dihedral angle
| 17> { D 1  0  4  3   C } # D for Dihedral angle
| 18> { D 16  20  19  18   C } # D for Dihedral angle
| 19> { D 20  19  18  17   C } # D for Dihedral angle
| 20> { D 19  18  17  16   C } # D for Dihedral angle
| 21> { D 18  17  16  20   C } # D for Dihedral angle
| 22> { D 17  16  20  19   C } # D for Dihedral angle
| 23> { D 15  12  16  20   C } # D for Dihedral angle
| 24> end
| 25> end
| 26>
| 27>
| 28> #%pal
| 29> #nprocs 8
| 30> #end
| 31>
| 32> * xyz 0 1
| 33> C  -21.048   26.222   46.251
| 34> C  -20.361   27.558   45.944
| 35> C  -20.329   28.222   47.341
| 36> C  -20.110   27.022   48.296
| 37> O  -20.473   25.807   47.535
| 38> H  -20.833   25.428   45.533
| 39> H  -19.344   27.382   45.576
| 40> H  -20.898   28.157   45.201
| 41> H  -19.543   28.978   47.434
| 42> H  -21.289   28.710   47.548
| 43> H  -20.733   27.082   49.195
| 44> H  -19.064   26.913   48.597
| 45> C  -23.085   27.864   46.420
| 46> H  -22.860   28.293   47.405
| 47> H  -22.573   28.467   45.659
| 48> O  -22.586   26.394   46.375
| 49> C  -24.613   27.988   46.171
| 50> C  -25.017   27.328   44.848
| 51> C  -25.047   25.831   45.241
| 52> C  -25.560   25.861   46.702
| 53> O  -25.361   27.244   47.190
| 54> H  -24.907   29.036   46.261
| 55> O  -26.430   27.810   44.422
| 56> H  -24.319   27.538   44.030
| 57> H  -25.687   25.232   44.586
| 58> H  -24.035   25.410   45.196
| 59> H  -25.015   25.169   47.353
| 60> H  -26.630   25.646   46.774
| 61> H  -27.147   27.608   45.226
| 62> *
| 63>
| 64>                          ****END OF INPUT****
 Total Charge           Charge          ....    0
 Multiplicity           Mult            ....    1
 Number of Electrons    NEL             ....  102
FINAL SINGLE POINT ENERGY      -652.817983954393
FINAL SINGLE POINT ENERGY      -652.842711239031
FINAL SINGLE POINT ENERGY      -652.853943158174
FINAL SINGLE POINT ENERGY      -652.855958939917
FINAL SINGLE POINT ENERGY      -652.856281884472
FINAL SINGLE POINT ENERGY      -652.856327295545
FINAL SINGLE POINT ENERGY      -652.856330519227
                    ***********************HURRAY********************

CARTESIAN COORDINATES (ANGSTROEM)
---------------------------------
  C    -21.192634   26.369007   46.377683
  C    -20.280210   27.529765   45.964926
  C    -20.051813   28.260221   47.317518
  C    -20.019849   27.089208   48.330701
  O    -20.649276   25.936432   47.642723
  H    -21.124423   25.497602   45.724720
  H    -19.341149   27.106800   45.593802
  H    -20.694179   28.171655   45.182785
  H    -19.120588   28.834773   47.324617
  H    -20.870684   28.952251   47.533830
  H    -20.573750   27.300527   49.249607
  H    -19.000767   26.786780   48.587974
  C    -23.188920   27.956204   46.482079
  H    -23.062108   28.400068   47.477672
  H    -22.714551   28.612913   45.739526
  O    -22.618899   26.620449   46.453913
  C    -24.688006   27.886426   46.190034
  C    -25.107044   27.294996   44.836670
  C    -25.103865   25.771993   45.140565
  C    -25.589191   25.711132   46.610131
  O    -25.401317   27.072161   47.170751
  H    -25.078752   28.907416   46.285056
  O    -26.424025   27.782539   44.452935
  H    -24.449495   27.572263   44.011863
  H    -25.763806   25.239199   44.450108
  H    -24.088679   25.383562   45.056864
  H    -25.008791   25.006464   47.209876
  H    -26.654357   25.472950   46.699483
  H    -27.035873   27.674244   45.211585

 Multiplicity           Mult            ....    1
 Number of Electrons    NEL             ....  102
 Basis Dimension        Dim             ....  149

ORBITAL ENERGIES
----------------

  NO   OCC          E(Eh)            E(eV)
   0   2.0000     -19.148008      -521.0438
   1   2.0000     -19.141730      -520.8730
   2   2.0000     -19.134934      -520.6880
   3   2.0000     -19.133582      -520.6512
   4   2.0000     -10.284905      -279.8665
   5   2.0000     -10.237530      -278.5773
   6   2.0000     -10.235477      -278.5215
   7   2.0000     -10.233810      -278.4761
   8   2.0000     -10.230441      -278.3845
   9   2.0000     -10.218394      -278.0566
  10   2.0000     -10.199573      -277.5445
  11   2.0000     -10.197689      -277.4932
  12   2.0000     -10.173430      -276.8331
  13   2.0000      -1.054981       -28.7075
  14   2.0000      -1.030594       -28.0439
  15   2.0000      -1.003544       -27.3078
  16   2.0000      -0.995087       -27.0777
  17   2.0000      -0.794609       -21.6224
  18   2.0000      -0.780151       -21.2290
  19   2.0000      -0.763196       -20.7676
  20   2.0000      -0.735888       -20.0245
  21   2.0000      -0.679404       -18.4875
  22   2.0000      -0.609832       -16.5944
  23   2.0000      -0.602988       -16.4081
  24   2.0000      -0.594699       -16.1826
  25   2.0000      -0.568681       -15.4746
  26   2.0000      -0.524733       -14.2787
  27   2.0000      -0.512199       -13.9376
  28   2.0000      -0.506462       -13.7815
  29   2.0000      -0.484590       -13.1864
  30   2.0000      -0.474709       -12.9175
  31   2.0000      -0.457298       -12.4437
  32   2.0000      -0.449820       -12.2402
  33   2.0000      -0.434563       -11.8251
  34   2.0000      -0.427057       -11.6208
  35   2.0000      -0.419968       -11.4279
  36   2.0000      -0.403850       -10.9893
  37   2.0000      -0.388432       -10.5698
  38   2.0000      -0.383928       -10.4472
  39   2.0000      -0.366364        -9.9693
  40   2.0000      -0.363626        -9.8948
  41   2.0000      -0.360711        -9.8155
  42   2.0000      -0.351835        -9.5739
  43   2.0000      -0.326478        -8.8839
  44   2.0000      -0.317657        -8.6439
  45   2.0000      -0.303209        -8.2507
  46   2.0000      -0.296602        -8.0710
  47   2.0000      -0.273592        -7.4448
  48   2.0000      -0.263134        -7.1602
  49   2.0000      -0.256762        -6.9868
  50   2.0000      -0.238914        -6.5012
  51   0.0000       0.065083         1.7710
  52   0.0000       0.075224         2.0470
  53   0.0000       0.087290         2.3753
  54   0.0000       0.100623         2.7381
  55   0.0000       0.107427         2.9232

MULLIKEN ATOMIC CHARGES
-----------------------
   0 C :    0.315272
   1 C :   -0.300222
   2 C :   -0.309271
   3 C :   -0.006855
   4 O :   -0.494890
   5 H :    0.159916
   6 H :    0.160007
   7 H :    0.147028
   8 H :    0.147875
   9 H :    0.149680
  10 H :    0.151608
  11 H :    0.146546
  12 C :    0.008745
  13 H :    0.148731
  14 H :    0.123208
  15 O :   -0.530649
  16 C :    0.066934
  17 C :    0.074101
  18 C :   -0.282895
  19 C :   -0.020042
  20 O :   -0.524912
  21 H :    0.153643
  22 O :   -0.602257
  23 H :    0.144500
  24 H :    0.147408
  25 H :    0.169654
  26 H :    0.161705
  27 H :    0.132931
  28 H :    0.362500
Sum of atomic charges:    0.0000000

LOEWDIN ATOMIC CHARGES
----------------------
   0 C :    0.177785
   1 C :   -0.231207
   2 C :   -0.221737
   3 C :   -0.030725
   4 O :   -0.315367
   5 H :    0.108465
   6 H :    0.124773
   7 H :    0.115304
   8 H :    0.117244
   9 H :    0.110217
  10 H :    0.107075
  11 H :    0.104674
  12 C :   -0.037132
  13 H :    0.103249
  14 H :    0.092693
  15 O :   -0.323927
  16 C :    0.015032
  17 C :    0.038671
  18 C :   -0.240378
  19 C :   -0.032697
  20 O :   -0.328519
  21 H :    0.114498
  22 O :   -0.417096
  23 H :    0.112348
  24 H :    0.117594
  25 H :    0.128350
  26 H :    0.113710
  27 H :    0.095188
  28 H :    0.281914

  Mayer bond orders larger than 0.100000
B(  0-C ,  1-C ) :   0.9308 B(  0-C ,  4-O ) :   0.9160 B(  0-C ,  5-H ) :   0.9343
B(  0-C , 15-O ) :   0.8751 B(  1-C ,  2-C ) :   0.9512 B(  1-C ,  6-H ) :   0.9339
B(  1-C ,  7-H ) :   0.9306 B(  2-C ,  3-C ) :   0.9491 B(  2-C ,  8-H ) :   0.9453
B(  2-C ,  9-H ) :   0.9404 B(  3-C ,  4-O ) :   0.8455 B(  3-C , 10-H ) :   0.9337
B(  3-C , 11-H ) :   0.9390 B( 12-C , 13-H ) :   0.9114 B( 12-C , 14-H ) :   0.9015
B( 12-C , 15-O ) :   0.8447 B( 12-C , 16-C ) :   0.9009 B( 16-C , 17-C ) :   0.9078
B( 16-C , 20-O ) :   0.8797 B( 16-C , 21-H ) :   0.9226 B( 17-C , 18-C ) :   0.9238
B( 17-C , 22-O ) :   0.8908 B( 17-C , 23-H ) :   0.9370 B( 18-C , 19-C ) :   0.9480
B( 18-C , 24-H ) :   0.9368 B( 18-C , 25-H ) :   0.9203 B( 19-C , 20-O ) :   0.8364
B( 19-C , 26-H ) :   0.9325 B( 19-C , 27-H ) :   0.9376 B( 22-O , 28-H ) :   0.7960

FINAL SINGLE POINT ENERGY      -652.856329434892

DIPOLE MOMENT
-------------
                                X             Y             Z
Electronic contribution:     -4.03708      -1.77204       0.50290
Nuclear contribution   :      5.13750       2.41276      -0.72553
                        -----------------------------------------
Total Dipole Moment    :      1.10042       0.64073      -0.22262
                        -----------------------------------------
Magnitude (a.u.)       :      1.29268
Magnitude (Debye)      :      3.28572

Rotational constants in cm-1:     0.060200     0.013396     0.012842
Rotational constants in MHz :  1804.758721   401.609120   385.003374

                             ****ORCA TERMINATED NORMALLY****
TOTAL RUN TIME: 0 days 0 hours 25 minutes 0 seconds 83 msec
