                         Program Version 4.2.0 -  RELEASE  -
|  1> # Test redundant internal optimization
|  2> #
|  3> ! RKS B3LYP  Opt TightSCF SmallPrint
|  4>
|  5> %basis
|  6>         Basis "6-31G"
|  7> end
|  8>
|  9> %geom
| 10> Constraints
| 11> { D 4  0  15  12  330.0   C } # D for Dihedral angle
| 12> { D 0  15  12  16  180.0   C } # D for Dihedral angle
| 13> { D 0  4  3  2   C } # D for Dihedral angle
| 14> { D 4  3  2  1   C } # D for Dihedral angle
| 15> { D 3  2  1  0   C } # D for Dihedral angle
| 16> { D 2  1  0  4   C } # D for Dihedral angle
| 17> { D 1  0  4  3   C } # D for Dihedral angle
| 18> { D 16  20  19  18   C } # D for Dihedral angle
| 19> { D 20  19  18  17   C } # D for Dihedral angle
| 20> { D 19  18  17  16   C } # D for Dihedral angle
| 21> { D 18  17  16  20   C } # D for Dihedral angle
| 22> { D 17  16  20  19   C } # D for Dihedral angle
| 23> { D 15  12  16  20   C } # D for Dihedral angle
| 24> end
| 25> end
| 26>
| 27>
| 28> #%pal
| 29> #nprocs 8
| 30> #end
| 31>
| 32> * xyz 0 1
| 33> C  -21.048   26.222   46.251
| 34> C  -20.361   27.558   45.944
| 35> C  -20.329   28.222   47.341
| 36> C  -20.110   27.022   48.296
| 37> O  -20.473   25.807   47.535
| 38> H  -20.833   25.428   45.533
| 39> H  -19.344   27.382   45.576
| 40> H  -20.898   28.157   45.201
| 41> H  -19.543   28.978   47.434
| 42> H  -21.289   28.710   47.548
| 43> H  -20.733   27.082   49.195
| 44> H  -19.064   26.913   48.597
| 45> C  -23.271   25.476   47.424
| 46> H  -23.084   24.426   47.163
| 47> H  -22.857   25.659   48.424
| 48> O  -22.586   26.394   46.375
| 49> C  -24.807   25.694   47.501
| 50> C  -25.432   24.858   48.623
| 51> C  -25.094   25.706   49.873
| 52> C  -25.191   27.160   49.347
| 53> O  -25.110   27.080   47.873
| 54> H  -25.243   25.524   46.515
| 55> O  -26.970   24.764   48.425
| 56> H  -25.028   23.841   48.678
| 57> H  -25.773   25.519   50.710
| 58> H  -24.075   25.485   50.212
| 59> H  -24.378   27.795   49.717
| 60> H  -26.147   27.630   49.593
| 61> H  -27.396   25.772   48.368
| 62> *
| 63>
| 64>                          ****END OF INPUT****
 Total Charge           Charge          ....    0
 Multiplicity           Mult            ....    1
 Number of Electrons    NEL             ....  102
FINAL SINGLE POINT ENERGY      -652.834339234744
FINAL SINGLE POINT ENERGY      -652.858073220682
FINAL SINGLE POINT ENERGY      -652.862288759787
FINAL SINGLE POINT ENERGY      -652.863054529827
FINAL SINGLE POINT ENERGY      -652.863159779501
FINAL SINGLE POINT ENERGY      -652.863173116505
                    ***********************HURRAY********************

CARTESIAN COORDINATES (ANGSTROEM)
---------------------------------
  C    -21.131253   26.175595   46.295541
  C    -20.586888   27.565580   45.968859
  C    -20.452824   28.187587   47.375074
  C    -20.041675   26.990187   48.258664
  O    -20.401213   25.771018   47.479159
  H    -20.938535   25.397516   45.549363
  H    -19.610893   27.466614   45.479830
  H    -21.260647   28.124317   45.315913
  H    -19.718456   28.998358   47.408662
  H    -21.422644   28.584297   47.689136
  H    -20.565455   26.962068   49.218386
  H    -18.963491   26.937241   48.435857
  C    -23.149865   25.422793   47.512654
  H    -23.001234   24.363964   47.247860
  H    -22.676769   25.590251   48.486680
  O    -22.559861   26.291549   46.511182
  C    -24.642186   25.732860   47.549842
  C    -25.420866   24.925351   48.597815
  C    -25.167326   25.751998   49.886073
  C    -25.135985   27.210531   49.364599
  O    -24.910081   27.131436   47.902192
  H    -25.056645   25.588026   46.547569
  O    -26.835380   24.872992   48.264198
  H    -25.105239   23.884717   48.682645
  H    -25.957496   25.575482   50.620001
  H    -24.208985   25.467495   50.335047
  H    -24.337056   27.804634   49.819412
  H    -26.086382   27.732200   49.517875
  H    -27.121667   25.757347   47.951910

 Multiplicity           Mult            ....    1
 Number of Electrons    NEL             ....  102
 Basis Dimension        Dim             ....  149

ORBITAL ENERGIES
----------------

  NO   OCC          E(Eh)            E(eV)
   0   2.0000     -19.146292      -520.9971
   1   2.0000     -19.139820      -520.8210
   2   2.0000     -19.138291      -520.7794
   3   2.0000     -19.137981      -520.7709
   4   2.0000     -10.277161      -279.6558
   5   2.0000     -10.242183      -278.7040
   6   2.0000     -10.232335      -278.4360
   7   2.0000     -10.230313      -278.3810
   8   2.0000     -10.229540      -278.3599
   9   2.0000     -10.228310      -278.3265
  10   2.0000     -10.189616      -277.2736
  11   2.0000     -10.185376      -277.1582
  12   2.0000     -10.183381      -277.1039
  13   2.0000      -1.054848       -28.7039
  14   2.0000      -1.035047       -28.1651
  15   2.0000      -1.005366       -27.3574
  16   2.0000      -0.991026       -26.9672
  17   2.0000      -0.791205       -21.5298
  18   2.0000      -0.781474       -21.2650
  19   2.0000      -0.767306       -20.8794
  20   2.0000      -0.731329       -19.9005
  21   2.0000      -0.671617       -18.2756
  22   2.0000      -0.604394       -16.4464
  23   2.0000      -0.600864       -16.3503
  24   2.0000      -0.590547       -16.0696
  25   2.0000      -0.577768       -15.7219
  26   2.0000      -0.527891       -14.3646
  27   2.0000      -0.507932       -13.8215
  28   2.0000      -0.493217       -13.4211
  29   2.0000      -0.490858       -13.3569
  30   2.0000      -0.476692       -12.9714
  31   2.0000      -0.459845       -12.5130
  32   2.0000      -0.450132       -12.2487
  33   2.0000      -0.442714       -12.0469
  34   2.0000      -0.415087       -11.2951
  35   2.0000      -0.407222       -11.0811
  36   2.0000      -0.403069       -10.9681
  37   2.0000      -0.393556       -10.7092
  38   2.0000      -0.372550       -10.1376
  39   2.0000      -0.368464       -10.0264
  40   2.0000      -0.362707        -9.8697
  41   2.0000      -0.357076        -9.7165
  42   2.0000      -0.347309        -9.4507
  43   2.0000      -0.338889        -9.2216
  44   2.0000      -0.324249        -8.8233
  45   2.0000      -0.306577        -8.3424
  46   2.0000      -0.300351        -8.1730
  47   2.0000      -0.270701        -7.3662
  48   2.0000      -0.260992        -7.1020
  49   2.0000      -0.252724        -6.8770
  50   2.0000      -0.244479        -6.6526
  51   0.0000       0.059935         1.6309
  52   0.0000       0.080984         2.2037
  53   0.0000       0.093307         2.5390
  54   0.0000       0.101552         2.7634
  55   0.0000       0.101879         2.7723

MULLIKEN ATOMIC CHARGES
-----------------------
   0 C :    0.297914
   1 C :   -0.259411
   2 C :   -0.303311
   3 C :   -0.015061
   4 O :   -0.515986
   5 H :    0.147445
   6 H :    0.142641
   7 H :    0.165928
   8 H :    0.142711
   9 H :    0.169582
  10 H :    0.140042
  11 H :    0.148619
  12 C :    0.015512
  13 H :    0.129676
  14 H :    0.139936
  15 O :   -0.527773
  16 C :    0.061174
  17 C :    0.078286
  18 C :   -0.296971
  19 C :   -0.028725
  20 O :   -0.511528
  21 H :    0.168388
  22 O :   -0.602875
  23 H :    0.152556
  24 H :    0.164273
  25 H :    0.141618
  26 H :    0.144238
  27 H :    0.145179
  28 H :    0.365926
Sum of atomic charges:   -0.0000000

LOEWDIN ATOMIC CHARGES
----------------------
   0 C :    0.178752
   1 C :   -0.214974
   2 C :   -0.218087
   3 C :   -0.031267
   4 O :   -0.326986
   5 H :    0.097505
   6 H :    0.112630
   7 H :    0.128842
   8 H :    0.114819
   9 H :    0.122484
  10 H :    0.100174
  11 H :    0.105471
  12 C :   -0.038105
  13 H :    0.097205
  14 H :    0.098810
  15 O :   -0.327375
  16 C :    0.017689
  17 C :    0.036220
  18 C :   -0.241592
  19 C :   -0.038895
  20 O :   -0.322009
  21 H :    0.120498
  22 O :   -0.414887
  23 H :    0.115949
  24 H :    0.127014
  25 H :    0.111837
  26 H :    0.102509
  27 H :    0.101914
  28 H :    0.283852

  Mayer bond orders larger than 0.100000
B(  0-C ,  1-C ) :   0.9469 B(  0-C ,  4-O ) :   0.8978 B(  0-C ,  5-H ) :   0.9220
B(  0-C , 15-O ) :   0.8488 B(  1-C ,  2-C ) :   0.9539 B(  1-C ,  6-H ) :   0.9379
B(  1-C ,  7-H ) :   0.9345 B(  2-C ,  3-C ) :   0.9552 B(  2-C ,  8-H ) :   0.9446
B(  2-C ,  9-H ) :   0.9419 B(  3-C ,  4-O ) :   0.8332 B(  3-C , 10-H ) :   0.9344
B(  3-C , 11-H ) :   0.9405 B( 12-C , 13-H ) :   0.9130 B( 12-C , 14-H ) :   0.9153
B( 12-C , 15-O ) :   0.8288 B( 12-C , 16-C ) :   0.8989 B( 16-C , 17-C ) :   0.9025
B( 16-C , 20-O ) :   0.8617 B( 16-C , 21-H ) :   0.9232 B( 17-C , 18-C ) :   0.9105
B( 17-C , 22-O ) :   0.8938 B( 17-C , 23-H ) :   0.9327 B( 18-C , 19-C ) :   0.9409
B( 18-C , 24-H ) :   0.9372 B( 18-C , 25-H ) :   0.9342 B( 19-C , 20-O ) :   0.8536
B( 19-C , 26-H ) :   0.9344 B( 19-C , 27-H ) :   0.9374 B( 22-O , 28-H ) :   0.7934

FINAL SINGLE POINT ENERGY      -652.863175332057

DIPOLE MOMENT
-------------
                                X             Y             Z
Electronic contribution:     -3.19665      -2.63327      -3.10495
Nuclear contribution   :      3.89238       3.16550       3.74160
                        -----------------------------------------
Total Dipole Moment    :      0.69573       0.53224       0.63665
                        -----------------------------------------
Magnitude (a.u.)       :      1.08288
Magnitude (Debye)      :      2.75247

Rotational constants in cm-1:     0.057656     0.013151     0.012663
Rotational constants in MHz :  1728.471678   394.252596   379.632703

                             ****ORCA TERMINATED NORMALLY****
TOTAL RUN TIME: 0 days 0 hours 22 minutes 8 seconds 859 msec
