                         Program Version 4.2.0 -  RELEASE  -
|  1> # Test redundant internal optimization
|  2> #
|  3> ! RKS B3LYP  Opt TightSCF SmallPrint
|  4>
|  5> %basis
|  6>         Basis "6-31G"
|  7> end
|  8>
|  9> %geom
| 10> Constraints
| 11> { D 4  0  15  12  345.0   C } # D for Dihedral angle
| 12> { D 0  15  12  16  270.0   C } # D for Dihedral angle
| 13> { D 0  4  3  2   C } # D for Dihedral angle
| 14> { D 4  3  2  1   C } # D for Dihedral angle
| 15> { D 3  2  1  0   C } # D for Dihedral angle
| 16> { D 2  1  0  4   C } # D for Dihedral angle
| 17> { D 1  0  4  3   C } # D for Dihedral angle
| 18> { D 16  20  19  18   C } # D for Dihedral angle
| 19> { D 20  19  18  17   C } # D for Dihedral angle
| 20> { D 19  18  17  16   C } # D for Dihedral angle
| 21> { D 18  17  16  20   C } # D for Dihedral angle
| 22> { D 17  16  20  19   C } # D for Dihedral angle
| 23> { D 15  12  16  20   C } # D for Dihedral angle
| 24> end
| 25> end
| 26>
| 27>
| 28> #%pal
| 29> #nprocs 8
| 30> #end
| 31>
| 32> * xyz 0 1
| 33> C  -21.048   26.222   46.251
| 34> C  -20.361   27.558   45.944
| 35> C  -20.329   28.222   47.341
| 36> C  -20.110   27.022   48.296
| 37> O  -20.473   25.807   47.535
| 38> H  -20.833   25.428   45.533
| 39> H  -19.344   27.382   45.576
| 40> H  -20.898   28.157   45.201
| 41> H  -19.543   28.978   47.434
| 42> H  -21.289   28.710   47.548
| 43> H  -20.733   27.082   49.195
| 44> H  -19.064   26.913   48.597
| 45> C  -23.221   25.764   47.645
| 46> H  -22.492   25.790   48.465
| 47> H  -24.106   26.335   47.955
| 48> O  -22.586   26.394   46.375
| 49> C  -23.661   24.290   47.429
| 50> C  -24.615   24.163   46.235
| 51> C  -23.632   24.206   45.042
| 52> C  -22.384   23.466   45.586
| 53> O  -22.509   23.460   47.060
| 54> H  -24.054   23.893   48.366
| 55> H  -25.136   23.200   46.272
| 56> O  -25.678   25.294   46.181
| 57> H  -24.036   23.735   44.140
| 58> H  -23.386   25.246   44.794
| 59> H  -21.448   23.960   45.307
| 60> H  -22.344   22.422   45.262
| 61> H  -25.178   26.268   46.144
| 62> *
| 63>
| 64>                          ****END OF INPUT****
 Total Charge           Charge          ....    0
 Multiplicity           Mult            ....    1
 Number of Electrons    NEL             ....  102
FINAL SINGLE POINT ENERGY      -652.824076722654
FINAL SINGLE POINT ENERGY      -652.848543379065
FINAL SINGLE POINT ENERGY      -652.857012276798
FINAL SINGLE POINT ENERGY      -652.859657366758
FINAL SINGLE POINT ENERGY      -652.860003561421
FINAL SINGLE POINT ENERGY      -652.860068823123
FINAL SINGLE POINT ENERGY      -652.860076625541
                    ***********************HURRAY********************

CARTESIAN COORDINATES (ANGSTROEM)
---------------------------------
  C    -21.007522   26.328160   46.311350
  C    -20.423259   27.715983   46.051830
  C    -20.318834   28.288540   47.484390
  C    -19.961637   27.051158   48.333602
  O    -20.326368   25.871155   47.494713
  H    -20.803292   25.587336   45.536419
  H    -19.432783   27.609815   45.594292
  H    -21.057854   28.314408   45.394517
  H    -19.567024   29.079318   47.567160
  H    -21.285157   28.703444   47.787657
  H    -20.513310   26.995677   49.275852
  H    -18.890823   26.963944   48.536780
  C    -23.132040   25.818374   47.588886
  H    -22.468164   25.824732   48.457719
  H    -24.005224   26.444663   47.795024
  O    -22.458968   26.449079   46.456549
  C    -23.606152   24.381115   47.356597
  C    -24.636492   24.211135   46.225129
  C    -23.719514   24.030707   44.976382
  C    -22.520796   23.245534   45.551265
  O    -22.565986   23.417862   47.025422
  H    -24.028693   24.047133   48.313167
  H    -25.240757   23.318821   46.401755
  O    -25.591732   25.293051   46.111763
  H    -24.223740   23.500104   44.164078
  H    -23.412142   25.019222   44.622102
  H    -21.555362   23.598356   45.178290
  H    -22.596579   22.170511   45.359220
  H    -25.140798   26.087663   45.757090

 Multiplicity           Mult            ....    1
 Number of Electrons    NEL             ....  102
 Basis Dimension        Dim             ....  149

ORBITAL ENERGIES
----------------

  NO   OCC          E(Eh)            E(eV)
   0   2.0000     -19.150243      -521.1046
   1   2.0000     -19.144424      -520.9463
   2   2.0000     -19.137461      -520.7568
   3   2.0000     -19.132764      -520.6290
   4   2.0000     -10.281929      -279.7855
   5   2.0000     -10.233550      -278.4691
   6   2.0000     -10.232437      -278.4388
   7   2.0000     -10.225376      -278.2466
   8   2.0000     -10.224368      -278.2192
   9   2.0000     -10.222648      -278.1724
  10   2.0000     -10.191563      -277.3265
  11   2.0000     -10.188473      -277.2424
  12   2.0000     -10.180448      -277.0241
  13   2.0000      -1.056387       -28.7457
  14   2.0000      -1.024893       -27.8888
  15   2.0000      -1.007400       -27.4127
  16   2.0000      -0.992759       -27.0143
  17   2.0000      -0.792928       -21.5767
  18   2.0000      -0.770351       -20.9623
  19   2.0000      -0.765665       -20.8348
  20   2.0000      -0.733900       -19.9704
  21   2.0000      -0.675401       -18.3786
  22   2.0000      -0.605678       -16.4813
  23   2.0000      -0.600967       -16.3532
  24   2.0000      -0.600098       -16.3295
  25   2.0000      -0.558228       -15.1902
  26   2.0000      -0.528504       -14.3813
  27   2.0000      -0.507925       -13.8213
  28   2.0000      -0.496125       -13.5003
  29   2.0000      -0.488091       -13.2816
  30   2.0000      -0.469381       -12.7725
  31   2.0000      -0.461527       -12.5588
  32   2.0000      -0.436566       -11.8796
  33   2.0000      -0.432632       -11.7725
  34   2.0000      -0.422306       -11.4915
  35   2.0000      -0.413354       -11.2479
  36   2.0000      -0.403470       -10.9790
  37   2.0000      -0.389178       -10.5901
  38   2.0000      -0.375965       -10.2305
  39   2.0000      -0.372866       -10.1462
  40   2.0000      -0.361640        -9.8407
  41   2.0000      -0.354868        -9.6565
  42   2.0000      -0.347637        -9.4597
  43   2.0000      -0.333288        -9.0692
  44   2.0000      -0.322841        -8.7850
  45   2.0000      -0.307727        -8.3737
  46   2.0000      -0.300336        -8.1725
  47   2.0000      -0.266215        -7.2441
  48   2.0000      -0.265335        -7.2201
  49   2.0000      -0.258239        -7.0270
  50   2.0000      -0.231474        -6.2987
  51   0.0000       0.068279         1.8580
  52   0.0000       0.082582         2.2472
  53   0.0000       0.092508         2.5173
  54   0.0000       0.096339         2.6215
  55   0.0000       0.105047         2.8585

MULLIKEN ATOMIC CHARGES
-----------------------
   0 C :    0.307260
   1 C :   -0.259912
   2 C :   -0.301698
   3 C :   -0.019854
   4 O :   -0.498136
   5 H :    0.151005
   6 H :    0.145810
   7 H :    0.156565
   8 H :    0.146951
   9 H :    0.155898
  10 H :    0.147015
  11 H :    0.152337
  12 C :   -0.042469
  13 H :    0.162726
  14 H :    0.150191
  15 O :   -0.554277
  16 C :    0.105390
  17 C :    0.089925
  18 C :   -0.316533
  19 C :   -0.008839
  20 O :   -0.513782
  21 H :    0.141433
  22 H :    0.160436
  23 O :   -0.610128
  24 H :    0.145810
  25 H :    0.156097
  26 H :    0.138518
  27 H :    0.145382
  28 H :    0.366880
Sum of atomic charges:   -0.0000000

LOEWDIN ATOMIC CHARGES
----------------------
   0 C :    0.182781
   1 C :   -0.218896
   2 C :   -0.218062
   3 C :   -0.032017
   4 O :   -0.307887
   5 H :    0.098709
   6 H :    0.114093
   7 H :    0.123877
   8 H :    0.116974
   9 H :    0.115732
  10 H :    0.103397
  11 H :    0.107966
  12 C :   -0.052808
  13 H :    0.114039
  14 H :    0.113053
  15 O :   -0.353391
  16 C :    0.011260
  17 C :    0.036223
  18 C :   -0.243238
  19 C :   -0.026831
  20 O :   -0.316928
  21 H :    0.111990
  22 H :    0.115447
  23 O :   -0.412300
  24 H :    0.116301
  25 H :    0.116543
  26 H :    0.097335
  27 H :    0.102899
  28 H :    0.283739

  Mayer bond orders larger than 0.100000
B(  0-C ,  1-C ) :   0.9365 B(  0-C ,  4-O ) :   0.9256 B(  0-C ,  5-H ) :   0.9166
B(  0-C , 15-O ) :   0.8215 B(  1-C ,  2-C ) :   0.9542 B(  1-C ,  6-H ) :   0.9362
B(  1-C ,  7-H ) :   0.9361 B(  2-C ,  3-C ) :   0.9523 B(  2-C ,  8-H ) :   0.9447
B(  2-C ,  9-H ) :   0.9455 B(  3-C ,  4-O ) :   0.8315 B(  3-C , 10-H ) :   0.9322
B(  3-C , 11-H ) :   0.9403 B( 12-C , 13-H ) :   0.9164 B( 12-C , 14-H ) :   0.9198
B( 12-C , 15-O ) :   0.8480 B( 12-C , 16-C ) :   0.8907 B( 16-C , 17-C ) :   0.8856
B( 16-C , 20-O ) :   0.8800 B( 16-C , 21-H ) :   0.9235 B( 17-C , 18-C ) :   0.9308
B( 17-C , 22-H ) :   0.9368 B( 17-C , 23-O ) :   0.8995 B( 18-C , 19-C ) :   0.9433
B( 18-C , 24-H ) :   0.9412 B( 18-C , 25-H ) :   0.9307 B( 19-C , 20-O ) :   0.8441
B( 19-C , 26-H ) :   0.9238 B( 19-C , 27-H ) :   0.9378 B( 23-O , 28-H ) :   0.7915

FINAL SINGLE POINT ENERGY      -652.860076526879

DIPOLE MOMENT
-------------
                                X             Y             Z
Electronic contribution:     -2.42885      -3.26488       0.89126
Nuclear contribution   :      3.09673       4.23096      -1.21173
                        -----------------------------------------
Total Dipole Moment    :      0.66787       0.96609      -0.32047
                        -----------------------------------------
Magnitude (a.u.)       :      1.21741
Magnitude (Debye)      :      3.09440

Rotational constants in cm-1:     0.051075     0.016305     0.015257
Rotational constants in MHz :  1531.175519   488.824295   457.392290

                             ****ORCA TERMINATED NORMALLY****
TOTAL RUN TIME: 0 days 0 hours 35 minutes 4 seconds 488 msec
