                         Program Version 4.2.0 -  RELEASE  -
|  1> # Test redundant internal optimization
|  2> #
|  3> ! RKS B3LYP  Opt TightSCF SmallPrint
|  4>
|  5> %basis
|  6>         Basis "6-31G"
|  7> end
|  8>
|  9> %geom
| 10> Constraints
| 11> { D 4  0  15  12  60.0   C } # D for Dihedral angle
| 12> { D 0  15  12  16  135.0   C } # D for Dihedral angle
| 13> { D 0  4  3  2   C } # D for Dihedral angle
| 14> { D 4  3  2  1   C } # D for Dihedral angle
| 15> { D 3  2  1  0   C } # D for Dihedral angle
| 16> { D 2  1  0  4   C } # D for Dihedral angle
| 17> { D 1  0  4  3   C } # D for Dihedral angle
| 18> { D 16  20  19  18   C } # D for Dihedral angle
| 19> { D 20  19  18  17   C } # D for Dihedral angle
| 20> { D 19  18  17  16   C } # D for Dihedral angle
| 21> { D 18  17  16  20   C } # D for Dihedral angle
| 22> { D 17  16  20  19   C } # D for Dihedral angle
| 23> { D 15  12  16  20   C } # D for Dihedral angle
| 24> end
| 25> end
| 26>
| 27>
| 28> #%pal
| 29> #nprocs 8
| 30> #end
| 31>
| 32> * xyz 0 1
| 33> C  -21.048   26.222   46.251
| 34> C  -20.361   27.558   45.944
| 35> C  -20.329   28.222   47.341
| 36> C  -20.110   27.022   48.296
| 37> O  -20.473   25.807   47.535
| 38> H  -20.833   25.428   45.533
| 39> H  -19.344   27.382   45.576
| 40> H  -20.898   28.157   45.201
| 41> H  -19.543   28.978   47.434
| 42> H  -21.289   28.710   47.548
| 43> H  -20.733   27.082   49.195
| 44> H  -19.064   26.913   48.597
| 45> C  -23.051   27.452   47.413
| 46> H  -23.428   26.940   48.307
| 47> H  -22.210   28.091   47.713
| 48> O  -22.586   26.394   46.375
| 49> C  -24.175   28.375   46.868
| 50> C  -23.750   29.059   45.563
| 51> C  -23.968   27.926   44.531
| 52> C  -25.216   27.188   45.077
| 53> O  -25.352   27.584   46.495
| 54> H  -24.487   29.062   47.656
| 55> O  -24.686   30.261   45.262
| 56> H  -22.717   29.421   45.583
| 57> H  -24.117   28.301   43.513
| 58> H  -23.099   27.257   44.517
| 59> H  -25.120   26.099   45.015
| 60> H  -26.136   27.492   44.568
| 61> H  -25.727   29.920   45.237
| 62> *
| 63>
| 64>                          ****END OF INPUT****
 Total Charge           Charge          ....    0
 Multiplicity           Mult            ....    1
 Number of Electrons    NEL             ....  102
FINAL SINGLE POINT ENERGY      -652.791574118468
FINAL SINGLE POINT ENERGY      -652.830324435022
FINAL SINGLE POINT ENERGY      -652.849374081226
FINAL SINGLE POINT ENERGY      -652.853513417965
FINAL SINGLE POINT ENERGY      -652.854134607496
FINAL SINGLE POINT ENERGY      -652.854256711145
FINAL SINGLE POINT ENERGY      -652.854281209135
FINAL SINGLE POINT ENERGY      -652.854285940602
FINAL SINGLE POINT ENERGY      -652.854285553647
                    ***********************HURRAY********************

CARTESIAN COORDINATES (ANGSTROEM)
---------------------------------
  C    -21.181168   26.298536   46.482961
  C    -20.306993   27.458061   45.978194
  C    -19.980326   28.221219   47.298942
  C    -19.865884   27.067222   48.328061
  O    -20.538257   25.896464   47.713805
  H    -21.131374   25.428208   45.826093
  H    -19.395280   27.037820   45.542106
  H    -20.803382   28.077309   45.226926
  H    -19.046112   28.787340   47.225769
  H    -20.769342   28.931835   47.556449
  H    -20.345439   27.291394   49.285780
  H    -18.827220   26.777348   48.509886
  C    -23.223577   27.460151   47.480168
  H    -23.673586   26.894883   48.303293
  H    -22.494125   28.155522   47.903956
  O    -22.608858   26.487822   46.580293
  C    -24.330301   28.260220   46.792890
  C    -23.938160   29.103973   45.570431
  C    -24.010394   28.056252   44.425854
  C    -25.193922   27.154129   44.857558
  O    -25.406470   27.401614   46.302377
  H    -24.773941   28.907446   47.560704
  O    -24.879438   30.196198   45.378149
  H    -22.961758   29.583282   45.659252
  H    -24.176796   28.547627   43.463276
  H    -23.085879   27.479178   44.388424
  H    -24.980784   26.091992   44.713962
  H    -26.128924   27.406520   44.346197
  H    -25.792311   29.843437   45.442245

 Multiplicity           Mult            ....    1
 Number of Electrons    NEL             ....  102
 Basis Dimension        Dim             ....  149

ORBITAL ENERGIES
----------------

  NO   OCC          E(Eh)            E(eV)
   0   2.0000     -19.148474      -521.0565
   1   2.0000     -19.147380      -521.0267
   2   2.0000     -19.138082      -520.7737
   3   2.0000     -19.137744      -520.7645
   4   2.0000     -10.284769      -279.8628
   5   2.0000     -10.240869      -278.6682
   6   2.0000     -10.235377      -278.5188
   7   2.0000     -10.235217      -278.5144
   8   2.0000     -10.234027      -278.4820
   9   2.0000     -10.223384      -278.1924
  10   2.0000     -10.200279      -277.5637
  11   2.0000     -10.197824      -277.4969
  12   2.0000     -10.180418      -277.0233
  13   2.0000      -1.056547       -28.7501
  14   2.0000      -1.034617       -28.1534
  15   2.0000      -1.006290       -27.3825
  16   2.0000      -0.997309       -27.1382
  17   2.0000      -0.794807       -21.6278
  18   2.0000      -0.782365       -21.2892
  19   2.0000      -0.768707       -20.9176
  20   2.0000      -0.738244       -20.0886
  21   2.0000      -0.680156       -18.5080
  22   2.0000      -0.611377       -16.6364
  23   2.0000      -0.607733       -16.5373
  24   2.0000      -0.599850       -16.3227
  25   2.0000      -0.570590       -15.5265
  26   2.0000      -0.523007       -14.2318
  27   2.0000      -0.518335       -14.1046
  28   2.0000      -0.504283       -13.7222
  29   2.0000      -0.494002       -13.4425
  30   2.0000      -0.472874       -12.8676
  31   2.0000      -0.455719       -12.4007
  32   2.0000      -0.450161       -12.2495
  33   2.0000      -0.439435       -11.9576
  34   2.0000      -0.427514       -11.6333
  35   2.0000      -0.423348       -11.5199
  36   2.0000      -0.408368       -11.1123
  37   2.0000      -0.389560       -10.6005
  38   2.0000      -0.385845       -10.4994
  39   2.0000      -0.370653       -10.0860
  40   2.0000      -0.368901       -10.0383
  41   2.0000      -0.362163        -9.8549
  42   2.0000      -0.350544        -9.5388
  43   2.0000      -0.331215        -9.0128
  44   2.0000      -0.320631        -8.7248
  45   2.0000      -0.311370        -8.4728
  46   2.0000      -0.303956        -8.2711
  47   2.0000      -0.271280        -7.3819
  48   2.0000      -0.266349        -7.2477
  49   2.0000      -0.260031        -7.0758
  50   2.0000      -0.239440        -6.5155
  51   0.0000       0.056433         1.5356
  52   0.0000       0.072325         1.9681
  53   0.0000       0.084542         2.3005
  54   0.0000       0.095384         2.5955
  55   0.0000       0.107031         2.9125

MULLIKEN ATOMIC CHARGES
-----------------------
   0 C :    0.303921
   1 C :   -0.280311
   2 C :   -0.322091
   3 C :   -0.011684
   4 O :   -0.503857
   5 H :    0.166565
   6 H :    0.158511
   7 H :    0.150128
   8 H :    0.149155
   9 H :    0.154019
  10 H :    0.146770
  11 H :    0.151265
  12 C :    0.002570
  13 H :    0.166416
  14 H :    0.119735
  15 O :   -0.526631
  16 C :    0.068342
  17 C :    0.074934
  18 C :   -0.283403
  19 C :   -0.019853
  20 O :   -0.522410
  21 H :    0.153220
  22 O :   -0.605154
  23 H :    0.141098
  24 H :    0.148580
  25 H :    0.160296
  26 H :    0.159381
  27 H :    0.135891
  28 H :    0.364596
Sum of atomic charges:   -0.0000000

LOEWDIN ATOMIC CHARGES
----------------------
   0 C :    0.175552
   1 C :   -0.230282
   2 C :   -0.225240
   3 C :   -0.034202
   4 O :   -0.318772
   5 H :    0.113076
   6 H :    0.123533
   7 H :    0.116638
   8 H :    0.117525
   9 H :    0.108049
  10 H :    0.103545
  11 H :    0.107088
  12 C :   -0.037719
  13 H :    0.117832
  14 H :    0.097140
  15 O :   -0.321029
  16 C :    0.011500
  17 C :    0.037140
  18 C :   -0.239826
  19 C :   -0.032376
  20 O :   -0.327335
  21 H :    0.114353
  22 O :   -0.416815
  23 H :    0.109060
  24 H :    0.118583
  25 H :    0.121345
  26 H :    0.112072
  27 H :    0.096399
  28 H :    0.283166

  Mayer bond orders larger than 0.100000
B(  0-C ,  1-C ) :   0.9128 B(  0-C ,  4-O ) :   0.9038 B(  0-C ,  5-H ) :   0.9363
B(  0-C , 15-O ) :   0.8906 B(  1-C ,  2-C ) :   0.9542 B(  1-C ,  6-H ) :   0.9338
B(  1-C ,  7-H ) :   0.9320 B(  2-C ,  3-C ) :   0.9447 B(  2-C ,  8-H ) :   0.9440
B(  2-C ,  9-H ) :   0.9363 B(  3-C ,  4-O ) :   0.8453 B(  3-C , 10-H ) :   0.9334
B(  3-C , 11-H ) :   0.9383 B( 12-C , 13-H ) :   0.9248 B( 12-C , 14-H ) :   0.9003
B( 12-C , 15-O ) :   0.8362 B( 12-C , 16-C ) :   0.9034 B( 16-C , 17-C ) :   0.9067
B( 16-C , 20-O ) :   0.8738 B( 16-C , 21-H ) :   0.9206 B( 17-C , 18-C ) :   0.9222
B( 17-C , 22-O ) :   0.8889 B( 17-C , 23-H ) :   0.9342 B( 18-C , 19-C ) :   0.9446
B( 18-C , 24-H ) :   0.9374 B( 18-C , 25-H ) :   0.9205 B( 19-C , 20-O ) :   0.8399
B( 19-C , 26-H ) :   0.9327 B( 19-C , 27-H ) :   0.9374 B( 22-O , 28-H ) :   0.7949

FINAL SINGLE POINT ENERGY      -652.854284163274

DIPOLE MOMENT
-------------
                                X             Y             Z
Electronic contribution:     -4.31558      -2.43412       1.12622
Nuclear contribution   :      5.27922       2.99761      -1.34379
                        -----------------------------------------
Total Dipole Moment    :      0.96365       0.56349      -0.21757
                        -----------------------------------------
Magnitude (a.u.)       :      1.13731
Magnitude (Debye)      :      2.89082

Rotational constants in cm-1:     0.052150     0.015269     0.014380
Rotational constants in MHz :  1563.427581   457.757599   431.112304

                             ****ORCA TERMINATED NORMALLY****
TOTAL RUN TIME: 0 days 1 hours 5 minutes 8 seconds 545 msec
