                         Program Version 4.2.0 -  RELEASE  -
|  1> # Test redundant internal optimization
|  2> #
|  3> ! RKS B3LYP  Opt TightSCF SmallPrint
|  4>
|  5> %basis
|  6>         Basis "6-31G"
|  7> end
|  8>
|  9> %geom
| 10> Constraints
| 11> { D 4  0  15  12  195.0   C } # D for Dihedral angle
| 12> { D 0  15  12  16  75.0   C } # D for Dihedral angle
| 13> { D 0  4  3  2   C } # D for Dihedral angle
| 14> { D 4  3  2  1   C } # D for Dihedral angle
| 15> { D 3  2  1  0   C } # D for Dihedral angle
| 16> { D 2  1  0  4   C } # D for Dihedral angle
| 17> { D 1  0  4  3   C } # D for Dihedral angle
| 18> { D 16  20  19  18   C } # D for Dihedral angle
| 19> { D 20  19  18  17   C } # D for Dihedral angle
| 20> { D 19  18  17  16   C } # D for Dihedral angle
| 21> { D 18  17  16  20   C } # D for Dihedral angle
| 22> { D 17  16  20  19   C } # D for Dihedral angle
| 23> { D 15  12  16  20   C } # D for Dihedral angle
| 24> end
| 25> end
| 26>
| 27>
| 28> #%pal
| 29> #nprocs 8
| 30> #end
| 31>
| 32> * xyz 0 1
| 33> C  -21.048   26.222   46.251
| 34> C  -20.361   27.558   45.944
| 35> C  -20.329   28.222   47.341
| 36> C  -20.110   27.022   48.296
| 37> O  -20.473   25.807   47.535
| 38> H  -20.833   25.428   45.533
| 39> H  -19.344   27.382   45.576
| 40> H  -20.898   28.157   45.201
| 41> H  -19.543   28.978   47.434
| 42> H  -21.289   28.710   47.548
| 43> H  -20.733   27.082   49.195
| 44> H  -19.064   26.913   48.597
| 45> C  -23.353   26.472   45.026
| 46> H  -24.362   26.864   45.206
| 47> H  -22.840   27.150   44.332
| 48> O  -22.586   26.394   46.375
| 49> C  -23.482   25.090   44.328
| 50> C  -22.110   24.438   44.126
| 51> C  -21.821   23.870   45.536
| 52> C  -23.223   23.442   46.037
| 53> O  -24.207   24.148   45.187
| 54> H  -24.067   25.205   43.414
| 55> H  -22.184   23.628   43.391
| 56> O  -21.023   25.438   43.645
| 57> H  -21.111   23.038   45.522
| 58> H  -21.405   24.655   46.179
| 59> H  -23.395   23.711   47.085
| 60> H  -23.402   22.370   45.913
| 61> H  -20.933   26.257   44.366
| 62> *
| 63>
| 64>                          ****END OF INPUT****
 Total Charge           Charge          ....    0
 Multiplicity           Mult            ....    1
 Number of Electrons    NEL             ....  102
FINAL SINGLE POINT ENERGY      -652.734652584326
FINAL SINGLE POINT ENERGY      -652.816127637522
FINAL SINGLE POINT ENERGY      -652.838437817961
FINAL SINGLE POINT ENERGY      -652.844422326860
FINAL SINGLE POINT ENERGY      -652.845451685805
FINAL SINGLE POINT ENERGY      -652.845733993852
FINAL SINGLE POINT ENERGY      -652.845796252722
FINAL SINGLE POINT ENERGY      -652.845813483794
FINAL SINGLE POINT ENERGY      -652.845815624808
FINAL SINGLE POINT ENERGY      -652.845814719399
FINAL SINGLE POINT ENERGY      -652.845811802452
FINAL SINGLE POINT ENERGY      -652.845807678264
                    ***********************HURRAY********************

CARTESIAN COORDINATES (ANGSTROEM)
---------------------------------
  C    -20.924269   26.414246   46.480754
  C    -20.228237   27.716968   46.089721
  C    -20.356198   28.552147   47.388164
  C    -20.227236   27.486032   48.495254
  O    -20.496013   26.182211   47.829729
  H    -20.624395   25.545382   45.897448
  H    -19.174850   27.515150   45.859429
  H    -20.682483   28.205900   45.222997
  H    -19.589652   29.329220   47.463063
  H    -21.339782   29.028300   47.424204
  H    -20.948390   27.614686   49.305719
  H    -19.217433   27.420086   48.910755
  C    -23.133924   26.507025   45.262709
  H    -24.105875   26.904437   45.563461
  H    -22.706487   27.188949   44.508551
  O    -22.364703   26.580510   46.499100
  C    -23.424025   25.169084   44.554561
  C    -22.322679   24.294983   43.923389
  C    -21.911829   23.368284   45.117455
  C    -23.262090   23.159995   45.844249
  O    -24.170284   24.232796   45.380312
  H    -24.118453   25.475181   43.758333
  H    -22.781699   23.693580   43.135518
  O    -21.255295   25.007833   43.256567
  H    -21.479154   22.427266   44.766329
  H    -21.180575   23.846592   45.770749
  H    -23.167588   23.223728   46.932231
  H    -23.730576   22.207209   45.578980
  H    -20.604825   25.353220   43.899268

 Multiplicity           Mult            ....    1
 Number of Electrons    NEL             ....  102
 Basis Dimension        Dim             ....  149

ORBITAL ENERGIES
----------------

  NO   OCC          E(Eh)            E(eV)
   0   2.0000     -19.151731      -521.1451
   1   2.0000     -19.146036      -520.9901
   2   2.0000     -19.145098      -520.9646
   3   2.0000     -19.136074      -520.7190
   4   2.0000     -10.287016      -279.9239
   5   2.0000     -10.247111      -278.8381
   6   2.0000     -10.234064      -278.4830
   7   2.0000     -10.233603      -278.4705
   8   2.0000     -10.229144      -278.3492
   9   2.0000     -10.226247      -278.2703
  10   2.0000     -10.192825      -277.3609
  11   2.0000     -10.191135      -277.3149
  12   2.0000     -10.190408      -277.2951
  13   2.0000      -1.058264       -28.7968
  14   2.0000      -1.034430       -28.1483
  15   2.0000      -1.017186       -27.6790
  16   2.0000      -0.996488       -27.1158
  17   2.0000      -0.791373       -21.5343
  18   2.0000      -0.778134       -21.1741
  19   2.0000      -0.771257       -20.9870
  20   2.0000      -0.738503       -20.0957
  21   2.0000      -0.684581       -18.6284
  22   2.0000      -0.617047       -16.7907
  23   2.0000      -0.605864       -16.4864
  24   2.0000      -0.602757       -16.4019
  25   2.0000      -0.567711       -15.4482
  26   2.0000      -0.531281       -14.4569
  27   2.0000      -0.511825       -13.9275
  28   2.0000      -0.504753       -13.7350
  29   2.0000      -0.494827       -13.4649
  30   2.0000      -0.470424       -12.8009
  31   2.0000      -0.459839       -12.5129
  32   2.0000      -0.441774       -12.0213
  33   2.0000      -0.439591       -11.9619
  34   2.0000      -0.431965       -11.7544
  35   2.0000      -0.419649       -11.4192
  36   2.0000      -0.408903       -11.1268
  37   2.0000      -0.403589       -10.9822
  38   2.0000      -0.385071       -10.4783
  39   2.0000      -0.369974       -10.0675
  40   2.0000      -0.361957        -9.8494
  41   2.0000      -0.360009        -9.7963
  42   2.0000      -0.351938        -9.5767
  43   2.0000      -0.327496        -8.9116
  44   2.0000      -0.318214        -8.6590
  45   2.0000      -0.315686        -8.5903
  46   2.0000      -0.306531        -8.3411
  47   2.0000      -0.271459        -7.3868
  48   2.0000      -0.266440        -7.2502
  49   2.0000      -0.261918        -7.1272
  50   2.0000      -0.235545        -6.4095
  51   0.0000       0.042553         1.1579
  52   0.0000       0.072627         1.9763
  53   0.0000       0.083958         2.2846
  54   0.0000       0.093950         2.5565
  55   0.0000       0.104913         2.8548

MULLIKEN ATOMIC CHARGES
-----------------------
   0 C :    0.305194
   1 C :   -0.275110
   2 C :   -0.294712
   3 C :   -0.002054
   4 O :   -0.506662
   5 H :    0.092222
   6 H :    0.143062
   7 H :    0.147717
   8 H :    0.143901
   9 H :    0.164346
  10 H :    0.158506
  11 H :    0.143172
  12 C :   -0.035077
  13 H :    0.175825
  14 H :    0.125241
  15 O :   -0.501756
  16 C :    0.093265
  17 C :    0.081519
  18 C :   -0.336141
  19 C :   -0.008275
  20 O :   -0.516501
  21 H :    0.150278
  22 H :    0.169997
  23 O :   -0.612580
  24 H :    0.152772
  25 H :    0.170251
  26 H :    0.163935
  27 H :    0.143647
  28 H :    0.364018
Sum of atomic charges:   -0.0000000

LOEWDIN ATOMIC CHARGES
----------------------
   0 C :    0.171846
   1 C :   -0.232805
   2 C :   -0.214626
   3 C :   -0.023786
   4 O :   -0.306111
   5 H :    0.076434
   6 H :    0.112364
   7 H :    0.115817
   8 H :    0.115539
   9 H :    0.120389
  10 H :    0.111729
  11 H :    0.103160
  12 C :   -0.049003
  13 H :    0.129465
  14 H :    0.093009
  15 O :   -0.325623
  16 C :    0.005665
  17 C :    0.034062
  18 C :   -0.244738
  19 C :   -0.025252
  20 O :   -0.320425
  21 H :    0.115794
  22 H :    0.120596
  23 O :   -0.408911
  24 H :    0.119981
  25 H :    0.116409
  26 H :    0.112532
  27 H :    0.102115
  28 H :    0.274369

  Mayer bond orders larger than 0.100000
B(  0-C ,  1-C ) :   0.9261 B(  0-C ,  4-O ) :   0.9429 B(  0-C ,  5-H ) :   0.8868
B(  0-C , 15-O ) :   0.8531 B(  1-C ,  2-C ) :   0.9536 B(  1-C ,  6-H ) :   0.9338
B(  1-C ,  7-H ) :   0.9335 B(  2-C ,  3-C ) :   0.9549 B(  2-C ,  8-H ) :   0.9446
B(  2-C ,  9-H ) :   0.9439 B(  3-C ,  4-O ) :   0.8305 B(  3-C , 10-H ) :   0.9342
B(  3-C , 11-H ) :   0.9395 B( 12-C , 13-H ) :   0.9329 B( 12-C , 14-H ) :   0.9028
B( 12-C , 15-O ) :   0.8761 B( 12-C , 16-C ) :   0.8922 B( 16-C , 17-C ) :   0.8832
B( 16-C , 20-O ) :   0.8676 B( 16-C , 21-H ) :   0.9158 B( 17-C , 18-C ) :   0.9286
B( 17-C , 22-H ) :   0.9318 B( 17-C , 23-O ) :   0.8947 B( 18-C , 19-C ) :   0.9387
B( 18-C , 24-H ) :   0.9412 B( 18-C , 25-H ) :   0.9215 B( 19-C , 20-O ) :   0.8413
B( 19-C , 26-H ) :   0.9290 B( 19-C , 27-H ) :   0.9377 B( 23-O , 28-H ) :   0.7834

FINAL SINGLE POINT ENERGY      -652.845802165257

DIPOLE MOMENT
-------------
                                X             Y             Z
Electronic contribution:     -2.97340      -2.40078      -0.50172
Nuclear contribution   :      3.85224       2.93270       0.40349
                        -----------------------------------------
Total Dipole Moment    :      0.87884       0.53192      -0.09824
                        -----------------------------------------
Magnitude (a.u.)       :      1.03196
Magnitude (Debye)      :      2.62305

Rotational constants in cm-1:     0.047374     0.015803     0.014990
Rotational constants in MHz :  1420.225682   473.753482   449.385879

                             ****ORCA TERMINATED NORMALLY****
TOTAL RUN TIME: 0 days 1 hours 20 minutes 7 seconds 515 msec
