                         Program Version 4.2.0 -  RELEASE  -
|  1> # Test redundant internal optimization
|  2> #
|  3> ! RKS B3LYP  Opt TightSCF SmallPrint
|  4>
|  5> %basis
|  6>         Basis "6-31G"
|  7> end
|  8>
|  9> %geom
| 10> Constraints
| 11> { D 4  0  15  12  120.0   C } # D for Dihedral angle
| 12> { D 0  15  12  16  225.0   C } # D for Dihedral angle
| 13> { D 0  4  3  2   C } # D for Dihedral angle
| 14> { D 4  3  2  1   C } # D for Dihedral angle
| 15> { D 3  2  1  0   C } # D for Dihedral angle
| 16> { D 2  1  0  4   C } # D for Dihedral angle
| 17> { D 1  0  4  3   C } # D for Dihedral angle
| 18> { D 16  20  19  18   C } # D for Dihedral angle
| 19> { D 20  19  18  17   C } # D for Dihedral angle
| 20> { D 19  18  17  16   C } # D for Dihedral angle
| 21> { D 18  17  16  20   C } # D for Dihedral angle
| 22> { D 17  16  20  19   C } # D for Dihedral angle
| 23> { D 15  12  16  20   C } # D for Dihedral angle
| 24> end
| 25> end
| 26>
| 27>
| 28> #%pal
| 29> #nprocs 8
| 30> #end
| 31>
| 32> * xyz 0 1
| 33> C  -21.048   26.222   46.251
| 34> C  -20.361   27.558   45.944
| 35> C  -20.329   28.222   47.341
| 36> C  -20.110   27.022   48.296
| 37> O  -20.473   25.807   47.535
| 38> H  -20.833   25.428   45.533
| 39> H  -19.344   27.382   45.576
| 40> H  -20.898   28.157   45.201
| 41> H  -19.543   28.978   47.434
| 42> H  -21.289   28.710   47.548
| 43> H  -20.733   27.082   49.195
| 44> H  -19.064   26.913   48.597
| 45> C  -23.119   27.818   46.058
| 46> H  -22.280   28.525   46.049
| 47> H  -23.595   27.838   45.069
| 48> O  -22.586   26.394   46.375
| 49> C  -24.164   28.314   47.096
| 50> C  -23.534   28.479   48.484
| 51> C  -22.806   29.837   48.338
| 52> C  -23.750   30.644   47.412
| 53> O  -24.632   29.660   46.749
| 54> H  -25.034   27.655   47.070
| 55> O  -24.645   28.565   49.566
| 56> H  -22.857   27.660   48.750
| 57> H  -22.638   30.333   49.299
| 58> H  -21.829   29.690   47.861
| 59> H  -23.206   31.210   46.649
| 60> H  -24.394   31.330   47.969
| 61> H  -25.336   29.380   49.320
| 62> *
| 63>
| 64>                          ****END OF INPUT****
 Total Charge           Charge          ....    0
 Multiplicity           Mult            ....    1
 Number of Electrons    NEL             ....  102
FINAL SINGLE POINT ENERGY      -652.787156653293
FINAL SINGLE POINT ENERGY      -652.826771461372
FINAL SINGLE POINT ENERGY      -652.846537030279
FINAL SINGLE POINT ENERGY      -652.850672735110
FINAL SINGLE POINT ENERGY      -652.851277265952
FINAL SINGLE POINT ENERGY      -652.851379364286
FINAL SINGLE POINT ENERGY      -652.851388311245
FINAL SINGLE POINT ENERGY      -652.851380812920
                    ***********************HURRAY********************

CARTESIAN COORDINATES (ANGSTROEM)
---------------------------------
  C    -21.176491   26.304044   46.350802
  C    -20.139301   27.323644   45.869106
  C    -19.846936   28.125075   47.167004
  C    -19.953068   27.040217   48.265977
  O    -20.698322   25.911920   47.653820
  H    -21.168107   25.381378   45.766438
  H    -19.249590   26.772368   45.548727
  H    -20.472493   27.945269   45.033776
  H    -18.861212   28.599899   47.150791
  H    -20.591936   28.910833   47.311188
  H    -20.485688   27.381457   49.158106
  H    -18.976067   26.648285   48.562046
  C    -23.133556   27.971445   46.020846
  H    -22.358092   28.742984   45.930148
  H    -23.642290   27.888962   45.054647
  O    -22.577188   26.676316   46.382955
  C    -24.156865   28.372203   47.092411
  C    -23.643426   28.544187   48.530256
  C    -23.053624   29.979817   48.484857
  C    -24.013986   30.720663   47.520669
  O    -24.739862   29.675672   46.760536
  H    -24.973996   27.644397   47.079963
  O    -24.743619   28.457564   49.476828
  H    -22.936593   27.771337   48.826331
  H    -23.034244   30.418791   49.485491
  H    -22.032147   29.971548   48.095772
  H    -23.490034   31.374920   46.816699
  H    -24.766222   31.312783   48.051100
  H    -25.515048   28.945023   49.117712

 Multiplicity           Mult            ....    1
 Number of Electrons    NEL             ....  102
 Basis Dimension        Dim             ....  149

ORBITAL ENERGIES
----------------

  NO   OCC          E(Eh)            E(eV)
   0   2.0000     -19.147705      -521.0355
   1   2.0000     -19.143869      -520.9312
   2   2.0000     -19.143581      -520.9233
   3   2.0000     -19.135745      -520.7101
   4   2.0000     -10.284574      -279.8575
   5   2.0000     -10.238048      -278.5914
   6   2.0000     -10.237682      -278.5815
   7   2.0000     -10.234997      -278.5084
   8   2.0000     -10.233522      -278.4683
   9   2.0000     -10.232573      -278.4425
  10   2.0000     -10.200277      -277.5636
  11   2.0000     -10.200149      -277.5602
  12   2.0000     -10.191498      -277.3248
  13   2.0000      -1.052865       -28.6499
  14   2.0000      -1.038726       -28.2652
  15   2.0000      -1.005834       -27.3701
  16   2.0000      -0.997821       -27.1521
  17   2.0000      -0.796791       -21.6818
  18   2.0000      -0.782736       -21.2993
  19   2.0000      -0.773328       -21.0433
  20   2.0000      -0.736424       -20.0391
  21   2.0000      -0.684183       -18.6176
  22   2.0000      -0.612050       -16.6547
  23   2.0000      -0.605806       -16.4848
  24   2.0000      -0.598599       -16.2887
  25   2.0000      -0.577888       -15.7251
  26   2.0000      -0.528599       -14.3839
  27   2.0000      -0.513905       -13.9841
  28   2.0000      -0.508228       -13.8296
  29   2.0000      -0.497467       -13.5368
  30   2.0000      -0.478237       -13.0135
  31   2.0000      -0.460074       -12.5193
  32   2.0000      -0.451814       -12.2945
  33   2.0000      -0.443202       -12.0601
  34   2.0000      -0.429034       -11.6746
  35   2.0000      -0.419560       -11.4168
  36   2.0000      -0.411044       -11.1851
  37   2.0000      -0.394971       -10.7477
  38   2.0000      -0.388679       -10.5765
  39   2.0000      -0.375915       -10.2292
  40   2.0000      -0.368345       -10.0232
  41   2.0000      -0.358114        -9.7448
  42   2.0000      -0.354730        -9.6527
  43   2.0000      -0.334485        -9.1018
  44   2.0000      -0.319539        -8.6951
  45   2.0000      -0.307162        -8.3583
  46   2.0000      -0.294442        -8.0122
  47   2.0000      -0.279590        -7.6080
  48   2.0000      -0.266255        -7.2452
  49   2.0000      -0.257515        -7.0073
  50   2.0000      -0.244529        -6.6540
  51   0.0000       0.055289         1.5045
  52   0.0000       0.064269         1.7489
  53   0.0000       0.086396         2.3510
  54   0.0000       0.090344         2.4584
  55   0.0000       0.100333         2.7302

MULLIKEN ATOMIC CHARGES
-----------------------
   0 C :    0.322237
   1 C :   -0.304939
   2 C :   -0.321293
   3 C :   -0.007955
   4 O :   -0.494814
   5 H :    0.162275
   6 H :    0.162327
   7 H :    0.150048
   8 H :    0.147999
   9 H :    0.156384
  10 H :    0.146906
  11 H :    0.149521
  12 C :   -0.006065
  13 H :    0.120893
  14 H :    0.156485
  15 O :   -0.535875
  16 C :    0.064754
  17 C :    0.078519
  18 C :   -0.314462
  19 C :   -0.026279
  20 O :   -0.529257
  21 H :    0.173827
  22 O :   -0.601274
  23 H :    0.182779
  24 H :    0.165118
  25 H :    0.146463
  26 H :    0.143354
  27 H :    0.148490
  28 H :    0.363832
Sum of atomic charges:   -0.0000000

LOEWDIN ATOMIC CHARGES
----------------------
   0 C :    0.182887
   1 C :   -0.232058
   2 C :   -0.223555
   3 C :   -0.031865
   4 O :   -0.312028
   5 H :    0.107238
   6 H :    0.125870
   7 H :    0.116894
   8 H :    0.117814
   9 H :    0.105878
  10 H :    0.103538
  11 H :    0.106261
  12 C :   -0.034083
  13 H :    0.091654
  14 H :    0.110586
  15 O :   -0.334060
  16 C :    0.014057
  17 C :    0.037673
  18 C :   -0.245808
  19 C :   -0.037272
  20 O :   -0.330928
  21 H :    0.120888
  22 O :   -0.411789
  23 H :    0.128497
  24 H :    0.127674
  25 H :    0.108388
  26 H :    0.102284
  27 H :    0.103499
  28 H :    0.281865

  Mayer bond orders larger than 0.100000
B(  0-C ,  1-C ) :   0.9281 B(  0-C ,  4-O ) :   0.9123 B(  0-C ,  5-H ) :   0.9327
B(  0-C , 15-O ) :   0.8727 B(  1-C ,  2-C ) :   0.9513 B(  1-C ,  6-H ) :   0.9333
B(  1-C ,  7-H ) :   0.9311 B(  2-C ,  3-C ) :   0.9504 B(  2-C ,  8-H ) :   0.9455
B(  2-C ,  9-H ) :   0.9221 B(  3-C ,  4-O ) :   0.8466 B(  3-C , 10-H ) :   0.9301
B(  3-C , 11-H ) :   0.9386 B( 12-C , 13-H ) :   0.9149 B( 12-C , 14-H ) :   0.9244
B( 12-C , 15-O ) :   0.8275 B( 12-C , 16-C ) :   0.8981 B( 16-C , 17-C ) :   0.9096
B( 16-C , 20-O ) :   0.8373 B( 16-C , 21-H ) :   0.9234 B( 17-C , 18-C ) :   0.9135
B( 17-C , 22-O ) :   0.8870 B( 17-C , 23-H ) :   0.9178 B( 18-C , 19-C ) :   0.9382
B( 18-C , 24-H ) :   0.9369 B( 18-C , 25-H ) :   0.9168 B( 19-C , 20-O ) :   0.8456
B( 19-C , 26-H ) :   0.9360 B( 19-C , 27-H ) :   0.9379 B( 22-O , 28-H ) :   0.7944

FINAL SINGLE POINT ENERGY      -652.851378529323

DIPOLE MOMENT
-------------
                                X             Y             Z
Electronic contribution:     -5.37961      -4.57065       0.19114
Nuclear contribution   :      6.62523       5.94015      -0.81522
                        -----------------------------------------
Total Dipole Moment    :      1.24563       1.36950      -0.62408
                        -----------------------------------------
Magnitude (a.u.)       :      1.95361
Magnitude (Debye)      :      4.96569

Rotational constants in cm-1:     0.044607     0.016373     0.015803
Rotational constants in MHz :  1337.298233   490.835993   473.761181

                             ****ORCA TERMINATED NORMALLY****
TOTAL RUN TIME: 0 days 0 hours 31 minutes 26 seconds 963 msec
