                         Program Version 4.2.0 -  RELEASE  -
|  1> # Test redundant internal optimization
|  2> #
|  3> ! RKS B3LYP  Opt TightSCF SmallPrint
|  4>
|  5> %basis
|  6>         Basis "6-31G"
|  7> end
|  8>
|  9> %geom
| 10> Constraints
| 11> { D 4  0  15  12  180.0   C } # D for Dihedral angle
| 12> { D 0  15  12  16  225.0   C } # D for Dihedral angle
| 13> { D 0  4  3  2   C } # D for Dihedral angle
| 14> { D 4  3  2  1   C } # D for Dihedral angle
| 15> { D 3  2  1  0   C } # D for Dihedral angle
| 16> { D 2  1  0  4   C } # D for Dihedral angle
| 17> { D 1  0  4  3   C } # D for Dihedral angle
| 18> { D 16  20  19  18   C } # D for Dihedral angle
| 19> { D 20  19  18  17   C } # D for Dihedral angle
| 20> { D 19  18  17  16   C } # D for Dihedral angle
| 21> { D 18  17  16  20   C } # D for Dihedral angle
| 22> { D 17  16  20  19   C } # D for Dihedral angle
| 23> { D 15  12  16  20   C } # D for Dihedral angle
| 24> end
| 25> end
| 26>
| 27>
| 28> #%pal
| 29> #nprocs 8
| 30> #end
| 31>
| 32> * xyz 0 1
| 33> C  -21.048   26.222   46.251
| 34> C  -20.361   27.558   45.944
| 35> C  -20.329   28.222   47.341
| 36> C  -20.110   27.022   48.296
| 37> O  -20.473   25.807   47.535
| 38> H  -20.833   25.428   45.533
| 39> H  -19.344   27.382   45.576
| 40> H  -20.898   28.157   45.201
| 41> H  -19.543   28.978   47.434
| 42> H  -21.289   28.710   47.548
| 43> H  -20.733   27.082   49.195
| 44> H  -19.064   26.913   48.597
| 45> C  -23.309   26.834   45.072
| 46> H  -22.565   27.195   44.351
| 47> H  -23.839   25.985   44.622
| 48> O  -22.586   26.394   46.375
| 49> C  -24.346   27.965   45.313
| 50> C  -25.120   28.292   44.032
| 51> C  -26.154   27.142   43.987
| 52> C  -26.478   26.903   45.483
| 53> O  -25.379   27.520   46.255
| 54> H  -23.844   28.820   45.769
| 55> O  -25.833   29.665   44.175
| 56> H  -24.483   28.325   43.141
| 57> H  -27.045   27.394   43.403
| 58> H  -25.704   26.247   43.542
| 59> H  -26.538   25.838   45.734
| 60> H  -27.406   27.393   45.793
| 61> H  -26.477   29.654   45.061
| 62> *
| 63>
| 64>                          ****END OF INPUT****
 Total Charge           Charge          ....    0
 Multiplicity           Mult            ....    1
 Number of Electrons    NEL             ....  102
FINAL SINGLE POINT ENERGY      -652.827700346434
FINAL SINGLE POINT ENERGY      -652.850304532291
FINAL SINGLE POINT ENERGY      -652.854065462089
FINAL SINGLE POINT ENERGY      -652.854691553314
FINAL SINGLE POINT ENERGY      -652.854774524209
FINAL SINGLE POINT ENERGY      -652.854785189972
                    ***********************HURRAY********************

CARTESIAN COORDINATES (ANGSTROEM)
---------------------------------
  C    -21.075029   26.245210   46.165851
  C    -20.375201   27.577206   45.900101
  C    -20.476635   28.277422   47.279919
  C    -20.338564   27.100054   48.266873
  O    -20.627585   25.876352   47.474634
  H    -20.809460   25.431089   45.483642
  H    -19.328718   27.382607   45.637299
  H    -20.821209   28.164326   45.092576
  H    -19.701435   29.036382   47.421146
  H    -21.454602   28.755475   47.384268
  H    -21.045097   27.149046   49.098647
  H    -19.322468   26.986310   48.655950
  C    -23.221615   26.755364   45.015897
  H    -22.522591   27.135387   44.256793
  H    -23.709819   25.861055   44.605962
  O    -22.528437   26.381886   46.237305
  C    -24.250566   27.843479   45.323521
  C    -25.075231   28.276506   44.103315
  C    -26.173205   27.179806   44.056559
  C    -26.427838   26.879718   45.554789
  O    -25.253241   27.402070   46.294204
  H    -23.738149   28.696799   45.778094
  O    -25.642578   29.599934   44.307377
  H    -24.499492   28.351685   43.179631
  H    -27.061244   27.545232   43.534988
  H    -25.803319   26.294080   43.528112
  H    -26.531254   25.810778   45.762146
  H    -27.310030   27.398061   45.942853
  H    -26.006389   29.653684   45.216549

 Multiplicity           Mult            ....    1
 Number of Electrons    NEL             ....  102
 Basis Dimension        Dim             ....  149

ORBITAL ENERGIES
----------------

  NO   OCC          E(Eh)            E(eV)
   0   2.0000     -19.141853      -520.8763
   1   2.0000     -19.141576      -520.8688
   2   2.0000     -19.138769      -520.7924
   3   2.0000     -19.137143      -520.7481
   4   2.0000     -10.279414      -279.7171
   5   2.0000     -10.245950      -278.8065
   6   2.0000     -10.236623      -278.5527
   7   2.0000     -10.235118      -278.5117
   8   2.0000     -10.230697      -278.3914
   9   2.0000     -10.223124      -278.1853
  10   2.0000     -10.191990      -277.3382
  11   2.0000     -10.189164      -277.2613
  12   2.0000     -10.186707      -277.1944
  13   2.0000      -1.052234       -28.6328
  14   2.0000      -1.038097       -28.2481
  15   2.0000      -1.008334       -27.4382
  16   2.0000      -0.991242       -26.9731
  17   2.0000      -0.787984       -21.4421
  18   2.0000      -0.785207       -21.3666
  19   2.0000      -0.769341       -20.9348
  20   2.0000      -0.732190       -19.9239
  21   2.0000      -0.677516       -18.4362
  22   2.0000      -0.606937       -16.5156
  23   2.0000      -0.601928       -16.3793
  24   2.0000      -0.593365       -16.1463
  25   2.0000      -0.581884       -15.8339
  26   2.0000      -0.523486       -14.2448
  27   2.0000      -0.514805       -14.0085
  28   2.0000      -0.499916       -13.6034
  29   2.0000      -0.492765       -13.4088
  30   2.0000      -0.473574       -12.8866
  31   2.0000      -0.459683       -12.5086
  32   2.0000      -0.454663       -12.3720
  33   2.0000      -0.440782       -11.9943
  34   2.0000      -0.430642       -11.7184
  35   2.0000      -0.407527       -11.0894
  36   2.0000      -0.404575       -11.0090
  37   2.0000      -0.395688       -10.7672
  38   2.0000      -0.376770       -10.2524
  39   2.0000      -0.373926       -10.1750
  40   2.0000      -0.362206        -9.8561
  41   2.0000      -0.355827        -9.6825
  42   2.0000      -0.354301        -9.6410
  43   2.0000      -0.333982        -9.0881
  44   2.0000      -0.313623        -8.5341
  45   2.0000      -0.307895        -8.3783
  46   2.0000      -0.299468        -8.1489
  47   2.0000      -0.274169        -7.4605
  48   2.0000      -0.260614        -7.0917
  49   2.0000      -0.256073        -6.9681
  50   2.0000      -0.238545        -6.4911
  51   0.0000       0.063695         1.7332
  52   0.0000       0.077528         2.1096
  53   0.0000       0.086747         2.3605
  54   0.0000       0.090825         2.4715
  55   0.0000       0.098967         2.6930

MULLIKEN ATOMIC CHARGES
-----------------------
   0 C :    0.300995
   1 C :   -0.283759
   2 C :   -0.300696
   3 C :    0.000037
   4 O :   -0.499347
   5 H :    0.140413
   6 H :    0.148883
   7 H :    0.140703
   8 H :    0.142567
   9 H :    0.163232
  10 H :    0.159432
  11 H :    0.141097
  12 C :   -0.006879
  13 H :    0.119392
  14 H :    0.138093
  15 O :   -0.496590
  16 C :    0.072473
  17 C :    0.075369
  18 C :   -0.300989
  19 C :   -0.025242
  20 O :   -0.507440
  21 H :    0.159226
  22 O :   -0.602876
  23 H :    0.148728
  24 H :    0.164569
  25 H :    0.145906
  26 H :    0.152459
  27 H :    0.143783
  28 H :    0.366459
Sum of atomic charges:   -0.0000000

LOEWDIN ATOMIC CHARGES
----------------------
   0 C :    0.181588
   1 C :   -0.234537
   2 C :   -0.217133
   3 C :   -0.024230
   4 O :   -0.300451
   5 H :    0.096140
   6 H :    0.116321
   7 H :    0.111216
   8 H :    0.114648
   9 H :    0.117533
  10 H :    0.112277
  11 H :    0.102150
  12 C :   -0.044375
  13 H :    0.093581
  14 H :    0.100303
  15 O :   -0.324568
  16 C :    0.015875
  17 C :    0.033652
  18 C :   -0.241983
  19 C :   -0.037064
  20 O :   -0.318795
  21 H :    0.114658
  22 O :   -0.414788
  23 H :    0.113559
  24 H :    0.127204
  25 H :    0.113229
  26 H :    0.107833
  27 H :    0.101875
  28 H :    0.284282

  Mayer bond orders larger than 0.100000
B(  0-C ,  1-C ) :   0.9273 B(  0-C ,  4-O ) :   0.9423 B(  0-C ,  5-H ) :   0.9213
B(  0-C , 15-O ) :   0.8364 B(  1-C ,  2-C ) :   0.9509 B(  1-C ,  6-H ) :   0.9331
B(  1-C ,  7-H ) :   0.9312 B(  2-C ,  3-C ) :   0.9556 B(  2-C ,  8-H ) :   0.9446
B(  2-C ,  9-H ) :   0.9419 B(  3-C ,  4-O ) :   0.8335 B(  3-C , 10-H ) :   0.9337
B(  3-C , 11-H ) :   0.9398 B( 12-C , 13-H ) :   0.9073 B( 12-C , 14-H ) :   0.9231
B( 12-C , 15-O ) :   0.8471 B( 12-C , 16-C ) :   0.8940 B( 16-C , 17-C ) :   0.8959
B( 16-C , 20-O ) :   0.8703 B( 16-C , 21-H ) :   0.9252 B( 17-C , 18-C ) :   0.9112
B( 17-C , 22-O ) :   0.8924 B( 17-C , 23-H ) :   0.9337 B( 18-C , 19-C ) :   0.9391
B( 18-C , 24-H ) :   0.9368 B( 18-C , 25-H ) :   0.9334 B( 19-C , 20-O ) :   0.8508
B( 19-C , 26-H ) :   0.9339 B( 19-C , 27-H ) :   0.9379 B( 22-O , 28-H ) :   0.7932

FINAL SINGLE POINT ENERGY      -652.854786753484

DIPOLE MOMENT
-------------
                                X             Y             Z
Electronic contribution:     -1.37332      -1.61509       1.91993
Nuclear contribution   :      1.56805       1.95113      -2.80191
                        -----------------------------------------
Total Dipole Moment    :      0.19473       0.33605      -0.88198
                        -----------------------------------------
Magnitude (a.u.)       :      0.96371
Magnitude (Debye)      :      2.44956

Rotational constants in cm-1:     0.058517     0.012380     0.011779
Rotational constants in MHz :  1754.309260   371.148114   353.116777

                             ****ORCA TERMINATED NORMALLY****
TOTAL RUN TIME: 0 days 0 hours 21 minutes 52 seconds 594 msec
