                         Program Version 4.2.0 -  RELEASE  -
|  1> # Test redundant internal optimization
|  2> #
|  3> ! RKS B3LYP  Opt TightSCF SmallPrint
|  4>
|  5> %basis
|  6>         Basis "6-31G"
|  7> end
|  8>
|  9> %geom
| 10> Constraints
| 11> { D 4  0  15  12  60.0   C } # D for Dihedral angle
| 12> { D 0  15  12  16  255.0   C } # D for Dihedral angle
| 13> { D 0  4  3  2   C } # D for Dihedral angle
| 14> { D 4  3  2  1   C } # D for Dihedral angle
| 15> { D 3  2  1  0   C } # D for Dihedral angle
| 16> { D 2  1  0  4   C } # D for Dihedral angle
| 17> { D 1  0  4  3   C } # D for Dihedral angle
| 18> { D 16  20  19  18   C } # D for Dihedral angle
| 19> { D 20  19  18  17   C } # D for Dihedral angle
| 20> { D 19  18  17  16   C } # D for Dihedral angle
| 21> { D 18  17  16  20   C } # D for Dihedral angle
| 22> { D 17  16  20  19   C } # D for Dihedral angle
| 23> { D 15  12  16  20   C } # D for Dihedral angle
| 24> end
| 25> end
| 26>
| 27>
| 28> #%pal
| 29> #nprocs 8
| 30> #end
| 31>
| 32> * xyz 0 1
| 33> C  -21.048   26.222   46.251
| 34> C  -20.361   27.558   45.944
| 35> C  -20.329   28.222   47.341
| 36> C  -20.110   27.022   48.296
| 37> O  -20.473   25.807   47.535
| 38> H  -20.833   25.428   45.533
| 39> H  -19.344   27.382   45.576
| 40> H  -20.898   28.157   45.201
| 41> H  -19.543   28.978   47.434
| 42> H  -21.289   28.710   47.548
| 43> H  -20.733   27.082   49.195
| 44> H  -19.064   26.913   48.597
| 45> C  -23.051   27.452   47.413
| 46> H  -22.201   28.090   47.685
| 47> H  -23.836   28.089   46.987
| 48> O  -22.586   26.394   46.375
| 49> C  -23.614   26.811   48.712
| 50> C  -24.168   27.877   49.663
| 51> C  -25.547   28.177   49.029
| 52> C  -25.991   26.797   48.484
| 53> O  -24.772   25.964   48.405
| 54> H  -22.852   26.165   49.152
| 55> H  -24.288   27.460   50.669
| 56> O  -23.264   29.137   49.761
| 57> H  -26.263   28.593   49.746
| 58> H  -25.437   28.898   48.211
| 59> H  -26.444   26.865   47.488
| 60> H  -26.688   26.287   49.155
| 61> H  -23.131   29.574   48.766
| 62> *
| 63>
| 64>                          ****END OF INPUT****
 Total Charge           Charge          ....    0
 Multiplicity           Mult            ....    1
 Number of Electrons    NEL             ....  102
FINAL SINGLE POINT ENERGY      -652.785350451391
FINAL SINGLE POINT ENERGY      -652.823392685573
FINAL SINGLE POINT ENERGY      -652.843405633688
FINAL SINGLE POINT ENERGY      -652.847895380131
FINAL SINGLE POINT ENERGY      -652.848688531173
FINAL SINGLE POINT ENERGY      -652.848912875119
FINAL SINGLE POINT ENERGY      -652.848951267611
FINAL SINGLE POINT ENERGY      -652.848962623319
FINAL SINGLE POINT ENERGY      -652.848963297205
                    ***********************HURRAY********************

CARTESIAN COORDINATES (ANGSTROEM)
---------------------------------
  C    -21.156802   26.338124   46.411162
  C    -20.248478   27.459329   45.878782
  C    -19.851417   28.206464   47.188631
  C    -19.755996   27.049836   48.217353
  O    -20.495447   25.906317   47.626514
  H    -21.159899   25.466405   45.754326
  H    -19.369374   27.003202   45.412704
  H    -20.750963   28.095146   45.145322
  H    -18.896409   28.733172   47.090342
  H    -20.602396   28.948509   47.468676
  H    -20.197709   27.299054   49.187083
  H    -18.725478   26.716661   48.369742
  C    -23.107274   27.583341   47.453701
  H    -22.353758   28.295605   47.796438
  H    -23.867778   28.126497   46.880270
  O    -22.568130   26.586965   46.539603
  C    -23.725268   26.896670   48.674643
  C    -24.361769   27.870968   49.679141
  C    -25.769061   28.103981   49.052736
  C    -26.099409   26.724867   48.439808
  O    -24.815008   25.991140   48.324588
  H    -22.954439   26.269315   49.131593
  H    -24.451136   27.383771   50.652690
  O    -23.597127   29.077932   49.936156
  H    -26.505538   28.429017   49.792778
  H    -25.702534   28.881444   48.278518
  H    -26.560430   26.798309   47.449635
  H    -26.751299   26.130971   49.087773
  H    -23.757673   29.737988   49.231291

 Multiplicity           Mult            ....    1
 Number of Electrons    NEL             ....  102
 Basis Dimension        Dim             ....  149

ORBITAL ENERGIES
----------------

  NO   OCC          E(Eh)            E(eV)
   0   2.0000     -19.151729      -521.1450
   1   2.0000     -19.139959      -520.8248
   2   2.0000     -19.138522      -520.7857
   3   2.0000     -19.132501      -520.6218
   4   2.0000     -10.274610      -279.5864
   5   2.0000     -10.244488      -278.7667
   6   2.0000     -10.228898      -278.3425
   7   2.0000     -10.228203      -278.3235
   8   2.0000     -10.227549      -278.3058
   9   2.0000     -10.224560      -278.2244
  10   2.0000     -10.197051      -277.4759
  11   2.0000     -10.192879      -277.3624
  12   2.0000     -10.189238      -277.2633
  13   2.0000      -1.048347       -28.5270
  14   2.0000      -1.033137       -28.1131
  15   2.0000      -1.013229       -27.5714
  16   2.0000      -0.991540       -26.9812
  17   2.0000      -0.787047       -21.4166
  18   2.0000      -0.782412       -21.2905
  19   2.0000      -0.769298       -20.9337
  20   2.0000      -0.731007       -19.8917
  21   2.0000      -0.682212       -18.5639
  22   2.0000      -0.611471       -16.6390
  23   2.0000      -0.603268       -16.4158
  24   2.0000      -0.598876       -16.2962
  25   2.0000      -0.565671       -15.3927
  26   2.0000      -0.521247       -14.1839
  27   2.0000      -0.515595       -14.0301
  28   2.0000      -0.502446       -13.6723
  29   2.0000      -0.492610       -13.4046
  30   2.0000      -0.465114       -12.6564
  31   2.0000      -0.457301       -12.4438
  32   2.0000      -0.438653       -11.9363
  33   2.0000      -0.432572       -11.7709
  34   2.0000      -0.426058       -11.5936
  35   2.0000      -0.418103       -11.3772
  36   2.0000      -0.415973       -11.3192
  37   2.0000      -0.400806       -10.9065
  38   2.0000      -0.379638       -10.3305
  39   2.0000      -0.377531       -10.2731
  40   2.0000      -0.359543        -9.7837
  41   2.0000      -0.355959        -9.6861
  42   2.0000      -0.343061        -9.3352
  43   2.0000      -0.327850        -8.9212
  44   2.0000      -0.317049        -8.6273
  45   2.0000      -0.313702        -8.5363
  46   2.0000      -0.299886        -8.1603
  47   2.0000      -0.271644        -7.3918
  48   2.0000      -0.263872        -7.1803
  49   2.0000      -0.252884        -6.8813
  50   2.0000      -0.231552        -6.3009
  51   0.0000       0.047297         1.2870
  52   0.0000       0.073923         2.0116
  53   0.0000       0.083917         2.2835
  54   0.0000       0.091143         2.4801
  55   0.0000       0.098878         2.6906

MULLIKEN ATOMIC CHARGES
-----------------------
   0 C :    0.294604
   1 C :   -0.270348
   2 C :   -0.316865
   3 C :   -0.016245
   4 O :   -0.504512
   5 H :    0.168084
   6 H :    0.155042
   7 H :    0.147940
   8 H :    0.144282
   9 H :    0.150386
  10 H :    0.151483
  11 H :    0.148748
  12 C :   -0.032083
  13 H :    0.129152
  14 H :    0.134771
  15 O :   -0.504694
  16 C :    0.101865
  17 C :    0.079743
  18 C :   -0.330297
  19 C :   -0.013259
  20 O :   -0.500982
  21 H :    0.174830
  22 H :    0.169587
  23 O :   -0.603454
  24 H :    0.158255
  25 H :    0.131658
  26 H :    0.147126
  27 H :    0.151148
  28 H :    0.354035
Sum of atomic charges:   -0.0000000

LOEWDIN ATOMIC CHARGES
----------------------
   0 C :    0.173737
   1 C :   -0.228379
   2 C :   -0.224371
   3 C :   -0.036019
   4 O :   -0.323233
   5 H :    0.114261
   6 H :    0.121558
   7 H :    0.118514
   8 H :    0.115024
   9 H :    0.107217
  10 H :    0.105302
  11 H :    0.105706
  12 C :   -0.053401
  13 H :    0.099454
  14 H :    0.101764
  15 O :   -0.304789
  16 C :    0.015039
  17 C :    0.032344
  18 C :   -0.242929
  19 C :   -0.031019
  20 O :   -0.310332
  21 H :    0.124521
  22 H :    0.119924
  23 O :   -0.411656
  24 H :    0.122282
  25 H :    0.102637
  26 H :    0.104066
  27 H :    0.106425
  28 H :    0.276352

  Mayer bond orders larger than 0.100000
B(  0-C ,  1-C ) :   0.9136 B(  0-C ,  4-O ) :   0.8926 B(  0-C ,  5-H ) :   0.9361
B(  0-C , 15-O ) :   0.9133 B(  1-C ,  2-C ) :   0.9547 B(  1-C ,  6-H ) :   0.9351
B(  1-C ,  7-H ) :   0.9383 B(  2-C ,  3-C ) :   0.9458 B(  2-C ,  8-H ) :   0.9443
B(  2-C ,  9-H ) :   0.9373 B(  3-C ,  4-O ) :   0.8466 B(  3-C , 10-H ) :   0.9312
B(  3-C , 11-H ) :   0.9389 B( 12-C , 13-H ) :   0.8897 B( 12-C , 14-H ) :   0.9393
B( 12-C , 15-O ) :   0.8533 B( 12-C , 16-C ) :   0.8917 B( 16-C , 17-C ) :   0.8676
B( 16-C , 20-O ) :   0.8694 B( 16-C , 21-H ) :   0.9255 B( 17-C , 18-C ) :   0.9296
B( 17-C , 22-H ) :   0.9318 B( 17-C , 23-O ) :   0.8853 B( 18-C , 19-C ) :   0.9384
B( 18-C , 24-H ) :   0.9413 B( 18-C , 25-H ) :   0.9404 B( 19-C , 20-O ) :   0.8551
B( 19-C , 26-H ) :   0.9304 B( 19-C , 27-H ) :   0.9372 B( 23-O , 28-H ) :   0.8006

FINAL SINGLE POINT ENERGY      -652.848962240564

DIPOLE MOMENT
-------------
                                X             Y             Z
Electronic contribution:     -1.19742      -4.60834       0.39514
Nuclear contribution   :      1.14829       6.28942      -0.66463
                        -----------------------------------------
Total Dipole Moment    :     -0.04914       1.68108      -0.26949
                        -----------------------------------------
Magnitude (a.u.)       :      1.70325
Magnitude (Debye)      :      4.32933

Rotational constants in cm-1:     0.049608     0.015183     0.013443
Rotational constants in MHz :  1487.204193   455.162399   403.024140

                             ****ORCA TERMINATED NORMALLY****
TOTAL RUN TIME: 0 days 3 hours 24 minutes 17 seconds 848 msec
