                         Program Version 4.2.0 -  RELEASE  -
|  1> # Test redundant internal optimization
|  2> #
|  3> ! RKS B3LYP  Opt TightSCF SmallPrint
|  4>
|  5> %basis
|  6>         Basis "6-31G"
|  7> end
|  8>
|  9> %geom
| 10> Constraints
| 11> { D 4  0  15  12  60.0   C } # D for Dihedral angle
| 12> { D 0  15  12  16  105.0   C } # D for Dihedral angle
| 13> { D 0  4  3  2   C } # D for Dihedral angle
| 14> { D 4  3  2  1   C } # D for Dihedral angle
| 15> { D 3  2  1  0   C } # D for Dihedral angle
| 16> { D 2  1  0  4   C } # D for Dihedral angle
| 17> { D 1  0  4  3   C } # D for Dihedral angle
| 18> { D 16  20  19  18   C } # D for Dihedral angle
| 19> { D 20  19  18  17   C } # D for Dihedral angle
| 20> { D 19  18  17  16   C } # D for Dihedral angle
| 21> { D 18  17  16  20   C } # D for Dihedral angle
| 22> { D 17  16  20  19   C } # D for Dihedral angle
| 23> { D 15  12  16  20   C } # D for Dihedral angle
| 24> end
| 25> end
| 26>
| 27>
| 28> #%pal
| 29> #nprocs 8
| 30> #end
| 31>
| 32> * xyz 0 1
| 33> C  -21.048   26.222   46.251
| 34> C  -20.361   27.558   45.944
| 35> C  -20.329   28.222   47.341
| 36> C  -20.110   27.022   48.296
| 37> O  -20.473   25.807   47.535
| 38> H  -20.833   25.428   45.533
| 39> H  -19.344   27.382   45.576
| 40> H  -20.898   28.157   45.201
| 41> H  -19.543   28.978   47.434
| 42> H  -21.289   28.710   47.548
| 43> H  -20.733   27.082   49.195
| 44> H  -19.064   26.913   48.597
| 45> C  -23.051   27.452   47.413
| 46> H  -23.868   27.034   48.015
| 47> H  -22.227   27.714   48.089
| 48> O  -22.586   26.394   46.375
| 49> C  -23.554   28.764   46.750
| 50> C  -22.492   29.360   45.819
| 51> C  -22.652   28.479   44.557
| 52> C  -24.175   28.197   44.515
| 53> O  -24.694   28.488   45.869
| 54> H  -23.907   29.444   47.527
| 55> O  -22.834   30.841   45.500
| 56> H  -21.481   29.321   46.238
| 57> H  -22.294   28.971   43.647
| 58> H  -22.090   27.545   44.676
| 59> H  -24.402   27.157   44.259
| 60> H  -24.703   28.856   43.820
| 61> H  -23.843   30.903   45.078
| 62> *
| 63>
| 64>                          ****END OF INPUT****
 Total Charge           Charge          ....    0
 Multiplicity           Mult            ....    1
 Number of Electrons    NEL             ....  102
FINAL SINGLE POINT ENERGY      -652.744232251559
FINAL SINGLE POINT ENERGY      -652.812805207779
FINAL SINGLE POINT ENERGY      -652.834895282202
FINAL SINGLE POINT ENERGY      -652.841688220379
FINAL SINGLE POINT ENERGY      -652.843482831633
FINAL SINGLE POINT ENERGY      -652.843955244986
FINAL SINGLE POINT ENERGY      -652.844018526836
FINAL SINGLE POINT ENERGY      -652.844020671957
                    ***********************HURRAY********************

CARTESIAN COORDINATES (ANGSTROEM)
---------------------------------
  C    -21.094209   26.128209   46.591868
  C    -20.098241   27.138234   45.997325
  C    -19.803228   28.071986   47.216343
  C    -19.853564   27.072612   48.401511
  O    -20.567364   25.878667   47.913241
  H    -21.061647   25.174041   46.064044
  H    -19.195346   26.578213   45.730366
  H    -20.445191   27.665269   45.113514
  H    -18.831302   28.567429   47.136787
  H    -20.564042   28.847987   47.319226
  H    -20.375921   27.468957   49.277880
  H    -18.854307   26.746965   48.706016
  C    -23.185873   27.431696   47.357012
  H    -24.063628   26.945034   47.791615
  H    -22.554519   27.772911   48.189337
  O    -22.531544   26.356890   46.619088
  C    -23.736564   28.660030   46.604264
  C    -22.843582   29.630283   45.812810
  C    -22.756283   28.931097   44.423371
  C    -24.167520   28.297287   44.283768
  O    -24.750321   28.252387   45.632906
  H    -24.264101   29.234149   47.378536
  O    -23.487998   30.931679   45.717168
  H    -21.874946   29.832716   46.263168
  H    -22.529080   29.655831   43.637443
  H    -22.000066   28.149691   44.422760
  H    -24.125489   27.280264   43.883622
  H    -24.837276   28.895750   43.656800
  H    -24.424847   30.804737   45.456212

 Multiplicity           Mult            ....    1
 Number of Electrons    NEL             ....  102
 Basis Dimension        Dim             ....  149

ORBITAL ENERGIES
----------------

  NO   OCC          E(Eh)            E(eV)
   0   2.0000     -19.146254      -520.9961
   1   2.0000     -19.145984      -520.9887
   2   2.0000     -19.142606      -520.8968
   3   2.0000     -19.141531      -520.8675
   4   2.0000     -10.284376      -279.8521
   5   2.0000     -10.246733      -278.8278
   6   2.0000     -10.238813      -278.6123
   7   2.0000     -10.234312      -278.4898
   8   2.0000     -10.234062      -278.4830
   9   2.0000     -10.228820      -278.3403
  10   2.0000     -10.199905      -277.5535
  11   2.0000     -10.198095      -277.5043
  12   2.0000     -10.189258      -277.2638
  13   2.0000      -1.055234       -28.7144
  14   2.0000      -1.040600       -28.3162
  15   2.0000      -1.009844       -27.4792
  16   2.0000      -0.994966       -27.0744
  17   2.0000      -0.795048       -21.6344
  18   2.0000      -0.781227       -21.2583
  19   2.0000      -0.774198       -21.0670
  20   2.0000      -0.740730       -20.1563
  21   2.0000      -0.682605       -18.5746
  22   2.0000      -0.614267       -16.7151
  23   2.0000      -0.611591       -16.6422
  24   2.0000      -0.604418       -16.4471
  25   2.0000      -0.569301       -15.4915
  26   2.0000      -0.522622       -14.2213
  27   2.0000      -0.520304       -14.1582
  28   2.0000      -0.506908       -13.7937
  29   2.0000      -0.495535       -13.4842
  30   2.0000      -0.470936       -12.8148
  31   2.0000      -0.460090       -12.5197
  32   2.0000      -0.458246       -12.4695
  33   2.0000      -0.436424       -11.8757
  34   2.0000      -0.431491       -11.7415
  35   2.0000      -0.423828       -11.5329
  36   2.0000      -0.412512       -11.2250
  37   2.0000      -0.394255       -10.7282
  38   2.0000      -0.384338       -10.4584
  39   2.0000      -0.379889       -10.3373
  40   2.0000      -0.370463       -10.0808
  41   2.0000      -0.359473        -9.7818
  42   2.0000      -0.347785        -9.4637
  43   2.0000      -0.333933        -9.0868
  44   2.0000      -0.318859        -8.6766
  45   2.0000      -0.308791        -8.4026
  46   2.0000      -0.306602        -8.3431
  47   2.0000      -0.275214        -7.4889
  48   2.0000      -0.270907        -7.3718
  49   2.0000      -0.259930        -7.0730
  50   2.0000      -0.239043        -6.5047
  51   0.0000       0.058483         1.5914
  52   0.0000       0.070042         1.9059
  53   0.0000       0.082405         2.2423
  54   0.0000       0.094543         2.5727
  55   0.0000       0.104829         2.8526

MULLIKEN ATOMIC CHARGES
-----------------------
   0 C :    0.307049
   1 C :   -0.287008
   2 C :   -0.318630
   3 C :   -0.009600
   4 O :   -0.505019
   5 H :    0.167062
   6 H :    0.159522
   7 H :    0.148583
   8 H :    0.149220
   9 H :    0.151234
  10 H :    0.145172
  11 H :    0.148416
  12 C :   -0.005799
  13 H :    0.173578
  14 H :    0.125250
  15 O :   -0.521592
  16 C :    0.067807
  17 C :    0.058070
  18 C :   -0.299175
  19 C :   -0.022858
  20 O :   -0.521337
  21 H :    0.156025
  22 O :   -0.599934
  23 H :    0.153958
  24 H :    0.156126
  25 H :    0.159382
  26 H :    0.157413
  27 H :    0.140730
  28 H :    0.366355
Sum of atomic charges:    0.0000000

LOEWDIN ATOMIC CHARGES
----------------------
   0 C :    0.178349
   1 C :   -0.232113
   2 C :   -0.224542
   3 C :   -0.034066
   4 O :   -0.316656
   5 H :    0.114008
   6 H :    0.124392
   7 H :    0.116735
   8 H :    0.118632
   9 H :    0.106577
  10 H :    0.100973
  11 H :    0.104651
  12 C :   -0.039837
  13 H :    0.126240
  14 H :    0.097050
  15 O :   -0.322875
  16 C :    0.004922
  17 C :    0.033177
  18 C :   -0.243068
  19 C :   -0.034692
  20 O :   -0.326523
  21 H :    0.116894
  22 O :   -0.413660
  23 H :    0.112837
  24 H :    0.123385
  25 H :    0.117623
  26 H :    0.110048
  27 H :    0.097701
  28 H :    0.283837

  Mayer bond orders larger than 0.100000
B(  0-C ,  1-C ) :   0.9096 B(  0-C ,  4-O ) :   0.8951 B(  0-C ,  5-H ) :   0.9353
B(  0-C , 15-O ) :   0.9005 B(  1-C ,  2-C ) :   0.9569 B(  1-C ,  6-H ) :   0.9306
B(  1-C ,  7-H ) :   0.9163 B(  2-C ,  3-C ) :   0.9418 B(  2-C ,  8-H ) :   0.9457
B(  2-C ,  9-H ) :   0.9269 B(  3-C ,  4-O ) :   0.8438 B(  3-C , 10-H ) :   0.9322
B(  3-C , 11-H ) :   0.9382 B( 12-C , 13-H ) :   0.9283 B( 12-C , 14-H ) :   0.9087
B( 12-C , 15-O ) :   0.8613 B( 12-C , 16-C ) :   0.8880 B( 16-C , 17-C ) :   0.9049
B( 16-C , 20-O ) :   0.8598 B( 16-C , 21-H ) :   0.9130 B( 17-C , 18-C ) :   0.9239
B( 17-C , 22-O ) :   0.8875 B( 17-C , 23-H ) :   0.9186 B( 18-C , 19-C ) :   0.9390
B( 18-C , 24-H ) :   0.9383 B( 18-C , 25-H ) :   0.9060 B( 19-C , 20-O ) :   0.8424
B( 19-C , 26-H ) :   0.9327 B( 19-C , 27-H ) :   0.9364 B( 22-O , 28-H ) :   0.7922

FINAL SINGLE POINT ENERGY      -652.844017234007

DIPOLE MOMENT
-------------
                                X             Y             Z
Electronic contribution:     -4.55463      -2.18768       1.12269
Nuclear contribution   :      5.49569       2.73799      -1.51530
                        -----------------------------------------
Total Dipole Moment    :      0.94106       0.55030      -0.39261
                        -----------------------------------------
Magnitude (a.u.)       :      1.15870
Magnitude (Debye)      :      2.94517

Rotational constants in cm-1:     0.047196     0.016941     0.015632
Rotational constants in MHz :  1414.902194   507.886020   468.649325

                             ****ORCA TERMINATED NORMALLY****
TOTAL RUN TIME: 0 days 1 hours 12 minutes 25 seconds 9 msec
