                         Program Version 4.2.0 -  RELEASE  -
|  1> # Test redundant internal optimization
|  2> #
|  3> ! RKS B3LYP  Opt TightSCF SmallPrint
|  4>
|  5> %basis
|  6>         Basis "6-31G"
|  7> end
|  8>
|  9> %geom
| 10> Constraints
| 11> { D 4  0  15  12  180.0   C } # D for Dihedral angle
| 12> { D 0  15  12  16  120.0   C } # D for Dihedral angle
| 13> { D 0  4  3  2   C } # D for Dihedral angle
| 14> { D 4  3  2  1   C } # D for Dihedral angle
| 15> { D 3  2  1  0   C } # D for Dihedral angle
| 16> { D 2  1  0  4   C } # D for Dihedral angle
| 17> { D 1  0  4  3   C } # D for Dihedral angle
| 18> { D 16  20  19  18   C } # D for Dihedral angle
| 19> { D 20  19  18  17   C } # D for Dihedral angle
| 20> { D 19  18  17  16   C } # D for Dihedral angle
| 21> { D 18  17  16  20   C } # D for Dihedral angle
| 22> { D 17  16  20  19   C } # D for Dihedral angle
| 23> { D 15  12  16  20   C } # D for Dihedral angle
| 24> end
| 25> end
| 26>
| 27>
| 28> #%pal
| 29> #nprocs 8
| 30> #end
| 31>
| 32> * xyz 0 1
| 33> C  -21.048   26.222   46.251
| 34> C  -20.361   27.558   45.944
| 35> C  -20.329   28.222   47.341
| 36> C  -20.110   27.022   48.296
| 37> O  -20.473   25.807   47.535
| 38> H  -20.833   25.428   45.533
| 39> H  -19.344   27.382   45.576
| 40> H  -20.898   28.157   45.201
| 41> H  -19.543   28.978   47.434
| 42> H  -21.289   28.710   47.548
| 43> H  -20.733   27.082   49.195
| 44> H  -19.064   26.913   48.597
| 45> C  -23.309   26.834   45.072
| 46> H  -23.809   27.795   45.242
| 47> H  -22.585   26.963   44.257
| 48> O  -22.586   26.394   46.375
| 49> C  -24.374   25.806   44.600
| 50> C  -23.763   24.410   44.427
| 51> C  -23.706   23.910   45.891
| 52> C  -24.978   24.526   46.524
| 53> O  -25.403   25.625   45.629
| 54> H  -24.875   26.193   43.711
| 55> O  -24.709   23.516   43.580
| 56> H  -22.780   24.427   43.946
| 57> H  -23.689   22.818   45.966
| 58> H  -22.805   24.294   46.385
| 59> H  -24.797   24.929   47.526
| 60> H  -25.807   23.813   46.573
| 61> H  -25.701   23.484   44.045
| 62> *
| 63>
| 64>                          ****END OF INPUT****
 Total Charge           Charge          ....    0
 Multiplicity           Mult            ....    1
 Number of Electrons    NEL             ....  102
FINAL SINGLE POINT ENERGY      -652.831104051491
FINAL SINGLE POINT ENERGY      -652.853663248689
FINAL SINGLE POINT ENERGY      -652.857564340653
FINAL SINGLE POINT ENERGY      -652.859116593729
FINAL SINGLE POINT ENERGY      -652.859245837484
FINAL SINGLE POINT ENERGY      -652.859264224484
                    ***********************HURRAY********************

CARTESIAN COORDINATES (ANGSTROEM)
---------------------------------
  C    -21.048668   26.251093   46.214757
  C    -20.322192   27.560567   45.914481
  C    -20.363943   28.275080   47.288461
  C    -20.227987   27.105864   48.284821
  O    -20.573268   25.881371   47.513358
  H    -20.828689   25.424264   45.531018
  H    -19.289847   27.336545   45.620885
  H    -20.782802   28.147613   45.115496
  H    -19.564806   29.014050   47.399230
  H    -21.325176   28.781455   47.415248
  H    -20.908187   27.181443   49.136192
  H    -19.204722   26.967082   48.645050
  C    -23.214733   26.823391   45.120586
  H    -23.709847   27.777608   45.328683
  H    -22.527128   26.965898   44.274130
  O    -22.494578   26.437893   46.330845
  C    -24.284154   25.802207   44.726987
  C    -23.809443   24.369923   44.436487
  C    -23.746751   23.760131   45.864176
  C    -24.935600   24.443050   46.584499
  O    -25.285080   25.637478   45.779108
  H    -24.811219   26.205033   43.852539
  O    -24.763049   23.677670   43.582074
  H    -22.861368   24.319220   43.898724
  H    -23.842860   22.671248   45.819288
  H    -22.806887   24.021377   46.352410
  H    -24.673589   24.767956   47.593991
  H    -25.830129   23.812158   46.627709
  H    -25.664299   23.799332   43.948766

 Multiplicity           Mult            ....    1
 Number of Electrons    NEL             ....  102
 Basis Dimension        Dim             ....  149

ORBITAL ENERGIES
----------------

  NO   OCC          E(Eh)            E(eV)
   0   2.0000     -19.146974      -521.0156
   1   2.0000     -19.145376      -520.9722
   2   2.0000     -19.134808      -520.6846
   3   2.0000     -19.134552      -520.6776
   4   2.0000     -10.286935      -279.9217
   5   2.0000     -10.236983      -278.5625
   6   2.0000     -10.235280      -278.5161
   7   2.0000     -10.232265      -278.4341
   8   2.0000     -10.229844      -278.3682
   9   2.0000     -10.218854      -278.0692
  10   2.0000     -10.193732      -277.3856
  11   2.0000     -10.191696      -277.3301
  12   2.0000     -10.174742      -276.8688
  13   2.0000      -1.059124       -28.8202
  14   2.0000      -1.031252       -28.0618
  15   2.0000      -1.003421       -27.3045
  16   2.0000      -0.994493       -27.0615
  17   2.0000      -0.792094       -21.5540
  18   2.0000      -0.775321       -21.0975
  19   2.0000      -0.763338       -20.7715
  20   2.0000      -0.736321       -20.0363
  21   2.0000      -0.676873       -18.4186
  22   2.0000      -0.607187       -16.5224
  23   2.0000      -0.599336       -16.3088
  24   2.0000      -0.595209       -16.1965
  25   2.0000      -0.573169       -15.5967
  26   2.0000      -0.526810       -14.3352
  27   2.0000      -0.508087       -13.8257
  28   2.0000      -0.503376       -13.6975
  29   2.0000      -0.488504       -13.2929
  30   2.0000      -0.473534       -12.8855
  31   2.0000      -0.458078       -12.4649
  32   2.0000      -0.449334       -12.2270
  33   2.0000      -0.434519       -11.8239
  34   2.0000      -0.428710       -11.6658
  35   2.0000      -0.411178       -11.1887
  36   2.0000      -0.405743       -11.0408
  37   2.0000      -0.385262       -10.4835
  38   2.0000      -0.382604       -10.4112
  39   2.0000      -0.364001        -9.9050
  40   2.0000      -0.362406        -9.8616
  41   2.0000      -0.357502        -9.7281
  42   2.0000      -0.354579        -9.6486
  43   2.0000      -0.326710        -8.8902
  44   2.0000      -0.318693        -8.6721
  45   2.0000      -0.308348        -8.3906
  46   2.0000      -0.301191        -8.1958
  47   2.0000      -0.266834        -7.2609
  48   2.0000      -0.264504        -7.1975
  49   2.0000      -0.262027        -7.1301
  50   2.0000      -0.235577        -6.4104
  51   0.0000       0.067731         1.8430
  52   0.0000       0.077817         2.1175
  53   0.0000       0.092002         2.5035
  54   0.0000       0.099051         2.6953
  55   0.0000       0.108895         2.9632

MULLIKEN ATOMIC CHARGES
-----------------------
   0 C :    0.302175
   1 C :   -0.278382
   2 C :   -0.297959
   3 C :   -0.001040
   4 O :   -0.507354
   5 H :    0.140251
   6 H :    0.149395
   7 H :    0.145537
   8 H :    0.144690
   9 H :    0.162274
  10 H :    0.157294
  11 H :    0.144257
  12 C :   -0.018007
  13 H :    0.159206
  14 H :    0.122235
  15 O :   -0.513571
  16 C :    0.079216
  17 C :    0.072649
  18 C :   -0.298116
  19 C :   -0.019605
  20 O :   -0.526425
  21 H :    0.150188
  22 O :   -0.603923
  23 H :    0.140536
  24 H :    0.152357
  25 H :    0.182070
  26 H :    0.162380
  27 H :    0.134045
  28 H :    0.363629
Sum of atomic charges:   -0.0000000

LOEWDIN ATOMIC CHARGES
----------------------
   0 C :    0.177195
   1 C :   -0.231264
   2 C :   -0.215819
   3 C :   -0.023694
   4 O :   -0.303982
   5 H :    0.094192
   6 H :    0.116513
   7 H :    0.114623
   8 H :    0.115760
   9 H :    0.119015
  10 H :    0.111299
  11 H :    0.103852
  12 C :   -0.043574
  13 H :    0.115066
  14 H :    0.095633
  15 O :   -0.335726
  16 C :    0.010042
  17 C :    0.036793
  18 C :   -0.242232
  19 C :   -0.032339
  20 O :   -0.330133
  21 H :    0.113346
  22 O :   -0.417029
  23 H :    0.109674
  24 H :    0.119641
  25 H :    0.131614
  26 H :    0.113674
  27 H :    0.095245
  28 H :    0.282614

  Mayer bond orders larger than 0.100000
B(  0-C ,  1-C ) :   0.9319 B(  0-C ,  4-O ) :   0.9334 B(  0-C ,  5-H ) :   0.9168
B(  0-C , 15-O ) :   0.8231 B(  1-C ,  2-C ) :   0.9505 B(  1-C ,  6-H ) :   0.9335
B(  1-C ,  7-H ) :   0.9318 B(  2-C ,  3-C ) :   0.9563 B(  2-C ,  8-H ) :   0.9447
B(  2-C ,  9-H ) :   0.9443 B(  3-C ,  4-O ) :   0.8306 B(  3-C , 10-H ) :   0.9344
B(  3-C , 11-H ) :   0.9397 B( 12-C , 13-H ) :   0.9271 B( 12-C , 14-H ) :   0.9096
B( 12-C , 15-O ) :   0.8536 B( 12-C , 16-C ) :   0.8931 B( 16-C , 17-C ) :   0.9080
B( 16-C , 20-O ) :   0.8764 B( 16-C , 21-H ) :   0.9190 B( 17-C , 18-C ) :   0.9233
B( 17-C , 22-O ) :   0.8901 B( 17-C , 23-H ) :   0.9361 B( 18-C , 19-C ) :   0.9451
B( 18-C , 24-H ) :   0.9363 B( 18-C , 25-H ) :   0.9168 B( 19-C , 20-O ) :   0.8346
B( 19-C , 26-H ) :   0.9323 B( 19-C , 27-H ) :   0.9375 B( 22-O , 28-H ) :   0.7956

FINAL SINGLE POINT ENERGY      -652.859264175880

DIPOLE MOMENT
-------------
                                X             Y             Z
Electronic contribution:     -3.72764      -2.71599      -1.08831
Nuclear contribution   :      4.59316       3.64126       1.06718
                        -----------------------------------------
Total Dipole Moment    :      0.86552       0.92528      -0.02114
                        -----------------------------------------
Magnitude (a.u.)       :      1.26717
Magnitude (Debye)      :      3.22088

Rotational constants in cm-1:     0.058320     0.013774     0.013359
Rotational constants in MHz :  1748.377272   412.932582   400.479284

                             ****ORCA TERMINATED NORMALLY****
TOTAL RUN TIME: 0 days 0 hours 30 minutes 36 seconds 33 msec
