                         Program Version 4.2.1 -  RELEASE  -
|  1> # Test redundant internal optimization
|  2> #
|  3> ! RKS B3LYP  Opt TightSCF SmallPrint
|  4>
|  5> %basis
|  6>         Basis "6-31G"
|  7> end
|  8>
|  9> %geom
| 10> Constraints
| 11> { D 4  0  19  14  270.0   C } # D for Dihedral angle
| 12> { D 0  19  14  12  90.0   C } # D for Dihedral angle
| 13> { D 0  4  3  2   C } # D for Dihedral angle
| 14> { D 4  3  2  1   C } # D for Dihedral angle
| 15> { D 3  2  1  0   C } # D for Dihedral angle
| 16> { D 2  1  0  4   C } # D for Dihedral angle
| 17> { D 1  0  4  3   C } # D for Dihedral angle
| 18> { D 14  15  16  17   C } # D for Dihedral angle
| 19> { D 15  16  17  12   C } # D for Dihedral angle
| 20> { D 16  17  12  14   C } # D for Dihedral angle
| 21> { D 17  12  14  15   C } # D for Dihedral angle
| 22> { D 12  14  15  16   C } # D for Dihedral angle
| 23> end
| 24> end
| 25>
| 26>
| 27> #%pal
| 28> #nprocs 8
| 29> #end
| 30>
| 31> * xyz 0 1
| 32> C  -21.048   26.222   46.251
| 33> C  -20.361   27.558   45.944
| 34> C  -20.329   28.222   47.341
| 35> C  -20.110   27.022   48.296
| 36> O  -20.473   25.807   47.535
| 37> H  -20.833   25.428   45.533
| 38> H  -19.344   27.382   45.576
| 39> H  -20.898   28.157   45.201
| 40> H  -19.543   28.978   47.434
| 41> H  -21.289   28.710   47.548
| 42> H  -20.733   27.082   49.195
| 43> H  -19.064   26.913   48.597
| 44> C  -23.431   24.381   47.367
| 45> H  -23.740   23.347   47.144
| 46> C  -23.226   25.191   46.082
| 47> C  -24.681   25.545   45.698
| 48> C  -25.370   25.744   47.071
| 49> O  -24.501   25.092   48.076
| 50> H  -22.567   24.360   48.032
| 51> O  -22.472   26.381   46.366
| 52> H  -22.704   24.630   45.299
| 53> H  -24.749   26.435   45.064
| 54> H  -25.141   24.711   45.153
| 55> H  -26.366   25.291   47.112
| 56> H  -25.449   26.799   47.350
| 57> *
| 58>
| 59>                          ****END OF INPUT****
 Total Charge           Charge          ....    0
 Multiplicity           Mult            ....    1
 Number of Electrons    NEL             ....   86
FINAL SINGLE POINT ENERGY      -538.435514732377
FINAL SINGLE POINT ENERGY      -538.437722455661
FINAL SINGLE POINT ENERGY      -538.438045367863
FINAL SINGLE POINT ENERGY      -538.438072915213
FINAL SINGLE POINT ENERGY      -538.438080966762
                    ***********************HURRAY********************

CARTESIAN COORDINATES (ANGSTROEM)
---------------------------------
  C    -20.986591   26.175926   46.244616
  C    -20.406593   27.559708   45.946465
  C    -20.429017   28.221342   47.344976
  C    -20.119812   27.040551   48.293622
  O    -20.391271   25.807810   47.512359
  H    -20.724621   25.384119   45.535253
  H    -19.379099   27.450669   45.580354
  H    -20.996320   28.098304   45.202261
  H    -19.701002   29.032676   47.439967
  H    -21.426798   28.622722   47.543975
  H    -20.748159   27.034668   49.187237
  H    -19.067153   26.997796   48.589164
  C    -23.464950   24.326805   47.362533
  H    -23.840719   23.319788   47.124164
  C    -23.213456   25.122828   46.082264
  C    -24.637412   25.580988   45.713637
  C    -25.300251   25.824142   47.091109
  O    -24.471803   25.107068   48.082443
  H    -22.582305   24.255792   47.999472
  O    -22.418226   26.318319   46.337852
  H    -22.736536   24.524419   45.293438
  H    -24.611642   26.475708   45.087207
  H    -25.146186   24.780402   45.164123
  H    -26.327099   25.444140   47.135741
  H    -25.294983   26.881310   47.370767

 Multiplicity           Mult            ....    1
 Number of Electrons    NEL             ....   86
 Basis Dimension        Dim             ....  127

ORBITAL ENERGIES
----------------

  NO   OCC          E(Eh)            E(eV)
   0   2.0000     -19.143021      -520.9081
   1   2.0000     -19.137365      -520.7542
   2   2.0000     -19.122939      -520.3616
   3   2.0000     -10.278692      -279.6974
   4   2.0000     -10.239665      -278.6354
   5   2.0000     -10.221486      -278.1408
   6   2.0000     -10.216839      -278.0143
   7   2.0000     -10.213719      -277.9294
   8   2.0000     -10.184172      -277.1254
   9   2.0000     -10.183778      -277.1147
  10   2.0000     -10.182500      -277.0799
  11   2.0000      -1.053540       -28.6683
  12   2.0000      -1.010141       -27.4873
  13   2.0000      -0.989342       -26.9214
  14   2.0000      -0.790838       -21.5198
  15   2.0000      -0.774423       -21.0731
  16   2.0000      -0.734576       -19.9888
  17   2.0000      -0.718998       -19.5649
  18   2.0000      -0.606335       -16.4992
  19   2.0000      -0.597467       -16.2579
  20   2.0000      -0.591169       -16.0865
  21   2.0000      -0.578526       -15.7425
  22   2.0000      -0.518937       -14.1210
  23   2.0000      -0.502148       -13.6641
  24   2.0000      -0.479667       -13.0524
  25   2.0000      -0.473815       -12.8931
  26   2.0000      -0.447190       -12.1687
  27   2.0000      -0.445028       -12.1098
  28   2.0000      -0.429691       -11.6925
  29   2.0000      -0.406822       -11.0702
  30   2.0000      -0.405700       -11.0396
  31   2.0000      -0.384962       -10.4753
  32   2.0000      -0.366354        -9.9690
  33   2.0000      -0.362412        -9.8617
  34   2.0000      -0.354345        -9.6422
  35   2.0000      -0.351716        -9.5707
  36   2.0000      -0.340677        -9.2703
  37   2.0000      -0.322581        -8.7779
  38   2.0000      -0.304084        -8.2745
  39   2.0000      -0.299219        -8.1422
  40   2.0000      -0.268493        -7.3061
  41   2.0000      -0.247389        -6.7318
  42   2.0000      -0.229118        -6.2346
  43   0.0000       0.079162         2.1541
  44   0.0000       0.096947         2.6381
  45   0.0000       0.101679         2.7668
  46   0.0000       0.116487         3.1698
  47   0.0000       0.126871         3.4523

MULLIKEN ATOMIC CHARGES
-----------------------
   0 C :    0.284654
   1 C :   -0.256792
   2 C :   -0.299206
   3 C :   -0.001984
   4 O :   -0.509879
   5 H :    0.137657
   6 H :    0.143217
   7 H :    0.151684
   8 H :    0.139753
   9 H :    0.165606
  10 H :    0.156111
  11 H :    0.140074
  12 C :   -0.002003
  13 H :    0.118015
  14 C :    0.063008
  15 C :   -0.292668
  16 C :    0.006624
  17 O :   -0.520039
  18 H :    0.183448
  19 O :   -0.511340
  20 H :    0.122007
  21 H :    0.158342
  22 H :    0.140869
  23 H :    0.132417
  24 H :    0.150423
Sum of atomic charges:    0.0000000

LOEWDIN ATOMIC CHARGES
----------------------
   0 C :    0.171590
   1 C :   -0.216132
   2 C :   -0.215797
   3 C :   -0.027039
   4 O :   -0.329188
   5 H :    0.095387
   6 H :    0.112949
   7 H :    0.121463
   8 H :    0.112877
   9 H :    0.120782
  10 H :    0.110123
  11 H :    0.101468
  12 C :   -0.048156
  13 H :    0.088741
  14 C :    0.038758
  15 C :   -0.226481
  16 C :   -0.027159
  17 O :   -0.329500
  18 H :    0.128792
  19 O :   -0.318899
  20 H :    0.094572
  21 H :    0.125504
  22 H :    0.112366
  23 H :    0.096537
  24 H :    0.106441

  Mayer bond orders larger than 0.100000
B(  0-C ,  1-C ) :   0.9477 B(  0-C ,  4-O ) :   0.9112 B(  0-C ,  5-H ) :   0.9174
B(  0-C , 19-O ) :   0.8629 B(  1-C ,  2-C ) :   0.9581 B(  1-C ,  6-H ) :   0.9397
B(  1-C ,  7-H ) :   0.9374 B(  2-C ,  3-C ) :   0.9550 B(  2-C ,  8-H ) :   0.9453
B(  2-C ,  9-H ) :   0.9436 B(  3-C ,  4-O ) :   0.8343 B(  3-C , 10-H ) :   0.9342
B(  3-C , 11-H ) :   0.9403 B( 12-C , 13-H ) :   0.9100 B( 12-C , 14-C ) :   0.9157
B( 12-C , 17-O ) :   0.8699 B( 12-C , 18-H ) :   0.9214 B( 14-C , 15-C ) :   0.9595
B( 14-C , 19-O ) :   0.8338 B( 14-C , 20-H ) :   0.9191 B( 15-C , 16-C ) :   0.9470
B( 15-C , 21-H ) :   0.9373 B( 15-C , 22-H ) :   0.9415 B( 16-C , 17-O ) :   0.8580
B( 16-C , 23-H ) :   0.9330 B( 16-C , 24-H ) :   0.9369

FINAL SINGLE POINT ENERGY      -538.438081644179

DIPOLE MOMENT
-------------
                                X             Y             Z
Electronic contribution:     -0.07217      -2.46470       1.42659
Nuclear contribution   :      0.33390       2.83250      -2.50794
                        -----------------------------------------
Total Dipole Moment    :      0.26173       0.36780      -1.08135
                        -----------------------------------------
Magnitude (a.u.)       :      1.17179
Magnitude (Debye)      :      2.97845

Rotational constants in cm-1:     0.074494     0.021975     0.020804
Rotational constants in MHz :  2233.282392   658.803521   623.684293

                             ****ORCA TERMINATED NORMALLY****
TOTAL RUN TIME: 0 days 0 hours 5 minutes 46 seconds 262 msec
