                         Program Version 4.2.0 -  RELEASE  -
|  1> # Test redundant internal optimization
|  2> #
|  3> ! RKS B3LYP  Opt TightSCF SmallPrint
|  4>
|  5> %basis
|  6>         Basis "6-31G"
|  7> end
|  8>
|  9> %geom
| 10> Constraints
| 11> { D 4  0  15  12  30.0   C } # D for Dihedral angle
| 12> { D 0  15  12  16  150.0   C } # D for Dihedral angle
| 13> { D 0  4  3  2   C } # D for Dihedral angle
| 14> { D 4  3  2  1   C } # D for Dihedral angle
| 15> { D 3  2  1  0   C } # D for Dihedral angle
| 16> { D 2  1  0  4   C } # D for Dihedral angle
| 17> { D 1  0  4  3   C } # D for Dihedral angle
| 18> { D 16  20  19  18   C } # D for Dihedral angle
| 19> { D 20  19  18  17   C } # D for Dihedral angle
| 20> { D 19  18  17  16   C } # D for Dihedral angle
| 21> { D 18  17  16  20   C } # D for Dihedral angle
| 22> { D 17  16  20  19   C } # D for Dihedral angle
| 23> { D 15  12  16  20   C } # D for Dihedral angle
| 24> end
| 25> end
| 26>
| 27>
| 28> #%pal
| 29> #nprocs 8
| 30> #end
| 31>
| 32> * xyz 0 1
| 33> C  -21.048   26.222   46.251
| 34> C  -20.361   27.558   45.944
| 35> C  -20.329   28.222   47.341
| 36> C  -20.110   27.022   48.296
| 37> O  -20.473   25.807   47.535
| 38> H  -20.833   25.428   45.533
| 39> H  -19.344   27.382   45.576
| 40> H  -20.898   28.157   45.201
| 41> H  -19.543   28.978   47.434
| 42> H  -21.289   28.710   47.548
| 43> H  -20.733   27.082   49.195
| 44> H  -19.064   26.913   48.597
| 45> C  -23.091   26.824   47.779
| 46> H  -23.290   25.929   48.382
| 47> H  -22.329   27.423   48.295
| 48> O  -22.586   26.394   46.375
| 49> C  -24.394   27.669   47.716
| 50> C  -25.563   26.848   47.162
| 51> C  -25.979   26.019   48.400
| 52> C  -25.729   26.995   49.577
| 53> O  -24.825   28.047   49.066
| 54> H  -24.193   28.595   47.174
| 55> O  -26.716   27.793   46.723
| 56> H  -25.285   26.225   46.306
| 57> H  -27.018   25.678   48.353
| 58> H  -25.340   25.132   48.490
| 59> H  -25.259   26.504   50.436
| 60> H  -26.645   27.490   49.910
| 61> H  -27.013   28.429   47.565
| 62> *
| 63>
| 64>                          ****END OF INPUT****
 Total Charge           Charge          ....    0
 Multiplicity           Mult            ....    1
 Number of Electrons    NEL             ....  102
FINAL SINGLE POINT ENERGY      -652.826995630882
FINAL SINGLE POINT ENERGY      -652.851624977179
FINAL SINGLE POINT ENERGY      -652.857649158064
FINAL SINGLE POINT ENERGY      -652.860038831327
FINAL SINGLE POINT ENERGY      -652.860292466865
FINAL SINGLE POINT ENERGY      -652.860331089545
FINAL SINGLE POINT ENERGY      -652.860337496239
FINAL SINGLE POINT ENERGY      -652.860339418106
                    ***********************HURRAY********************

CARTESIAN COORDINATES (ANGSTROEM)
---------------------------------
  C    -21.208064   26.317838   46.408595
  C    -20.509462   27.601492   45.945599
  C    -20.133309   28.268188   47.297052
  C    -19.802748   27.054131   48.198023
  O    -20.414903   25.872972   47.530854
  H    -21.173705   25.517251   45.667073
  H    -19.611049   27.332549   45.378756
  H    -21.155190   28.220881   45.319056
  H    -19.282298   28.950151   47.204946
  H    -20.977418   28.844312   47.689304
  H    -20.206057   27.137519   49.211348
  H    -18.728156   26.857082   48.257079
  C    -23.108992   26.817775   48.008462
  H    -23.272258   25.905852   48.595617
  H    -22.410586   27.449768   48.562489
  O    -22.624322   26.464718   46.680875
  C    -24.408081   27.596793   47.808610
  C    -25.542937   26.806780   47.142872
  C    -26.094638   25.986000   48.335542
  C    -25.931601   26.950692   49.536796
  O    -24.951922   27.984932   49.115406
  H    -24.198898   28.517434   47.256460
  O    -26.547587   27.707451   46.597065
  H    -25.202473   26.197963   46.307101
  H    -27.133482   25.698051   48.158684
  H    -25.504346   25.073907   48.473618
  H    -25.556220   26.453069   50.436139
  H    -26.860752   27.471247   49.788568
  H    -26.728546   28.418201   47.248012

 Multiplicity           Mult            ....    1
 Number of Electrons    NEL             ....  102
 Basis Dimension        Dim             ....  149

ORBITAL ENERGIES
----------------

  NO   OCC          E(Eh)            E(eV)
   0   2.0000     -19.150070      -521.0999
   1   2.0000     -19.143874      -520.9313
   2   2.0000     -19.142852      -520.9035
   3   2.0000     -19.132784      -520.6295
   4   2.0000     -10.281436      -279.7721
   5   2.0000     -10.234502      -278.4950
   6   2.0000     -10.232999      -278.4541
   7   2.0000     -10.231556      -278.4148
   8   2.0000     -10.230807      -278.3944
   9   2.0000     -10.230521      -278.3866
  10   2.0000     -10.195197      -277.4254
  11   2.0000     -10.189161      -277.2612
  12   2.0000     -10.185064      -277.1497
  13   2.0000      -1.055979       -28.7346
  14   2.0000      -1.034424       -28.1481
  15   2.0000      -1.002433       -27.2776
  16   2.0000      -0.996596       -27.1187
  17   2.0000      -0.792067       -21.5533
  18   2.0000      -0.780273       -21.2323
  19   2.0000      -0.769609       -20.9421
  20   2.0000      -0.733511       -19.9598
  21   2.0000      -0.675562       -18.3830
  22   2.0000      -0.606746       -16.5104
  23   2.0000      -0.602937       -16.4068
  24   2.0000      -0.595101       -16.1935
  25   2.0000      -0.576370       -15.6838
  26   2.0000      -0.525726       -14.3057
  27   2.0000      -0.512536       -13.9468
  28   2.0000      -0.502898       -13.6846
  29   2.0000      -0.490911       -13.3584
  30   2.0000      -0.473221       -12.8770
  31   2.0000      -0.457755       -12.4562
  32   2.0000      -0.445475       -12.1220
  33   2.0000      -0.439420       -11.9572
  34   2.0000      -0.422943       -11.5089
  35   2.0000      -0.418899       -11.3988
  36   2.0000      -0.405275       -11.0281
  37   2.0000      -0.390606       -10.6289
  38   2.0000      -0.379819       -10.3354
  39   2.0000      -0.365494        -9.9456
  40   2.0000      -0.363211        -9.8835
  41   2.0000      -0.357931        -9.7398
  42   2.0000      -0.350010        -9.5242
  43   2.0000      -0.337640        -9.1877
  44   2.0000      -0.323694        -8.8082
  45   2.0000      -0.314291        -8.5523
  46   2.0000      -0.302466        -8.2305
  47   2.0000      -0.270351        -7.3566
  48   2.0000      -0.264965        -7.2101
  49   2.0000      -0.254054        -6.9132
  50   2.0000      -0.243143        -6.6163
  51   0.0000       0.065833         1.7914
  52   0.0000       0.066893         1.8203
  53   0.0000       0.094458         2.5703
  54   0.0000       0.096704         2.6314
  55   0.0000       0.101525         2.7626

MULLIKEN ATOMIC CHARGES
-----------------------
   0 C :    0.300765
   1 C :   -0.262266
   2 C :   -0.316431
   3 C :   -0.021290
   4 O :   -0.507674
   5 H :    0.163883
   6 H :    0.149959
   7 H :    0.157463
   8 H :    0.149901
   9 H :    0.154956
  10 H :    0.149263
  11 H :    0.152624
  12 C :   -0.003973
  13 H :    0.143514
  14 H :    0.145355
  15 O :   -0.541787
  16 C :    0.059859
  17 C :    0.091490
  18 C :   -0.298735
  19 C :   -0.029952
  20 O :   -0.531287
  21 H :    0.158486
  22 O :   -0.604154
  23 H :    0.178292
  24 H :    0.160434
  25 H :    0.149878
  26 H :    0.144985
  27 H :    0.145701
  28 H :    0.360741
Sum of atomic charges:   -0.0000000

LOEWDIN ATOMIC CHARGES
----------------------
   0 C :    0.180878
   1 C :   -0.225760
   2 C :   -0.223138
   3 C :   -0.035868
   4 O :   -0.319036
   5 H :    0.110864
   6 H :    0.117462
   7 H :    0.123557
   8 H :    0.118419
   9 H :    0.112082
  10 H :    0.103446
  11 H :    0.107491
  12 C :   -0.036090
  13 H :    0.100900
  14 H :    0.104394
  15 O :   -0.337307
  16 C :    0.016081
  17 C :    0.038651
  18 C :   -0.240967
  19 C :   -0.038072
  20 O :   -0.334142
  21 H :    0.114283
  22 O :   -0.415553
  23 H :    0.128962
  24 H :    0.126379
  25 H :    0.116072
  26 H :    0.103543
  27 H :    0.102152
  28 H :    0.280318

  Mayer bond orders larger than 0.100000
B(  0-C ,  1-C ) :   0.9189 B(  0-C ,  4-O ) :   0.9128 B(  0-C ,  5-H ) :   0.9348
B(  0-C , 15-O ) :   0.8619 B(  1-C ,  2-C ) :   0.9530 B(  1-C ,  6-H ) :   0.9344
B(  1-C ,  7-H ) :   0.9366 B(  2-C ,  3-C ) :   0.9493 B(  2-C ,  8-H ) :   0.9441
B(  2-C ,  9-H ) :   0.9417 B(  3-C ,  4-O ) :   0.8353 B(  3-C , 10-H ) :   0.9303
B(  3-C , 11-H ) :   0.9383 B( 12-C , 13-H ) :   0.9259 B( 12-C , 14-H ) :   0.9079
B( 12-C , 15-O ) :   0.8108 B( 12-C , 16-C ) :   0.8984 B( 16-C , 17-C ) :   0.9141
B( 16-C , 20-O ) :   0.8419 B( 16-C , 21-H ) :   0.9259 B( 17-C , 18-C ) :   0.9122
B( 17-C , 22-O ) :   0.8890 B( 17-C , 23-H ) :   0.9236 B( 18-C , 19-C ) :   0.9419
B( 18-C , 24-H ) :   0.9382 B( 18-C , 25-H ) :   0.9339 B( 19-C , 20-O ) :   0.8417
B( 19-C , 26-H ) :   0.9363 B( 19-C , 27-H ) :   0.9381 B( 22-O , 28-H ) :   0.7970

FINAL SINGLE POINT ENERGY      -652.860339740883

DIPOLE MOMENT
-------------
                                X             Y             Z
Electronic contribution:     -2.34152      -1.02882      -1.49689
Nuclear contribution   :      2.96303       1.33129       2.00740
                        -----------------------------------------
Total Dipole Moment    :      0.62150       0.30247       0.51051
                        -----------------------------------------
Magnitude (a.u.)       :      0.85929
Magnitude (Debye)      :      2.18413

Rotational constants in cm-1:     0.056048     0.013005     0.012388
Rotational constants in MHz :  1680.285962   389.873720   371.384202

                             ****ORCA TERMINATED NORMALLY****
TOTAL RUN TIME: 0 days 0 hours 35 minutes 42 seconds 389 msec
