                         Program Version 4.2.0 -  RELEASE  -
|  1> # Test redundant internal optimization
|  2> #
|  3> ! RKS B3LYP  Opt TightSCF SmallPrint
|  4>
|  5> %basis
|  6>         Basis "6-31G"
|  7> end
|  8>
|  9> %geom
| 10> Constraints
| 11> { D 4  0  15  12  150.0   C } # D for Dihedral angle
| 12> { D 0  15  12  16  45.0   C } # D for Dihedral angle
| 13> { D 0  4  3  2   C } # D for Dihedral angle
| 14> { D 4  3  2  1   C } # D for Dihedral angle
| 15> { D 3  2  1  0   C } # D for Dihedral angle
| 16> { D 2  1  0  4   C } # D for Dihedral angle
| 17> { D 1  0  4  3   C } # D for Dihedral angle
| 18> { D 16  20  19  18   C } # D for Dihedral angle
| 19> { D 20  19  18  17   C } # D for Dihedral angle
| 20> { D 19  18  17  16   C } # D for Dihedral angle
| 21> { D 18  17  16  20   C } # D for Dihedral angle
| 22> { D 17  16  20  19   C } # D for Dihedral angle
| 23> { D 15  12  16  20   C } # D for Dihedral angle
| 24> end
| 25> end
| 26>
| 27>
| 28> #%pal
| 29> #nprocs 8
| 30> #end
| 31>
| 32> * xyz 0 1
| 33> C  -21.048   26.222   46.251
| 34> C  -20.361   27.558   45.944
| 35> C  -20.329   28.222   47.341
| 36> C  -20.110   27.022   48.296
| 37> O  -20.473   25.807   47.535
| 38> H  -20.833   25.428   45.533
| 39> H  -19.344   27.382   45.576
| 40> H  -20.898   28.157   45.201
| 41> H  -19.543   28.978   47.434
| 42> H  -21.289   28.710   47.548
| 43> H  -20.733   27.082   49.195
| 44> H  -19.064   26.913   48.597
| 45> C  -23.210   27.459   45.431
| 46> H  -24.298   27.325   45.404
| 47> H  -22.997   28.470   45.801
| 48> O  -22.586   26.394   46.375
| 49> C  -22.669   27.363   43.978
| 50> C  -23.217   28.497   43.105
| 51> C  -22.314   29.681   43.526
| 52> C  -20.945   29.004   43.786
| 53> O  -21.216   27.561   43.957
| 54> H  -22.862   26.361   43.590
| 55> O  -23.013   28.160   41.602
| 56> H  -24.281   28.694   43.273
| 57> H  -22.255   30.463   42.762
| 58> H  -22.699   30.140   44.445
| 59> H  -20.454   29.386   44.689
| 60> H  -20.261   29.106   42.939
| 61> H  -21.953   27.960   41.411
| 62> *
| 63>
| 64>                          ****END OF INPUT****
 Total Charge           Charge          ....    0
 Multiplicity           Mult            ....    1
 Number of Electrons    NEL             ....  102
FINAL SINGLE POINT ENERGY      -652.728421951152
FINAL SINGLE POINT ENERGY      -652.818463959461
FINAL SINGLE POINT ENERGY      -652.840474250272
FINAL SINGLE POINT ENERGY      -652.845452851986
FINAL SINGLE POINT ENERGY      -652.846288843787
FINAL SINGLE POINT ENERGY      -652.846465162511
FINAL SINGLE POINT ENERGY      -652.846485106155
FINAL SINGLE POINT ENERGY      -652.846491490277
FINAL SINGLE POINT ENERGY      -652.846482335310
FINAL SINGLE POINT ENERGY      -652.846481062517
                    ***********************HURRAY********************

CARTESIAN COORDINATES (ANGSTROEM)
---------------------------------
  C    -20.896517   26.150627   46.391981
  C    -19.919057   27.315921   46.239112
  C    -20.126720   28.091661   47.566592
  C    -20.392617   26.953855   48.576978
  O    -20.763458   25.772387   47.770747
  H    -20.680586   25.269941   45.786258
  H    -18.904247   26.900553   46.201136
  H    -20.083061   27.895632   45.337425
  H    -19.256668   28.697490   47.838181
  H    -20.994653   28.756563   47.490969
  H    -21.207814   27.175749   49.271149
  H    -19.499188   26.678994   49.146896
  C    -22.961173   27.432621   45.338897
  H    -24.013925   27.134024   45.373715
  H    -22.887852   28.443353   45.776590
  O    -22.313904   26.490686   46.229388
  C    -22.561261   27.503168   43.852595
  C    -23.369719   28.554613   43.076258
  C    -22.520888   29.836972   43.304201
  C    -21.069627   29.298910   43.316325
  O    -21.166278   27.833698   43.559658
  H    -22.717007   26.510603   43.413149
  O    -23.461728   28.213419   41.667505
  H    -24.400970   28.657136   43.415385
  H    -22.701166   30.563212   42.508086
  H    -22.781795   30.299578   44.262492
  H    -20.455391   29.750258   44.102263
  H    -20.558861   29.427247   42.357492
  H    -22.588869   27.896126   41.353578

 Multiplicity           Mult            ....    1
 Number of Electrons    NEL             ....  102
 Basis Dimension        Dim             ....  149

ORBITAL ENERGIES
----------------

  NO   OCC          E(Eh)            E(eV)
   0   2.0000     -19.160191      -521.3753
   1   2.0000     -19.147705      -521.0355
   2   2.0000     -19.130754      -520.5743
   3   2.0000     -19.128552      -520.5144
   4   2.0000     -10.273512      -279.5565
   5   2.0000     -10.253171      -279.0030
   6   2.0000     -10.245019      -278.7811
   7   2.0000     -10.244609      -278.7700
   8   2.0000     -10.239386      -278.6278
   9   2.0000     -10.219151      -278.0772
  10   2.0000     -10.200791      -277.5776
  11   2.0000     -10.183396      -277.1043
  12   2.0000     -10.172805      -276.8161
  13   2.0000      -1.051307       -28.6075
  14   2.0000      -1.041240       -28.3336
  15   2.0000      -1.017930       -27.6993
  16   2.0000      -0.981364       -26.7043
  17   2.0000      -0.795539       -21.6477
  18   2.0000      -0.778872       -21.1942
  19   2.0000      -0.775506       -21.1026
  20   2.0000      -0.732536       -19.9333
  21   2.0000      -0.680550       -18.5187
  22   2.0000      -0.615939       -16.7605
  23   2.0000      -0.610373       -16.6091
  24   2.0000      -0.593709       -16.1556
  25   2.0000      -0.566955       -15.4276
  26   2.0000      -0.531646       -14.4668
  27   2.0000      -0.517976       -14.0948
  28   2.0000      -0.498721       -13.5709
  29   2.0000      -0.484217       -13.1762
  30   2.0000      -0.479698       -13.0532
  31   2.0000      -0.460810       -12.5393
  32   2.0000      -0.449830       -12.2405
  33   2.0000      -0.445153       -12.1132
  34   2.0000      -0.429413       -11.6849
  35   2.0000      -0.413856       -11.2616
  36   2.0000      -0.410062       -11.1583
  37   2.0000      -0.397075       -10.8049
  38   2.0000      -0.383766       -10.4428
  39   2.0000      -0.372197       -10.1280
  40   2.0000      -0.363950        -9.9036
  41   2.0000      -0.356831        -9.7099
  42   2.0000      -0.347407        -9.4534
  43   2.0000      -0.339768        -9.2456
  44   2.0000      -0.320322        -8.7164
  45   2.0000      -0.305660        -8.3174
  46   2.0000      -0.290069        -7.8932
  47   2.0000      -0.281325        -7.6553
  48   2.0000      -0.259967        -7.0741
  49   2.0000      -0.252336        -6.8664
  50   2.0000      -0.238355        -6.4860
  51   0.0000       0.050583         1.3764
  52   0.0000       0.075061         2.0425
  53   0.0000       0.085309         2.3214
  54   0.0000       0.089518         2.4359
  55   0.0000       0.098154         2.6709

MULLIKEN ATOMIC CHARGES
-----------------------
   0 C :    0.320085
   1 C :   -0.296343
   2 C :   -0.308258
   3 C :    0.001803
   4 O :   -0.495297
   5 H :    0.150668
   6 H :    0.140209
   7 H :    0.185905
   8 H :    0.137655
   9 H :    0.143922
  10 H :    0.147738
  11 H :    0.141572
  12 C :    0.012267
  13 H :    0.161068
  14 H :    0.115146
  15 O :   -0.544630
  16 C :    0.051745
  17 C :    0.078769
  18 C :   -0.295345
  19 C :   -0.036172
  20 O :   -0.522488
  21 H :    0.167988
  22 O :   -0.599842
  23 H :    0.158830
  24 H :    0.169808
  25 H :    0.146704
  26 H :    0.145971
  27 H :    0.154401
  28 H :    0.366122
Sum of atomic charges:   -0.0000000

LOEWDIN ATOMIC CHARGES
----------------------
   0 C :    0.196389
   1 C :   -0.238976
   2 C :   -0.221033
   3 C :   -0.028241
   4 O :   -0.304639
   5 H :    0.104392
   6 H :    0.114975
   7 H :    0.132863
   8 H :    0.112044
   9 H :    0.107113
  10 H :    0.105559
  11 H :    0.101657
  12 C :   -0.035796
  13 H :    0.122533
  14 H :    0.083846
  15 O :   -0.347478
  16 C :    0.000289
  17 C :    0.038395
  18 C :   -0.240137
  19 C :   -0.039600
  20 O :   -0.327436
  21 H :    0.117039
  22 O :   -0.411281
  23 H :    0.118838
  24 H :    0.130180
  25 H :    0.114578
  26 H :    0.103002
  27 H :    0.106840
  28 H :    0.284085

  Mayer bond orders larger than 0.100000
B(  0-C ,  1-C ) :   0.9369 B(  0-C ,  4-O ) :   0.9303 B(  0-C ,  5-H ) :   0.9283
B(  0-C , 15-O ) :   0.8165 B(  1-C ,  2-C ) :   0.9468 B(  1-C ,  6-H ) :   0.9355
B(  1-C ,  7-H ) :   0.8973 B(  2-C ,  3-C ) :   0.9529 B(  2-C ,  8-H ) :   0.9458
B(  2-C ,  9-H ) :   0.9467 B(  3-C ,  4-O ) :   0.8403 B(  3-C , 10-H ) :   0.9354
B(  3-C , 11-H ) :   0.9394 B( 12-C , 13-H ) :   0.9232 B( 12-C , 14-H ) :   0.9151
B( 12-C , 15-O ) :   0.8654 B( 12-C , 16-C ) :   0.8860 B( 16-C , 17-C ) :   0.8914
B( 16-C , 20-O ) :   0.8454 B( 16-C , 21-H ) :   0.9231 B( 17-C , 18-C ) :   0.9114
B( 17-C , 22-O ) :   0.8934 B( 17-C , 23-H ) :   0.9326 B( 18-C , 19-C ) :   0.9434
B( 18-C , 24-H ) :   0.9360 B( 18-C , 25-H ) :   0.9325 B( 19-C , 20-O ) :   0.8342
B( 19-C , 26-H ) :   0.9296 B( 19-C , 27-H ) :   0.9382 B( 22-O , 28-H ) :   0.7945

FINAL SINGLE POINT ENERGY      -652.846482892726

DIPOLE MOMENT
-------------
                                X             Y             Z
Electronic contribution:     -2.15547      -5.68016      -1.86405
Nuclear contribution   :      2.69443       7.26387       1.53424
                        -----------------------------------------
Total Dipole Moment    :      0.53896       1.58371      -0.32981
                        -----------------------------------------
Magnitude (a.u.)       :      1.70511
Magnitude (Debye)      :      4.33403

Rotational constants in cm-1:     0.061054     0.014011     0.012923
Rotational constants in MHz :  1830.355250   420.039316   387.415637

                             ****ORCA TERMINATED NORMALLY****
TOTAL RUN TIME: 0 days 1 hours 56 minutes 25 seconds 891 msec
