                         Program Version 4.2.0 -  RELEASE  -
|  1> # Test redundant internal optimization
|  2> #
|  3> ! RKS B3LYP  Opt TightSCF SmallPrint
|  4>
|  5> %basis
|  6>         Basis "6-31G"
|  7> end
|  8>
|  9> %geom
| 10> Constraints
| 11> { D 4  0  15  12  225.0   C } # D for Dihedral angle
| 12> { D 0  15  12  16  315.0   C } # D for Dihedral angle
| 13> { D 0  4  3  2   C } # D for Dihedral angle
| 14> { D 4  3  2  1   C } # D for Dihedral angle
| 15> { D 3  2  1  0   C } # D for Dihedral angle
| 16> { D 2  1  0  4   C } # D for Dihedral angle
| 17> { D 1  0  4  3   C } # D for Dihedral angle
| 18> { D 16  20  19  18   C } # D for Dihedral angle
| 19> { D 20  19  18  17   C } # D for Dihedral angle
| 20> { D 19  18  17  16   C } # D for Dihedral angle
| 21> { D 18  17  16  20   C } # D for Dihedral angle
| 22> { D 17  16  20  19   C } # D for Dihedral angle
| 23> { D 15  12  16  20   C } # D for Dihedral angle
| 24> end
| 25> end
| 26>
| 27>
| 28> #%pal
| 29> #nprocs 8
| 30> #end
| 31>
| 32> * xyz 0 1
| 33> C  -21.048   26.222   46.251
| 34> C  -20.361   27.558   45.944
| 35> C  -20.329   28.222   47.341
| 36> C  -20.110   27.022   48.296
| 37> O  -20.473   25.807   47.535
| 38> H  -20.833   25.428   45.533
| 39> H  -19.344   27.382   45.576
| 40> H  -20.898   28.157   45.201
| 41> H  -19.543   28.978   47.434
| 42> H  -21.289   28.710   47.548
| 43> H  -20.733   27.082   49.195
| 44> H  -19.064   26.913   48.597
| 45> C  -23.415   25.773   45.218
| 46> H  -23.446   24.683   45.339
| 47> H  -24.446   26.149   45.239
| 48> O  -22.586   26.394   46.375
| 49> C  -22.825   26.092   43.817
| 50> C  -21.443   25.453   43.637
| 51> C  -21.816   23.986   43.315
| 52> C  -23.121   24.127   42.493
| 53> O  -23.644   25.483   42.764
| 54> H  -22.848   27.172   43.656
| 55> O  -20.706   26.108   42.436
| 56> H  -20.806   25.546   44.523
| 57> H  -21.030   23.460   42.764
| 58> H  -22.001   23.433   44.244
| 59> H  -23.877   23.388   42.777
| 60> H  -22.946   24.058   41.416
| 61> H  -21.326   26.026   41.535
| 62> *
| 63>
| 64>                          ****END OF INPUT****
 Total Charge           Charge          ....    0
 Multiplicity           Mult            ....    1
 Number of Electrons    NEL             ....  102
FINAL SINGLE POINT ENERGY      -652.780091088658
FINAL SINGLE POINT ENERGY      -652.828237211591
FINAL SINGLE POINT ENERGY      -652.847866398378
FINAL SINGLE POINT ENERGY      -652.850999574533
FINAL SINGLE POINT ENERGY      -652.851501394893
FINAL SINGLE POINT ENERGY      -652.851587723139
FINAL SINGLE POINT ENERGY      -652.851612173486
                    ***********************HURRAY********************

CARTESIAN COORDINATES (ANGSTROEM)
---------------------------------
  C    -20.877228   26.255437   46.351880
  C    -20.186075   27.603857   46.153590
  C    -20.413892   28.283235   47.524475
  C    -20.332181   27.101369   48.515032
  O    -20.528825   25.875666   47.698622
  H    -20.526930   25.437448   45.721321
  H    -19.116557   27.443234   45.970729
  H    -20.603610   28.171410   45.318527
  H    -19.672931   29.059462   47.736810
  H    -21.409609   28.735406   47.547938
  H    -21.104470   27.134582   49.288097
  H    -19.349259   27.008958   48.987444
  C    -23.126547   25.878281   45.186968
  H    -23.296434   24.805949   45.369148
  H    -24.085942   26.385954   45.293743
  O    -22.313121   26.409821   46.271883
  C    -22.687451   26.038629   43.711319
  C    -21.393478   25.375385   43.207199
  C    -21.833182   23.889281   43.063294
  C    -23.308226   24.010953   42.602834
  O    -23.747551   25.384611   42.935282
  H    -22.690925   27.097106   43.431478
  O    -21.018038   25.948691   41.922357
  H    -20.518222   25.511453   43.834182
  H    -21.200633   23.367319   42.341538
  H    -21.758489   23.376341   44.028359
  H    -23.969306   23.296549   43.101977
  H    -23.419075   23.890897   41.520526
  H    -21.818816   26.034716   41.362448

 Multiplicity           Mult            ....    1
 Number of Electrons    NEL             ....  102
 Basis Dimension        Dim             ....  149

ORBITAL ENERGIES
----------------

  NO   OCC          E(Eh)            E(eV)
   0   2.0000     -19.153350      -521.1892
   1   2.0000     -19.144741      -520.9549
   2   2.0000     -19.139035      -520.7996
   3   2.0000     -19.137122      -520.7476
   4   2.0000     -10.280907      -279.7577
   5   2.0000     -10.249748      -278.9098
   6   2.0000     -10.243051      -278.7276
   7   2.0000     -10.238550      -278.6051
   8   2.0000     -10.234311      -278.4898
   9   2.0000     -10.222598      -278.1710
  10   2.0000     -10.196226      -277.4534
  11   2.0000     -10.185186      -277.1530
  12   2.0000     -10.184162      -277.1251
  13   2.0000      -1.051019       -28.5997
  14   2.0000      -1.045225       -28.4420
  15   2.0000      -1.013657       -27.5830
  16   2.0000      -0.991111       -26.9695
  17   2.0000      -0.786292       -21.3961
  18   2.0000      -0.784659       -21.3517
  19   2.0000      -0.770901       -20.9773
  20   2.0000      -0.737080       -20.0570
  21   2.0000      -0.679182       -18.4815
  22   2.0000      -0.611767       -16.6470
  23   2.0000      -0.605158       -16.4672
  24   2.0000      -0.596837       -16.2408
  25   2.0000      -0.582514       -15.8510
  26   2.0000      -0.528931       -14.3929
  27   2.0000      -0.519224       -14.1288
  28   2.0000      -0.502235       -13.6665
  29   2.0000      -0.483845       -13.1661
  30   2.0000      -0.477826       -13.0023
  31   2.0000      -0.461232       -12.5507
  32   2.0000      -0.445409       -12.1202
  33   2.0000      -0.439670       -11.9640
  34   2.0000      -0.428503       -11.6602
  35   2.0000      -0.422333       -11.4923
  36   2.0000      -0.400798       -10.9063
  37   2.0000      -0.399965       -10.8836
  38   2.0000      -0.378526       -10.3002
  39   2.0000      -0.376426       -10.2431
  40   2.0000      -0.360229        -9.8023
  41   2.0000      -0.357182        -9.7194
  42   2.0000      -0.352076        -9.5805
  43   2.0000      -0.338350        -9.2070
  44   2.0000      -0.316415        -8.6101
  45   2.0000      -0.312864        -8.5135
  46   2.0000      -0.304990        -8.2992
  47   2.0000      -0.278334        -7.5739
  48   2.0000      -0.266679        -7.2567
  49   2.0000      -0.253999        -6.9117
  50   2.0000      -0.241417        -6.5693
  51   0.0000       0.059749         1.6259
  52   0.0000       0.068742         1.8706
  53   0.0000       0.085507         2.3268
  54   0.0000       0.095036         2.5861
  55   0.0000       0.097739         2.6596

MULLIKEN ATOMIC CHARGES
-----------------------
   0 C :    0.286339
   1 C :   -0.257211
   2 C :   -0.300360
   3 C :   -0.002887
   4 O :   -0.506280
   5 H :    0.138866
   6 H :    0.144409
   7 H :    0.148425
   8 H :    0.141695
   9 H :    0.164395
  10 H :    0.153336
  11 H :    0.140441
  12 C :    0.007533
  13 H :    0.130741
  14 H :    0.172081
  15 O :   -0.523656
  16 C :    0.032157
  17 C :    0.075405
  18 C :   -0.300038
  19 C :   -0.033566
  20 O :   -0.521927
  21 H :    0.163078
  22 O :   -0.603209
  23 H :    0.159545
  24 H :    0.167996
  25 H :    0.153065
  26 H :    0.153718
  27 H :    0.150023
  28 H :    0.365886
Sum of atomic charges:   -0.0000000

LOEWDIN ATOMIC CHARGES
----------------------
   0 C :    0.175288
   1 C :   -0.224538
   2 C :   -0.215940
   3 C :   -0.026502
   4 O :   -0.312621
   5 H :    0.094288
   6 H :    0.113618
   7 H :    0.117591
   8 H :    0.114158
   9 H :    0.120158
  10 H :    0.108480
  11 H :    0.101442
  12 C :   -0.036659
  13 H :    0.094366
  14 H :    0.127160
  15 O :   -0.336018
  16 C :    0.002301
  17 C :    0.030330
  18 C :   -0.241603
  19 C :   -0.039453
  20 O :   -0.325045
  21 H :    0.114129
  22 O :   -0.413875
  23 H :    0.117316
  24 H :    0.129181
  25 H :    0.117159
  26 H :    0.107646
  27 H :    0.104128
  28 H :    0.283515

  Mayer bond orders larger than 0.100000
B(  0-C ,  1-C ) :   0.9348 B(  0-C ,  4-O ) :   0.9224 B(  0-C ,  5-H ) :   0.9086
B(  0-C , 15-O ) :   0.8374 B(  1-C ,  2-C ) :   0.9551 B(  1-C ,  6-H ) :   0.9346
B(  1-C ,  7-H ) :   0.9374 B(  2-C ,  3-C ) :   0.9537 B(  2-C ,  8-H ) :   0.9449
B(  2-C ,  9-H ) :   0.9430 B(  3-C ,  4-O ) :   0.8379 B(  3-C , 10-H ) :   0.9348
B(  3-C , 11-H ) :   0.9397 B( 12-C , 13-H ) :   0.9226 B( 12-C , 14-H ) :   0.9309
B( 12-C , 15-O ) :   0.8517 B( 12-C , 16-C ) :   0.8772 B( 16-C , 17-C ) :   0.9076
B( 16-C , 20-O ) :   0.8243 B( 16-C , 21-H ) :   0.9231 B( 17-C , 18-C ) :   0.9143
B( 17-C , 22-O ) :   0.8828 B( 17-C , 23-H ) :   0.9170 B( 18-C , 19-C ) :   0.9424
B( 18-C , 24-H ) :   0.9362 B( 18-C , 25-H ) :   0.9311 B( 19-C , 20-O ) :   0.8377
B( 19-C , 26-H ) :   0.9342 B( 19-C , 27-H ) :   0.9375 B( 22-O , 28-H ) :   0.7927

FINAL SINGLE POINT ENERGY      -652.851619100006

DIPOLE MOMENT
-------------
                                X             Y             Z
Electronic contribution:     -2.04777      -0.73377      -1.24608
Nuclear contribution   :      2.20435       0.71190       0.95016
                        -----------------------------------------
Total Dipole Moment    :      0.15658      -0.02187      -0.29592
                        -----------------------------------------
Magnitude (a.u.)       :      0.33551
Magnitude (Debye)      :      0.85279

Rotational constants in cm-1:     0.057129     0.013229     0.012551
Rotational constants in MHz :  1712.680701   396.580813   376.259183

                             ****ORCA TERMINATED NORMALLY****
TOTAL RUN TIME: 0 days 1 hours 4 minutes 37 seconds 793 msec
