                         Program Version 4.2.1 -  RELEASE  -
|  1> # Test redundant internal optimization
|  2> #
|  3> ! RKS B3LYP  Opt TightSCF SmallPrint
|  4>
|  5> %basis
|  6>         Basis "6-31G"
|  7> end
|  8>
|  9> %geom
| 10> Constraints
| 11> { D 4  0  19  14  285.0   C } # D for Dihedral angle
| 12> { D 0  19  14  12  300.0   C } # D for Dihedral angle
| 13> { D 0  4  3  2   C } # D for Dihedral angle
| 14> { D 4  3  2  1   C } # D for Dihedral angle
| 15> { D 3  2  1  0   C } # D for Dihedral angle
| 16> { D 2  1  0  4   C } # D for Dihedral angle
| 17> { D 1  0  4  3   C } # D for Dihedral angle
| 18> { D 14  15  16  17   C } # D for Dihedral angle
| 19> { D 15  16  17  12   C } # D for Dihedral angle
| 20> { D 16  17  12  14   C } # D for Dihedral angle
| 21> { D 17  12  14  15   C } # D for Dihedral angle
| 22> { D 12  14  15  16   C } # D for Dihedral angle
| 23> end
| 24> end
| 25>
| 26>
| 27> #%pal
| 28> #nprocs 8
| 29> #end
| 30>
| 31> * xyz 0 1
| 32> C  -21.048   26.222   46.251
| 33> C  -20.361   27.558   45.944
| 34> C  -20.329   28.222   47.341
| 35> C  -20.110   27.022   48.296
| 36> O  -20.473   25.807   47.535
| 37> H  -20.833   25.428   45.533
| 38> H  -19.344   27.382   45.576
| 39> H  -20.898   28.157   45.201
| 40> H  -19.543   28.978   47.434
| 41> H  -21.289   28.710   47.548
| 42> H  -20.733   27.082   49.195
| 43> H  -19.064   26.913   48.597
| 44> C  -22.954   24.331   45.146
| 45> H  -23.707   23.536   45.024
| 46> C  -23.203   25.146   46.420
| 47> C  -22.622   24.214   47.508
| 48> C  -21.413   23.554   46.798
| 49> O  -21.622   23.747   45.346
| 50> H  -22.908   24.923   44.231
| 51> O  -22.472   26.381   46.366
| 52> H  -24.262   25.378   46.581
| 53> H  -22.330   24.750   48.416
| 54> H  -23.363   23.456   47.792
| 55> H  -21.335   22.482   47.009
| 56> H  -20.464   24.035   47.053
| 57> *
| 58>
| 59>                          ****END OF INPUT****
 Total Charge           Charge          ....    0
 Multiplicity           Mult            ....    1
 Number of Electrons    NEL             ....   86
FINAL SINGLE POINT ENERGY      -538.415529376789
FINAL SINGLE POINT ENERGY      -538.435002721378
FINAL SINGLE POINT ENERGY      -538.438106610113
FINAL SINGLE POINT ENERGY      -538.438754497128
FINAL SINGLE POINT ENERGY      -538.438798447106
FINAL SINGLE POINT ENERGY      -538.438812632505
                    ***********************HURRAY********************

CARTESIAN COORDINATES (ANGSTROEM)
---------------------------------
  C    -20.853297   26.308222   46.196945
  C    -20.383788   27.744910   45.955918
  C    -20.404123   28.328240   47.388486
  C    -19.978572   27.125960   48.262719
  O    -20.187457   25.916627   47.427077
  H    -20.562982   25.567094   45.450647
  H    -19.365955   27.726646   45.550251
  H    -21.037278   28.277927   45.262734
  H    -19.732015   29.183592   47.506196
  H    -21.419837   28.646385   47.639382
  H    -20.570883   27.033229   49.176989
  H    -18.916120   27.146474   48.523592
  C    -22.936810   24.251267   45.144718
  H    -23.820781   23.608280   45.022360
  C    -23.074392   25.123432   46.396433
  C    -22.694116   24.126404   47.510285
  C    -21.601670   23.247042   46.859227
  O    -21.734030   23.444973   45.385317
  H    -22.776827   24.826717   44.230700
  O    -22.291529   26.357956   46.342034
  H    -24.093563   25.499244   46.519711
  H    -22.337293   24.636819   48.406036
  H    -23.579605   23.534131   47.768848
  H    -21.728267   22.181180   47.076511
  H    -20.598808   23.571248   47.137884

 Multiplicity           Mult            ....    1
 Number of Electrons    NEL             ....   86
 Basis Dimension        Dim             ....  127

ORBITAL ENERGIES
----------------

  NO   OCC          E(Eh)            E(eV)
   0   2.0000     -19.139999      -520.8258
   1   2.0000     -19.138832      -520.7941
   2   2.0000     -19.130286      -520.5615
   3   2.0000     -10.271026      -279.4888
   4   2.0000     -10.237557      -278.5781
   5   2.0000     -10.223612      -278.1986
   6   2.0000     -10.221288      -278.1354
   7   2.0000     -10.211975      -277.8820
   8   2.0000     -10.182340      -277.0755
   9   2.0000     -10.181374      -277.0493
  10   2.0000     -10.179148      -276.9887
  11   2.0000      -1.049648       -28.5624
  12   2.0000      -1.009782       -27.4776
  13   2.0000      -0.986820       -26.8527
  14   2.0000      -0.789759       -21.4904
  15   2.0000      -0.771600       -20.9963
  16   2.0000      -0.737486       -20.0680
  17   2.0000      -0.717522       -19.5248
  18   2.0000      -0.614844       -16.7308
  19   2.0000      -0.595125       -16.1942
  20   2.0000      -0.593719       -16.1559
  21   2.0000      -0.563091       -15.3225
  22   2.0000      -0.518422       -14.1070
  23   2.0000      -0.498459       -13.5637
  24   2.0000      -0.478692       -13.0259
  25   2.0000      -0.474862       -12.9217
  26   2.0000      -0.448047       -12.1920
  27   2.0000      -0.444886       -12.1060
  28   2.0000      -0.415318       -11.3014
  29   2.0000      -0.410480       -11.1697
  30   2.0000      -0.398637       -10.8475
  31   2.0000      -0.390786       -10.6338
  32   2.0000      -0.369244       -10.0476
  33   2.0000      -0.365448        -9.9443
  34   2.0000      -0.354828        -9.6554
  35   2.0000      -0.351529        -9.5656
  36   2.0000      -0.337989        -9.1972
  37   2.0000      -0.321173        -8.7396
  38   2.0000      -0.308131        -8.3847
  39   2.0000      -0.292621        -7.9626
  40   2.0000      -0.268985        -7.3195
  41   2.0000      -0.250330        -6.8118
  42   2.0000      -0.230835        -6.2813
  43   0.0000       0.080310         2.1854
  44   0.0000       0.098513         2.6807
  45   0.0000       0.105017         2.8577
  46   0.0000       0.114597         3.1184
  47   0.0000       0.117847         3.2068

MULLIKEN ATOMIC CHARGES
-----------------------
   0 C :    0.275564
   1 C :   -0.257860
   2 C :   -0.297391
   3 C :   -0.003482
   4 O :   -0.520453
   5 H :    0.178530
   6 H :    0.145635
   7 H :    0.155512
   8 H :    0.138766
   9 H :    0.161158
  10 H :    0.142483
  11 H :    0.142891
  12 C :   -0.020903
  13 H :    0.129968
  14 C :    0.080539
  15 C :   -0.287968
  16 C :   -0.028932
  17 O :   -0.528631
  18 H :    0.156498
  19 O :   -0.527272
  20 H :    0.144697
  21 H :    0.166154
  22 H :    0.136775
  23 H :    0.134102
  24 H :    0.183622
Sum of atomic charges:   -0.0000000

LOEWDIN ATOMIC CHARGES
----------------------
   0 C :    0.166997
   1 C :   -0.213723
   2 C :   -0.215554
   3 C :   -0.029794
   4 O :   -0.330785
   5 H :    0.113328
   6 H :    0.114109
   7 H :    0.123644
   8 H :    0.112364
   9 H :    0.118703
  10 H :    0.102253
  11 H :    0.102492
  12 C :   -0.051474
  13 H :    0.096388
  14 C :    0.040838
  15 C :   -0.233765
  16 C :   -0.040050
  17 O :   -0.340343
  18 H :    0.114412
  19 O :   -0.323654
  20 H :    0.112487
  21 H :    0.129955
  22 H :    0.111850
  23 H :    0.098324
  24 H :    0.120995

  Mayer bond orders larger than 0.100000
B(  0-C ,  1-C ) :   0.9465 B(  0-C ,  4-O ) :   0.8775 B(  0-C ,  5-H ) :   0.9025
B(  0-C , 19-O ) :   0.8525 B(  1-C ,  2-C ) :   0.9556 B(  1-C ,  6-H ) :   0.9413
B(  1-C ,  7-H ) :   0.9372 B(  2-C ,  3-C ) :   0.9557 B(  2-C ,  8-H ) :   0.9456
B(  2-C ,  9-H ) :   0.9442 B(  3-C ,  4-O ) :   0.8358 B(  3-C , 10-H ) :   0.9357
B(  3-C , 11-H ) :   0.9405 B( 12-C , 13-H ) :   0.9148 B( 12-C , 14-C ) :   0.9171
B( 12-C , 17-O ) :   0.8626 B( 12-C , 18-H ) :   0.9331 B( 14-C , 15-C ) :   0.9335
B( 14-C , 19-O ) :   0.8704 B( 14-C , 20-H ) :   0.9385 B( 15-C , 16-C ) :   0.9485
B( 15-C , 21-H ) :   0.9323 B( 15-C , 22-H ) :   0.9366 B( 16-C , 17-O ) :   0.8352
B( 16-C , 23-H ) :   0.9356 B( 16-C , 24-H ) :   0.9182

FINAL SINGLE POINT ENERGY      -538.438813523288

DIPOLE MOMENT
-------------
                                X             Y             Z
Electronic contribution:     -0.28050      -1.96293      -1.93273
Nuclear contribution   :     -0.05878       2.56361       2.38874
                        -----------------------------------------
Total Dipole Moment    :     -0.33928       0.60068       0.45601
                        -----------------------------------------
Magnitude (a.u.)       :      0.82697
Magnitude (Debye)      :      2.10198

Rotational constants in cm-1:     0.074818     0.025399     0.023481
Rotational constants in MHz :  2242.997797   761.442684   703.934457

                             ****ORCA TERMINATED NORMALLY****
TOTAL RUN TIME: 0 days 0 hours 7 minutes 48 seconds 528 msec
