                         Program Version 4.2.0 -  RELEASE  -
|  1> # Test redundant internal optimization
|  2> #
|  3> ! RKS B3LYP  Opt TightSCF SmallPrint
|  4>
|  5> %basis
|  6>         Basis "6-31G"
|  7> end
|  8>
|  9> %geom
| 10> Constraints
| 11> { D 4  0  15  12  195.0   C } # D for Dihedral angle
| 12> { D 0  15  12  16  105.0   C } # D for Dihedral angle
| 13> { D 0  4  3  2   C } # D for Dihedral angle
| 14> { D 4  3  2  1   C } # D for Dihedral angle
| 15> { D 3  2  1  0   C } # D for Dihedral angle
| 16> { D 2  1  0  4   C } # D for Dihedral angle
| 17> { D 1  0  4  3   C } # D for Dihedral angle
| 18> { D 16  20  19  18   C } # D for Dihedral angle
| 19> { D 20  19  18  17   C } # D for Dihedral angle
| 20> { D 19  18  17  16   C } # D for Dihedral angle
| 21> { D 18  17  16  20   C } # D for Dihedral angle
| 22> { D 17  16  20  19   C } # D for Dihedral angle
| 23> { D 15  12  16  20   C } # D for Dihedral angle
| 24> end
| 25> end
| 26>
| 27>
| 28> #%pal
| 29> #nprocs 8
| 30> #end
| 31>
| 32> * xyz 0 1
| 33> C  -21.048   26.222   46.251
| 34> C  -20.361   27.558   45.944
| 35> C  -20.329   28.222   47.341
| 36> C  -20.110   27.022   48.296
| 37> O  -20.473   25.807   47.535
| 38> H  -20.833   25.428   45.533
| 39> H  -19.344   27.382   45.576
| 40> H  -20.898   28.157   45.201
| 41> H  -19.543   28.978   47.434
| 42> H  -21.289   28.710   47.548
| 43> H  -20.733   27.082   49.195
| 44> H  -19.064   26.913   48.597
| 45> C  -23.353   26.472   45.026
| 46> H  -24.076   27.296   45.068
| 47> H  -22.657   26.668   44.200
| 48> O  -22.586   26.394   46.375
| 49> C  -24.122   25.163   44.696
| 50> C  -24.770   25.233   43.309
| 51> C  -23.565   24.940   42.385
| 52> C  -22.734   23.920   43.203
| 53> O  -23.193   24.032   44.604
| 54> H  -24.817   24.942   45.509
| 55> O  -25.851   24.127   43.169
| 56> H  -25.239   26.202   43.102
| 57> H  -23.864   24.546   41.408
| 58> H  -22.989   25.857   42.214
| 59> H  -21.659   24.125   43.161
| 60> H  -22.911   22.888   42.887
| 61> H  -25.403   23.147   43.372
| 62> *
| 63>
| 64>                          ****END OF INPUT****
 Total Charge           Charge          ....    0
 Multiplicity           Mult            ....    1
 Number of Electrons    NEL             ....  102
FINAL SINGLE POINT ENERGY      -652.831371191868
FINAL SINGLE POINT ENERGY      -652.854462213026
FINAL SINGLE POINT ENERGY      -652.858214875279
FINAL SINGLE POINT ENERGY      -652.858913331021
FINAL SINGLE POINT ENERGY      -652.859001748276
FINAL SINGLE POINT ENERGY      -652.859011996241
                    ***********************HURRAY********************

CARTESIAN COORDINATES (ANGSTROEM)
---------------------------------
  C    -21.051655   26.235386   46.151122
  C    -20.355532   27.579109   45.947600
  C    -20.422124   28.194400   47.366819
  C    -20.263437   26.962176   48.281305
  O    -20.574411   25.786711   47.425345
  H    -20.823394   25.455109   45.421464
  H    -19.315889   27.405941   45.644155
  H    -20.834359   28.205324   45.188810
  H    -19.644928   28.945483   47.536391
  H    -21.398789   28.663340   47.518918
  H    -20.948803   26.964333   49.132172
  H    -19.238600   26.825536   48.639122
  C    -23.221845   26.520014   44.997575
  H    -23.945232   27.335208   45.119011
  H    -22.540437   26.788857   44.177132
  O    -22.499823   26.399456   46.251905
  C    -23.961617   25.219293   44.688717
  C    -24.734892   25.209204   43.361513
  C    -23.611882   24.872021   42.346716
  C    -22.699388   23.903646   43.139405
  O    -23.031269   24.089052   44.574271
  H    -24.615835   24.986521   45.533685
  O    -25.775271   24.194251   43.371647
  H    -25.248415   26.146289   43.139960
  H    -24.030336   24.421996   41.443518
  H    -23.074571   25.782852   42.057986
  H    -21.634115   24.106438   42.989138
  H    -22.889874   22.853497   42.897621
  H    -25.427279   23.381558   43.795977

 Multiplicity           Mult            ....    1
 Number of Electrons    NEL             ....  102
 Basis Dimension        Dim             ....  149

ORBITAL ENERGIES
----------------

  NO   OCC          E(Eh)            E(eV)
   0   2.0000     -19.145960      -520.9881
   1   2.0000     -19.141115      -520.8562
   2   2.0000     -19.135880      -520.7138
   3   2.0000     -19.135838      -520.7126
   4   2.0000     -10.273729      -279.5624
   5   2.0000     -10.245930      -278.8059
   6   2.0000     -10.235364      -278.5184
   7   2.0000     -10.234366      -278.4913
   8   2.0000     -10.233997      -278.4812
   9   2.0000     -10.221225      -278.1337
  10   2.0000     -10.193439      -277.3776
  11   2.0000     -10.185289      -277.1558
  12   2.0000     -10.184253      -277.1276
  13   2.0000      -1.049942       -28.5704
  14   2.0000      -1.037998       -28.2454
  15   2.0000      -1.009067       -27.4581
  16   2.0000      -0.989680       -26.9306
  17   2.0000      -0.788112       -21.4456
  18   2.0000      -0.783154       -21.3107
  19   2.0000      -0.768797       -20.9200
  20   2.0000      -0.729679       -19.8556
  21   2.0000      -0.677289       -18.4300
  22   2.0000      -0.607081       -16.5195
  23   2.0000      -0.600725       -16.3465
  24   2.0000      -0.592635       -16.1264
  25   2.0000      -0.579797       -15.7771
  26   2.0000      -0.528572       -14.3832
  27   2.0000      -0.506299       -13.7771
  28   2.0000      -0.499965       -13.6047
  29   2.0000      -0.489271       -13.3137
  30   2.0000      -0.476812       -12.9747
  31   2.0000      -0.458547       -12.4777
  32   2.0000      -0.449915       -12.2428
  33   2.0000      -0.447896       -12.1879
  34   2.0000      -0.423462       -11.5230
  35   2.0000      -0.410623       -11.1736
  36   2.0000      -0.398151       -10.8342
  37   2.0000      -0.396143       -10.7796
  38   2.0000      -0.376294       -10.2395
  39   2.0000      -0.371140       -10.0992
  40   2.0000      -0.366987        -9.9862
  41   2.0000      -0.354220        -9.6388
  42   2.0000      -0.350436        -9.5359
  43   2.0000      -0.335275        -9.1233
  44   2.0000      -0.310441        -8.4475
  45   2.0000      -0.309065        -8.4101
  46   2.0000      -0.301300        -8.1988
  47   2.0000      -0.274362        -7.4658
  48   2.0000      -0.265852        -7.2342
  49   2.0000      -0.253002        -6.8845
  50   2.0000      -0.236176        -6.4267
  51   0.0000       0.058466         1.5909
  52   0.0000       0.081819         2.2264
  53   0.0000       0.085478         2.3260
  54   0.0000       0.099691         2.7127
  55   0.0000       0.103753         2.8233

MULLIKEN ATOMIC CHARGES
-----------------------
   0 C :    0.298087
   1 C :   -0.271896
   2 C :   -0.298255
   3 C :   -0.000490
   4 O :   -0.500133
   5 H :    0.155431
   6 H :    0.143647
   7 H :    0.138292
   8 H :    0.140361
   9 H :    0.158980
  10 H :    0.154479
  11 H :    0.139963
  12 C :   -0.029351
  13 H :    0.148132
  14 H :    0.118491
  15 O :   -0.500939
  16 C :    0.075880
  17 C :    0.080996
  18 C :   -0.294102
  19 C :   -0.033577
  20 O :   -0.512108
  21 H :    0.174076
  22 O :   -0.603101
  23 H :    0.150488
  24 H :    0.164124
  25 H :    0.139607
  26 H :    0.144532
  27 H :    0.150409
  28 H :    0.367977
Sum of atomic charges:    0.0000000

LOEWDIN ATOMIC CHARGES
----------------------
   0 C :    0.181047
   1 C :   -0.232464
   2 C :   -0.216988
   3 C :   -0.025253
   4 O :   -0.299580
   5 H :    0.104611
   6 H :    0.113073
   7 H :    0.111290
   8 H :    0.113393
   9 H :    0.117625
  10 H :    0.109547
  11 H :    0.101504
  12 C :   -0.045468
  13 H :    0.110749
  14 H :    0.090291
  15 O :   -0.328724
  16 C :    0.010861
  17 C :    0.034910
  18 C :   -0.240688
  19 C :   -0.040706
  20 O :   -0.323724
  21 H :    0.123413
  22 O :   -0.414126
  23 H :    0.114928
  24 H :    0.127837
  25 H :    0.110553
  26 H :    0.102069
  27 H :    0.104741
  28 H :    0.285280

  Mayer bond orders larger than 0.100000
B(  0-C ,  1-C ) :   0.9274 B(  0-C ,  4-O ) :   0.9385 B(  0-C ,  5-H ) :   0.9148
B(  0-C , 15-O ) :   0.8221 B(  1-C ,  2-C ) :   0.9517 B(  1-C ,  6-H ) :   0.9343
B(  1-C ,  7-H ) :   0.9355 B(  2-C ,  3-C ) :   0.9562 B(  2-C ,  8-H ) :   0.9452
B(  2-C ,  9-H ) :   0.9443 B(  3-C ,  4-O ) :   0.8378 B(  3-C , 10-H ) :   0.9343
B(  3-C , 11-H ) :   0.9398 B( 12-C , 13-H ) :   0.9255 B( 12-C , 14-H ) :   0.9199
B( 12-C , 15-O ) :   0.8659 B( 12-C , 16-C ) :   0.8846 B( 16-C , 17-C ) :   0.8936
B( 16-C , 20-O ) :   0.8605 B( 16-C , 21-H ) :   0.9238 B( 17-C , 18-C ) :   0.9104
B( 17-C , 22-O ) :   0.8940 B( 17-C , 23-H ) :   0.9339 B( 18-C , 19-C ) :   0.9390
B( 18-C , 24-H ) :   0.9375 B( 18-C , 25-H ) :   0.9341 B( 19-C , 20-O ) :   0.8512
B( 19-C , 26-H ) :   0.9337 B( 19-C , 27-H ) :   0.9376 B( 22-O , 28-H ) :   0.7926

FINAL SINGLE POINT ENERGY      -652.859014554254

DIPOLE MOMENT
-------------
                                X             Y             Z
Electronic contribution:     -3.35826      -4.67866       2.09116
Nuclear contribution   :      4.05081       5.74662      -3.08530
                        -----------------------------------------
Total Dipole Moment    :      0.69254       1.06797      -0.99414
                        -----------------------------------------
Magnitude (a.u.)       :      1.61508
Magnitude (Debye)      :      4.10521

Rotational constants in cm-1:     0.069088     0.011823     0.011660
Rotational constants in MHz :  2071.193119   354.434789   349.546571

                             ****ORCA TERMINATED NORMALLY****
TOTAL RUN TIME: 0 days 0 hours 24 minutes 19 seconds 595 msec
