                         Program Version 4.2.0 -  RELEASE  -
|  1> # Test redundant internal optimization
|  2> #
|  3> ! RKS B3LYP  Opt TightSCF SmallPrint
|  4>
|  5> %basis
|  6>         Basis "6-31G"
|  7> end
|  8>
|  9> %geom
| 10> Constraints
| 11> { D 4  0  15  12  30.0   C } # D for Dihedral angle
| 12> { D 0  15  12  16  150.0   C } # D for Dihedral angle
| 13> { D 0  4  3  2   C } # D for Dihedral angle
| 14> { D 4  3  2  1   C } # D for Dihedral angle
| 15> { D 3  2  1  0   C } # D for Dihedral angle
| 16> { D 2  1  0  4   C } # D for Dihedral angle
| 17> { D 1  0  4  3   C } # D for Dihedral angle
| 18> { D 16  20  19  18   C } # D for Dihedral angle
| 19> { D 20  19  18  17   C } # D for Dihedral angle
| 20> { D 19  18  17  16   C } # D for Dihedral angle
| 21> { D 18  17  16  20   C } # D for Dihedral angle
| 22> { D 17  16  20  19   C } # D for Dihedral angle
| 23> { D 15  12  16  20   C } # D for Dihedral angle
| 24> end
| 25> end
| 26>
| 27>
| 28> #%pal
| 29> #nprocs 8
| 30> #end
| 31>
| 32> * xyz 0 1
| 33> C  -21.048   26.222   46.251
| 34> C  -20.361   27.558   45.944
| 35> C  -20.329   28.222   47.341
| 36> C  -20.110   27.022   48.296
| 37> O  -20.473   25.807   47.535
| 38> H  -20.833   25.428   45.533
| 39> H  -19.344   27.382   45.576
| 40> H  -20.898   28.157   45.201
| 41> H  -19.543   28.978   47.434
| 42> H  -21.289   28.710   47.548
| 43> H  -20.733   27.082   49.195
| 44> H  -19.064   26.913   48.597
| 45> C  -23.091   26.824   47.779
| 46> H  -23.290   25.929   48.382
| 47> H  -22.329   27.423   48.295
| 48> O  -22.586   26.394   46.375
| 49> C  -24.394   27.669   47.716
| 50> C  -25.563   26.848   47.162
| 51> C  -25.979   26.019   48.400
| 52> C  -25.729   26.995   49.577
| 53> O  -24.825   28.047   49.066
| 54> H  -24.193   28.595   47.174
| 55> H  -26.377   27.515   46.852
| 56> O  -25.167   25.964   45.948
| 57> H  -27.018   25.678   48.353
| 58> H  -25.340   25.132   48.490
| 59> H  -25.259   26.504   50.436
| 60> H  -26.645   27.490   49.910
| 61> H  -24.354   25.288   46.235
| 62> *
| 63>
| 64>                          ****END OF INPUT****
 Total Charge           Charge          ....    0
 Multiplicity           Mult            ....    1
 Number of Electrons    NEL             ....  102
FINAL SINGLE POINT ENERGY      -652.822286257161
FINAL SINGLE POINT ENERGY      -652.847833747721
FINAL SINGLE POINT ENERGY      -652.856386940996
FINAL SINGLE POINT ENERGY      -652.859794821169
FINAL SINGLE POINT ENERGY      -652.861369167821
FINAL SINGLE POINT ENERGY      -652.862281046817
FINAL SINGLE POINT ENERGY      -652.862668037096
FINAL SINGLE POINT ENERGY      -652.862754641915
FINAL SINGLE POINT ENERGY      -652.862764340566
                    ***********************HURRAY********************

CARTESIAN COORDINATES (ANGSTROEM)
---------------------------------
  C    -21.163436   26.267051   46.432355
  C    -20.472173   27.542581   45.941173
  C    -20.130168   28.257178   47.276101
  C    -19.802223   27.079632   48.223220
  O    -20.389832   25.869189   47.579803
  H    -21.117113   25.442746   45.718882
  H    -19.560755   27.263289   45.401108
  H    -21.110251   28.134908   45.281483
  H    -19.285559   28.945724   47.176050
  H    -20.987526   28.837013   47.632363
  H    -20.227094   27.187125   49.224905
  H    -18.727804   26.894046   48.307774
  C    -23.108082   26.810055   48.000573
  H    -23.266691   25.912036   48.607488
  H    -22.416073   27.463431   48.534652
  O    -22.590955   26.412524   46.685882
  C    -24.416349   27.572093   47.762187
  C    -25.543851   26.745670   47.120949
  C    -26.083213   25.945357   48.342576
  C    -25.930657   26.942391   49.509479
  O    -24.961530   27.984838   49.053515
  H    -24.202919   28.484351   47.197488
  H    -26.321177   27.433553   46.769054
  O    -25.169156   25.919043   46.003567
  H    -27.116436   25.622859   48.191427
  H    -25.468810   25.049084   48.480318
  H    -25.544956   26.484498   50.425503
  H    -26.862187   27.465927   49.742299
  H    -24.187026   25.826808   45.978824

 Multiplicity           Mult            ....    1
 Number of Electrons    NEL             ....  102
 Basis Dimension        Dim             ....  149

ORBITAL ENERGIES
----------------

  NO   OCC          E(Eh)            E(eV)
   0   2.0000     -19.161112      -521.4004
   1   2.0000     -19.159231      -521.3492
   2   2.0000     -19.139773      -520.8197
   3   2.0000     -19.110591      -520.0256
   4   2.0000     -10.292958      -280.0856
   5   2.0000     -10.241265      -278.6790
   6   2.0000     -10.237911      -278.5877
   7   2.0000     -10.233490      -278.4674
   8   2.0000     -10.228555      -278.3331
   9   2.0000     -10.225529      -278.2508
  10   2.0000     -10.201567      -277.5988
  11   2.0000     -10.197212      -277.4802
  12   2.0000     -10.177156      -276.9345
  13   2.0000      -1.066712       -29.0267
  14   2.0000      -1.025346       -27.9011
  15   2.0000      -1.007964       -27.4281
  16   2.0000      -0.990086       -26.9416
  17   2.0000      -0.799370       -21.7520
  18   2.0000      -0.778483       -21.1836
  19   2.0000      -0.767284       -20.8788
  20   2.0000      -0.738320       -20.0907
  21   2.0000      -0.680471       -18.5166
  22   2.0000      -0.614043       -16.7090
  23   2.0000      -0.601554       -16.3691
  24   2.0000      -0.594488       -16.1768
  25   2.0000      -0.577462       -15.7135
  26   2.0000      -0.536314       -14.5938
  27   2.0000      -0.511856       -13.9283
  28   2.0000      -0.509723       -13.8703
  29   2.0000      -0.488011       -13.2795
  30   2.0000      -0.476389       -12.9632
  31   2.0000      -0.459147       -12.4940
  32   2.0000      -0.443614       -12.0714
  33   2.0000      -0.431841       -11.7510
  34   2.0000      -0.425683       -11.5834
  35   2.0000      -0.425470       -11.5776
  36   2.0000      -0.408793       -11.1238
  37   2.0000      -0.387912       -10.5556
  38   2.0000      -0.387450       -10.5430
  39   2.0000      -0.370725       -10.0879
  40   2.0000      -0.367106        -9.9894
  41   2.0000      -0.358105        -9.7445
  42   2.0000      -0.356391        -9.6979
  43   2.0000      -0.341018        -9.2796
  44   2.0000      -0.331291        -9.0149
  45   2.0000      -0.320337        -8.7168
  46   2.0000      -0.289205        -7.8697
  47   2.0000      -0.273082        -7.4309
  48   2.0000      -0.267475        -7.2784
  49   2.0000      -0.248744        -6.7687
  50   2.0000      -0.239403        -6.5145
  51   0.0000       0.056679         1.5423
  52   0.0000       0.069870         1.9013
  53   0.0000       0.090012         2.4493
  54   0.0000       0.097053         2.6409
  55   0.0000       0.100896         2.7455

MULLIKEN ATOMIC CHARGES
-----------------------
   0 C :    0.309763
   1 C :   -0.262528
   2 C :   -0.318416
   3 C :   -0.023573
   4 O :   -0.504332
   5 H :    0.168273
   6 H :    0.154627
   7 H :    0.159989
   8 H :    0.153546
   9 H :    0.158171
  10 H :    0.153585
  11 H :    0.156669
  12 C :   -0.015628
  13 H :    0.156411
  14 H :    0.154662
  15 O :   -0.574673
  16 C :    0.056746
  17 C :    0.119744
  18 C :   -0.301297
  19 C :   -0.018144
  20 O :   -0.524897
  21 H :    0.153206
  22 H :    0.146695
  23 O :   -0.639144
  24 H :    0.150417
  25 H :    0.147209
  26 H :    0.140158
  27 H :    0.148533
  28 H :    0.394228
Sum of atomic charges:   -0.0000000

LOEWDIN ATOMIC CHARGES
----------------------
   0 C :    0.183558
   1 C :   -0.223979
   2 C :   -0.222906
   3 C :   -0.035018
   4 O :   -0.314048
   5 H :    0.113675
   6 H :    0.120028
   7 H :    0.124832
   8 H :    0.120491
   9 H :    0.113695
  10 H :    0.105924
  11 H :    0.109888
  12 C :   -0.041463
  13 H :    0.107169
  14 H :    0.109584
  15 O :   -0.344903
  16 C :    0.016996
  17 C :    0.041883
  18 C :   -0.237009
  19 C :   -0.031674
  20 O :   -0.327001
  21 H :    0.111748
  22 H :    0.104784
  23 O :   -0.434249
  24 H :    0.121289
  25 H :    0.112124
  26 H :    0.101281
  27 H :    0.105694
  28 H :    0.287606

  Mayer bond orders larger than 0.100000
B(  0-C ,  1-C ) :   0.9239 B(  0-C ,  4-O ) :   0.9283 B(  0-C ,  5-H ) :   0.9341
B(  0-C , 15-O ) :   0.8199 B(  1-C ,  2-C ) :   0.9519 B(  1-C ,  6-H ) :   0.9336
B(  1-C ,  7-H ) :   0.9358 B(  2-C ,  3-C ) :   0.9493 B(  2-C ,  8-H ) :   0.9435
B(  2-C ,  9-H ) :   0.9408 B(  3-C ,  4-O ) :   0.8294 B(  3-C , 10-H ) :   0.9300
B(  3-C , 11-H ) :   0.9379 B( 12-C , 13-H ) :   0.9262 B( 12-C , 14-H ) :   0.9143
B( 12-C , 15-O ) :   0.7709 B( 12-C , 16-C ) :   0.8986 B( 16-C , 17-C ) :   0.9141
B( 16-C , 20-O ) :   0.8541 B( 16-C , 21-H ) :   0.9293 B( 17-C , 18-C ) :   0.9002
B( 17-C , 22-H ) :   0.9305 B( 17-C , 23-O ) :   0.9375 B( 18-C , 19-C ) :   0.9396
B( 18-C , 24-H ) :   0.9447 B( 18-C , 25-H ) :   0.9430 B( 19-C , 20-O ) :   0.8303
B( 19-C , 26-H ) :   0.9350 B( 19-C , 27-H ) :   0.9387 B( 23-O , 28-H ) :   0.7230

FINAL SINGLE POINT ENERGY      -652.862766344664

DIPOLE MOMENT
-------------
                                X             Y             Z
Electronic contribution:     -1.38240      -1.92458      -1.70512
Nuclear contribution   :      2.44079       2.52517       2.08051
                        -----------------------------------------
Total Dipole Moment    :      1.05839       0.60059       0.37539
                        -----------------------------------------
Magnitude (a.u.)       :      1.27350
Magnitude (Debye)      :      3.23698

Rotational constants in cm-1:     0.052106     0.014486     0.013056
Rotational constants in MHz :  1562.112713   434.286151   391.421086

                             ****ORCA TERMINATED NORMALLY****
TOTAL RUN TIME: 0 days 0 hours 40 minutes 18 seconds 937 msec
