                         Program Version 4.2.0 -  RELEASE  -
|  1> # Test redundant internal optimization
|  2> #
|  3> ! RKS B3LYP  Opt TightSCF SmallPrint
|  4>
|  5> %basis
|  6>         Basis "6-31G"
|  7> end
|  8>
|  9> %geom
| 10> Constraints
| 11> { D 4  0  15  12  240.0   C } # D for Dihedral angle
| 12> { D 0  15  12  16  240.0   C } # D for Dihedral angle
| 13> { D 0  4  3  2   C } # D for Dihedral angle
| 14> { D 4  3  2  1   C } # D for Dihedral angle
| 15> { D 3  2  1  0   C } # D for Dihedral angle
| 16> { D 2  1  0  4   C } # D for Dihedral angle
| 17> { D 1  0  4  3   C } # D for Dihedral angle
| 18> { D 16  20  19  18   C } # D for Dihedral angle
| 19> { D 20  19  18  17   C } # D for Dihedral angle
| 20> { D 19  18  17  16   C } # D for Dihedral angle
| 21> { D 18  17  16  20   C } # D for Dihedral angle
| 22> { D 17  16  20  19   C } # D for Dihedral angle
| 23> { D 15  12  16  20   C } # D for Dihedral angle
| 24> end
| 25> end
| 26>
| 27>
| 28> #%pal
| 29> #nprocs 8
| 30> #end
| 31>
| 32> * xyz 0 1
| 33> C  -21.048   26.222   46.251
| 34> C  -20.361   27.558   45.944
| 35> C  -20.329   28.222   47.341
| 36> C  -20.110   27.022   48.296
| 37> O  -20.473   25.807   47.535
| 38> H  -20.833   25.428   45.533
| 39> H  -19.344   27.382   45.576
| 40> H  -20.898   28.157   45.201
| 41> H  -19.543   28.978   47.434
| 42> H  -21.289   28.710   47.548
| 43> H  -20.733   27.082   49.195
| 44> H  -19.064   26.913   48.597
| 45> C  -23.430   25.483   45.442
| 46> H  -22.757   24.852   44.848
| 47> H  -24.082   24.827   46.033
| 48> O  -22.586   26.394   46.375
| 49> C  -24.330   26.291   44.467
| 50> C  -23.489   27.112   43.484
| 51> C  -23.073   26.036   42.452
| 52> C  -24.313   25.109   42.393
| 53> O  -25.103   25.383   43.612
| 54> H  -25.049   26.875   45.045
| 55> O  -24.368   28.203   42.814
| 56> H  -22.631   27.603   43.956
| 57> H  -22.822   26.460   41.475
| 58> H  -22.197   25.486   42.815
| 59> H  -24.043   24.048   42.372
| 60> H  -24.956   25.326   41.536
| 61> H  -25.235   27.735   42.333
| 62> *
| 63>
| 64>                          ****END OF INPUT****
 Total Charge           Charge          ....    0
 Multiplicity           Mult            ....    1
 Number of Electrons    NEL             ....  102
FINAL SINGLE POINT ENERGY      -652.835052489851
FINAL SINGLE POINT ENERGY      -652.856923602140
FINAL SINGLE POINT ENERGY      -652.860605646291
FINAL SINGLE POINT ENERGY      -652.861238209777
FINAL SINGLE POINT ENERGY      -652.861315060910
FINAL SINGLE POINT ENERGY      -652.861326516226
                    ***********************HURRAY********************

CARTESIAN COORDINATES (ANGSTROEM)
---------------------------------
  C    -21.046881   26.163062   46.215568
  C    -20.388315   27.508125   45.907526
  C    -20.441208   28.215555   47.285352
  C    -20.232262   27.048223   48.275062
  O    -20.529154   25.811561   47.511712
  H    -20.794105   25.344950   45.533750
  H    -19.349510   27.338128   45.599392
  H    -20.899922   28.065584   45.121302
  H    -19.679996   28.994325   47.389078
  H    -21.426547   28.669813   47.425438
  H    -20.899251   27.093390   49.139466
  H    -19.197193   26.963632   48.619556
  C    -23.338336   25.478748   45.460447
  H    -22.727832   24.756407   44.899610
  H    -24.004666   24.913299   46.118984
  O    -22.487865   26.325962   46.283277
  C    -24.191512   26.311565   44.497427
  C    -23.424973   27.132747   43.451357
  C    -23.078707   26.051245   42.393882
  C    -24.316535   25.119501   42.428028
  O    -25.019990   25.397158   43.703494
  H    -24.869320   26.952935   45.067163
  O    -24.269763   28.177998   42.894287
  H    -22.556593   27.648301   43.854274
  H    -22.914408   26.506138   41.414346
  H    -22.167335   25.513660   42.679598
  H    -24.051443   24.058482   42.391394
  H    -25.021971   25.331273   41.618649
  H    -25.163405   27.812231   42.723579

 Multiplicity           Mult            ....    1
 Number of Electrons    NEL             ....  102
 Basis Dimension        Dim             ....  149

ORBITAL ENERGIES
----------------

  NO   OCC          E(Eh)            E(eV)
   0   2.0000     -19.149050      -521.0722
   1   2.0000     -19.144437      -520.9466
   2   2.0000     -19.140178      -520.8307
   3   2.0000     -19.139488      -520.8120
   4   2.0000     -10.283941      -279.8403
   5   2.0000     -10.242433      -278.7108
   6   2.0000     -10.235997      -278.5357
   7   2.0000     -10.235103      -278.5113
   8   2.0000     -10.233982      -278.4808
   9   2.0000     -10.224465      -278.2218
  10   2.0000     -10.193385      -277.3761
  11   2.0000     -10.187945      -277.2281
  12   2.0000     -10.185925      -277.1731
  13   2.0000      -1.053846       -28.6766
  14   2.0000      -1.040414       -28.3111
  15   2.0000      -1.008974       -27.4556
  16   2.0000      -0.996354       -27.1122
  17   2.0000      -0.788750       -21.4630
  18   2.0000      -0.782898       -21.3037
  19   2.0000      -0.770113       -20.9559
  20   2.0000      -0.733549       -19.9609
  21   2.0000      -0.677488       -18.4354
  22   2.0000      -0.608554       -16.5596
  23   2.0000      -0.599376       -16.3098
  24   2.0000      -0.595750       -16.2112
  25   2.0000      -0.587764       -15.9939
  26   2.0000      -0.525260       -14.2931
  27   2.0000      -0.521416       -14.1885
  28   2.0000      -0.498157       -13.5555
  29   2.0000      -0.491931       -13.3861
  30   2.0000      -0.473933       -12.8964
  31   2.0000      -0.459142       -12.4939
  32   2.0000      -0.452053       -12.3010
  33   2.0000      -0.441354       -12.0098
  34   2.0000      -0.426249       -11.5988
  35   2.0000      -0.417867       -11.3707
  36   2.0000      -0.405395       -11.0313
  37   2.0000      -0.395872       -10.7722
  38   2.0000      -0.378200       -10.2913
  39   2.0000      -0.373232       -10.1562
  40   2.0000      -0.361188        -9.8284
  41   2.0000      -0.355449        -9.6723
  42   2.0000      -0.351787        -9.5726
  43   2.0000      -0.335104        -9.1186
  44   2.0000      -0.317989        -8.6529
  45   2.0000      -0.310734        -8.4555
  46   2.0000      -0.307674        -8.3722
  47   2.0000      -0.275056        -7.4847
  48   2.0000      -0.269677        -7.3383
  49   2.0000      -0.259122        -7.0511
  50   2.0000      -0.240223        -6.5368
  51   0.0000       0.061864         1.6834
  52   0.0000       0.064156         1.7458
  53   0.0000       0.083662         2.2766
  54   0.0000       0.092899         2.5279
  55   0.0000       0.101330         2.7573

MULLIKEN ATOMIC CHARGES
-----------------------
   0 C :    0.287016
   1 C :   -0.267306
   2 C :   -0.300093
   3 C :   -0.000149
   4 O :   -0.500868
   5 H :    0.138273
   6 H :    0.144418
   7 H :    0.154355
   8 H :    0.142613
   9 H :    0.165947
  10 H :    0.153244
  11 H :    0.140814
  12 C :   -0.001730
  13 H :    0.120249
  14 H :    0.165356
  15 O :   -0.523403
  16 C :    0.060867
  17 C :    0.078405
  18 C :   -0.293534
  19 C :   -0.031737
  20 O :   -0.524628
  21 H :    0.167654
  22 O :   -0.602936
  23 H :    0.163470
  24 H :    0.163230
  25 H :    0.136877
  26 H :    0.149049
  27 H :    0.149469
  28 H :    0.365082
Sum of atomic charges:   -0.0000000

LOEWDIN ATOMIC CHARGES
----------------------
   0 C :    0.176925
   1 C :   -0.223309
   2 C :   -0.215921
   3 C :   -0.026062
   4 O :   -0.314503
   5 H :    0.096059
   6 H :    0.113349
   7 H :    0.115841
   8 H :    0.114581
   9 H :    0.121018
  10 H :    0.108771
  11 H :    0.101852
  12 C :   -0.032696
  13 H :    0.092450
  14 H :    0.116833
  15 O :   -0.334867
  16 C :    0.011228
  17 C :    0.035684
  18 C :   -0.240142
  19 C :   -0.039060
  20 O :   -0.329252
  21 H :    0.119103
  22 O :   -0.414570
  23 H :    0.117386
  24 H :    0.127319
  25 H :    0.109716
  26 H :    0.105103
  27 H :    0.104137
  28 H :    0.283027

  Mayer bond orders larger than 0.100000
B(  0-C ,  1-C ) :   0.9405 B(  0-C ,  4-O ) :   0.9343 B(  0-C ,  5-H ) :   0.9177
B(  0-C , 15-O ) :   0.8406 B(  1-C ,  2-C ) :   0.9566 B(  1-C ,  6-H ) :   0.9357
B(  1-C ,  7-H ) :   0.9264 B(  2-C ,  3-C ) :   0.9540 B(  2-C ,  8-H ) :   0.9450
B(  2-C ,  9-H ) :   0.9430 B(  3-C ,  4-O ) :   0.8361 B(  3-C , 10-H ) :   0.9347
B(  3-C , 11-H ) :   0.9398 B( 12-C , 13-H ) :   0.9230 B( 12-C , 14-H ) :   0.9269
B( 12-C , 15-O ) :   0.8378 B( 12-C , 16-C ) :   0.8920 B( 16-C , 17-C ) :   0.9104
B( 16-C , 20-O ) :   0.8372 B( 16-C , 21-H ) :   0.9258 B( 17-C , 18-C ) :   0.9121
B( 17-C , 22-O ) :   0.8935 B( 17-C , 23-H ) :   0.9172 B( 18-C , 19-C ) :   0.9408
B( 18-C , 24-H ) :   0.9380 B( 18-C , 25-H ) :   0.9357 B( 19-C , 20-O ) :   0.8446
B( 19-C , 26-H ) :   0.9346 B( 19-C , 27-H ) :   0.9375 B( 22-O , 28-H ) :   0.7939

FINAL SINGLE POINT ENERGY      -652.861328064503

DIPOLE MOMENT
-------------
                                X             Y             Z
Electronic contribution:     -3.96135      -1.53669       1.07699
Nuclear contribution   :      4.62473       1.53813      -1.72367
                        -----------------------------------------
Total Dipole Moment    :      0.66338       0.00144      -0.64667
                        -----------------------------------------
Magnitude (a.u.)       :      0.92642
Magnitude (Debye)      :      2.35478

Rotational constants in cm-1:     0.056971     0.013062     0.012071
Rotational constants in MHz :  1707.935705   391.602828   361.881083

                             ****ORCA TERMINATED NORMALLY****
TOTAL RUN TIME: 0 days 0 hours 41 minutes 44 seconds 76 msec
