                         Program Version 4.2.0 -  RELEASE  -
|  1> # Test redundant internal optimization
|  2> #
|  3> ! RKS B3LYP  Opt TightSCF SmallPrint
|  4>
|  5> %basis
|  6>         Basis "6-31G"
|  7> end
|  8>
|  9> %geom
| 10> Constraints
| 11> { D 4  0  15  12  165.0   C } # D for Dihedral angle
| 12> { D 0  15  12  16  165.0   C } # D for Dihedral angle
| 13> { D 0  4  3  2   C } # D for Dihedral angle
| 14> { D 4  3  2  1   C } # D for Dihedral angle
| 15> { D 3  2  1  0   C } # D for Dihedral angle
| 16> { D 2  1  0  4   C } # D for Dihedral angle
| 17> { D 1  0  4  3   C } # D for Dihedral angle
| 18> { D 16  20  19  18   C } # D for Dihedral angle
| 19> { D 20  19  18  17   C } # D for Dihedral angle
| 20> { D 19  18  17  16   C } # D for Dihedral angle
| 21> { D 18  17  16  20   C } # D for Dihedral angle
| 22> { D 17  16  20  19   C } # D for Dihedral angle
| 23> { D 15  12  16  20   C } # D for Dihedral angle
| 24> end
| 25> end
| 26>
| 27>
| 28> #%pal
| 29> #nprocs 8
| 30> #end
| 31>
| 32> * xyz 0 1
| 33> C  -21.048   26.222   46.251
| 34> C  -20.361   27.558   45.944
| 35> C  -20.329   28.222   47.341
| 36> C  -20.110   27.022   48.296
| 37> O  -20.473   25.807   47.535
| 38> H  -20.833   25.428   45.533
| 39> H  -19.344   27.382   45.576
| 40> H  -20.898   28.157   45.201
| 41> H  -19.543   28.978   47.434
| 42> H  -21.289   28.710   47.548
| 43> H  -20.733   27.082   49.195
| 44> H  -19.064   26.913   48.597
| 45> C  -23.260   27.170   45.210
| 46> H  -23.035   28.239   45.310
| 47> H  -22.870   26.826   44.244
| 48> O  -22.586   26.394   46.375
| 49> C  -24.804   26.996   45.187
| 50> C  -25.196   25.515   45.139
| 51> C  -25.018   25.096   46.618
| 52> C  -25.447   26.364   47.397
| 53> O  -25.394   27.487   46.436
| 54> H  -25.219   27.600   44.378
| 55> O  -26.680   25.371   44.705
| 56> H  -24.577   24.926   44.454
| 57> H  -25.615   24.219   46.887
| 58> H  -23.966   24.858   46.818
| 59> H  -24.785   26.583   48.242
| 60> H  -26.477   26.301   47.762
| 61> H  -27.320   25.952   45.378
| 62> *
| 63>
| 64>                          ****END OF INPUT****
 Total Charge           Charge          ....    0
 Multiplicity           Mult            ....    1
 Number of Electrons    NEL             ....  102
FINAL SINGLE POINT ENERGY      -652.832825483381
FINAL SINGLE POINT ENERGY      -652.855256718109
FINAL SINGLE POINT ENERGY      -652.859508537095
FINAL SINGLE POINT ENERGY      -652.860582865236
FINAL SINGLE POINT ENERGY      -652.860711063096
FINAL SINGLE POINT ENERGY      -652.860729308347
                    ***********************HURRAY********************

CARTESIAN COORDINATES (ANGSTROEM)
---------------------------------
  C    -21.089956   26.267921   46.187170
  C    -20.325557   27.560927   45.908132
  C    -20.359600   28.260824   47.290398
  C    -20.263740   27.076409   48.273391
  O    -20.634988   25.870771   47.486410
  H    -20.883619   25.444699   45.495876
  H    -19.297567   27.303213   45.628372
  H    -20.748558   28.170391   45.105839
  H    -19.540903   28.975615   47.416137
  H    -21.306313   28.795398   47.417436
  H    -20.947494   27.162218   49.121114
  H    -19.247304   26.907403   48.640009
  C    -23.199013   27.177012   45.214200
  H    -23.002528   28.253297   45.303211
  H    -22.837308   26.836903   44.230002
  O    -22.535823   26.458240   46.289205
  C    -24.709044   26.959877   45.293852
  C    -25.208806   25.511648   45.186403
  C    -25.058689   25.015248   46.649800
  C    -25.393258   26.277922   47.481612
  O    -25.258685   27.435150   46.562327
  H    -25.166355   27.569775   44.505085
  O    -26.589727   25.483745   44.725603
  H    -24.656474   24.907481   44.465851
  H    -25.740360   24.182769   46.845956
  H    -24.029297   24.703393   46.828431
  H    -24.703260   26.415648   48.317455
  H    -26.422263   26.285092   47.856107
  H    -27.117510   26.109011   45.265615

 Multiplicity           Mult            ....    1
 Number of Electrons    NEL             ....  102
 Basis Dimension        Dim             ....  149

ORBITAL ENERGIES
----------------

  NO   OCC          E(Eh)            E(eV)
   0   2.0000     -19.146197      -520.9945
   1   2.0000     -19.145246      -520.9686
   2   2.0000     -19.134921      -520.6877
   3   2.0000     -19.132045      -520.6094
   4   2.0000     -10.285806      -279.8910
   5   2.0000     -10.236605      -278.5522
   6   2.0000     -10.233732      -278.4740
   7   2.0000     -10.232949      -278.4527
   8   2.0000     -10.229347      -278.3547
   9   2.0000     -10.218168      -278.0505
  10   2.0000     -10.194039      -277.3939
  11   2.0000     -10.192123      -277.3418
  12   2.0000     -10.170640      -276.7572
  13   2.0000      -1.058927       -28.8149
  14   2.0000      -1.029989       -28.0274
  15   2.0000      -1.002802       -27.2876
  16   2.0000      -0.994149       -27.0522
  17   2.0000      -0.792084       -21.5537
  18   2.0000      -0.776543       -21.1308
  19   2.0000      -0.761043       -20.7090
  20   2.0000      -0.735149       -20.0044
  21   2.0000      -0.676250       -18.4017
  22   2.0000      -0.606954       -16.5161
  23   2.0000      -0.598443       -16.2844
  24   2.0000      -0.592874       -16.1329
  25   2.0000      -0.571305       -15.5460
  26   2.0000      -0.528086       -14.3700
  27   2.0000      -0.505182       -13.7467
  28   2.0000      -0.503711       -13.7067
  29   2.0000      -0.485404       -13.2085
  30   2.0000      -0.475707       -12.9447
  31   2.0000      -0.457833       -12.4583
  32   2.0000      -0.449461       -12.2305
  33   2.0000      -0.437572       -11.9069
  34   2.0000      -0.423752       -11.5309
  35   2.0000      -0.409266       -11.1367
  36   2.0000      -0.405549       -11.0355
  37   2.0000      -0.383274       -10.4294
  38   2.0000      -0.382963       -10.4210
  39   2.0000      -0.364844        -9.9279
  40   2.0000      -0.361716        -9.8428
  41   2.0000      -0.356373        -9.6974
  42   2.0000      -0.354232        -9.6391
  43   2.0000      -0.327543        -8.9129
  44   2.0000      -0.315768        -8.5925
  45   2.0000      -0.305534        -8.3140
  46   2.0000      -0.299581        -8.1520
  47   2.0000      -0.267346        -7.2749
  48   2.0000      -0.262106        -7.1323
  49   2.0000      -0.258416        -7.0319
  50   2.0000      -0.239105        -6.5064
  51   0.0000       0.069349         1.8871
  52   0.0000       0.077754         2.1158
  53   0.0000       0.095695         2.6040
  54   0.0000       0.101210         2.7541
  55   0.0000       0.110711         3.0126

MULLIKEN ATOMIC CHARGES
-----------------------
   0 C :    0.314012
   1 C :   -0.290549
   2 C :   -0.300735
   3 C :   -0.001081
   4 O :   -0.502096
   5 H :    0.145028
   6 H :    0.152038
   7 H :    0.145153
   8 H :    0.145548
   9 H :    0.164847
  10 H :    0.155541
  11 H :    0.144245
  12 C :    0.002163
  13 H :    0.145243
  14 H :    0.118242
  15 O :   -0.521124
  16 C :    0.065838
  17 C :    0.074104
  18 C :   -0.286830
  19 C :   -0.020193
  20 O :   -0.528324
  21 H :    0.154051
  22 O :   -0.602863
  23 H :    0.147632
  24 H :    0.145923
  25 H :    0.182852
  26 H :    0.156513
  27 H :    0.133028
  28 H :    0.361796
Sum of atomic charges:   -0.0000000

LOEWDIN ATOMIC CHARGES
----------------------
   0 C :    0.182436
   1 C :   -0.233374
   2 C :   -0.216875
   3 C :   -0.024652
   4 O :   -0.304074
   5 H :    0.098754
   6 H :    0.118694
   7 H :    0.114980
   8 H :    0.116148
   9 H :    0.119245
  10 H :    0.110215
  11 H :    0.103903
  12 C :   -0.041313
  13 H :    0.101309
  14 H :    0.091044
  15 O :   -0.335225
  16 C :    0.015226
  17 C :    0.039240
  18 C :   -0.241816
  19 C :   -0.032585
  20 O :   -0.331442
  21 H :    0.114780
  22 O :   -0.417485
  23 H :    0.114056
  24 H :    0.117027
  25 H :    0.134726
  26 H :    0.110726
  27 H :    0.094962
  28 H :    0.281370

  Mayer bond orders larger than 0.100000
B(  0-C ,  1-C ) :   0.9304 B(  0-C ,  4-O ) :   0.9413 B(  0-C ,  5-H ) :   0.9216
B(  0-C , 15-O ) :   0.8252 B(  1-C ,  2-C ) :   0.9504 B(  1-C ,  6-H ) :   0.9338
B(  1-C ,  7-H ) :   0.9287 B(  2-C ,  3-C ) :   0.9555 B(  2-C ,  8-H ) :   0.9449
B(  2-C ,  9-H ) :   0.9429 B(  3-C ,  4-O ) :   0.8321 B(  3-C , 10-H ) :   0.9344
B(  3-C , 11-H ) :   0.9397 B( 12-C , 13-H ) :   0.9112 B( 12-C , 14-H ) :   0.9086
B( 12-C , 15-O ) :   0.8435 B( 12-C , 16-C ) :   0.9043 B( 16-C , 17-C ) :   0.9075
B( 16-C , 20-O ) :   0.8774 B( 16-C , 21-H ) :   0.9221 B( 17-C , 18-C ) :   0.9244
B( 17-C , 22-O ) :   0.8906 B( 17-C , 23-H ) :   0.9363 B( 18-C , 19-C ) :   0.9476
B( 18-C , 24-H ) :   0.9378 B( 18-C , 25-H ) :   0.9158 B( 19-C , 20-O ) :   0.8346
B( 19-C , 26-H ) :   0.9338 B( 19-C , 27-H ) :   0.9378 B( 22-O , 28-H ) :   0.7965

FINAL SINGLE POINT ENERGY      -652.860730223156

DIPOLE MOMENT
-------------
                                X             Y             Z
Electronic contribution:     -3.49073      -2.10994      -0.92892
Nuclear contribution   :      4.50141       2.85515       0.82631
                        -----------------------------------------
Total Dipole Moment    :      1.01068       0.74521      -0.10261
                        -----------------------------------------
Magnitude (a.u.)       :      1.25990
Magnitude (Debye)      :      3.20240

Rotational constants in cm-1:     0.058884     0.013732     0.013298
Rotational constants in MHz :  1765.284822   411.669075   398.661667

                             ****ORCA TERMINATED NORMALLY****
TOTAL RUN TIME: 0 days 0 hours 34 minutes 34 seconds 568 msec
