                         Program Version 4.2.0 -  RELEASE  -
|  1> # Test redundant internal optimization
|  2> #
|  3> ! RKS B3LYP  Opt TightSCF SmallPrint
|  4>
|  5> %basis
|  6>         Basis "6-31G"
|  7> end
|  8>
|  9> %geom
| 10> Constraints
| 11> { D 4  0  15  12  165.0   C } # D for Dihedral angle
| 12> { D 0  15  12  16  165.0   C } # D for Dihedral angle
| 13> { D 0  4  3  2   C } # D for Dihedral angle
| 14> { D 4  3  2  1   C } # D for Dihedral angle
| 15> { D 3  2  1  0   C } # D for Dihedral angle
| 16> { D 2  1  0  4   C } # D for Dihedral angle
| 17> { D 1  0  4  3   C } # D for Dihedral angle
| 18> { D 16  20  19  18   C } # D for Dihedral angle
| 19> { D 20  19  18  17   C } # D for Dihedral angle
| 20> { D 19  18  17  16   C } # D for Dihedral angle
| 21> { D 18  17  16  20   C } # D for Dihedral angle
| 22> { D 17  16  20  19   C } # D for Dihedral angle
| 23> { D 15  12  16  20   C } # D for Dihedral angle
| 24> end
| 25> end
| 26>
| 27>
| 28> #%pal
| 29> #nprocs 8
| 30> #end
| 31>
| 32> * xyz 0 1
| 33> C  -21.048   26.222   46.251
| 34> C  -20.361   27.558   45.944
| 35> C  -20.329   28.222   47.341
| 36> C  -20.110   27.022   48.296
| 37> O  -20.473   25.807   47.535
| 38> H  -20.833   25.428   45.533
| 39> H  -19.344   27.382   45.576
| 40> H  -20.898   28.157   45.201
| 41> H  -19.543   28.978   47.434
| 42> H  -21.289   28.710   47.548
| 43> H  -20.733   27.082   49.195
| 44> H  -19.064   26.913   48.597
| 45> C  -23.260   27.170   45.210
| 46> H  -23.035   28.239   45.310
| 47> H  -22.870   26.826   44.244
| 48> O  -22.586   26.394   46.375
| 49> C  -24.804   26.996   45.187
| 50> C  -25.422   27.678   43.961
| 51> C  -25.133   26.643   42.848
| 52> C  -25.268   25.287   43.584
| 53> O  -25.158   25.581   45.029
| 54> H  -25.216   27.325   46.143
| 55> H  -26.501   27.802   44.103
| 56> O  -24.804   29.072   43.662
| 57> H  -25.822   26.728   42.000
| 58> H  -24.114   26.776   42.465
| 59> H  -24.483   24.577   43.302
| 60> H  -26.244   24.820   43.424
| 61> H  -23.723   28.973   43.515
| 62> *
| 63>
| 64>                          ****END OF INPUT****
 Total Charge           Charge          ....    0
 Multiplicity           Mult            ....    1
 Number of Electrons    NEL             ....  102
FINAL SINGLE POINT ENERGY      -652.821260786059
FINAL SINGLE POINT ENERGY      -652.845120548780
FINAL SINGLE POINT ENERGY      -652.849953557229
FINAL SINGLE POINT ENERGY      -652.850768762049
FINAL SINGLE POINT ENERGY      -652.850932440996
FINAL SINGLE POINT ENERGY      -652.850970340663
FINAL SINGLE POINT ENERGY      -652.850977368551
FINAL SINGLE POINT ENERGY      -652.850979133195
                    ***********************HURRAY********************

CARTESIAN COORDINATES (ANGSTROEM)
---------------------------------
  C    -21.050016   26.257931   46.189183
  C    -20.253303   27.543138   45.967921
  C    -20.342366   28.223085   47.358863
  C    -20.311469   27.020213   48.324313
  O    -20.662706   25.834739   47.502278
  H    -20.820537   25.441802   45.496615
  H    -19.216262   27.274697   45.734825
  H    -20.626506   28.172778   45.156016
  H    -19.520624   28.923526   47.535116
  H    -21.286621   28.769484   47.450152
  H    -21.032765   27.103819   49.140861
  H    -19.315706   26.830936   48.735948
  C    -23.084347   27.205872   45.126446
  H    -22.891066   28.283971   45.225146
  H    -22.667563   26.863718   44.163978
  O    -22.494763   26.464307   46.221017
  C    -24.592941   26.970554   45.173674
  C    -25.373488   27.666726   44.046177
  C    -25.225033   26.647329   42.877301
  C    -25.253160   25.286766   43.607074
  O    -24.955052   25.564673   45.035188
  H    -24.945175   27.269179   46.164961
  H    -26.421173   27.762041   44.338190
  O    -24.954363   29.019193   43.736991
  H    -26.020469   26.750819   42.134239
  H    -24.265148   26.810292   42.368215
  H    -24.514959   24.577856   43.219001
  H    -26.241617   24.818584   43.572556
  H    -24.128804   29.009972   43.210756

 Multiplicity           Mult            ....    1
 Number of Electrons    NEL             ....  102
 Basis Dimension        Dim             ....  149

ORBITAL ENERGIES
----------------

  NO   OCC          E(Eh)            E(eV)
   0   2.0000     -19.152642      -521.1699
   1   2.0000     -19.137888      -520.7684
   2   2.0000     -19.136310      -520.7255
   3   2.0000     -19.135864      -520.7133
   4   2.0000     -10.277934      -279.6768
   5   2.0000     -10.246513      -278.8218
   6   2.0000     -10.233095      -278.4567
   7   2.0000     -10.230367      -278.3824
   8   2.0000     -10.230322      -278.3812
   9   2.0000     -10.224002      -278.2092
  10   2.0000     -10.197612      -277.4911
  11   2.0000     -10.190141      -277.2878
  12   2.0000     -10.188917      -277.2545
  13   2.0000      -1.051833       -28.6218
  14   2.0000      -1.035062       -28.1655
  15   2.0000      -1.016132       -27.6504
  16   2.0000      -0.991196       -26.9718
  17   2.0000      -0.787579       -21.4311
  18   2.0000      -0.783854       -21.3297
  19   2.0000      -0.769157       -20.9298
  20   2.0000      -0.731145       -19.8955
  21   2.0000      -0.683313       -18.5939
  22   2.0000      -0.612894       -16.6777
  23   2.0000      -0.602802       -16.4031
  24   2.0000      -0.590088       -16.0571
  25   2.0000      -0.574628       -15.6364
  26   2.0000      -0.528763       -14.3884
  27   2.0000      -0.510113       -13.8809
  28   2.0000      -0.501926       -13.6581
  29   2.0000      -0.494450       -13.4547
  30   2.0000      -0.469474       -12.7751
  31   2.0000      -0.461156       -12.5487
  32   2.0000      -0.448187       -12.1958
  33   2.0000      -0.436764       -11.8850
  34   2.0000      -0.430451       -11.7132
  35   2.0000      -0.415042       -11.2939
  36   2.0000      -0.410020       -11.1572
  37   2.0000      -0.397099       -10.8056
  38   2.0000      -0.379867       -10.3367
  39   2.0000      -0.375527       -10.2186
  40   2.0000      -0.362244        -9.8571
  41   2.0000      -0.355962        -9.6862
  42   2.0000      -0.351549        -9.5661
  43   2.0000      -0.331925        -9.0321
  44   2.0000      -0.316118        -8.6020
  45   2.0000      -0.311136        -8.4664
  46   2.0000      -0.297771        -8.1028
  47   2.0000      -0.272599        -7.4178
  48   2.0000      -0.258211        -7.0263
  49   2.0000      -0.249990        -6.8026
  50   2.0000      -0.240136        -6.5344
  51   0.0000       0.046555         1.2668
  52   0.0000       0.071829         1.9546
  53   0.0000       0.084757         2.3064
  54   0.0000       0.090795         2.4707
  55   0.0000       0.106316         2.8930

MULLIKEN ATOMIC CHARGES
-----------------------
   0 C :    0.314684
   1 C :   -0.291027
   2 C :   -0.299091
   3 C :    0.000278
   4 O :   -0.497688
   5 H :    0.144180
   6 H :    0.150056
   7 H :    0.137044
   8 H :    0.143493
   9 H :    0.157692
  10 H :    0.156509
  11 H :    0.141935
  12 C :   -0.017555
  13 H :    0.133691
  14 H :    0.107604
  15 O :   -0.502226
  16 C :    0.102759
  17 C :    0.079175
  18 C :   -0.324252
  19 C :   -0.013537
  20 O :   -0.499560
  21 H :    0.165182
  22 H :    0.169857
  23 O :   -0.599700
  24 H :    0.160276
  25 H :    0.128524
  26 H :    0.146585
  27 H :    0.150518
  28 H :    0.354592
Sum of atomic charges:   -0.0000000

LOEWDIN ATOMIC CHARGES
----------------------
   0 C :    0.183457
   1 C :   -0.235514
   2 C :   -0.217036
   3 C :   -0.025113
   4 O :   -0.300395
   5 H :    0.098788
   6 H :    0.117538
   7 H :    0.110726
   8 H :    0.114917
   9 H :    0.115670
  10 H :    0.110623
  11 H :    0.102636
  12 C :   -0.054073
  13 H :    0.094755
  14 H :    0.081532
  15 O :   -0.321590
  16 C :    0.024554
  17 C :    0.034543
  18 C :   -0.241980
  19 C :   -0.031068
  20 O :   -0.308655
  21 H :    0.121457
  22 H :    0.120571
  23 O :   -0.408305
  24 H :    0.123301
  25 H :    0.101589
  26 H :    0.103648
  27 H :    0.106551
  28 H :    0.276876

  Mayer bond orders larger than 0.100000
B(  0-C ,  1-C ) :   0.9262 B(  0-C ,  4-O ) :   0.9394 B(  0-C ,  5-H ) :   0.9210
B(  0-C , 15-O ) :   0.8383 B(  1-C ,  2-C ) :   0.9512 B(  1-C ,  6-H ) :   0.9341
B(  1-C ,  7-H ) :   0.9296 B(  2-C ,  3-C ) :   0.9550 B(  2-C ,  8-H ) :   0.9451
B(  2-C ,  9-H ) :   0.9446 B(  3-C ,  4-O ) :   0.8365 B(  3-C , 10-H ) :   0.9340
B(  3-C , 11-H ) :   0.9397 B( 12-C , 13-H ) :   0.8964 B( 12-C , 14-H ) :   0.9140
B( 12-C , 15-O ) :   0.8532 B( 12-C , 16-C ) :   0.9014 B( 16-C , 17-C ) :   0.8717
B( 16-C , 20-O ) :   0.8757 B( 16-C , 21-H ) :   0.9291 B( 17-C , 18-C ) :   0.9253
B( 17-C , 22-H ) :   0.9331 B( 17-C , 23-O ) :   0.8946 B( 18-C , 19-C ) :   0.9385
B( 18-C , 24-H ) :   0.9416 B( 18-C , 25-H ) :   0.9402 B( 19-C , 20-O ) :   0.8532
B( 19-C , 26-H ) :   0.9307 B( 19-C , 27-H ) :   0.9369 B( 23-O , 28-H ) :   0.7993

FINAL SINGLE POINT ENERGY      -652.850979455868

DIPOLE MOMENT
-------------
                                X             Y             Z
Electronic contribution:     -2.69074      -2.97385       2.21046
Nuclear contribution   :      3.39780       3.86981      -3.56303
                        -----------------------------------------
Total Dipole Moment    :      0.70706       0.89596      -1.35257
                        -----------------------------------------
Magnitude (a.u.)       :      1.76978
Magnitude (Debye)      :      4.49842

Rotational constants in cm-1:     0.055672     0.012680     0.011381
Rotational constants in MHz :  1668.990307   380.136332   341.206716

                             ****ORCA TERMINATED NORMALLY****
TOTAL RUN TIME: 0 days 0 hours 25 minutes 8 seconds 796 msec
