                         Program Version 4.2.0 -  RELEASE  -
|  1> # Test redundant internal optimization
|  2> #
|  3> ! RKS B3LYP  Opt TightSCF SmallPrint
|  4>
|  5> %basis
|  6>         Basis "6-31G"
|  7> end
|  8>
|  9> %geom
| 10> Constraints
| 11> { D 4  0  15  12  270.0   C } # D for Dihedral angle
| 12> { D 0  15  12  16  180.0   C } # D for Dihedral angle
| 13> { D 0  4  3  2   C } # D for Dihedral angle
| 14> { D 4  3  2  1   C } # D for Dihedral angle
| 15> { D 3  2  1  0   C } # D for Dihedral angle
| 16> { D 2  1  0  4   C } # D for Dihedral angle
| 17> { D 1  0  4  3   C } # D for Dihedral angle
| 18> { D 16  20  19  18   C } # D for Dihedral angle
| 19> { D 20  19  18  17   C } # D for Dihedral angle
| 20> { D 19  18  17  16   C } # D for Dihedral angle
| 21> { D 18  17  16  20   C } # D for Dihedral angle
| 22> { D 17  16  20  19   C } # D for Dihedral angle
| 23> { D 15  12  16  20   C } # D for Dihedral angle
| 24> end
| 25> end
| 26>
| 27>
| 28> #%pal
| 29> #nprocs 8
| 30> #end
| 31>
| 32> * xyz 0 1
| 33> C  -21.048   26.222   46.251
| 34> C  -20.361   27.558   45.944
| 35> C  -20.329   28.222   47.341
| 36> C  -20.110   27.022   48.296
| 37> O  -20.473   25.807   47.535
| 38> H  -20.833   25.428   45.533
| 39> H  -19.344   27.382   45.576
| 40> H  -20.898   28.157   45.201
| 41> H  -19.543   28.978   47.434
| 42> H  -21.289   28.710   47.548
| 43> H  -20.733   27.082   49.195
| 44> H  -19.064   26.913   48.597
| 45> C  -23.420   25.119   46.072
| 46> H  -23.215   24.787   45.047
| 47> H  -23.142   24.307   46.757
| 48> O  -22.586   26.394   46.375
| 49> C  -24.949   25.354   46.213
| 50> C  -25.456   26.357   45.170
| 51> C  -25.553   25.472   43.905
| 52> C  -25.990   24.097   44.470
| 53> O  -25.686   24.121   45.917
| 54> H  -25.176   25.622   47.246
| 55> H  -26.446   26.729   45.458
| 56> O  -24.510   27.574   44.984
| 57> H  -26.259   25.863   43.166
| 58> H  -24.570   25.397   43.423
| 59> H  -25.454   23.263   44.005
| 60> H  -27.065   23.927   44.368
| 61> H  -23.513   27.224   44.696
| 62> *
| 63>
| 64>                          ****END OF INPUT****
 Total Charge           Charge          ....    0
 Multiplicity           Mult            ....    1
 Number of Electrons    NEL             ....  102
FINAL SINGLE POINT ENERGY      -652.832525321322
FINAL SINGLE POINT ENERGY      -652.857933014897
FINAL SINGLE POINT ENERGY      -652.864434635997
FINAL SINGLE POINT ENERGY      -652.867009430817
FINAL SINGLE POINT ENERGY      -652.868495651174
FINAL SINGLE POINT ENERGY      -652.869402916696
FINAL SINGLE POINT ENERGY      -652.869796893589
FINAL SINGLE POINT ENERGY      -652.869891186754
FINAL SINGLE POINT ENERGY      -652.869904352484
                    ***********************HURRAY********************

CARTESIAN COORDINATES (ANGSTROEM)
---------------------------------
  C    -21.066354   26.117641   46.220466
  C    -20.467073   27.485232   45.896225
  C    -20.513787   28.187824   47.273371
  C    -20.237739   27.034766   48.261841
  O    -20.506166   25.782520   47.504589
  H    -20.812095   25.304228   45.535919
  H    -19.432748   27.349881   45.560274
  H    -21.021533   28.014430   45.117991
  H    -19.778191   28.993289   47.357487
  H    -21.508439   28.611922   47.439933
  H    -20.885125   27.056490   49.141553
  H    -19.192787   26.985587   48.580620
  C    -23.293191   25.046636   46.056593
  H    -23.060225   24.654508   45.057010
  H    -23.038030   24.287626   46.802970
  O    -22.510560   26.266849   46.295196
  C    -24.776394   25.409149   46.178235
  C    -25.296692   26.417576   45.139360
  C    -25.496385   25.510324   43.890742
  C    -25.957685   24.171161   44.501870
  O    -25.574642   24.208443   45.944811
  H    -24.980217   25.733901   47.202238
  H    -26.271158   26.789763   45.475959
  O    -24.453675   27.560288   44.891454
  H    -26.225937   25.933000   43.194531
  H    -24.542187   25.418755   43.361027
  H    -25.489236   23.297910   44.037943
  H    -27.043900   24.045613   44.472945
  H    -23.582848   27.412685   45.329847

 Multiplicity           Mult            ....    1
 Number of Electrons    NEL             ....  102
 Basis Dimension        Dim             ....  149

ORBITAL ENERGIES
----------------

  NO   OCC          E(Eh)            E(eV)
   0   2.0000     -19.166518      -521.5475
   1   2.0000     -19.148924      -521.0687
   2   2.0000     -19.140831      -520.8485
   3   2.0000     -19.114420      -520.1298
   4   2.0000     -10.292162      -280.0640
   5   2.0000     -10.238377      -278.6004
   6   2.0000     -10.234945      -278.5070
   7   2.0000     -10.231884      -278.4237
   8   2.0000     -10.230914      -278.3973
   9   2.0000     -10.227096      -278.2934
  10   2.0000     -10.195220      -277.4260
  11   2.0000     -10.192501      -277.3520
  12   2.0000     -10.180099      -277.0146
  13   2.0000      -1.067066       -29.0363
  14   2.0000      -1.026373       -27.9290
  15   2.0000      -1.008468       -27.4418
  16   2.0000      -0.993612       -27.0376
  17   2.0000      -0.797171       -21.6921
  18   2.0000      -0.773499       -21.0480
  19   2.0000      -0.768484       -20.9115
  20   2.0000      -0.735670       -20.0186
  21   2.0000      -0.678802       -18.4711
  22   2.0000      -0.607262       -16.5244
  23   2.0000      -0.602353       -16.3909
  24   2.0000      -0.593707       -16.1556
  25   2.0000      -0.582357       -15.8467
  26   2.0000      -0.529170       -14.3994
  27   2.0000      -0.523150       -14.2356
  28   2.0000      -0.501279       -13.6405
  29   2.0000      -0.486510       -13.2386
  30   2.0000      -0.473724       -12.8907
  31   2.0000      -0.462462       -12.5842
  32   2.0000      -0.441001       -12.0002
  33   2.0000      -0.431450       -11.7403
  34   2.0000      -0.427045       -11.6205
  35   2.0000      -0.425437       -11.5767
  36   2.0000      -0.407713       -11.0944
  37   2.0000      -0.388460       -10.5705
  38   2.0000      -0.382828       -10.4173
  39   2.0000      -0.369727       -10.0608
  40   2.0000      -0.364797        -9.9266
  41   2.0000      -0.357619        -9.7313
  42   2.0000      -0.349811        -9.5188
  43   2.0000      -0.344608        -9.3773
  44   2.0000      -0.326668        -8.8891
  45   2.0000      -0.317122        -8.6293
  46   2.0000      -0.294868        -8.0238
  47   2.0000      -0.278312        -7.5732
  48   2.0000      -0.262774        -7.1504
  49   2.0000      -0.249547        -6.7905
  50   2.0000      -0.243807        -6.6343
  51   0.0000       0.055569         1.5121
  52   0.0000       0.081427         2.2157
  53   0.0000       0.089330         2.4308
  54   0.0000       0.095817         2.6073
  55   0.0000       0.105322         2.8659

MULLIKEN ATOMIC CHARGES
-----------------------
   0 C :    0.295019
   1 C :   -0.269613
   2 C :   -0.301356
   3 C :   -0.003390
   4 O :   -0.503759
   5 H :    0.150308
   6 H :    0.152892
   7 H :    0.157254
   8 H :    0.147203
   9 H :    0.165835
  10 H :    0.154390
  11 H :    0.146625
  12 C :   -0.011314
  13 H :    0.133939
  14 H :    0.176105
  15 O :   -0.556991
  16 C :    0.048095
  17 C :    0.121674
  18 C :   -0.305559
  19 C :   -0.019067
  20 O :   -0.521410
  21 H :    0.161902
  22 H :    0.145398
  23 O :   -0.646621
  24 H :    0.153721
  25 H :    0.143658
  26 H :    0.140566
  27 H :    0.150858
  28 H :    0.393640
Sum of atomic charges:   -0.0000000

LOEWDIN ATOMIC CHARGES
----------------------
   0 C :    0.175888
   1 C :   -0.217598
   2 C :   -0.215918
   3 C :   -0.026145
   4 O :   -0.319928
   5 H :    0.103258
   6 H :    0.118191
   7 H :    0.122676
   8 H :    0.116905
   9 H :    0.120368
  10 H :    0.109528
  11 H :    0.105184
  12 C :   -0.043290
  13 H :    0.095165
  14 H :    0.119491
  15 O :   -0.338500
  16 C :    0.019350
  17 C :    0.042579
  18 C :   -0.237230
  19 C :   -0.032211
  20 O :   -0.322795
  21 H :    0.116962
  22 H :    0.104406
  23 O :   -0.439146
  24 H :    0.121739
  25 H :    0.110183
  26 H :    0.101411
  27 H :    0.106776
  28 H :    0.282703

  Mayer bond orders larger than 0.100000
B(  0-C ,  1-C ) :   0.9477 B(  0-C ,  4-O ) :   0.9350 B(  0-C ,  5-H ) :   0.9201
B(  0-C , 15-O ) :   0.8133 B(  1-C ,  2-C ) :   0.9547 B(  1-C ,  6-H ) :   0.9386
B(  1-C ,  7-H ) :   0.9350 B(  2-C ,  3-C ) :   0.9537 B(  2-C ,  8-H ) :   0.9447
B(  2-C ,  9-H ) :   0.9438 B(  3-C ,  4-O ) :   0.8304 B(  3-C , 10-H ) :   0.9350
B(  3-C , 11-H ) :   0.9398 B( 12-C , 13-H ) :   0.9203 B( 12-C , 14-H ) :   0.9199
B( 12-C , 15-O ) :   0.7830 B( 12-C , 16-C ) :   0.9118 B( 16-C , 17-C ) :   0.9129
B( 16-C , 20-O ) :   0.8559 B( 16-C , 21-H ) :   0.9290 B( 17-C , 18-C ) :   0.9025
B( 17-C , 22-H ) :   0.9295 B( 17-C , 23-O ) :   0.9325 B( 18-C , 19-C ) :   0.9389
B( 18-C , 24-H ) :   0.9446 B( 18-C , 25-H ) :   0.9433 B( 19-C , 20-O ) :   0.8331
B( 19-C , 26-H ) :   0.9345 B( 19-C , 27-H ) :   0.9384 B( 23-O , 28-H ) :   0.7177

FINAL SINGLE POINT ENERGY      -652.869905972329

DIPOLE MOMENT
-------------
                                X             Y             Z
Electronic contribution:     -1.56259      -2.08816       1.91140
Nuclear contribution   :      2.39798       2.23815      -2.24575
                        -----------------------------------------
Total Dipole Moment    :      0.83539       0.14999      -0.33434
                        -----------------------------------------
Magnitude (a.u.)       :      0.91223
Magnitude (Debye)      :      2.31870

Rotational constants in cm-1:     0.060504     0.013176     0.011980
Rotational constants in MHz :  1813.879266   395.016642   359.155053

                             ****ORCA TERMINATED NORMALLY****
TOTAL RUN TIME: 0 days 0 hours 29 minutes 53 seconds 818 msec
