                         Program Version 4.2.0 -  RELEASE  -
|  1> # Test redundant internal optimization
|  2> #
|  3> ! RKS B3LYP  Opt TightSCF SmallPrint
|  4>
|  5> %basis
|  6>         Basis "6-31G"
|  7> end
|  8>
|  9> %geom
| 10> Constraints
| 11> { D 4  0  15  12  120.0   C } # D for Dihedral angle
| 12> { D 0  15  12  16  240.0   C } # D for Dihedral angle
| 13> { D 0  4  3  2   C } # D for Dihedral angle
| 14> { D 4  3  2  1   C } # D for Dihedral angle
| 15> { D 3  2  1  0   C } # D for Dihedral angle
| 16> { D 2  1  0  4   C } # D for Dihedral angle
| 17> { D 1  0  4  3   C } # D for Dihedral angle
| 18> { D 16  20  19  18   C } # D for Dihedral angle
| 19> { D 20  19  18  17   C } # D for Dihedral angle
| 20> { D 19  18  17  16   C } # D for Dihedral angle
| 21> { D 18  17  16  20   C } # D for Dihedral angle
| 22> { D 17  16  20  19   C } # D for Dihedral angle
| 23> { D 15  12  16  20   C } # D for Dihedral angle
| 24> end
| 25> end
| 26>
| 27>
| 28> #%pal
| 29> #nprocs 8
| 30> #end
| 31>
| 32> * xyz 0 1
| 33> C  -21.048   26.222   46.251
| 34> C  -20.361   27.558   45.944
| 35> C  -20.329   28.222   47.341
| 36> C  -20.110   27.022   48.296
| 37> O  -20.473   25.807   47.535
| 38> H  -20.833   25.428   45.533
| 39> H  -19.344   27.382   45.576
| 40> H  -20.898   28.157   45.201
| 41> H  -19.543   28.978   47.434
| 42> H  -21.289   28.710   47.548
| 43> H  -20.733   27.082   49.195
| 44> H  -19.064   26.913   48.597
| 45> C  -23.119   27.818   46.058
| 46> H  -22.278   28.467   45.784
| 47> H  -23.817   27.787   45.211
| 48> O  -22.586   26.394   46.375
| 49> C  -23.862   28.463   47.260
| 50> C  -25.001   27.565   47.757
| 51> C  -24.231   26.518   48.597
| 52> C  -23.078   27.345   49.219
| 53> O  -22.965   28.581   48.414
| 54> H  -24.170   29.474   46.990
| 55> H  -25.685   28.141   48.391
| 56> O  -25.822   26.925   46.605
| 57> H  -24.857   26.038   49.356
| 58> H  -23.833   25.731   47.945
| 59> H  -22.121   26.813   49.197
| 60> H  -23.290   27.649   50.248
| 61> H  -25.157   26.343   45.957
| 62> *
| 63>
| 64>                          ****END OF INPUT****
 Total Charge           Charge          ....    0
 Multiplicity           Mult            ....    1
 Number of Electrons    NEL             ....  102
FINAL SINGLE POINT ENERGY      -652.801802291315
FINAL SINGLE POINT ENERGY      -652.836117020706
FINAL SINGLE POINT ENERGY      -652.852801577050
FINAL SINGLE POINT ENERGY      -652.856562976226
FINAL SINGLE POINT ENERGY      -652.857216214033
FINAL SINGLE POINT ENERGY      -652.857343850525
FINAL SINGLE POINT ENERGY      -652.857358190046
FINAL SINGLE POINT ENERGY      -652.857366259607
                    ***********************HURRAY********************

CARTESIAN COORDINATES (ANGSTROEM)
---------------------------------
  C    -21.069815   26.392758   46.230767
  C    -20.169419   27.580615   45.873502
  C    -19.955062   28.251549   47.258753
  C    -19.913141   27.042468   48.219417
  O    -20.529105   25.909221   47.475372
  H    -20.964503   25.552472   45.540182
  H    -19.226470   27.174845   45.492493
  H    -20.574208   28.252411   45.112796
  H    -19.034540   28.841724   47.296124
  H    -20.797877   28.900376   47.514398
  H    -20.465576   27.216523   49.143378
  H    -18.893744   26.728888   48.462868
  C    -23.153143   27.889430   46.071829
  H    -22.419174   28.656434   45.812159
  H    -23.841463   27.775370   45.225704
  O    -22.511367   26.599799   46.296789
  C    -23.952787   28.372095   47.279448
  C    -25.120068   27.464916   47.705952
  C    -24.408982   26.462357   48.662394
  C    -23.342821   27.334568   49.350262
  O    -23.176388   28.553237   48.500291
  H    -24.326436   29.369921   47.013556
  H    -25.875456   28.051824   48.232577
  O    -25.824275   26.843655   46.604452
  H    -25.103514   26.003802   49.372236
  H    -23.931475   25.681943   48.064395
  H    -22.385656   26.820510   49.431114
  H    -23.655891   27.688625   50.336914
  H    -25.274642   26.120664   46.234878

 Multiplicity           Mult            ....    1
 Number of Electrons    NEL             ....  102
 Basis Dimension        Dim             ....  149

ORBITAL ENERGIES
----------------

  NO   OCC          E(Eh)            E(eV)
   0   2.0000     -19.147060      -521.0180
   1   2.0000     -19.143434      -520.9193
   2   2.0000     -19.140820      -520.8482
   3   2.0000     -19.138571      -520.7870
   4   2.0000     -10.283415      -279.8259
   5   2.0000     -10.235547      -278.5234
   6   2.0000     -10.233617      -278.4709
   7   2.0000     -10.230193      -278.3777
   8   2.0000     -10.225431      -278.2481
   9   2.0000     -10.222055      -278.1563
  10   2.0000     -10.195004      -277.4202
  11   2.0000     -10.186537      -277.1898
  12   2.0000     -10.177497      -276.9438
  13   2.0000      -1.051487       -28.6124
  14   2.0000      -1.027163       -27.9505
  15   2.0000      -1.009791       -27.4778
  16   2.0000      -0.995912       -27.1001
  17   2.0000      -0.788844       -21.4655
  18   2.0000      -0.774875       -21.0854
  19   2.0000      -0.767221       -20.8772
  20   2.0000      -0.735040       -20.0014
  21   2.0000      -0.682292       -18.5661
  22   2.0000      -0.604720       -16.4553
  23   2.0000      -0.602912       -16.4061
  24   2.0000      -0.597450       -16.2574
  25   2.0000      -0.561667       -15.2837
  26   2.0000      -0.529230       -14.4011
  27   2.0000      -0.507670       -13.8144
  28   2.0000      -0.497192       -13.5293
  29   2.0000      -0.496506       -13.5106
  30   2.0000      -0.464094       -12.6286
  31   2.0000      -0.460174       -12.5220
  32   2.0000      -0.444671       -12.1001
  33   2.0000      -0.434554       -11.8248
  34   2.0000      -0.420548       -11.4437
  35   2.0000      -0.416673       -11.3382
  36   2.0000      -0.403844       -10.9891
  37   2.0000      -0.395378       -10.7588
  38   2.0000      -0.385480       -10.4894
  39   2.0000      -0.366634        -9.9766
  40   2.0000      -0.360317        -9.8047
  41   2.0000      -0.352067        -9.5802
  42   2.0000      -0.350562        -9.5393
  43   2.0000      -0.324611        -8.8331
  44   2.0000      -0.318474        -8.6661
  45   2.0000      -0.309736        -8.4284
  46   2.0000      -0.296359        -8.0643
  47   2.0000      -0.276478        -7.5233
  48   2.0000      -0.262263        -7.1366
  49   2.0000      -0.258033        -7.0214
  50   2.0000      -0.239026        -6.5042
  51   0.0000       0.067530         1.8376
  52   0.0000       0.079160         2.1541
  53   0.0000       0.094368         2.5679
  54   0.0000       0.097613         2.6562
  55   0.0000       0.103990         2.8297

MULLIKEN ATOMIC CHARGES
-----------------------
   0 C :    0.327686
   1 C :   -0.309670
   2 C :   -0.316176
   3 C :   -0.008218
   4 O :   -0.504650
   5 H :    0.157598
   6 H :    0.157575
   7 H :    0.147851
   8 H :    0.141613
   9 H :    0.185316
  10 H :    0.147127
  11 H :    0.143939
  12 C :   -0.035450
  13 H :    0.142849
  14 H :    0.152875
  15 O :   -0.547706
  16 C :    0.106724
  17 C :    0.090877
  18 C :   -0.313011
  19 C :   -0.016836
  20 O :   -0.529218
  21 H :    0.142830
  22 H :    0.158672
  23 O :   -0.609214
  24 H :    0.144392
  25 H :    0.175043
  26 H :    0.159006
  27 H :    0.140347
  28 H :    0.367827
Sum of atomic charges:   -0.0000000

LOEWDIN ATOMIC CHARGES
----------------------
   0 C :    0.182816
   1 C :   -0.231953
   2 C :   -0.225748
   3 C :   -0.029132
   4 O :   -0.317389
   5 H :    0.104309
   6 H :    0.123250
   7 H :    0.115431
   8 H :    0.114674
   9 H :    0.126147
  10 H :    0.103792
  11 H :    0.102513
  12 C :   -0.048302
  13 H :    0.105014
  14 H :    0.110043
  15 O :   -0.342011
  16 C :    0.012558
  17 C :    0.038002
  18 C :   -0.240403
  19 C :   -0.026945
  20 O :   -0.328708
  21 H :    0.111287
  22 H :    0.114553
  23 O :   -0.411627
  24 H :    0.115844
  25 H :    0.126923
  26 H :    0.109067
  27 H :    0.100853
  28 H :    0.285140

  Mayer bond orders larger than 0.100000
B(  0-C ,  1-C ) :   0.9325 B(  0-C ,  4-O ) :   0.9175 B(  0-C ,  5-H ) :   0.9345
B(  0-C , 15-O ) :   0.8562 B(  1-C ,  2-C ) :   0.9511 B(  1-C ,  6-H ) :   0.9332
B(  1-C ,  7-H ) :   0.9278 B(  2-C ,  3-C ) :   0.9535 B(  2-C ,  8-H ) :   0.9448
B(  2-C ,  9-H ) :   0.9226 B(  3-C ,  4-O ) :   0.8368 B(  3-C , 10-H ) :   0.9223
B(  3-C , 11-H ) :   0.9413 B( 12-C , 13-H ) :   0.9136 B( 12-C , 14-H ) :   0.9137
B( 12-C , 15-O ) :   0.8457 B( 12-C , 16-C ) :   0.8962 B( 16-C , 17-C ) :   0.8876
B( 16-C , 20-O ) :   0.8732 B( 16-C , 21-H ) :   0.9246 B( 17-C , 18-C ) :   0.9333
B( 17-C , 22-H ) :   0.9372 B( 17-C , 23-O ) :   0.9016 B( 18-C , 19-C ) :   0.9465
B( 18-C , 24-H ) :   0.9411 B( 18-C , 25-H ) :   0.9247 B( 19-C , 20-O ) :   0.8310
B( 19-C , 26-H ) :   0.9148 B( 19-C , 27-H ) :   0.9391 B( 23-O , 28-H ) :   0.7911

FINAL SINGLE POINT ENERGY      -652.857366246695

DIPOLE MOMENT
-------------
                                X             Y             Z
Electronic contribution:     -3.19012      -1.91797      -0.98858
Nuclear contribution   :      3.99299       2.33569       0.76729
                        -----------------------------------------
Total Dipole Moment    :      0.80287       0.41772      -0.22128
                        -----------------------------------------
Magnitude (a.u.)       :      0.93170
Magnitude (Debye)      :      2.36819

Rotational constants in cm-1:     0.046707     0.018974     0.017256
Rotational constants in MHz :  1400.234420   568.835169   517.320691

                             ****ORCA TERMINATED NORMALLY****
TOTAL RUN TIME: 0 days 0 hours 29 minutes 10 seconds 864 msec
