                         Program Version 4.2.1 -  RELEASE  -
|  1> # Test redundant internal optimization
|  2> #
|  3> ! RKS B3LYP  Opt TightSCF SmallPrint
|  4>
|  5> %basis
|  6>         Basis "6-31G"
|  7> end
|  8>
|  9> %geom
| 10> Constraints
| 11> { D 4  0  19  14  285.0   C } # D for Dihedral angle
| 12> { D 0  19  14  12  15.0   C } # D for Dihedral angle
| 13> { D 0  4  3  2   C } # D for Dihedral angle
| 14> { D 4  3  2  1   C } # D for Dihedral angle
| 15> { D 3  2  1  0   C } # D for Dihedral angle
| 16> { D 2  1  0  4   C } # D for Dihedral angle
| 17> { D 1  0  4  3   C } # D for Dihedral angle
| 18> { D 14  15  16  17   C } # D for Dihedral angle
| 19> { D 15  16  17  12   C } # D for Dihedral angle
| 20> { D 16  17  12  14   C } # D for Dihedral angle
| 21> { D 17  12  14  15   C } # D for Dihedral angle
| 22> { D 12  14  15  16   C } # D for Dihedral angle
| 23> end
| 24> end
| 25>
| 26>
| 27> #%pal
| 28> #nprocs 8
| 29> #end
| 30>
| 31> * xyz 0 1
| 32> C  -21.048   26.222   46.251
| 33> C  -20.361   27.558   45.944
| 34> C  -20.329   28.222   47.341
| 35> C  -20.110   27.022   48.296
| 36> O  -20.473   25.807   47.535
| 37> H  -20.833   25.428   45.533
| 38> H  -19.344   27.382   45.576
| 39> H  -20.898   28.157   45.201
| 40> H  -19.543   28.978   47.434
| 41> H  -21.289   28.710   47.548
| 42> H  -20.733   27.082   49.195
| 43> H  -19.064   26.913   48.597
| 44> C  -22.249   23.982   46.713
| 45> H  -22.715   23.013   46.477
| 46> C  -23.203   25.146   46.420
| 47> C  -24.129   25.113   47.659
| 48> C  -23.174   24.684   48.801
| 49> O  -21.986   24.085   48.153
| 50> H  -21.285   24.049   46.207
| 51> O  -22.472   26.381   46.366
| 52> H  -23.750   25.026   45.478
| 53> H  -24.610   26.076   47.856
| 54> H  -24.921   24.366   47.518
| 55> H  -23.626   23.946   49.473
| 56> H  -22.823   25.535   49.393
| 57> *
| 58>
| 59>                          ****END OF INPUT****
 Total Charge           Charge          ....    0
 Multiplicity           Mult            ....    1
 Number of Electrons    NEL             ....   86
FINAL SINGLE POINT ENERGY      -538.401446988455
FINAL SINGLE POINT ENERGY      -538.426374649863
FINAL SINGLE POINT ENERGY      -538.428582040590
FINAL SINGLE POINT ENERGY      -538.428969157502
FINAL SINGLE POINT ENERGY      -538.429011571925
FINAL SINGLE POINT ENERGY      -538.429023070218
FINAL SINGLE POINT ENERGY      -538.429023798026
                    ***********************HURRAY********************

CARTESIAN COORDINATES (ANGSTROEM)
---------------------------------
  C    -20.850641   26.241054   46.240458
  C    -20.401514   27.672543   45.946338
  C    -20.405700   28.304435   47.358803
  C    -19.953223   27.135412   48.262302
  O    -20.164667   25.901180   47.464850
  H    -20.543228   25.494456   45.502491
  H    -19.388235   27.652221   45.528780
  H    -21.067606   28.177940   45.244404
  H    -19.741442   29.170676   47.434414
  H    -21.420670   28.621403   47.614605
  H    -20.527922   27.059966   49.188621
  H    -18.886531   27.172294   48.503357
  C    -22.415196   23.743500   46.763650
  H    -23.077395   22.917325   46.464546
  C    -23.105998   25.070736   46.456305
  C    -24.077305   25.195631   47.642306
  C    -23.291921   24.572173   48.821384
  O    -22.209966   23.764064   48.214853
  H    -21.435805   23.601827   46.306152
  O    -22.285951   26.283270   46.366248
  H    -23.650104   25.011656   45.504348
  H    -24.352756   26.239061   47.810410
  H    -24.987721   24.624720   47.427774
  H    -23.916244   23.927188   49.449759
  H    -22.810260   25.328269   49.447843

 Multiplicity           Mult            ....    1
 Number of Electrons    NEL             ....   86
 Basis Dimension        Dim             ....  127

ORBITAL ENERGIES
----------------

  NO   OCC          E(Eh)            E(eV)
   0   2.0000     -19.138975      -520.7980
   1   2.0000     -19.131516      -520.5950
   2   2.0000     -19.122832      -520.3587
   3   2.0000     -10.275146      -279.6009
   4   2.0000     -10.238453      -278.6025
   5   2.0000     -10.222326      -278.1636
   6   2.0000     -10.219162      -278.0775
   7   2.0000     -10.216642      -278.0090
   8   2.0000     -10.181696      -277.0580
   9   2.0000     -10.180854      -277.0351
  10   2.0000     -10.180631      -277.0291
  11   2.0000      -1.047091       -28.4928
  12   2.0000      -1.007283       -27.4096
  13   2.0000      -0.985452       -26.8155
  14   2.0000      -0.789848       -21.4928
  15   2.0000      -0.773136       -21.0381
  16   2.0000      -0.734364       -19.9831
  17   2.0000      -0.721005       -19.6195
  18   2.0000      -0.615579       -16.7508
  19   2.0000      -0.594568       -16.1790
  20   2.0000      -0.591539       -16.0966
  21   2.0000      -0.562947       -15.3186
  22   2.0000      -0.520247       -14.1566
  23   2.0000      -0.496418       -13.5082
  24   2.0000      -0.484710       -13.1896
  25   2.0000      -0.474066       -12.9000
  26   2.0000      -0.446557       -12.1514
  27   2.0000      -0.435212       -11.8427
  28   2.0000      -0.431222       -11.7341
  29   2.0000      -0.408620       -11.1191
  30   2.0000      -0.400118       -10.8878
  31   2.0000      -0.377020       -10.2592
  32   2.0000      -0.372345       -10.1320
  33   2.0000      -0.360728        -9.8159
  34   2.0000      -0.356813        -9.7094
  35   2.0000      -0.351057        -9.5527
  36   2.0000      -0.339644        -9.2422
  37   2.0000      -0.323721        -8.8089
  38   2.0000      -0.300328        -8.1723
  39   2.0000      -0.285490        -7.7686
  40   2.0000      -0.262629        -7.1465
  41   2.0000      -0.245940        -6.6924
  42   2.0000      -0.227359        -6.1867
  43   0.0000       0.077861         2.1187
  44   0.0000       0.096765         2.6331
  45   0.0000       0.100420         2.7326
  46   0.0000       0.115632         3.1465
  47   0.0000       0.117982         3.2104

MULLIKEN ATOMIC CHARGES
-----------------------
   0 C :    0.294102
   1 C :   -0.260674
   2 C :   -0.296397
   3 C :   -0.004216
   4 O :   -0.497311
   5 H :    0.137698
   6 H :    0.143616
   7 H :    0.153810
   8 H :    0.138012
   9 H :    0.157627
  10 H :    0.146215
  11 H :    0.142201
  12 C :   -0.019207
  13 H :    0.127309
  14 C :    0.103359
  15 C :   -0.295610
  16 C :    0.000114
  17 O :   -0.508440
  18 H :    0.163546
  19 O :   -0.539178
  20 H :    0.132965
  21 H :    0.159860
  22 H :    0.139314
  23 H :    0.133638
  24 H :    0.147648
Sum of atomic charges:    0.0000000

LOEWDIN ATOMIC CHARGES
----------------------
   0 C :    0.173686
   1 C :   -0.214039
   2 C :   -0.216192
   3 C :   -0.027624
   4 O :   -0.317669
   5 H :    0.092670
   6 H :    0.112754
   7 H :    0.122265
   8 H :    0.112047
   9 H :    0.116787
  10 H :    0.103967
  11 H :    0.102415
  12 C :   -0.047476
  13 H :    0.095759
  14 C :    0.044073
  15 C :   -0.227420
  16 C :   -0.029836
  17 O :   -0.322607
  18 H :    0.118949
  19 O :   -0.331715
  20 H :    0.099287
  21 H :    0.126579
  22 H :    0.111262
  23 H :    0.097533
  24 H :    0.104545

  Mayer bond orders larger than 0.100000
B(  0-C ,  1-C ) :   0.9452 B(  0-C ,  4-O ) :   0.9145 B(  0-C ,  5-H ) :   0.9206
B(  0-C , 19-O ) :   0.8524 B(  1-C ,  2-C ) :   0.9590 B(  1-C ,  6-H ) :   0.9410
B(  1-C ,  7-H ) :   0.9369 B(  2-C ,  3-C ) :   0.9536 B(  2-C ,  8-H ) :   0.9454
B(  2-C ,  9-H ) :   0.9450 B(  3-C ,  4-O ) :   0.8431 B(  3-C , 10-H ) :   0.9339
B(  3-C , 11-H ) :   0.9400 B( 12-C , 13-H ) :   0.9082 B( 12-C , 14-C ) :   0.9267
B( 12-C , 17-O ) :   0.8700 B( 12-C , 18-H ) :   0.9254 B( 14-C , 15-C ) :   0.9433
B( 14-C , 19-O ) :   0.8398 B( 14-C , 20-H ) :   0.9296 B( 15-C , 16-C ) :   0.9484
B( 15-C , 21-H ) :   0.9375 B( 15-C , 22-H ) :   0.9395 B( 16-C , 17-O ) :   0.8603
B( 16-C , 23-H ) :   0.9331 B( 16-C , 24-H ) :   0.9346

FINAL SINGLE POINT ENERGY      -538.429024044368

DIPOLE MOMENT
-------------
                                X             Y             Z
Electronic contribution:      0.90256      -2.96249      -0.55049
Nuclear contribution   :     -1.39059       3.62183       0.05676
                        -----------------------------------------
Total Dipole Moment    :     -0.48803       0.65934      -0.49373
                        -----------------------------------------
Magnitude (a.u.)       :      0.95743
Magnitude (Debye)      :      2.43360

Rotational constants in cm-1:     0.068945     0.025723     0.024111
Rotational constants in MHz :  2066.906328   771.165805   722.820122

                             ****ORCA TERMINATED NORMALLY****
TOTAL RUN TIME: 0 days 0 hours 8 minutes 39 seconds 284 msec
