                         Program Version 4.2.1 -  RELEASE  -
|  1> # Test redundant internal optimization
|  2> #
|  3> ! RKS B3LYP  Opt TightSCF SmallPrint
|  4>
|  5> %basis
|  6>         Basis "6-31G"
|  7> end
|  8>
|  9> %geom
| 10> Constraints
| 11> { D 4  0  19  14  285.0   C } # D for Dihedral angle
| 12> { D 0  19  14  12  255.0   C } # D for Dihedral angle
| 13> { D 0  4  3  2   C } # D for Dihedral angle
| 14> { D 4  3  2  1   C } # D for Dihedral angle
| 15> { D 3  2  1  0   C } # D for Dihedral angle
| 16> { D 2  1  0  4   C } # D for Dihedral angle
| 17> { D 1  0  4  3   C } # D for Dihedral angle
| 18> { D 14  15  16  17   C } # D for Dihedral angle
| 19> { D 15  16  17  12   C } # D for Dihedral angle
| 20> { D 16  17  12  14   C } # D for Dihedral angle
| 21> { D 17  12  14  15   C } # D for Dihedral angle
| 22> { D 12  14  15  16   C } # D for Dihedral angle
| 23> end
| 24> end
| 25>
| 26>
| 27> #%pal
| 28> #nprocs 8
| 29> #end
| 30>
| 31> * xyz 0 1
| 32> C  -21.048   26.222   46.251
| 33> C  -20.361   27.558   45.944
| 34> C  -20.329   28.222   47.341
| 35> C  -20.110   27.022   48.296
| 36> O  -20.473   25.807   47.535
| 37> H  -20.833   25.428   45.533
| 38> H  -19.344   27.382   45.576
| 39> H  -20.898   28.157   45.201
| 40> H  -19.543   28.978   47.434
| 41> H  -21.289   28.710   47.548
| 42> H  -20.733   27.082   49.195
| 43> H  -19.064   26.913   48.597
| 44> C  -23.902   24.889   45.080
| 45> H  -24.688   24.124   45.177
| 46> C  -23.203   25.146   46.420
| 47> C  -22.237   23.942   46.507
| 48> C  -21.821   23.717   45.031
| 49> O  -22.829   24.411   44.200
| 50> H  -24.325   25.779   44.612
| 51> O  -22.472   26.381   46.366
| 52> H  -23.899   25.193   47.265
| 53> H  -21.378   24.132   47.158
| 54> H  -22.764   23.062   46.897
| 55> H  -21.798   22.657   44.757
| 56> H  -20.849   24.164   44.798
| 57> *
| 58>
| 59>                          ****END OF INPUT****
 Total Charge           Charge          ....    0
 Multiplicity           Mult            ....    1
 Number of Electrons    NEL             ....   86
FINAL SINGLE POINT ENERGY      -538.413141215570
FINAL SINGLE POINT ENERGY      -538.431804410411
FINAL SINGLE POINT ENERGY      -538.434086802070
FINAL SINGLE POINT ENERGY      -538.434493001026
FINAL SINGLE POINT ENERGY      -538.434523985071
FINAL SINGLE POINT ENERGY      -538.434530979810
                    ***********************HURRAY********************

CARTESIAN COORDINATES (ANGSTROEM)
---------------------------------
  C    -20.857522   26.306259   46.199880
  C    -20.393596   27.749842   45.992167
  C    -20.428355   28.304655   47.436303
  C    -20.003386   27.086054   48.288360
  O    -20.199836   25.894478   47.426034
  H    -20.542890   25.603925   45.427659
  H    -19.371903   27.745970   45.595663
  H    -21.043553   28.292096   45.303249
  H    -19.760663   29.160132   47.575416
  H    -21.447271   28.613089   47.685940
  H    -20.602416   26.969929   49.195440
  H    -18.943003   27.106114   48.557855
  C    -23.819421   24.933702   45.025529
  H    -24.724798   24.323525   45.159240
  C    -23.092742   25.124276   46.358934
  C    -22.353292   23.780447   46.503525
  C    -21.974499   23.417122   45.046759
  O    -22.844951   24.239469   44.172543
  H    -24.073004   25.877081   44.541254
  O    -22.288937   26.349340   46.331842
  H    -23.797204   25.281889   47.182070
  H    -21.490983   23.854992   47.169915
  H    -23.052953   23.046714   46.918502
  H    -22.146705   22.358076   44.823175
  H    -20.936116   23.658824   44.801749

 Multiplicity           Mult            ....    1
 Number of Electrons    NEL             ....   86
 Basis Dimension        Dim             ....  127

ORBITAL ENERGIES
----------------

  NO   OCC          E(Eh)            E(eV)
   0   2.0000     -19.140192      -520.8311
   1   2.0000     -19.138815      -520.7936
   2   2.0000     -19.130040      -520.5548
   3   2.0000     -10.276162      -279.6286
   4   2.0000     -10.238276      -278.5977
   5   2.0000     -10.224038      -278.2102
   6   2.0000     -10.222439      -278.1667
   7   2.0000     -10.218728      -278.0657
   8   2.0000     -10.184018      -277.1212
   9   2.0000     -10.182705      -277.0855
  10   2.0000     -10.181945      -277.0648
  11   2.0000      -1.051167       -28.6037
  12   2.0000      -1.012598       -27.5542
  13   2.0000      -0.987598       -26.8739
  14   2.0000      -0.791224       -21.5303
  15   2.0000      -0.773141       -21.0382
  16   2.0000      -0.744296       -20.2533
  17   2.0000      -0.717689       -19.5293
  18   2.0000      -0.614016       -16.7082
  19   2.0000      -0.601072       -16.3560
  20   2.0000      -0.594153       -16.1677
  21   2.0000      -0.565019       -15.3750
  22   2.0000      -0.523495       -14.2450
  23   2.0000      -0.497790       -13.5456
  24   2.0000      -0.482039       -13.1169
  25   2.0000      -0.476329       -12.9616
  26   2.0000      -0.452076       -12.3016
  27   2.0000      -0.444033       -12.0827
  28   2.0000      -0.418064       -11.3761
  29   2.0000      -0.413493       -11.2517
  30   2.0000      -0.405998       -11.0478
  31   2.0000      -0.393277       -10.7016
  32   2.0000      -0.368374       -10.0240
  33   2.0000      -0.365706        -9.9514
  34   2.0000      -0.355701        -9.6791
  35   2.0000      -0.353704        -9.6248
  36   2.0000      -0.342728        -9.3261
  37   2.0000      -0.322725        -8.7818
  38   2.0000      -0.306719        -8.3462
  39   2.0000      -0.291624        -7.9355
  40   2.0000      -0.264755        -7.2044
  41   2.0000      -0.251446        -6.8422
  42   2.0000      -0.235368        -6.4047
  43   0.0000       0.077166         2.0998
  44   0.0000       0.101211         2.7541
  45   0.0000       0.106653         2.9022
  46   0.0000       0.109047         2.9673
  47   0.0000       0.117069         3.1856

MULLIKEN ATOMIC CHARGES
-----------------------
   0 C :    0.284559
   1 C :   -0.256606
   2 C :   -0.296191
   3 C :   -0.003009
   4 O :   -0.517813
   5 H :    0.158099
   6 H :    0.143783
   7 H :    0.158936
   8 H :    0.138755
   9 H :    0.161612
  10 H :    0.144900
  11 H :    0.142124
  12 C :   -0.004675
  13 H :    0.124970
  14 C :    0.091244
  15 C :   -0.339907
  16 C :   -0.011619
  17 O :   -0.526492
  18 H :    0.163773
  19 O :   -0.531442
  20 H :    0.143575
  21 H :    0.196988
  22 H :    0.148155
  23 H :    0.139115
  24 H :    0.147164
Sum of atomic charges:   -0.0000000

LOEWDIN ATOMIC CHARGES
----------------------
   0 C :    0.172218
   1 C :   -0.211498
   2 C :   -0.215390
   3 C :   -0.028263
   4 O :   -0.334822
   5 H :    0.102902
   6 H :    0.113112
   7 H :    0.125287
   8 H :    0.112483
   9 H :    0.118957
  10 H :    0.103937
  11 H :    0.102159
  12 C :   -0.043553
  13 H :    0.091579
  14 C :    0.043722
  15 C :   -0.246229
  16 C :   -0.034947
  17 O :   -0.337332
  18 H :    0.120184
  19 O :   -0.323012
  20 H :    0.107983
  21 H :    0.141649
  22 H :    0.119334
  23 H :    0.099913
  24 H :    0.099626

  Mayer bond orders larger than 0.100000
B(  0-C ,  1-C ) :   0.9481 B(  0-C ,  4-O ) :   0.8879 B(  0-C ,  5-H ) :   0.9083
B(  0-C , 19-O ) :   0.8610 B(  1-C ,  2-C ) :   0.9567 B(  1-C ,  6-H ) :   0.9413
B(  1-C ,  7-H ) :   0.9367 B(  2-C ,  3-C ) :   0.9549 B(  2-C ,  8-H ) :   0.9456
B(  2-C ,  9-H ) :   0.9441 B(  3-C ,  4-O ) :   0.8353 B(  3-C , 10-H ) :   0.9362
B(  3-C , 11-H ) :   0.9405 B( 12-C , 13-H ) :   0.9126 B( 12-C , 14-C ) :   0.9181
B( 12-C , 17-O ) :   0.8656 B( 12-C , 18-H ) :   0.9326 B( 14-C , 15-C ) :   0.9434
B( 14-C , 19-O ) :   0.8473 B( 14-C , 20-H ) :   0.9337 B( 15-C , 16-C ) :   0.9422
B( 15-C , 21-H ) :   0.9117 B( 15-C , 22-H ) :   0.9366 B( 16-C , 17-O ) :   0.8535
B( 16-C , 23-H ) :   0.9341 B( 16-C , 24-H ) :   0.9285

FINAL SINGLE POINT ENERGY      -538.434531406012

DIPOLE MOMENT
-------------
                                X             Y             Z
Electronic contribution:     -1.14463      -1.24982      -1.61103
Nuclear contribution   :      1.22487       1.49713       2.31007
                        -----------------------------------------
Total Dipole Moment    :      0.08024       0.24731       0.69905
                        -----------------------------------------
Magnitude (a.u.)       :      0.74583
Magnitude (Debye)      :      1.89576

Rotational constants in cm-1:     0.081301     0.022450     0.021119
Rotational constants in MHz :  2437.330798   673.030395   633.133923

                             ****ORCA TERMINATED NORMALLY****
TOTAL RUN TIME: 0 days 0 hours 7 minutes 25 seconds 131 msec
