                         Program Version 4.2.0 -  RELEASE  -
|  1> # Test redundant internal optimization
|  2> #
|  3> ! RKS B3LYP  Opt TightSCF SmallPrint
|  4>
|  5> %basis
|  6>         Basis "6-31G"
|  7> end
|  8>
|  9> %geom
| 10> Constraints
| 11> { D 4  0  15  12  180.0   C } # D for Dihedral angle
| 12> { D 0  15  12  16  165.0   C } # D for Dihedral angle
| 13> { D 0  4  3  2   C } # D for Dihedral angle
| 14> { D 4  3  2  1   C } # D for Dihedral angle
| 15> { D 3  2  1  0   C } # D for Dihedral angle
| 16> { D 2  1  0  4   C } # D for Dihedral angle
| 17> { D 1  0  4  3   C } # D for Dihedral angle
| 18> { D 16  20  19  18   C } # D for Dihedral angle
| 19> { D 20  19  18  17   C } # D for Dihedral angle
| 20> { D 19  18  17  16   C } # D for Dihedral angle
| 21> { D 18  17  16  20   C } # D for Dihedral angle
| 22> { D 17  16  20  19   C } # D for Dihedral angle
| 23> { D 15  12  16  20   C } # D for Dihedral angle
| 24> end
| 25> end
| 26>
| 27>
| 28> #%pal
| 29> #nprocs 8
| 30> #end
| 31>
| 32> * xyz 0 1
| 33> C  -21.048   26.222   46.251
| 34> C  -20.361   27.558   45.944
| 35> C  -20.329   28.222   47.341
| 36> C  -20.110   27.022   48.296
| 37> O  -20.473   25.807   47.535
| 38> H  -20.833   25.428   45.533
| 39> H  -19.344   27.382   45.576
| 40> H  -20.898   28.157   45.201
| 41> H  -19.543   28.978   47.434
| 42> H  -21.289   28.710   47.548
| 43> H  -20.733   27.082   49.195
| 44> H  -19.064   26.913   48.597
| 45> C  -23.309   26.834   45.072
| 46> H  -23.107   27.896   44.887
| 47> H  -22.936   26.260   44.214
| 48> O  -22.586   26.394   46.375
| 49> C  -24.848   26.633   45.142
| 50> C  -25.514   26.967   43.803
| 51> C  -25.230   25.686   42.983
| 52> C  -25.312   24.563   44.047
| 53> O  -25.171   25.220   45.364
| 54> H  -25.243   27.190   45.995
| 55> H  -26.592   27.106   43.942
| 56> O  -24.939   28.248   43.138
| 57> H  -25.942   25.539   42.165
| 58> H  -24.224   25.733   42.548
| 59> H  -24.517   23.817   43.931
| 60> H  -26.280   24.053   44.042
| 61> H  -23.860   28.133   42.987
| 62> *
| 63>
| 64>                          ****END OF INPUT****
 Total Charge           Charge          ....    0
 Multiplicity           Mult            ....    1
 Number of Electrons    NEL             ....  102
FINAL SINGLE POINT ENERGY      -652.823005358043
FINAL SINGLE POINT ENERGY      -652.847154138085
FINAL SINGLE POINT ENERGY      -652.851801684582
FINAL SINGLE POINT ENERGY      -652.852620101152
FINAL SINGLE POINT ENERGY      -652.852775409706
FINAL SINGLE POINT ENERGY      -652.852806701520
FINAL SINGLE POINT ENERGY      -652.852811596567
FINAL SINGLE POINT ENERGY      -652.852811766278
                    ***********************HURRAY********************

CARTESIAN COORDINATES (ANGSTROEM)
---------------------------------
  C    -21.050888   26.243285   46.180445
  C    -20.309324   27.559659   45.954677
  C    -20.396689   28.223783   47.352363
  C    -20.300053   27.016606   48.307707
  O    -20.622091   25.824221   47.480950
  H    -20.809479   25.442550   45.472076
  H    -19.267471   27.340266   45.692663
  H    -20.734319   28.179277   45.160283
  H    -19.600458   28.955315   47.519053
  H    -21.360707   28.729063   47.464207
  H    -21.008559   27.064344   49.138011
  H    -19.289948   26.861719   48.698180
  C    -23.126618   26.843500   45.006226
  H    -22.951411   27.911452   44.815319
  H    -22.717548   26.267752   44.158258
  O    -22.496916   26.417070   46.238505
  C    -24.629750   26.608775   45.143686
  C    -25.436023   26.982244   43.889209
  C    -25.289477   25.697608   43.019660
  C    -25.286081   24.571468   44.076708
  O    -24.971885   25.211374   45.379768
  H    -24.972126   27.149929   46.030311
  H    -26.481016   27.138257   44.165257
  O    -25.040170   28.214727   43.237604
  H    -26.097338   25.596483   42.289651
  H    -24.338844   25.734669   42.470860
  H    -24.542495   23.795016   43.871363
  H    -26.267538   24.099553   44.181042
  H    -24.239778   28.073036   42.691955

 Multiplicity           Mult            ....    1
 Number of Electrons    NEL             ....  102
 Basis Dimension        Dim             ....  149

ORBITAL ENERGIES
----------------

  NO   OCC          E(Eh)            E(eV)
   0   2.0000     -19.152607      -521.1689
   1   2.0000     -19.137798      -520.7660
   2   2.0000     -19.137760      -520.7649
   3   2.0000     -19.135614      -520.7065
   4   2.0000     -10.277754      -279.6719
   5   2.0000     -10.246556      -278.8230
   6   2.0000     -10.232176      -278.4317
   7   2.0000     -10.230436      -278.3843
   8   2.0000     -10.229959      -278.3713
   9   2.0000     -10.222936      -278.1802
  10   2.0000     -10.197739      -277.4946
  11   2.0000     -10.187756      -277.2229
  12   2.0000     -10.186414      -277.1864
  13   2.0000      -1.052346       -28.6358
  14   2.0000      -1.035009       -28.1640
  15   2.0000      -1.016031       -27.6476
  16   2.0000      -0.992186       -26.9988
  17   2.0000      -0.786159       -21.3925
  18   2.0000      -0.783690       -21.3253
  19   2.0000      -0.768472       -20.9112
  20   2.0000      -0.730207       -19.8699
  21   2.0000      -0.682179       -18.5630
  22   2.0000      -0.613045       -16.6818
  23   2.0000      -0.600915       -16.3517
  24   2.0000      -0.588869       -16.0240
  25   2.0000      -0.576234       -15.6801
  26   2.0000      -0.528579       -14.3834
  27   2.0000      -0.510056       -13.8793
  28   2.0000      -0.502086       -13.6624
  29   2.0000      -0.491904       -13.3854
  30   2.0000      -0.468056       -12.7365
  31   2.0000      -0.460496       -12.5307
  32   2.0000      -0.449576       -12.2336
  33   2.0000      -0.435265       -11.8442
  34   2.0000      -0.431011       -11.7284
  35   2.0000      -0.416374       -11.3301
  36   2.0000      -0.407921       -11.1001
  37   2.0000      -0.396442       -10.7877
  38   2.0000      -0.379571       -10.3287
  39   2.0000      -0.372695       -10.1416
  40   2.0000      -0.360283        -9.8038
  41   2.0000      -0.355453        -9.6724
  42   2.0000      -0.350872        -9.5477
  43   2.0000      -0.331384        -9.0174
  44   2.0000      -0.316648        -8.6164
  45   2.0000      -0.310625        -8.4525
  46   2.0000      -0.300758        -8.1840
  47   2.0000      -0.272808        -7.4235
  48   2.0000      -0.256576        -6.9818
  49   2.0000      -0.250909        -6.8276
  50   2.0000      -0.240451        -6.5430
  51   0.0000       0.047207         1.2846
  52   0.0000       0.072778         1.9804
  53   0.0000       0.085668         2.3311
  54   0.0000       0.090148         2.4531
  55   0.0000       0.106653         2.9022

MULLIKEN ATOMIC CHARGES
-----------------------
   0 C :    0.310120
   1 C :   -0.284852
   2 C :   -0.297325
   3 C :   -0.000498
   4 O :   -0.500253
   5 H :    0.138890
   6 H :    0.147218
   7 H :    0.139060
   8 H :    0.142225
   9 H :    0.159626
  10 H :    0.157296
  11 H :    0.141078
  12 C :   -0.014861
  13 H :    0.132336
  14 H :    0.107742
  15 O :   -0.497645
  16 C :    0.097969
  17 C :    0.079886
  18 C :   -0.325199
  19 C :   -0.010610
  20 O :   -0.498574
  21 H :    0.167282
  22 H :    0.170355
  23 O :   -0.600177
  24 H :    0.159601
  25 H :    0.128884
  26 H :    0.146169
  27 H :    0.149889
  28 H :    0.354369
Sum of atomic charges:   -0.0000000

LOEWDIN ATOMIC CHARGES
----------------------
   0 C :    0.181157
   1 C :   -0.234402
   2 C :   -0.216655
   3 C :   -0.024535
   4 O :   -0.300134
   5 H :    0.095562
   6 H :    0.115490
   7 H :    0.111254
   8 H :    0.114354
   9 H :    0.117441
  10 H :    0.111054
  11 H :    0.102186
  12 C :   -0.053653
  13 H :    0.094531
  14 H :    0.082312
  15 O :   -0.319278
  16 C :    0.023567
  17 C :    0.034297
  18 C :   -0.241842
  19 C :   -0.030056
  20 O :   -0.308078
  21 H :    0.121706
  22 H :    0.120419
  23 O :   -0.408448
  24 H :    0.122993
  25 H :    0.101575
  26 H :    0.103809
  27 H :    0.106438
  28 H :    0.276937

  Mayer bond orders larger than 0.100000
B(  0-C ,  1-C ) :   0.9246 B(  0-C ,  4-O ) :   0.9413 B(  0-C ,  5-H ) :   0.9194
B(  0-C , 15-O ) :   0.8364 B(  1-C ,  2-C ) :   0.9520 B(  1-C ,  6-H ) :   0.9342
B(  1-C ,  7-H ) :   0.9321 B(  2-C ,  3-C ) :   0.9557 B(  2-C ,  8-H ) :   0.9452
B(  2-C ,  9-H ) :   0.9447 B(  3-C ,  4-O ) :   0.8355 B(  3-C , 10-H ) :   0.9340
B(  3-C , 11-H ) :   0.9398 B( 12-C , 13-H ) :   0.8963 B( 12-C , 14-H ) :   0.9128
B( 12-C , 15-O ) :   0.8535 B( 12-C , 16-C ) :   0.9036 B( 16-C , 17-C ) :   0.8733
B( 16-C , 20-O ) :   0.8762 B( 16-C , 21-H ) :   0.9288 B( 17-C , 18-C ) :   0.9249
B( 17-C , 22-H ) :   0.9325 B( 17-C , 23-O ) :   0.8938 B( 18-C , 19-C ) :   0.9391
B( 18-C , 24-H ) :   0.9412 B( 18-C , 25-H ) :   0.9409 B( 19-C , 20-O ) :   0.8535
B( 19-C , 26-H ) :   0.9311 B( 19-C , 27-H ) :   0.9374 B( 23-O , 28-H ) :   0.7995

FINAL SINGLE POINT ENERGY      -652.852811397254

DIPOLE MOMENT
-------------
                                X             Y             Z
Electronic contribution:     -2.53946      -2.35305       2.10217
Nuclear contribution   :      3.14970       2.94232      -3.46451
                        -----------------------------------------
Total Dipole Moment    :      0.61025       0.58927      -1.36234
                        -----------------------------------------
Magnitude (a.u.)       :      1.60487
Magnitude (Debye)      :      4.07927

Rotational constants in cm-1:     0.056582     0.012469     0.011190
Rotational constants in MHz :  1696.294933   373.804691   335.471996

                             ****ORCA TERMINATED NORMALLY****
TOTAL RUN TIME: 0 days 2 hours 10 minutes 58 seconds 605 msec
