                         Program Version 4.2.0 -  RELEASE  -
|  1> # Test redundant internal optimization
|  2> #
|  3> ! RKS B3LYP  Opt TightSCF SmallPrint
|  4>
|  5> %basis
|  6>         Basis "6-31G"
|  7> end
|  8>
|  9> %geom
| 10> Constraints
| 11> { D 4  0  15  12  270.0   C } # D for Dihedral angle
| 12> { D 0  15  12  16  75.0   C } # D for Dihedral angle
| 13> { D 0  4  3  2   C } # D for Dihedral angle
| 14> { D 4  3  2  1   C } # D for Dihedral angle
| 15> { D 3  2  1  0   C } # D for Dihedral angle
| 16> { D 2  1  0  4   C } # D for Dihedral angle
| 17> { D 1  0  4  3   C } # D for Dihedral angle
| 18> { D 16  20  19  18   C } # D for Dihedral angle
| 19> { D 20  19  18  17   C } # D for Dihedral angle
| 20> { D 19  18  17  16   C } # D for Dihedral angle
| 21> { D 18  17  16  20   C } # D for Dihedral angle
| 22> { D 17  16  20  19   C } # D for Dihedral angle
| 23> { D 15  12  16  20   C } # D for Dihedral angle
| 24> end
| 25> end
| 26>
| 27>
| 28> #%pal
| 29> #nprocs 8
| 30> #end
| 31>
| 32> * xyz 0 1
| 33> C  -21.048   26.222   46.251
| 34> C  -20.361   27.558   45.944
| 35> C  -20.329   28.222   47.341
| 36> C  -20.110   27.022   48.296
| 37> O  -20.473   25.807   47.535
| 38> H  -20.833   25.428   45.533
| 39> H  -19.344   27.382   45.576
| 40> H  -20.898   28.157   45.201
| 41> H  -19.543   28.978   47.434
| 42> H  -21.289   28.710   47.548
| 43> H  -20.733   27.082   49.195
| 44> H  -19.064   26.913   48.597
| 45> C  -23.420   25.119   46.072
| 46> H  -24.468   25.401   45.914
| 47> H  -23.055   24.629   45.160
| 48> O  -22.586   26.394   46.375
| 49> C  -23.362   24.077   47.223
| 50> C  -24.011   24.622   48.500
| 51> C  -25.516   24.430   48.194
| 52> C  -25.543   23.115   47.375
| 53> O  -24.165   22.896   46.886
| 54> H  -22.332   23.738   47.348
| 55> O  -23.586   23.762   49.722
| 56> H  -23.749   25.665   48.706
| 57> H  -26.129   24.370   49.099
| 58> H  -25.887   25.268   47.593
| 59> H  -26.223   23.169   46.518
| 60> H  -25.810   22.248   47.985
| 61> H  -23.840   22.711   49.540
| 62> *
| 63>
| 64>                          ****END OF INPUT****
 Total Charge           Charge          ....    0
 Multiplicity           Mult            ....    1
 Number of Electrons    NEL             ....  102
FINAL SINGLE POINT ENERGY      -652.841382653442
FINAL SINGLE POINT ENERGY      -652.864536706555
FINAL SINGLE POINT ENERGY      -652.868202374493
FINAL SINGLE POINT ENERGY      -652.868920297178
FINAL SINGLE POINT ENERGY      -652.869034710539
FINAL SINGLE POINT ENERGY      -652.869048993819
FINAL SINGLE POINT ENERGY      -652.869052215071
                    ***********************HURRAY********************

CARTESIAN COORDINATES (ANGSTROEM)
---------------------------------
  C    -21.082047   26.121617   46.253000
  C    -20.455748   27.487616   45.968857
  C    -20.482682   28.147041   47.368346
  C    -20.225782   26.955608   48.319305
  O    -20.521304   25.733735   47.527951
  H    -20.834725   25.325814   45.543520
  H    -19.425858   27.347720   45.620889
  H    -21.014757   28.046017   45.215618
  H    -19.731588   28.935089   47.478150
  H    -21.470370   28.580875   47.550266
  H    -20.866552   26.963110   49.204170
  H    -19.180139   26.879117   48.631511
  C    -23.323111   25.122190   46.046536
  H    -24.328944   25.502102   45.850200
  H    -22.963215   24.614674   45.140835
  O    -22.514709   26.303413   46.322612
  C    -23.321506   24.122674   47.209787
  C    -23.942544   24.650800   48.510730
  C    -25.457879   24.500118   48.218563
  C    -25.527376   23.207481   47.367297
  O    -24.155515   22.967760   46.852443
  H    -22.309078   23.752609   47.388804
  O    -23.536599   23.844239   49.650646
  H    -23.640457   25.670747   48.742482
  H    -26.022872   24.425831   49.150677
  H    -25.827980   25.367262   47.661570
  H    -26.215366   23.289879   46.520163
  H    -25.806245   22.330018   47.959035
  H    -23.522054   22.899844   49.387039

 Multiplicity           Mult            ....    1
 Number of Electrons    NEL             ....  102
 Basis Dimension        Dim             ....  149

ORBITAL ENERGIES
----------------

  NO   OCC          E(Eh)            E(eV)
   0   2.0000     -19.148498      -521.0571
   1   2.0000     -19.141369      -520.8631
   2   2.0000     -19.140506      -520.8396
   3   2.0000     -19.130310      -520.5622
   4   2.0000     -10.280321      -279.7418
   5   2.0000     -10.231720      -278.4193
   6   2.0000     -10.231035      -278.4006
   7   2.0000     -10.228709      -278.3373
   8   2.0000     -10.226697      -278.2826
   9   2.0000     -10.224281      -278.2168
  10   2.0000     -10.185532      -277.1624
  11   2.0000     -10.185234      -277.1543
  12   2.0000     -10.183671      -277.1118
  13   2.0000      -1.055699       -28.7270
  14   2.0000      -1.031560       -28.0702
  15   2.0000      -1.000288       -27.2192
  16   2.0000      -0.996539       -27.1172
  17   2.0000      -0.789173       -21.4745
  18   2.0000      -0.774558       -21.0768
  19   2.0000      -0.762401       -20.7460
  20   2.0000      -0.730746       -19.8846
  21   2.0000      -0.672789       -18.3075
  22   2.0000      -0.600204       -16.3324
  23   2.0000      -0.599578       -16.3153
  24   2.0000      -0.596345       -16.2274
  25   2.0000      -0.575952       -15.6724
  26   2.0000      -0.519419       -14.1341
  27   2.0000      -0.517946       -14.0940
  28   2.0000      -0.490153       -13.3377
  29   2.0000      -0.488492       -13.2926
  30   2.0000      -0.466658       -12.6984
  31   2.0000      -0.458164       -12.4673
  32   2.0000      -0.447130       -12.1670
  33   2.0000      -0.437449       -11.9036
  34   2.0000      -0.421388       -11.4665
  35   2.0000      -0.411785       -11.2052
  36   2.0000      -0.399012       -10.8577
  37   2.0000      -0.388233       -10.5644
  38   2.0000      -0.373601       -10.1662
  39   2.0000      -0.364536        -9.9195
  40   2.0000      -0.356644        -9.7048
  41   2.0000      -0.353373        -9.6158
  42   2.0000      -0.348762        -9.4903
  43   2.0000      -0.333142        -9.0652
  44   2.0000      -0.322767        -8.7829
  45   2.0000      -0.308207        -8.3867
  46   2.0000      -0.299563        -8.1515
  47   2.0000      -0.277625        -7.5546
  48   2.0000      -0.263869        -7.1803
  49   2.0000      -0.255473        -6.9518
  50   2.0000      -0.236918        -6.4469
  51   0.0000       0.068931         1.8757
  52   0.0000       0.077977         2.1219
  53   0.0000       0.095642         2.6025
  54   0.0000       0.099424         2.7055
  55   0.0000       0.106668         2.9026

MULLIKEN ATOMIC CHARGES
-----------------------
   0 C :    0.279685
   1 C :   -0.255308
   2 C :   -0.301553
   3 C :   -0.003945
   4 O :   -0.508753
   5 H :    0.144511
   6 H :    0.145478
   7 H :    0.154307
   8 H :    0.142008
   9 H :    0.162526
  10 H :    0.155567
  11 H :    0.143387
  12 C :   -0.024193
  13 H :    0.145983
  14 H :    0.142188
  15 O :   -0.514373
  16 C :    0.046723
  17 C :    0.102917
  18 C :   -0.300536
  19 C :   -0.029612
  20 O :   -0.530017
  21 H :    0.184103
  22 O :   -0.606375
  23 H :    0.165103
  24 H :    0.162541
  25 H :    0.143450
  26 H :    0.145820
  27 H :    0.145377
  28 H :    0.362991
Sum of atomic charges:   -0.0000000

LOEWDIN ATOMIC CHARGES
----------------------
   0 C :    0.169366
   1 C :   -0.215098
   2 C :   -0.216362
   3 C :   -0.027173
   4 O :   -0.326541
   5 H :    0.098789
   6 H :    0.114137
   7 H :    0.122780
   8 H :    0.113980
   9 H :    0.119048
  10 H :    0.109159
  11 H :    0.103409
  12 C :   -0.039486
  13 H :    0.109541
  14 H :    0.102000
  15 O :   -0.325265
  16 C :    0.001831
  17 C :    0.041280
  18 C :   -0.242346
  19 C :   -0.038435
  20 O :   -0.333166
  21 H :    0.124725
  22 O :   -0.415180
  23 H :    0.122214
  24 H :    0.126861
  25 H :    0.112519
  26 H :    0.103206
  27 H :    0.102476
  28 H :    0.281729

  Mayer bond orders larger than 0.100000
B(  0-C ,  1-C ) :   0.9503 B(  0-C ,  4-O ) :   0.9081 B(  0-C ,  5-H ) :   0.9169
B(  0-C , 15-O ) :   0.8529 B(  1-C ,  2-C ) :   0.9566 B(  1-C ,  6-H ) :   0.9396
B(  1-C ,  7-H ) :   0.9372 B(  2-C ,  3-C ) :   0.9539 B(  2-C ,  8-H ) :   0.9452
B(  2-C ,  9-H ) :   0.9443 B(  3-C ,  4-O ) :   0.8331 B(  3-C , 10-H ) :   0.9336
B(  3-C , 11-H ) :   0.9403 B( 12-C , 13-H ) :   0.9421 B( 12-C , 14-H ) :   0.9208
B( 12-C , 15-O ) :   0.8474 B( 12-C , 16-C ) :   0.8780 B( 16-C , 17-C ) :   0.9166
B( 16-C , 20-O ) :   0.8284 B( 16-C , 21-H ) :   0.9170 B( 17-C , 18-C ) :   0.9105
B( 17-C , 22-O ) :   0.8877 B( 17-C , 23-H ) :   0.9264 B( 18-C , 19-C ) :   0.9431
B( 18-C , 24-H ) :   0.9373 B( 18-C , 25-H ) :   0.9348 B( 19-C , 20-O ) :   0.8443
B( 19-C , 26-H ) :   0.9355 B( 19-C , 27-H ) :   0.9385 B( 22-O , 28-H ) :   0.7963

FINAL SINGLE POINT ENERGY      -652.869052534553

DIPOLE MOMENT
-------------
                                X             Y             Z
Electronic contribution:      0.32708      -4.15983       0.26462
Nuclear contribution   :     -0.51975       4.86113      -0.82989
                        -----------------------------------------
Total Dipole Moment    :     -0.19266       0.70130      -0.56527
                        -----------------------------------------
Magnitude (a.u.)       :      0.92113
Magnitude (Debye)      :      2.34132

Rotational constants in cm-1:     0.054752     0.014615     0.013211
Rotational constants in MHz :  1641.419367   438.143725   396.058707

                             ****ORCA TERMINATED NORMALLY****
TOTAL RUN TIME: 0 days 0 hours 42 minutes 54 seconds 956 msec
