                         Program Version 4.2.0 -  RELEASE  -
|  1> # Test redundant internal optimization
|  2> #
|  3> ! RKS B3LYP  Opt TightSCF SmallPrint
|  4>
|  5> %basis
|  6>         Basis "6-31G"
|  7> end
|  8>
|  9> %geom
| 10> Constraints
| 11> { D 4  0  15  12  180.0   C } # D for Dihedral angle
| 12> { D 0  15  12  16  105.0   C } # D for Dihedral angle
| 13> { D 0  4  3  2   C } # D for Dihedral angle
| 14> { D 4  3  2  1   C } # D for Dihedral angle
| 15> { D 3  2  1  0   C } # D for Dihedral angle
| 16> { D 2  1  0  4   C } # D for Dihedral angle
| 17> { D 1  0  4  3   C } # D for Dihedral angle
| 18> { D 16  20  19  18   C } # D for Dihedral angle
| 19> { D 20  19  18  17   C } # D for Dihedral angle
| 20> { D 19  18  17  16   C } # D for Dihedral angle
| 21> { D 18  17  16  20   C } # D for Dihedral angle
| 22> { D 17  16  20  19   C } # D for Dihedral angle
| 23> { D 15  12  16  20   C } # D for Dihedral angle
| 24> end
| 25> end
| 26>
| 27>
| 28> #%pal
| 29> #nprocs 8
| 30> #end
| 31>
| 32> * xyz 0 1
| 33> C  -21.048   26.222   46.251
| 34> C  -20.361   27.558   45.944
| 35> C  -20.329   28.222   47.341
| 36> C  -20.110   27.022   48.296
| 37> O  -20.473   25.807   47.535
| 38> H  -20.833   25.428   45.533
| 39> H  -19.344   27.382   45.576
| 40> H  -20.898   28.157   45.201
| 41> H  -19.543   28.978   47.434
| 42> H  -21.289   28.710   47.548
| 43> H  -20.733   27.082   49.195
| 44> H  -19.064   26.913   48.597
| 45> C  -23.309   26.834   45.072
| 46> H  -24.019   27.637   45.305
| 47> H  -22.584   27.217   44.342
| 48> O  -22.586   26.394   46.375
| 49> C  -24.090   25.672   44.397
| 50> C  -25.240   25.185   45.286
| 51> C  -26.316   26.265   45.025
| 52> C  -26.102   26.622   43.533
| 53> O  -24.751   26.141   43.175
| 54> H  -23.385   24.892   44.101
| 55> H  -25.588   24.203   44.945
| 56> O  -24.848   25.073   46.785
| 57> H  -27.331   25.910   45.228
| 58> H  -26.134   27.139   45.662
| 59> H  -26.161   27.700   43.347
| 60> H  -26.811   26.112   42.876
| 61> H  -24.497   26.045   47.147
| 62> *
| 63>
| 64>                          ****END OF INPUT****
 Total Charge           Charge          ....    0
 Multiplicity           Mult            ....    1
 Number of Electrons    NEL             ....  102
FINAL SINGLE POINT ENERGY      -652.827574024030
FINAL SINGLE POINT ENERGY      -652.851893883963
FINAL SINGLE POINT ENERGY      -652.858320114063
FINAL SINGLE POINT ENERGY      -652.860810726802
FINAL SINGLE POINT ENERGY      -652.862327086116
FINAL SINGLE POINT ENERGY      -652.863261516514
FINAL SINGLE POINT ENERGY      -652.863736949324
FINAL SINGLE POINT ENERGY      -652.863869227625
FINAL SINGLE POINT ENERGY      -652.863886915246
FINAL SINGLE POINT ENERGY      -652.863890732728
                    ***********************HURRAY********************

CARTESIAN COORDINATES (ANGSTROEM)
---------------------------------
  C    -21.108640   26.234540   46.182397
  C    -20.314499   27.511200   45.918969
  C    -20.379771   28.220844   47.293790
  C    -20.335256   27.044599   48.288643
  O    -20.703724   25.838881   47.493813
  H    -20.911230   25.401172   45.502702
  H    -19.283668   27.236928   45.666690
  H    -20.709893   28.123674   45.104496
  H    -19.553288   28.922531   47.439642
  H    -21.320707   28.771069   47.385485
  H    -21.044866   27.144018   49.112985
  H    -19.334743   26.856181   48.687196
  C    -23.244254   26.918904   45.019836
  H    -23.888785   27.756671   45.301332
  H    -22.536236   27.266832   44.260671
  O    -22.553971   26.490644   46.245152
  C    -24.057488   25.747333   44.457670
  C    -25.184877   25.249617   45.378675
  C    -26.299018   26.300868   45.107153
  C    -26.118669   26.627770   43.610480
  O    -24.745202   26.168710   43.238834
  H    -23.377245   24.939100   44.170429
  H    -25.517864   24.268234   45.020882
  O    -24.854754   25.118994   46.773262
  H    -27.292265   25.908219   45.339980
  H    -26.124742   27.172612   45.746783
  H    -26.202957   27.695368   43.385207
  H    -26.812639   26.076223   42.970487
  H    -23.965748   25.510266   46.948359

 Multiplicity           Mult            ....    1
 Number of Electrons    NEL             ....  102
 Basis Dimension        Dim             ....  149

ORBITAL ENERGIES
----------------

  NO   OCC          E(Eh)            E(eV)
   0   2.0000     -19.161954      -521.4233
   1   2.0000     -19.152941      -521.1780
   2   2.0000     -19.140626      -520.8429
   3   2.0000     -19.108714      -519.9746
   4   2.0000     -10.294604      -280.1304
   5   2.0000     -10.240386      -278.6551
   6   2.0000     -10.234251      -278.4881
   7   2.0000     -10.233892      -278.4784
   8   2.0000     -10.228221      -278.3240
   9   2.0000     -10.226322      -278.2724
  10   2.0000     -10.199034      -277.5298
  11   2.0000     -10.196216      -277.4531
  12   2.0000     -10.177783      -276.9515
  13   2.0000      -1.066977       -29.0339
  14   2.0000      -1.025374       -27.9019
  15   2.0000      -1.007168       -27.4064
  16   2.0000      -0.988549       -26.8998
  17   2.0000      -0.797419       -21.6989
  18   2.0000      -0.773559       -21.0496
  19   2.0000      -0.767054       -20.8726
  20   2.0000      -0.739631       -20.1264
  21   2.0000      -0.682234       -18.5645
  22   2.0000      -0.611312       -16.6347
  23   2.0000      -0.602433       -16.3930
  24   2.0000      -0.595190       -16.1959
  25   2.0000      -0.576254       -15.6807
  26   2.0000      -0.531959       -14.4753
  27   2.0000      -0.521416       -14.1885
  28   2.0000      -0.502760       -13.6808
  29   2.0000      -0.488776       -13.3003
  30   2.0000      -0.474496       -12.9117
  31   2.0000      -0.463290       -12.6068
  32   2.0000      -0.448166       -12.1952
  33   2.0000      -0.430439       -11.7128
  34   2.0000      -0.427829       -11.6418
  35   2.0000      -0.418265       -11.3816
  36   2.0000      -0.411131       -11.1874
  37   2.0000      -0.386599       -10.5199
  38   2.0000      -0.385625       -10.4934
  39   2.0000      -0.371472       -10.1083
  40   2.0000      -0.366320        -9.9681
  41   2.0000      -0.363137        -9.8815
  42   2.0000      -0.346732        -9.4351
  43   2.0000      -0.343094        -9.3361
  44   2.0000      -0.322746        -8.7824
  45   2.0000      -0.319177        -8.6852
  46   2.0000      -0.284755        -7.7486
  47   2.0000      -0.277978        -7.5642
  48   2.0000      -0.270813        -7.3692
  49   2.0000      -0.244228        -6.6458
  50   2.0000      -0.239151        -6.5076
  51   0.0000       0.058487         1.5915
  52   0.0000       0.077397         2.1061
  53   0.0000       0.091519         2.4904
  54   0.0000       0.095422         2.5966
  55   0.0000       0.102334         2.7846

MULLIKEN ATOMIC CHARGES
-----------------------
   0 C :    0.309310
   1 C :   -0.280043
   2 C :   -0.298155
   3 C :   -0.005403
   4 O :   -0.499518
   5 H :    0.153541
   6 H :    0.154555
   7 H :    0.149220
   8 H :    0.147396
   9 H :    0.160775
  10 H :    0.160525
  11 H :    0.148471
  12 C :   -0.041523
  13 H :    0.157917
  14 H :    0.152108
  15 O :   -0.547512
  16 C :    0.053044
  17 C :    0.132140
  18 C :   -0.300985
  19 C :   -0.020787
  20 O :   -0.522755
  21 H :    0.152002
  22 H :    0.143087
  23 O :   -0.645427
  24 H :    0.149273
  25 H :    0.147628
  26 H :    0.139259
  27 H :    0.150656
  28 H :    0.401199
Sum of atomic charges:   -0.0000000

LOEWDIN ATOMIC CHARGES
----------------------
   0 C :    0.184119
   1 C :   -0.229905
   2 C :   -0.215822
   3 C :   -0.024310
   4 O :   -0.299253
   5 H :    0.102962
   6 H :    0.119563
   7 H :    0.116555
   8 H :    0.117241
   9 H :    0.118093
  10 H :    0.112818
  11 H :    0.106310
  12 C :   -0.050925
  13 H :    0.112212
  14 H :    0.109142
  15 O :   -0.345222
  16 C :    0.009879
  17 C :    0.043660
  18 C :   -0.235633
  19 C :   -0.032658
  20 O :   -0.327134
  21 H :    0.110242
  22 H :    0.102821
  23 O :   -0.436283
  24 H :    0.121014
  25 H :    0.111995
  26 H :    0.100730
  27 H :    0.106705
  28 H :    0.291085

  Mayer bond orders larger than 0.100000
B(  0-C ,  1-C ) :   0.9343 B(  0-C ,  4-O ) :   0.9524 B(  0-C ,  5-H ) :   0.9216
B(  0-C , 15-O ) :   0.7880 B(  1-C ,  2-C ) :   0.9485 B(  1-C ,  6-H ) :   0.9331
B(  1-C ,  7-H ) :   0.9299 B(  2-C ,  3-C ) :   0.9558 B(  2-C ,  8-H ) :   0.9443
B(  2-C ,  9-H ) :   0.9449 B(  3-C ,  4-O ) :   0.8260 B(  3-C , 10-H ) :   0.9342
B(  3-C , 11-H ) :   0.9394 B( 12-C , 13-H ) :   0.9341 B( 12-C , 14-H ) :   0.9220
B( 12-C , 15-O ) :   0.7985 B( 12-C , 16-C ) :   0.8854 B( 16-C , 17-C ) :   0.9146
B( 16-C , 20-O ) :   0.8547 B( 16-C , 21-H ) :   0.9319 B( 17-C , 18-C ) :   0.9019
B( 17-C , 22-H ) :   0.9299 B( 17-C , 23-O ) :   0.9352 B( 18-C , 19-C ) :   0.9405
B( 18-C , 24-H ) :   0.9454 B( 18-C , 25-H ) :   0.9424 B( 19-C , 20-O ) :   0.8319
B( 19-C , 26-H ) :   0.9348 B( 19-C , 27-H ) :   0.9381 B( 23-O , 28-H ) :   0.7186

FINAL SINGLE POINT ENERGY      -652.863891698545

DIPOLE MOMENT
-------------
                                X             Y             Z
Electronic contribution:     -0.41639      -4.65206       0.04255
Nuclear contribution   :      1.23234       6.04274      -0.44031
                        -----------------------------------------
Total Dipole Moment    :      0.81595       1.39068      -0.39775
                        -----------------------------------------
Magnitude (a.u.)       :      1.66072
Magnitude (Debye)      :      4.22121

Rotational constants in cm-1:     0.059902     0.013139     0.011989
Rotational constants in MHz :  1795.803297   393.888829   359.424279

                             ****ORCA TERMINATED NORMALLY****
TOTAL RUN TIME: 0 days 0 hours 43 minutes 22 seconds 571 msec
