                         Program Version 4.2.0 -  RELEASE  -
|  1> # Test redundant internal optimization
|  2> #
|  3> ! RKS B3LYP  Opt TightSCF SmallPrint
|  4>
|  5> %basis
|  6>         Basis "6-31G"
|  7> end
|  8>
|  9> %geom
| 10> Constraints
| 11> { D 4  0  15  12  90.0   C } # D for Dihedral angle
| 12> { D 0  15  12  16  180.0   C } # D for Dihedral angle
| 13> { D 0  4  3  2   C } # D for Dihedral angle
| 14> { D 4  3  2  1   C } # D for Dihedral angle
| 15> { D 3  2  1  0   C } # D for Dihedral angle
| 16> { D 2  1  0  4   C } # D for Dihedral angle
| 17> { D 1  0  4  3   C } # D for Dihedral angle
| 18> { D 16  20  19  18   C } # D for Dihedral angle
| 19> { D 20  19  18  17   C } # D for Dihedral angle
| 20> { D 19  18  17  16   C } # D for Dihedral angle
| 21> { D 18  17  16  20   C } # D for Dihedral angle
| 22> { D 17  16  20  19   C } # D for Dihedral angle
| 23> { D 15  12  16  20   C } # D for Dihedral angle
| 24> end
| 25> end
| 26>
| 27>
| 28> #%pal
| 29> #nprocs 8
| 30> #end
| 31>
| 32> * xyz 0 1
| 33> C  -21.048   26.222   46.251
| 34> C  -20.361   27.558   45.944
| 35> C  -20.329   28.222   47.341
| 36> C  -20.110   27.022   48.296
| 37> O  -20.473   25.807   47.535
| 38> H  -20.833   25.428   45.533
| 39> H  -19.344   27.382   45.576
| 40> H  -20.898   28.157   45.201
| 41> H  -19.543   28.978   47.434
| 42> H  -21.289   28.710   47.548
| 43> H  -20.733   27.082   49.195
| 44> H  -19.064   26.913   48.597
| 45> C  -23.061   27.816   46.783
| 46> H  -22.628   28.076   47.757
| 47> H  -22.724   28.559   46.049
| 48> O  -22.586   26.394   46.375
| 49> C  -24.607   27.924   46.891
| 50> C  -25.150   27.039   48.018
| 51> C  -24.849   27.901   49.267
| 52> C  -25.057   29.348   48.754
| 53> O  -24.999   29.284   47.278
| 54> H  -25.048   27.731   45.911
| 55> H  -26.231   26.898   47.897
| 56> O  -24.477   25.640   48.074
| 57> H  -25.497   27.661   50.115
| 58> H  -23.810   27.750   49.586
| 59> H  -24.285   30.036   49.114
| 60> H  -26.039   29.748   49.021
| 61> H  -23.395   25.758   48.194
| 62> *
| 63>
| 64>                          ****END OF INPUT****
 Total Charge           Charge          ....    0
 Multiplicity           Mult            ....    1
 Number of Electrons    NEL             ....  102
FINAL SINGLE POINT ENERGY      -652.809350528683
FINAL SINGLE POINT ENERGY      -652.838325544873
FINAL SINGLE POINT ENERGY      -652.854087346437
FINAL SINGLE POINT ENERGY      -652.858219480876
FINAL SINGLE POINT ENERGY      -652.859952902449
FINAL SINGLE POINT ENERGY      -652.860966093702
FINAL SINGLE POINT ENERGY      -652.861401886987
FINAL SINGLE POINT ENERGY      -652.861508088900
FINAL SINGLE POINT ENERGY      -652.861530515370
FINAL SINGLE POINT ENERGY      -652.861533290768
                    ***********************HURRAY********************

CARTESIAN COORDINATES (ANGSTROEM)
---------------------------------
  C    -21.175100   26.358639   46.407622
  C    -20.250850   27.471966   45.900607
  C    -19.891548   28.219325   47.216083
  C    -19.829570   27.069399   48.251836
  O    -20.556952   25.928557   47.636908
  H    -21.196366   25.477335   45.765863
  H    -19.362000   27.006232   45.464033
  H    -20.712463   28.112968   45.144579
  H    -18.936102   28.747513   47.139898
  H    -20.654588   28.956968   47.473661
  H    -20.302269   27.318283   49.206235
  H    -18.807819   26.727724   48.437732
  C    -23.084819   27.996414   46.900699
  H    -22.693955   28.311696   47.875296
  H    -22.795111   28.733246   46.144072
  O    -22.586761   26.662725   46.552890
  C    -24.613907   27.900050   46.955101
  C    -25.177887   26.967547   48.041124
  C    -25.053831   27.854512   49.315921
  C    -25.334354   29.273442   48.781883
  O    -25.145255   29.217051   47.300536
  H    -24.994886   27.649434   45.961651
  H    -26.238878   26.796964   47.825967
  O    -24.559254   25.676784   48.168373
  H    -25.756950   27.545279   50.093294
  H    -24.040607   27.755827   49.721823
  H    -24.662220   30.034333   49.190894
  H    -26.367523   29.590274   48.949847
  H    -23.686174   25.683516   47.710574

 Multiplicity           Mult            ....    1
 Number of Electrons    NEL             ....  102
 Basis Dimension        Dim             ....  149

ORBITAL ENERGIES
----------------

  NO   OCC          E(Eh)            E(eV)
   0   2.0000     -19.166721      -521.5530
   1   2.0000     -19.152297      -521.1605
   2   2.0000     -19.141366      -520.8631
   3   2.0000     -19.109101      -519.9851
   4   2.0000     -10.292849      -280.0827
   5   2.0000     -10.242555      -278.7141
   6   2.0000     -10.238431      -278.6019
   7   2.0000     -10.234633      -278.4985
   8   2.0000     -10.228721      -278.3377
   9   2.0000     -10.227192      -278.2960
  10   2.0000     -10.204402      -277.6759
  11   2.0000     -10.202807      -277.6325
  12   2.0000     -10.178722      -276.9771
  13   2.0000      -1.066267       -29.0146
  14   2.0000      -1.026381       -27.9293
  15   2.0000      -1.010391       -27.4941
  16   2.0000      -0.990158       -26.9436
  17   2.0000      -0.800433       -21.7809
  18   2.0000      -0.780327       -21.2338
  19   2.0000      -0.768351       -20.9079
  20   2.0000      -0.738927       -20.1072
  21   2.0000      -0.685179       -18.6447
  22   2.0000      -0.615545       -16.7498
  23   2.0000      -0.601977       -16.3806
  24   2.0000      -0.596505       -16.2317
  25   2.0000      -0.578562       -15.7435
  26   2.0000      -0.526292       -14.3211
  27   2.0000      -0.521203       -14.1827
  28   2.0000      -0.514070       -13.9886
  29   2.0000      -0.486695       -13.2436
  30   2.0000      -0.476894       -12.9769
  31   2.0000      -0.463740       -12.6190
  32   2.0000      -0.441221       -12.0062
  33   2.0000      -0.434572       -11.8253
  34   2.0000      -0.432604       -11.7718
  35   2.0000      -0.425070       -11.5667
  36   2.0000      -0.412774       -11.2322
  37   2.0000      -0.393156       -10.6983
  38   2.0000      -0.388377       -10.5683
  39   2.0000      -0.372947       -10.1484
  40   2.0000      -0.367525       -10.0009
  41   2.0000      -0.362588        -9.8665
  42   2.0000      -0.348091        -9.4720
  43   2.0000      -0.340389        -9.2625
  44   2.0000      -0.323778        -8.8104
  45   2.0000      -0.315002        -8.5716
  46   2.0000      -0.297038        -8.0828
  47   2.0000      -0.276008        -7.5106
  48   2.0000      -0.267456        -7.2779
  49   2.0000      -0.250015        -6.8033
  50   2.0000      -0.239171        -6.5082
  51   0.0000       0.053569         1.4577
  52   0.0000       0.066371         1.8061
  53   0.0000       0.087594         2.3836
  54   0.0000       0.094624         2.5749
  55   0.0000       0.102881         2.7995

MULLIKEN ATOMIC CHARGES
-----------------------
   0 C :    0.311710
   1 C :   -0.293666
   2 C :   -0.314403
   3 C :   -0.011047
   4 O :   -0.498227
   5 H :    0.174142
   6 H :    0.164339
   7 H :    0.155258
   8 H :    0.150758
   9 H :    0.153084
  10 H :    0.149475
  11 H :    0.153038
  12 C :   -0.015338
  13 H :    0.138911
  14 H :    0.156127
  15 O :   -0.558009
  16 C :    0.057451
  17 C :    0.121733
  18 C :   -0.305015
  19 C :   -0.018333
  20 O :   -0.524394
  21 H :    0.159452
  22 H :    0.148223
  23 O :   -0.635849
  24 H :    0.154897
  25 H :    0.141082
  26 H :    0.139444
  27 H :    0.148301
  28 H :    0.396857
Sum of atomic charges:    0.0000000

LOEWDIN ATOMIC CHARGES
----------------------
   0 C :    0.175654
   1 C :   -0.227463
   2 C :   -0.223165
   3 C :   -0.031635
   4 O :   -0.316683
   5 H :    0.116443
   6 H :    0.127074
   7 H :    0.120507
   8 H :    0.118802
   9 H :    0.111953
  10 H :    0.105550
  11 H :    0.108042
  12 C :   -0.045659
  13 H :    0.095583
  14 H :    0.108190
  15 O :   -0.328615
  16 C :    0.021382
  17 C :    0.042758
  18 C :   -0.238157
  19 C :   -0.032470
  20 O :   -0.325817
  21 H :    0.116400
  22 H :    0.106056
  23 O :   -0.431192
  24 H :    0.122614
  25 H :    0.108847
  26 H :    0.100056
  27 H :    0.106053
  28 H :    0.288892

  Mayer bond orders larger than 0.100000
B(  0-C ,  1-C ) :   0.9311 B(  0-C ,  4-O ) :   0.9192 B(  0-C ,  5-H ) :   0.9332
B(  0-C , 15-O ) :   0.8457 B(  1-C ,  2-C ) :   0.9518 B(  1-C ,  6-H ) :   0.9341
B(  1-C ,  7-H ) :   0.9328 B(  2-C ,  3-C ) :   0.9472 B(  2-C ,  8-H ) :   0.9445
B(  2-C ,  9-H ) :   0.9392 B(  3-C ,  4-O ) :   0.8395 B(  3-C , 10-H ) :   0.9342
B(  3-C , 11-H ) :   0.9385 B( 12-C , 13-H ) :   0.9122 B( 12-C , 14-H ) :   0.9188
B( 12-C , 15-O ) :   0.7916 B( 12-C , 16-C ) :   0.9053 B( 16-C , 17-C ) :   0.9107
B( 16-C , 20-O ) :   0.8561 B( 16-C , 21-H ) :   0.9293 B( 17-C , 18-C ) :   0.8995
B( 17-C , 22-H ) :   0.9299 B( 17-C , 23-O ) :   0.9444 B( 18-C , 19-C ) :   0.9366
B( 18-C , 24-H ) :   0.9445 B( 18-C , 25-H ) :   0.9436 B( 19-C , 20-O ) :   0.8307
B( 19-C , 26-H ) :   0.9346 B( 19-C , 27-H ) :   0.9393 B( 23-O , 28-H ) :   0.7222

FINAL SINGLE POINT ENERGY      -652.861534350253

DIPOLE MOMENT
-------------
                                X             Y             Z
Electronic contribution:     -3.10678      -4.19304      -2.10606
Nuclear contribution   :      4.40912       5.44843       1.97698
                        -----------------------------------------
Total Dipole Moment    :      1.30233       1.25539      -0.12908
                        -----------------------------------------
Magnitude (a.u.)       :      1.81349
Magnitude (Debye)      :      4.60952

Rotational constants in cm-1:     0.047464     0.015277     0.014310
Rotational constants in MHz :  1422.928136   457.988395   428.992447

                             ****ORCA TERMINATED NORMALLY****
TOTAL RUN TIME: 0 days 1 hours 12 minutes 58 seconds 108 msec
