                         Program Version 4.2.0 -  RELEASE  -
|  1> # Test redundant internal optimization
|  2> #
|  3> ! RKS B3LYP  Opt TightSCF SmallPrint
|  4>
|  5> %basis
|  6>         Basis "6-31G"
|  7> end
|  8>
|  9> %geom
| 10> Constraints
| 11> { D 4  0  15  12  75.0   C } # D for Dihedral angle
| 12> { D 0  15  12  16  150.0   C } # D for Dihedral angle
| 13> { D 0  4  3  2   C } # D for Dihedral angle
| 14> { D 4  3  2  1   C } # D for Dihedral angle
| 15> { D 3  2  1  0   C } # D for Dihedral angle
| 16> { D 2  1  0  4   C } # D for Dihedral angle
| 17> { D 1  0  4  3   C } # D for Dihedral angle
| 18> { D 16  20  19  18   C } # D for Dihedral angle
| 19> { D 20  19  18  17   C } # D for Dihedral angle
| 20> { D 19  18  17  16   C } # D for Dihedral angle
| 21> { D 18  17  16  20   C } # D for Dihedral angle
| 22> { D 17  16  20  19   C } # D for Dihedral angle
| 23> { D 15  12  16  20   C } # D for Dihedral angle
| 24> end
| 25> end
| 26>
| 27>
| 28> #%pal
| 29> #nprocs 8
| 30> #end
| 31>
| 32> * xyz 0 1
| 33> C  -21.048   26.222   46.251
| 34> C  -20.361   27.558   45.944
| 35> C  -20.329   28.222   47.341
| 36> C  -20.110   27.022   48.296
| 37> O  -20.473   25.807   47.535
| 38> H  -20.833   25.428   45.533
| 39> H  -19.344   27.382   45.576
| 40> H  -20.898   28.157   45.201
| 41> H  -19.543   28.978   47.434
| 42> H  -21.289   28.710   47.548
| 43> H  -20.733   27.082   49.195
| 44> H  -19.064   26.913   48.597
| 45> C  -23.049   27.675   47.122
| 46> H  -23.134   27.458   48.194
| 47> H  -22.316   28.481   46.992
| 48> O  -22.586   26.394   46.375
| 49> C  -24.423   28.199   46.619
| 50> C  -24.407   28.440   45.105
| 51> C  -24.582   27.003   44.558
| 52> C  -25.523   26.343   45.596
| 53> O  -25.462   27.183   46.813
| 54> H  -24.712   29.069   47.212
| 55> H  -25.255   29.070   44.816
| 56> O  -23.101   29.118   44.609
| 57> H  -24.998   26.982   43.545
| 58> H  -23.613   26.489   44.533
| 59> H  -25.219   25.322   45.849
| 60> H  -26.566   26.331   45.266
| 61> H  -22.238   28.504   44.888
| 62> *
| 63>
| 64>                          ****END OF INPUT****
 Total Charge           Charge          ....    0
 Multiplicity           Mult            ....    1
 Number of Electrons    NEL             ....  102
FINAL SINGLE POINT ENERGY      -652.787138020377
FINAL SINGLE POINT ENERGY      -652.828396964113
FINAL SINGLE POINT ENERGY      -652.847149309312
FINAL SINGLE POINT ENERGY      -652.851644185250
FINAL SINGLE POINT ENERGY      -652.852631725531
FINAL SINGLE POINT ENERGY      -652.852950281312
FINAL SINGLE POINT ENERGY      -652.853028956549
FINAL SINGLE POINT ENERGY      -652.853048089243
FINAL SINGLE POINT ENERGY      -652.853044806123
FINAL SINGLE POINT ENERGY      -652.853043263447
                    ***********************HURRAY********************

CARTESIAN COORDINATES (ANGSTROEM)
---------------------------------
  C    -21.178462   26.331999   46.494474
  C    -20.283970   27.486098   46.012542
  C    -19.953262   28.227392   47.347694
  C    -19.863274   27.052976   48.357313
  O    -20.548008   25.905116   47.721597
  H    -21.139542   25.463874   45.834067
  H    -19.377001   27.063008   45.570708
  H    -20.764642   28.134743   45.275610
  H    -19.009671   28.778804   47.286467
  H    -20.732980   28.940744   47.618448
  H    -20.346253   27.271030   49.314401
  H    -18.830397   26.744321   48.542325
  C    -23.199958   27.709103   47.242887
  H    -23.359104   27.475896   48.301447
  H    -22.559900   28.591920   47.157255
  O    -22.603246   26.546519   46.590669
  C    -24.539369   28.069479   46.603101
  C    -24.515205   28.441006   45.110544
  C    -24.611460   27.040940   44.428258
  C    -25.531478   26.261492   45.394274
  O    -25.523489   26.999671   46.680020
  H    -24.944508   28.896524   47.200738
  H    -25.392956   29.049487   44.877789
  O    -23.373965   29.240976   44.706341
  H    -25.018448   27.101688   43.414541
  H    -23.616717   26.589977   44.397296
  H    -25.180751   25.242035   45.574461
  H    -26.569893   26.233395   45.049604
  H    -22.641092   28.651788   44.438128

 Multiplicity           Mult            ....    1
 Number of Electrons    NEL             ....  102
 Basis Dimension        Dim             ....  149

ORBITAL ENERGIES
----------------

  NO   OCC          E(Eh)            E(eV)
   0   2.0000     -19.148991      -521.0705
   1   2.0000     -19.147166      -521.0209
   2   2.0000     -19.144993      -520.9617
   3   2.0000     -19.131731      -520.6009
   4   2.0000     -10.285875      -279.8929
   5   2.0000     -10.240352      -278.6541
   6   2.0000     -10.232891      -278.4511
   7   2.0000     -10.230425      -278.3840
   8   2.0000     -10.229551      -278.3602
   9   2.0000     -10.220933      -278.1257
  10   2.0000     -10.201649      -277.6010
  11   2.0000     -10.198699      -277.5207
  12   2.0000     -10.184149      -277.1248
  13   2.0000      -1.055754       -28.7285
  14   2.0000      -1.030055       -28.0292
  15   2.0000      -1.012443       -27.5500
  16   2.0000      -0.998387       -27.1675
  17   2.0000      -0.794572       -21.6214
  18   2.0000      -0.777545       -21.1581
  19   2.0000      -0.769279       -20.9332
  20   2.0000      -0.736778       -20.0487
  21   2.0000      -0.682785       -18.5795
  22   2.0000      -0.611438       -16.6381
  23   2.0000      -0.605346       -16.4723
  24   2.0000      -0.603583       -16.4243
  25   2.0000      -0.562015       -15.2932
  26   2.0000      -0.523554       -14.2466
  27   2.0000      -0.516732       -14.0610
  28   2.0000      -0.505445       -13.7538
  29   2.0000      -0.496308       -13.5052
  30   2.0000      -0.470998       -12.8165
  31   2.0000      -0.454191       -12.3592
  32   2.0000      -0.443747       -12.0750
  33   2.0000      -0.434563       -11.8251
  34   2.0000      -0.428697       -11.6655
  35   2.0000      -0.422895       -11.5076
  36   2.0000      -0.407112       -11.0781
  37   2.0000      -0.401780       -10.9330
  38   2.0000      -0.386516       -10.5176
  39   2.0000      -0.371850       -10.1186
  40   2.0000      -0.368561       -10.0291
  41   2.0000      -0.361409        -9.8344
  42   2.0000      -0.348223        -9.4756
  43   2.0000      -0.321814        -8.7570
  44   2.0000      -0.318664        -8.6713
  45   2.0000      -0.314770        -8.5653
  46   2.0000      -0.305060        -8.3011
  47   2.0000      -0.271429        -7.3860
  48   2.0000      -0.265610        -7.2276
  49   2.0000      -0.258039        -7.0216
  50   2.0000      -0.236747        -6.4422
  51   0.0000       0.044314         1.2058
  52   0.0000       0.071941         1.9576
  53   0.0000       0.091029         2.4770
  54   0.0000       0.096879         2.6362
  55   0.0000       0.099286         2.7017

MULLIKEN ATOMIC CHARGES
-----------------------
   0 C :    0.308019
   1 C :   -0.290479
   2 C :   -0.314415
   3 C :   -0.008413
   4 O :   -0.501248
   5 H :    0.163204
   6 H :    0.161669
   7 H :    0.130220
   8 H :    0.148552
   9 H :    0.157919
  10 H :    0.148407
  11 H :    0.148979
  12 C :   -0.013839
  13 H :    0.159490
  14 H :    0.139215
  15 O :   -0.530354
  16 C :    0.089154
  17 C :    0.081712
  18 C :   -0.315527
  19 C :   -0.002294
  20 O :   -0.516810
  21 H :    0.148930
  22 H :    0.161080
  23 O :   -0.616331
  24 H :    0.143196
  25 H :    0.155097
  26 H :    0.155656
  27 H :    0.141048
  28 H :    0.368162
Sum of atomic charges:    0.0000000

LOEWDIN ATOMIC CHARGES
----------------------
   0 C :    0.173217
   1 C :   -0.231273
   2 C :   -0.222715
   3 C :   -0.032221
   4 O :   -0.317349
   5 H :    0.111211
   6 H :    0.125549
   7 H :    0.107117
   8 H :    0.117106
   9 H :    0.112256
  10 H :    0.104969
  11 H :    0.105413
  12 C :   -0.046799
  13 H :    0.113363
  14 H :    0.102334
  15 O :   -0.323345
  16 C :    0.019219
  17 C :    0.036608
  18 C :   -0.242301
  19 C :   -0.023439
  20 O :   -0.319666
  21 H :    0.113572
  22 H :    0.114878
  23 O :   -0.414803
  24 H :    0.113927
  25 H :    0.116494
  26 H :    0.110120
  27 H :    0.100535
  28 H :    0.276024

  Mayer bond orders larger than 0.100000
B(  0-C ,  1-C ) :   0.9171 B(  0-C ,  4-O ) :   0.9063 B(  0-C ,  5-H ) :   0.9367
B(  0-C , 15-O ) :   0.8966 B(  1-C ,  2-C ) :   0.9543 B(  1-C ,  6-H ) :   0.9335
B(  1-C ,  7-H ) :   0.9266 B(  2-C ,  3-C ) :   0.9462 B(  2-C ,  8-H ) :   0.9446
B(  2-C ,  9-H ) :   0.9357 B(  3-C ,  4-O ) :   0.8453 B(  3-C , 10-H ) :   0.9337
B(  3-C , 11-H ) :   0.9386 B( 12-C , 13-H ) :   0.9232 B( 12-C , 14-H ) :   0.8886
B( 12-C , 15-O ) :   0.8281 B( 12-C , 16-C ) :   0.9168 B( 16-C , 17-C ) :   0.8843
B( 16-C , 20-O ) :   0.8812 B( 16-C , 21-H ) :   0.9272 B( 17-C , 18-C ) :   0.9436
B( 17-C , 22-H ) :   0.9337 B( 17-C , 23-O ) :   0.8935 B( 18-C , 19-C ) :   0.9457
B( 18-C , 24-H ) :   0.9398 B( 18-C , 25-H ) :   0.9263 B( 19-C , 20-O ) :   0.8403
B( 19-C , 26-H ) :   0.9305 B( 19-C , 27-H ) :   0.9373 B( 23-O , 28-H ) :   0.7801

FINAL SINGLE POINT ENERGY      -652.853042900121

DIPOLE MOMENT
-------------
                                X             Y             Z
Electronic contribution:     -3.19307      -2.16975       1.13991
Nuclear contribution   :      4.16791       2.69813      -1.72305
                        -----------------------------------------
Total Dipole Moment    :      0.97484       0.52838      -0.58314
                        -----------------------------------------
Magnitude (a.u.)       :      1.25282
Magnitude (Debye)      :      3.18441

Rotational constants in cm-1:     0.050004     0.016090     0.014667
Rotational constants in MHz :  1499.073697   482.354794   439.709529

                             ****ORCA TERMINATED NORMALLY****
TOTAL RUN TIME: 0 days 0 hours 30 minutes 37 seconds 370 msec
