                         Program Version 4.2.0 -  RELEASE  -
|  1> # Test redundant internal optimization
|  2> #
|  3> ! RKS B3LYP  Opt TightSCF SmallPrint
|  4>
|  5> %basis
|  6>         Basis "6-31G"
|  7> end
|  8>
|  9> %geom
| 10> Constraints
| 11> { D 4  0  15  12  210.0   C } # D for Dihedral angle
| 12> { D 0  15  12  16  90.0   C } # D for Dihedral angle
| 13> { D 0  4  3  2   C } # D for Dihedral angle
| 14> { D 4  3  2  1   C } # D for Dihedral angle
| 15> { D 3  2  1  0   C } # D for Dihedral angle
| 16> { D 2  1  0  4   C } # D for Dihedral angle
| 17> { D 1  0  4  3   C } # D for Dihedral angle
| 18> { D 16  20  19  18   C } # D for Dihedral angle
| 19> { D 20  19  18  17   C } # D for Dihedral angle
| 20> { D 19  18  17  16   C } # D for Dihedral angle
| 21> { D 18  17  16  20   C } # D for Dihedral angle
| 22> { D 17  16  20  19   C } # D for Dihedral angle
| 23> { D 15  12  16  20   C } # D for Dihedral angle
| 24> end
| 25> end
| 26>
| 27>
| 28> #%pal
| 29> #nprocs 8
| 30> #end
| 31>
| 32> * xyz 0 1
| 33> C  -21.048   26.222   46.251
| 34> C  -20.361   27.558   45.944
| 35> C  -20.329   28.222   47.341
| 36> C  -20.110   27.022   48.296
| 37> O  -20.473   25.807   47.535
| 38> H  -20.833   25.428   45.533
| 39> H  -19.344   27.382   45.576
| 40> H  -20.898   28.157   45.201
| 41> H  -19.543   28.978   47.434
| 42> H  -21.289   28.710   47.548
| 43> H  -20.733   27.082   49.195
| 44> H  -19.064   26.913   48.597
| 45> C  -23.389   26.110   45.076
| 46> H  -24.291   26.735   45.064
| 47> H  -22.789   26.358   44.191
| 48> O  -22.586   26.394   46.375
| 49> C  -23.823   24.624   44.951
| 50> C  -24.510   24.356   43.608
| 51> C  -23.299   24.243   42.652
| 52> C  -22.218   23.567   43.533
| 53> O  -22.648   23.746   44.937
| 54> H  -24.417   24.349   45.825
| 55> O  -25.290   23.013   43.666
| 56> H  -25.209   25.148   43.316
| 57> H  -23.522   23.665   41.749
| 58> H  -22.972   25.241   42.339
| 59> H  -21.228   24.016   43.401
| 60> H  -22.146   22.490   43.353
| 61> H  -24.610   22.205   43.956
| 62> *
| 63>
| 64>                          ****END OF INPUT****
 Total Charge           Charge          ....    0
 Multiplicity           Mult            ....    1
 Number of Electrons    NEL             ....  102
FINAL SINGLE POINT ENERGY      -652.832653634003
FINAL SINGLE POINT ENERGY      -652.855314310580
FINAL SINGLE POINT ENERGY      -652.859198029670
FINAL SINGLE POINT ENERGY      -652.859880564769
FINAL SINGLE POINT ENERGY      -652.859966765835
FINAL SINGLE POINT ENERGY      -652.859975705045
                    ***********************HURRAY********************

CARTESIAN COORDINATES (ANGSTROEM)
---------------------------------
  C    -21.023986   26.221721   46.167590
  C    -20.368251   27.584086   45.954129
  C    -20.435950   28.198439   47.372714
  C    -20.232272   26.972946   48.288025
  O    -20.519321   25.787007   47.438751
  H    -20.786703   25.443403   45.442053
  H    -19.327345   27.442433   45.638228
  H    -20.880426   28.189273   45.200440
  H    -19.679888   28.972666   47.533826
  H    -21.424788   28.637886   47.534095
  H    -20.907588   26.959039   49.146928
  H    -19.200003   26.866924   48.635130
  C    -23.249813   26.141611   45.069503
  H    -24.142877   26.768315   45.166235
  H    -22.695455   26.480098   44.179855
  O    -22.475187   26.371221   46.274330
  C    -23.671707   24.678503   44.931321
  C    -24.467901   24.355166   43.658341
  C    -23.333824   24.170605   42.616066
  C    -22.197288   23.519964   43.443795
  O    -22.512637   23.777599   44.872289
  H    -24.225679   24.395038   45.831256
  O    -25.248552   23.140799   43.824488
  H    -25.188051   25.125785   43.379259
  H    -23.671113   23.544481   41.786593
  H    -23.026678   25.141852   42.212094
  H    -21.212874   23.939939   43.213966
  H    -22.149764   22.434441   43.316058
  H    -24.716080   22.479758   44.315640

 Multiplicity           Mult            ....    1
 Number of Electrons    NEL             ....  102
 Basis Dimension        Dim             ....  149

ORBITAL ENERGIES
----------------

  NO   OCC          E(Eh)            E(eV)
   0   2.0000     -19.147836      -521.0391
   1   2.0000     -19.141362      -520.8629
   2   2.0000     -19.135407      -520.7009
   3   2.0000     -19.132713      -520.6276
   4   2.0000     -10.270025      -279.4616
   5   2.0000     -10.246565      -278.8232
   6   2.0000     -10.235587      -278.5245
   7   2.0000     -10.235558      -278.5237
   8   2.0000     -10.234907      -278.5060
   9   2.0000     -10.218738      -278.0660
  10   2.0000     -10.194055      -277.3943
  11   2.0000     -10.181857      -277.0624
  12   2.0000     -10.181326      -277.0480
  13   2.0000      -1.047826       -28.5128
  14   2.0000      -1.038006       -28.2456
  15   2.0000      -1.009628       -27.4734
  16   2.0000      -0.988167       -26.8894
  17   2.0000      -0.788680       -21.4611
  18   2.0000      -0.781040       -21.2532
  19   2.0000      -0.768249       -20.9051
  20   2.0000      -0.728193       -19.8152
  21   2.0000      -0.676270       -18.4022
  22   2.0000      -0.607701       -16.5364
  23   2.0000      -0.599409       -16.3107
  24   2.0000      -0.591876       -16.1058
  25   2.0000      -0.578360       -15.7380
  26   2.0000      -0.528649       -14.3853
  27   2.0000      -0.506425       -13.7805
  28   2.0000      -0.499207       -13.5841
  29   2.0000      -0.487003       -13.2520
  30   2.0000      -0.475436       -12.9373
  31   2.0000      -0.457797       -12.4573
  32   2.0000      -0.449141       -12.2217
  33   2.0000      -0.444765       -12.1027
  34   2.0000      -0.424644       -11.5551
  35   2.0000      -0.409686       -11.1481
  36   2.0000      -0.398594       -10.8463
  37   2.0000      -0.393516       -10.7081
  38   2.0000      -0.377200       -10.2641
  39   2.0000      -0.368613       -10.0305
  40   2.0000      -0.365946        -9.9579
  41   2.0000      -0.352085        -9.5807
  42   2.0000      -0.348472        -9.4824
  43   2.0000      -0.335634        -9.1331
  44   2.0000      -0.312242        -8.4965
  45   2.0000      -0.305782        -8.3208
  46   2.0000      -0.301076        -8.1927
  47   2.0000      -0.275446        -7.4953
  48   2.0000      -0.268159        -7.2970
  49   2.0000      -0.251679        -6.8485
  50   2.0000      -0.233463        -6.3528
  51   0.0000       0.058012         1.5786
  52   0.0000       0.081462         2.2167
  53   0.0000       0.086816         2.3624
  54   0.0000       0.098721         2.6863
  55   0.0000       0.104352         2.8396

MULLIKEN ATOMIC CHARGES
-----------------------
   0 C :    0.290452
   1 C :   -0.262411
   2 C :   -0.298923
   3 C :   -0.000660
   4 O :   -0.499394
   5 H :    0.161856
   6 H :    0.140787
   7 H :    0.137908
   8 H :    0.138753
   9 H :    0.160069
  10 H :    0.152423
  11 H :    0.138672
  12 C :   -0.031057
  13 H :    0.152139
  14 H :    0.117872
  15 O :   -0.506255
  16 C :    0.072546
  17 C :    0.079380
  18 C :   -0.291349
  19 C :   -0.034924
  20 O :   -0.510908
  21 H :    0.174308
  22 O :   -0.601259
  23 H :    0.152159
  24 H :    0.165479
  25 H :    0.140108
  26 H :    0.141115
  27 H :    0.153482
  28 H :    0.367631
Sum of atomic charges:    0.0000000

LOEWDIN ATOMIC CHARGES
----------------------
   0 C :    0.177856
   1 C :   -0.228961
   2 C :   -0.217200
   3 C :   -0.026142
   4 O :   -0.301670
   5 H :    0.108531
   6 H :    0.111265
   7 H :    0.112210
   8 H :    0.112580
   9 H :    0.118261
  10 H :    0.108369
  11 H :    0.100753
  12 C :   -0.044240
  13 H :    0.115232
  14 H :    0.088069
  15 O :   -0.330245
  16 C :    0.007669
  17 C :    0.035184
  18 C :   -0.240517
  19 C :   -0.040640
  20 O :   -0.323575
  21 H :    0.123249
  22 O :   -0.413372
  23 H :    0.115647
  24 H :    0.128246
  25 H :    0.111095
  26 H :    0.100930
  27 H :    0.106246
  28 H :    0.285168

  Mayer bond orders larger than 0.100000
B(  0-C ,  1-C ) :   0.9306 B(  0-C ,  4-O ) :   0.9357 B(  0-C ,  5-H ) :   0.9102
B(  0-C , 15-O ) :   0.8149 B(  1-C ,  2-C ) :   0.9533 B(  1-C ,  6-H ) :   0.9353
B(  1-C ,  7-H ) :   0.9382 B(  2-C ,  3-C ) :   0.9556 B(  2-C ,  8-H ) :   0.9454
B(  2-C ,  9-H ) :   0.9438 B(  3-C ,  4-O ) :   0.8402 B(  3-C , 10-H ) :   0.9345
B(  3-C , 11-H ) :   0.9398 B( 12-C , 13-H ) :   0.9284 B( 12-C , 14-H ) :   0.9219
B( 12-C , 15-O ) :   0.8765 B( 12-C , 16-C ) :   0.8827 B( 16-C , 17-C ) :   0.8943
B( 16-C , 20-O ) :   0.8553 B( 16-C , 21-H ) :   0.9234 B( 17-C , 18-C ) :   0.9099
B( 17-C , 22-O ) :   0.8947 B( 17-C , 23-H ) :   0.9333 B( 18-C , 19-C ) :   0.9399
B( 18-C , 24-H ) :   0.9370 B( 18-C , 25-H ) :   0.9337 B( 19-C , 20-O ) :   0.8486
B( 19-C , 26-H ) :   0.9339 B( 19-C , 27-H ) :   0.9375 B( 22-O , 28-H ) :   0.7927

FINAL SINGLE POINT ENERGY      -652.859977694443

DIPOLE MOMENT
-------------
                                X             Y             Z
Electronic contribution:     -2.85232      -4.64090       2.23021
Nuclear contribution   :      3.37329       5.58242      -3.28602
                        -----------------------------------------
Total Dipole Moment    :      0.52098       0.94152      -1.05581
                        -----------------------------------------
Magnitude (a.u.)       :      1.50752
Magnitude (Debye)      :      3.83180

Rotational constants in cm-1:     0.068386     0.012083     0.011935
Rotational constants in MHz :  2050.174164   362.243090   357.812623

                             ****ORCA TERMINATED NORMALLY****
TOTAL RUN TIME: 0 days 0 hours 23 minutes 55 seconds 621 msec
