                         Program Version 4.2.1 -  RELEASE  -
|  1> # Test redundant internal optimization
|  2> #
|  3> ! RKS B3LYP  Opt TightSCF SmallPrint
|  4>
|  5> %basis
|  6>         Basis "6-31G"
|  7> end
|  8>
|  9> %geom
| 10> Constraints
| 11> { D 4  0  19  14  15.0   C } # D for Dihedral angle
| 12> { D 0  19  14  12  165.0   C } # D for Dihedral angle
| 13> { D 0  4  3  2   C } # D for Dihedral angle
| 14> { D 4  3  2  1   C } # D for Dihedral angle
| 15> { D 3  2  1  0   C } # D for Dihedral angle
| 16> { D 2  1  0  4   C } # D for Dihedral angle
| 17> { D 1  0  4  3   C } # D for Dihedral angle
| 18> { D 14  15  16  17   C } # D for Dihedral angle
| 19> { D 15  16  17  12   C } # D for Dihedral angle
| 20> { D 16  17  12  14   C } # D for Dihedral angle
| 21> { D 17  12  14  15   C } # D for Dihedral angle
| 22> { D 12  14  15  16   C } # D for Dihedral angle
| 23> end
| 24> end
| 25>
| 26>
| 27> #%pal
| 28> #nprocs 8
| 29> #end
| 30>
| 31> * xyz 0 1
| 32> C  -21.048   26.222   46.251
| 33> C  -20.361   27.558   45.944
| 34> C  -20.329   28.222   47.341
| 35> C  -20.110   27.022   48.296
| 36> O  -20.473   25.807   47.535
| 37> H  -20.833   25.428   45.533
| 38> H  -19.344   27.382   45.576
| 39> H  -20.898   28.157   45.201
| 40> H  -19.543   28.978   47.434
| 41> H  -21.289   28.710   47.548
| 42> H  -20.733   27.082   49.195
| 43> H  -19.064   26.913   48.597
| 44> C  -24.390   26.977   47.740
| 45> H  -24.680   27.306   48.751
| 46> C  -22.954   26.442   47.718
| 47> C  -23.139   25.020   48.297
| 48> C  -24.522   24.592   47.744
| 49> O  -25.208   25.833   47.321
| 50> H  -24.584   27.784   47.032
| 51> O  -22.472   26.381   46.366
| 52> H  -22.259   27.052   48.305
| 53> H  -22.340   24.333   48.000
| 54> H  -23.157   25.058   49.393
| 55> H  -25.135   24.080   48.494
| 56> H  -24.438   23.953   46.859
| 57> *
| 58>
| 59>                          ****END OF INPUT****
 Total Charge           Charge          ....    0
 Multiplicity           Mult            ....    1
 Number of Electrons    NEL             ....   86
FINAL SINGLE POINT ENERGY      -538.418042146895
FINAL SINGLE POINT ENERGY      -538.427878540217
FINAL SINGLE POINT ENERGY      -538.429167439531
FINAL SINGLE POINT ENERGY      -538.429417512888
FINAL SINGLE POINT ENERGY      -538.429437825254
FINAL SINGLE POINT ENERGY      -538.429444146470
                    ***********************HURRAY********************

CARTESIAN COORDINATES (ANGSTROEM)
---------------------------------
  C    -21.035325   26.273618   46.333802
  C    -20.389784   27.607482   45.946791
  C    -20.167214   28.267712   47.331509
  C    -19.828768   27.062410   48.240346
  O    -20.305489   25.856396   47.511099
  H    -20.897851   25.485719   45.590512
  H    -19.433991   27.413414   45.446692
  H    -21.029377   28.193234   45.283508
  H    -19.365049   29.011962   47.320514
  H    -21.083518   28.767982   47.662893
  H    -20.317737   27.101723   49.218106
  H    -18.752213   26.933622   48.385879
  C    -24.505490   26.913596   47.667639
  H    -24.913182   27.246895   48.633928
  C    -23.070546   26.414913   47.837704
  C    -23.296815   24.997165   48.399722
  C    -24.582436   24.529877   47.678970
  O    -25.235102   25.752383   47.158278
  H    -24.594649   27.710745   46.928528
  O    -22.474154   26.387233   46.507020
  H    -22.492479   27.046240   48.520313
  H    -22.433432   24.355324   48.216792
  H    -23.453871   25.060567   49.484008
  H    -25.276601   24.009618   48.349169
  H    -24.367928   23.892169   46.817279

 Multiplicity           Mult            ....    1
 Number of Electrons    NEL             ....   86
 Basis Dimension        Dim             ....  127

ORBITAL ENERGIES
----------------

  NO   OCC          E(Eh)            E(eV)
   0   2.0000     -19.152985      -521.1792
   1   2.0000     -19.136796      -520.7387
   2   2.0000     -19.121825      -520.3313
   3   2.0000     -10.280611      -279.7497
   4   2.0000     -10.238849      -278.6132
   5   2.0000     -10.236494      -278.5492
   6   2.0000     -10.217889      -278.0429
   7   2.0000     -10.213894      -277.9342
   8   2.0000     -10.195746      -277.4404
   9   2.0000     -10.188139      -277.2333
  10   2.0000     -10.176839      -276.9259
  11   2.0000      -1.056310       -28.7437
  12   2.0000      -1.011058       -27.5123
  13   2.0000      -0.987594       -26.8738
  14   2.0000      -0.794265       -21.6131
  15   2.0000      -0.778877       -21.1943
  16   2.0000      -0.740413       -20.1477
  17   2.0000      -0.720863       -19.6157
  18   2.0000      -0.616368       -16.7722
  19   2.0000      -0.605818       -16.4852
  20   2.0000      -0.592525       -16.1234
  21   2.0000      -0.563670       -15.3382
  22   2.0000      -0.526956       -14.3392
  23   2.0000      -0.501495       -13.6464
  24   2.0000      -0.486532       -13.2392
  25   2.0000      -0.479965       -13.0605
  26   2.0000      -0.451587       -12.2883
  27   2.0000      -0.444824       -12.1043
  28   2.0000      -0.422984       -11.5100
  29   2.0000      -0.412510       -11.2250
  30   2.0000      -0.410179       -11.1615
  31   2.0000      -0.385342       -10.4857
  32   2.0000      -0.372874       -10.1464
  33   2.0000      -0.364259        -9.9120
  34   2.0000      -0.362687        -9.8692
  35   2.0000      -0.358729        -9.7615
  36   2.0000      -0.344948        -9.3865
  37   2.0000      -0.328828        -8.9479
  38   2.0000      -0.311353        -8.4724
  39   2.0000      -0.292077        -7.9478
  40   2.0000      -0.265376        -7.2212
  41   2.0000      -0.250755        -6.8234
  42   2.0000      -0.226654        -6.1676
  43   0.0000       0.065868         1.7923
  44   0.0000       0.093002         2.5307
  45   0.0000       0.098821         2.6890
  46   0.0000       0.107785         2.9330
  47   0.0000       0.120298         3.2735

MULLIKEN ATOMIC CHARGES
-----------------------
   0 C :    0.300702
   1 C :   -0.256651
   2 C :   -0.312391
   3 C :   -0.018678
   4 O :   -0.513238
   5 H :    0.161036
   6 H :    0.146269
   7 H :    0.161219
   8 H :    0.149900
   9 H :    0.151465
  10 H :    0.144272
  11 H :    0.152559
  12 C :    0.006791
  13 H :    0.119286
  14 C :    0.071749
  15 C :   -0.293125
  16 C :   -0.001762
  17 O :   -0.519349
  18 H :    0.162253
  19 O :   -0.531107
  20 H :    0.124678
  21 H :    0.174502
  22 H :    0.134541
  23 H :    0.132376
  24 H :    0.152705
Sum of atomic charges:   -0.0000000

LOEWDIN ATOMIC CHARGES
----------------------
   0 C :    0.181931
   1 C :   -0.222066
   2 C :   -0.221580
   3 C :   -0.034841
   4 O :   -0.321072
   5 H :    0.108223
   6 H :    0.115055
   7 H :    0.125824
   8 H :    0.118568
   9 H :    0.111386
  10 H :    0.100438
  11 H :    0.107641
  12 C :   -0.034401
  13 H :    0.088842
  14 C :    0.041228
  15 C :   -0.235979
  16 C :   -0.029900
  17 O :   -0.329715
  18 H :    0.120082
  19 O :   -0.329966
  20 H :    0.094527
  21 H :    0.131544
  22 H :    0.109843
  23 H :    0.096854
  24 H :    0.107534

  Mayer bond orders larger than 0.100000
B(  0-C ,  1-C ) :   0.9256 B(  0-C ,  4-O ) :   0.8996 B(  0-C ,  5-H ) :   0.9325
B(  0-C , 19-O ) :   0.8589 B(  1-C ,  2-C ) :   0.9522 B(  1-C ,  6-H ) :   0.9347
B(  1-C ,  7-H ) :   0.9362 B(  2-C ,  3-C ) :   0.9509 B(  2-C ,  8-H ) :   0.9444
B(  2-C ,  9-H ) :   0.9443 B(  3-C ,  4-O ) :   0.8333 B(  3-C , 10-H ) :   0.9302
B(  3-C , 11-H ) :   0.9389 B( 12-C , 13-H ) :   0.9155 B( 12-C , 14-C ) :   0.9358
B( 12-C , 17-O ) :   0.8762 B( 12-C , 18-H ) :   0.9309 B( 14-C , 15-C ) :   0.9345
B( 14-C , 19-O ) :   0.8232 B( 14-C , 20-H ) :   0.9135 B( 15-C , 16-C ) :   0.9449
B( 15-C , 21-H ) :   0.9328 B( 15-C , 22-H ) :   0.9373 B( 16-C , 17-O ) :   0.8547
B( 16-C , 23-H ) :   0.9333 B( 16-C , 24-H ) :   0.9365

FINAL SINGLE POINT ENERGY      -538.429444640371

DIPOLE MOMENT
-------------
                                X             Y             Z
Electronic contribution:     -2.05668      -2.21733      -2.32187
Nuclear contribution   :      3.18057       2.96549       3.04141
                        -----------------------------------------
Total Dipole Moment    :      1.12388       0.74816       0.71954
                        -----------------------------------------
Magnitude (a.u.)       :      1.52990
Magnitude (Debye)      :      3.88869

Rotational constants in cm-1:     0.081185     0.022191     0.021007
Rotational constants in MHz :  2433.861535   665.262314   629.760732

                             ****ORCA TERMINATED NORMALLY****
TOTAL RUN TIME: 0 days 0 hours 7 minutes 12 seconds 521 msec
