                         Program Version 4.2.0 -  RELEASE  -
|  1> # Test redundant internal optimization
|  2> #
|  3> ! RKS B3LYP  Opt TightSCF SmallPrint
|  4>
|  5> %basis
|  6>         Basis "6-31G"
|  7> end
|  8>
|  9> %geom
| 10> Constraints
| 11> { D 4  0  15  12  240.0   C } # D for Dihedral angle
| 12> { D 0  15  12  16  285.0   C } # D for Dihedral angle
| 13> { D 0  4  3  2   C } # D for Dihedral angle
| 14> { D 4  3  2  1   C } # D for Dihedral angle
| 15> { D 3  2  1  0   C } # D for Dihedral angle
| 16> { D 2  1  0  4   C } # D for Dihedral angle
| 17> { D 1  0  4  3   C } # D for Dihedral angle
| 18> { D 16  20  19  18   C } # D for Dihedral angle
| 19> { D 20  19  18  17   C } # D for Dihedral angle
| 20> { D 19  18  17  16   C } # D for Dihedral angle
| 21> { D 18  17  16  20   C } # D for Dihedral angle
| 22> { D 17  16  20  19   C } # D for Dihedral angle
| 23> { D 15  12  16  20   C } # D for Dihedral angle
| 24> end
| 25> end
| 26>
| 27>
| 28> #%pal
| 29> #nprocs 8
| 30> #end
| 31>
| 32> * xyz 0 1
| 33> C  -21.048   26.222   46.251
| 34> C  -20.361   27.558   45.944
| 35> C  -20.329   28.222   47.341
| 36> C  -20.110   27.022   48.296
| 37> O  -20.473   25.807   47.535
| 38> H  -20.833   25.428   45.533
| 39> H  -19.344   27.382   45.576
| 40> H  -20.898   28.157   45.201
| 41> H  -19.543   28.978   47.434
| 42> H  -21.289   28.710   47.548
| 43> H  -20.733   27.082   49.195
| 44> H  -19.064   26.913   48.597
| 45> C  -23.430   25.483   45.442
| 46> H  -23.033   24.460   45.479
| 47> H  -24.476   25.457   45.774
| 48> O  -22.586   26.394   46.375
| 49> C  -23.415   25.959   43.963
| 50> C  -23.873   27.417   43.843
| 51> C  -22.596   28.183   44.264
| 52> C  -21.454   27.298   43.703
| 53> O  -22.044   25.967   43.441
| 54> H  -23.985   25.255   43.355
| 55> H  -24.135   27.644   42.804
| 56> O  -25.096   27.749   44.740
| 57> H  -22.563   29.204   43.870
| 58> H  -22.536   28.243   45.357
| 59> H  -20.623   27.189   44.408
| 60> H  -21.066   27.671   42.751
| 61> H  -24.856   27.528   45.786
| 62> *
| 63>
| 64>                          ****END OF INPUT****
 Total Charge           Charge          ....    0
 Multiplicity           Mult            ....    1
 Number of Electrons    NEL             ....  102
FINAL SINGLE POINT ENERGY      -652.745861772294
FINAL SINGLE POINT ENERGY      -652.825817889272
FINAL SINGLE POINT ENERGY      -652.848583661701
FINAL SINGLE POINT ENERGY      -652.854654264750
FINAL SINGLE POINT ENERGY      -652.855721070795
FINAL SINGLE POINT ENERGY      -652.855913696509
FINAL SINGLE POINT ENERGY      -652.855931120385
FINAL SINGLE POINT ENERGY      -652.855932439806
                    ***********************HURRAY********************

CARTESIAN COORDINATES (ANGSTROEM)
---------------------------------
  C    -20.910623   26.189499   46.397419
  C    -20.232085   27.554311   46.258521
  C    -20.311130   28.107715   47.708425
  C    -20.135860   26.828939   48.558702
  O    -20.425050   25.694794   47.656963
  H    -20.669915   25.452595   45.628455
  H    -19.187073   27.405358   45.960598
  H    -20.711655   28.211376   45.537404
  H    -19.543492   28.858576   47.915633
  H    -21.295190   28.555116   47.878891
  H    -20.819646   26.783617   49.410260
  H    -19.109155   26.696776   48.914022
  C    -23.206237   25.608073   45.575176
  H    -22.888476   24.555736   45.606923
  H    -24.207125   25.662769   46.016089
  O    -22.359157   26.362822   46.491357
  C    -23.343903   25.992004   44.097336
  C    -24.002330   27.345154   43.778261
  C    -22.769782   28.296208   43.722629
  C    -21.670841   27.396057   43.116944
  O    -22.131030   25.991041   43.288813
  H    -23.962235   25.182451   43.685523
  H    -24.503187   27.295678   42.809450
  O    -25.031539   27.750371   44.708519
  H    -22.957864   29.193793   43.127770
  H    -22.525045   28.600137   44.745908
  H    -20.693140   27.512793   43.587752
  H    -21.559148   27.555988   42.040137
  H    -24.630087   27.942252   45.582119

 Multiplicity           Mult            ....    1
 Number of Electrons    NEL             ....  102
 Basis Dimension        Dim             ....  149

ORBITAL ENERGIES
----------------

  NO   OCC          E(Eh)            E(eV)
   0   2.0000     -19.148019      -521.0441
   1   2.0000     -19.146646      -521.0067
   2   2.0000     -19.145459      -520.9744
   3   2.0000     -19.138436      -520.7833
   4   2.0000     -10.279830      -279.7284
   5   2.0000     -10.244606      -278.7699
   6   2.0000     -10.236420      -278.5471
   7   2.0000     -10.234838      -278.5041
   8   2.0000     -10.233109      -278.4570
   9   2.0000     -10.224796      -278.2309
  10   2.0000     -10.193701      -277.3847
  11   2.0000     -10.188486      -277.2428
  12   2.0000     -10.188271      -277.2370
  13   2.0000      -1.053020       -28.6541
  14   2.0000      -1.035645       -28.1813
  15   2.0000      -1.018565       -27.7166
  16   2.0000      -0.993820       -27.0432
  17   2.0000      -0.789229       -21.4760
  18   2.0000      -0.782305       -21.2876
  19   2.0000      -0.771960       -21.0061
  20   2.0000      -0.734155       -19.9774
  21   2.0000      -0.685091       -18.6423
  22   2.0000      -0.613420       -16.6920
  23   2.0000      -0.601133       -16.3577
  24   2.0000      -0.600640       -16.3442
  25   2.0000      -0.573211       -15.5979
  26   2.0000      -0.529593       -14.4109
  27   2.0000      -0.510792       -13.8993
  28   2.0000      -0.508881       -13.8474
  29   2.0000      -0.485355       -13.2072
  30   2.0000      -0.466458       -12.6930
  31   2.0000      -0.461899       -12.5689
  32   2.0000      -0.452107       -12.3025
  33   2.0000      -0.437964       -11.9176
  34   2.0000      -0.427844       -11.6422
  35   2.0000      -0.419144       -11.4055
  36   2.0000      -0.411712       -11.2032
  37   2.0000      -0.397529       -10.8173
  38   2.0000      -0.386435       -10.5154
  39   2.0000      -0.368351       -10.0233
  40   2.0000      -0.364110        -9.9079
  41   2.0000      -0.354487        -9.6461
  42   2.0000      -0.350391        -9.5346
  43   2.0000      -0.336687        -9.1617
  44   2.0000      -0.318087        -8.6556
  45   2.0000      -0.314186        -8.5494
  46   2.0000      -0.310205        -8.4411
  47   2.0000      -0.274879        -7.4798
  48   2.0000      -0.268879        -7.3166
  49   2.0000      -0.253829        -6.9070
  50   2.0000      -0.241272        -6.5653
  51   0.0000       0.060829         1.6552
  52   0.0000       0.072760         1.9799
  53   0.0000       0.082791         2.2529
  54   0.0000       0.093780         2.5519
  55   0.0000       0.100596         2.7374

MULLIKEN ATOMIC CHARGES
-----------------------
   0 C :    0.280430
   1 C :   -0.265456
   2 C :   -0.304673
   3 C :    0.003127
   4 O :   -0.500937
   5 H :    0.167250
   6 H :    0.147365
   7 H :    0.141093
   8 H :    0.142310
   9 H :    0.156059
  10 H :    0.151477
  11 H :    0.140725
  12 C :   -0.046963
  13 H :    0.152136
  14 H :    0.158773
  15 O :   -0.528709
  16 C :    0.093204
  17 C :    0.087371
  18 C :   -0.318809
  19 C :   -0.020292
  20 O :   -0.524830
  21 H :    0.154317
  22 H :    0.167178
  23 O :   -0.603748
  24 H :    0.154010
  25 H :    0.152009
  26 H :    0.146656
  27 H :    0.151137
  28 H :    0.367790
Sum of atomic charges:   -0.0000000

LOEWDIN ATOMIC CHARGES
----------------------
   0 C :    0.175700
   1 C :   -0.225269
   2 C :   -0.217324
   3 C :   -0.025917
   4 O :   -0.311778
   5 H :    0.112091
   6 H :    0.114929
   7 H :    0.113852
   8 H :    0.114243
   9 H :    0.115603
  10 H :    0.107497
  11 H :    0.101659
  12 C :   -0.052722
  13 H :    0.107167
  14 H :    0.120633
  15 O :   -0.344391
  16 C :    0.002667
  17 C :    0.036137
  18 C :   -0.241417
  19 C :   -0.032322
  20 O :   -0.325355
  21 H :    0.118370
  22 H :    0.118235
  23 O :   -0.407359
  24 H :    0.121335
  25 H :    0.111050
  26 H :    0.101770
  27 H :    0.106432
  28 H :    0.284485

  Mayer bond orders larger than 0.100000
B(  0-C ,  1-C ) :   0.9408 B(  0-C ,  4-O ) :   0.9239 B(  0-C ,  5-H ) :   0.9123
B(  0-C , 15-O ) :   0.8264 B(  1-C ,  2-C ) :   0.9510 B(  1-C ,  6-H ) :   0.9358
B(  1-C ,  7-H ) :   0.9225 B(  2-C ,  3-C ) :   0.9537 B(  2-C ,  8-H ) :   0.9451
B(  2-C ,  9-H ) :   0.9444 B(  3-C ,  4-O ) :   0.8382 B(  3-C , 10-H ) :   0.9348
B(  3-C , 11-H ) :   0.9397 B( 12-C , 13-H ) :   0.9243 B( 12-C , 14-H ) :   0.9198
B( 12-C , 15-O ) :   0.8698 B( 12-C , 16-C ) :   0.8929 B( 16-C , 17-C ) :   0.8816
B( 16-C , 20-O ) :   0.8630 B( 16-C , 21-H ) :   0.9177 B( 17-C , 18-C ) :   0.9241
B( 17-C , 22-H ) :   0.9350 B( 17-C , 23-O ) :   0.9075 B( 18-C , 19-C ) :   0.9452
B( 18-C , 24-H ) :   0.9403 B( 18-C , 25-H ) :   0.9247 B( 19-C , 20-O ) :   0.8378
B( 19-C , 26-H ) :   0.9186 B( 19-C , 27-H ) :   0.9361 B( 23-O , 28-H ) :   0.7903

FINAL SINGLE POINT ENERGY      -652.855931292639

DIPOLE MOMENT
-------------
                                X             Y             Z
Electronic contribution:     -2.87962      -4.42179      -0.59530
Nuclear contribution   :      3.44945       5.45217       0.47441
                        -----------------------------------------
Total Dipole Moment    :      0.56983       1.03038      -0.12089
                        -----------------------------------------
Magnitude (a.u.)       :      1.18364
Magnitude (Debye)      :      3.00857

Rotational constants in cm-1:     0.046635     0.016178     0.015665
Rotational constants in MHz :  1398.068739   484.998075   469.611186

                             ****ORCA TERMINATED NORMALLY****
TOTAL RUN TIME: 0 days 0 hours 41 minutes 41 seconds 237 msec
