                         Program Version 4.2.0 -  RELEASE  -
|  1> # Test redundant internal optimization
|  2> #
|  3> ! RKS B3LYP  Opt TightSCF SmallPrint
|  4>
|  5> %basis
|  6>         Basis "6-31G"
|  7> end
|  8>
|  9> %geom
| 10> Constraints
| 11> { D 4  0  15  12  210.0   C } # D for Dihedral angle
| 12> { D 0  15  12  16  150.0   C } # D for Dihedral angle
| 13> { D 0  4  3  2   C } # D for Dihedral angle
| 14> { D 4  3  2  1   C } # D for Dihedral angle
| 15> { D 3  2  1  0   C } # D for Dihedral angle
| 16> { D 2  1  0  4   C } # D for Dihedral angle
| 17> { D 1  0  4  3   C } # D for Dihedral angle
| 18> { D 16  20  19  18   C } # D for Dihedral angle
| 19> { D 20  19  18  17   C } # D for Dihedral angle
| 20> { D 19  18  17  16   C } # D for Dihedral angle
| 21> { D 18  17  16  20   C } # D for Dihedral angle
| 22> { D 17  16  20  19   C } # D for Dihedral angle
| 23> { D 15  12  16  20   C } # D for Dihedral angle
| 24> end
| 25> end
| 26>
| 27>
| 28> #%pal
| 29> #nprocs 8
| 30> #end
| 31>
| 32> * xyz 0 1
| 33> C  -21.048   26.222   46.251
| 34> C  -20.361   27.558   45.944
| 35> C  -20.329   28.222   47.341
| 36> C  -20.110   27.022   48.296
| 37> O  -20.473   25.807   47.535
| 38> H  -20.833   25.428   45.533
| 39> H  -19.344   27.382   45.576
| 40> H  -20.898   28.157   45.201
| 41> H  -19.543   28.978   47.434
| 42> H  -21.289   28.710   47.548
| 43> H  -20.733   27.082   49.195
| 44> H  -19.064   26.913   48.597
| 45> C  -23.389   26.110   45.076
| 46> H  -23.479   27.038   44.497
| 47> H  -22.869   25.368   44.457
| 48> O  -22.586   26.394   46.375
| 49> C  -24.818   25.571   45.359
| 50> C  -25.677   26.618   46.077
| 51> C  -26.090   27.541   44.906
| 52> C  -26.250   26.555   43.722
| 53> O  -25.530   25.321   44.102
| 54> H  -24.743   24.614   45.880
| 55> H  -26.557   26.141   46.523
| 56> O  -24.909   27.373   47.197
| 57> H  -27.009   28.100   45.111
| 58> H  -25.295   28.267   44.701
| 59> H  -25.826   26.945   42.791
| 60> H  -27.294   26.279   43.547
| 61> H  -24.023   27.858   46.773
| 62> *
| 63>
| 64>                          ****END OF INPUT****
 Total Charge           Charge          ....    0
 Multiplicity           Mult            ....    1
 Number of Electrons    NEL             ....  102
FINAL SINGLE POINT ENERGY      -652.830061234762
FINAL SINGLE POINT ENERGY      -652.854288175075
FINAL SINGLE POINT ENERGY      -652.860499034790
FINAL SINGLE POINT ENERGY      -652.862937815158
FINAL SINGLE POINT ENERGY      -652.864447848691
FINAL SINGLE POINT ENERGY      -652.865398279198
FINAL SINGLE POINT ENERGY      -652.865860267585
FINAL SINGLE POINT ENERGY      -652.865964651093
FINAL SINGLE POINT ENERGY      -652.865980692838
FINAL SINGLE POINT ENERGY      -652.865983737049
                    ***********************HURRAY********************

CARTESIAN COORDINATES (ANGSTROEM)
---------------------------------
  C    -21.097358   26.209844   46.185398
  C    -20.365704   27.519651   45.904226
  C    -20.451195   28.234836   47.273512
  C    -20.343025   27.070842   48.279623
  O    -20.662509   25.841349   47.498034
  H    -20.866961   25.380620   45.509519
  H    -19.324468   27.301414   45.639759
  H    -20.817487   28.094158   45.090737
  H    -19.659057   28.977118   47.408377
  H    -21.415579   28.743443   47.368331
  H    -21.048347   27.145140   49.110564
  H    -19.331079   26.934389   48.670508
  C    -23.283020   26.124196   44.974376
  H    -23.320738   27.022787   44.344878
  H    -22.787529   25.324774   44.408758
  O    -22.544987   26.405245   46.206243
  C    -24.687973   25.659786   45.373802
  C    -25.530708   26.707236   46.120853
  C    -26.033364   27.600332   44.950000
  C    -26.237892   26.590374   43.802119
  O    -25.461487   25.367912   44.169662
  H    -24.603105   24.724700   45.934001
  H    -26.384696   26.198906   46.584022
  O    -24.849665   27.452710   47.148992
  H    -26.949168   28.136778   45.211903
  H    -25.262710   28.342715   44.718150
  H    -25.880884   26.953833   42.833616
  H    -27.280024   26.275351   43.697421
  H    -23.888282   27.233559   47.127619

 Multiplicity           Mult            ....    1
 Number of Electrons    NEL             ....  102
 Basis Dimension        Dim             ....  149

ORBITAL ENERGIES
----------------

  NO   OCC          E(Eh)            E(eV)
   0   2.0000     -19.163439      -521.4637
   1   2.0000     -19.151687      -521.1439
   2   2.0000     -19.140539      -520.8406
   3   2.0000     -19.111412      -520.0480
   4   2.0000     -10.294047      -280.1153
   5   2.0000     -10.241951      -278.6977
   6   2.0000     -10.234084      -278.4836
   7   2.0000     -10.233492      -278.4675
   8   2.0000     -10.229420      -278.3567
   9   2.0000     -10.226513      -278.2776
  10   2.0000     -10.196357      -277.4570
  11   2.0000     -10.194723      -277.4125
  12   2.0000     -10.178734      -276.9774
  13   2.0000      -1.067177       -29.0394
  14   2.0000      -1.026172       -27.9236
  15   2.0000      -1.009358       -27.4660
  16   2.0000      -0.991099       -26.9692
  17   2.0000      -0.796639       -21.6776
  18   2.0000      -0.774326       -21.0705
  19   2.0000      -0.767950       -20.8970
  20   2.0000      -0.737400       -20.0657
  21   2.0000      -0.680518       -18.5178
  22   2.0000      -0.609438       -16.5837
  23   2.0000      -0.602723       -16.4009
  24   2.0000      -0.594620       -16.1804
  25   2.0000      -0.580956       -15.8086
  26   2.0000      -0.529877       -14.4187
  27   2.0000      -0.522823       -14.2267
  28   2.0000      -0.501118       -13.6361
  29   2.0000      -0.489200       -13.3118
  30   2.0000      -0.475415       -12.9367
  31   2.0000      -0.458581       -12.4786
  32   2.0000      -0.450005       -12.2453
  33   2.0000      -0.437013       -11.8917
  34   2.0000      -0.427486       -11.6325
  35   2.0000      -0.417041       -11.3483
  36   2.0000      -0.408738       -11.1223
  37   2.0000      -0.387468       -10.5435
  38   2.0000      -0.382744       -10.4150
  39   2.0000      -0.369016       -10.0414
  40   2.0000      -0.365351        -9.9417
  41   2.0000      -0.364751        -9.9254
  42   2.0000      -0.349184        -9.5018
  43   2.0000      -0.342165        -9.3108
  44   2.0000      -0.323512        -8.8032
  45   2.0000      -0.320621        -8.7245
  46   2.0000      -0.285767        -7.7761
  47   2.0000      -0.278216        -7.5707
  48   2.0000      -0.265527        -7.2254
  49   2.0000      -0.248732        -6.7683
  50   2.0000      -0.241823        -6.5803
  51   0.0000       0.054275         1.4769
  52   0.0000       0.077099         2.0980
  53   0.0000       0.088493         2.4080
  54   0.0000       0.096434         2.6241
  55   0.0000       0.103768         2.8237

MULLIKEN ATOMIC CHARGES
-----------------------
   0 C :    0.309699
   1 C :   -0.264853
   2 C :   -0.305170
   3 C :   -0.010118
   4 O :   -0.499515
   5 H :    0.147111
   6 H :    0.150446
   7 H :    0.147405
   8 H :    0.148523
   9 H :    0.165151
  10 H :    0.161744
  11 H :    0.148304
  12 C :   -0.013646
  13 H :    0.140366
  14 H :    0.152982
  15 O :   -0.559019
  16 C :    0.050166
  17 C :    0.125641
  18 C :   -0.301717
  19 C :   -0.017354
  20 O :   -0.522772
  21 H :    0.164931
  22 H :    0.145179
  23 O :   -0.646415
  24 H :    0.151423
  25 H :    0.145422
  26 H :    0.138012
  27 H :    0.149662
  28 H :    0.398411
Sum of atomic charges:    0.0000000

LOEWDIN ATOMIC CHARGES
----------------------
   0 C :    0.183480
   1 C :   -0.226423
   2 C :   -0.217515
   3 C :   -0.026436
   4 O :   -0.302761
   5 H :    0.102357
   6 H :    0.117085
   7 H :    0.117263
   8 H :    0.117975
   9 H :    0.119564
  10 H :    0.112739
  11 H :    0.106174
  12 C :   -0.042465
  13 H :    0.096837
  14 H :    0.109008
  15 O :   -0.344717
  16 C :    0.017055
  17 C :    0.043279
  18 C :   -0.235699
  19 C :   -0.031728
  20 O :   -0.324455
  21 H :    0.118046
  22 H :    0.103856
  23 O :   -0.438123
  24 H :    0.121284
  25 H :    0.110838
  26 H :    0.100292
  27 H :    0.106210
  28 H :    0.286981

  Mayer bond orders larger than 0.100000
B(  0-C ,  1-C ) :   0.9357 B(  0-C ,  4-O ) :   0.9520 B(  0-C ,  5-H ) :   0.9195
B(  0-C , 15-O ) :   0.7900 B(  1-C ,  2-C ) :   0.9520 B(  1-C ,  6-H ) :   0.9334
B(  1-C ,  7-H ) :   0.9373 B(  2-C ,  3-C ) :   0.9534 B(  2-C ,  8-H ) :   0.9445
B(  2-C ,  9-H ) :   0.9428 B(  3-C ,  4-O ) :   0.8287 B(  3-C , 10-H ) :   0.9335
B(  3-C , 11-H ) :   0.9393 B( 12-C , 13-H ) :   0.9217 B( 12-C , 14-H ) :   0.9205
B( 12-C , 15-O ) :   0.7881 B( 12-C , 16-C ) :   0.9020 B( 16-C , 17-C ) :   0.9167
B( 16-C , 20-O ) :   0.8544 B( 16-C , 21-H ) :   0.9284 B( 17-C , 18-C ) :   0.9021
B( 17-C , 22-H ) :   0.9288 B( 17-C , 23-O ) :   0.9324 B( 18-C , 19-C ) :   0.9393
B( 18-C , 24-H ) :   0.9446 B( 18-C , 25-H ) :   0.9436 B( 19-C , 20-O ) :   0.8322
B( 19-C , 26-H ) :   0.9352 B( 19-C , 27-H ) :   0.9386 B( 23-O , 28-H ) :   0.7197

FINAL SINGLE POINT ENERGY      -652.865984494900

DIPOLE MOMENT
-------------
                                X             Y             Z
Electronic contribution:     -1.26022      -4.79118       1.45367
Nuclear contribution   :      2.21037       5.62422      -2.21073
                        -----------------------------------------
Total Dipole Moment    :      0.95015       0.83305      -0.75705
                        -----------------------------------------
Magnitude (a.u.)       :      1.47305
Magnitude (Debye)      :      3.74419

Rotational constants in cm-1:     0.058982     0.013157     0.012407
Rotational constants in MHz :  1768.222462   394.448553   371.938975

                             ****ORCA TERMINATED NORMALLY****
TOTAL RUN TIME: 0 days 1 hours 12 minutes 24 seconds 411 msec
