                         Program Version 4.2.0 -  RELEASE  -
|  1> # Test redundant internal optimization
|  2> #
|  3> ! RKS B3LYP  Opt TightSCF SmallPrint
|  4>
|  5> %basis
|  6>         Basis "6-31G"
|  7> end
|  8>
|  9> %geom
| 10> Constraints
| 11> { D 4  0  15  12  105.0   C } # D for Dihedral angle
| 12> { D 0  15  12  16  90.0   C } # D for Dihedral angle
| 13> { D 0  4  3  2   C } # D for Dihedral angle
| 14> { D 4  3  2  1   C } # D for Dihedral angle
| 15> { D 3  2  1  0   C } # D for Dihedral angle
| 16> { D 2  1  0  4   C } # D for Dihedral angle
| 17> { D 1  0  4  3   C } # D for Dihedral angle
| 18> { D 16  20  19  18   C } # D for Dihedral angle
| 19> { D 20  19  18  17   C } # D for Dihedral angle
| 20> { D 19  18  17  16   C } # D for Dihedral angle
| 21> { D 18  17  16  20   C } # D for Dihedral angle
| 22> { D 17  16  20  19   C } # D for Dihedral angle
| 23> { D 15  12  16  20   C } # D for Dihedral angle
| 24> end
| 25> end
| 26>
| 27>
| 28> #%pal
| 29> #nprocs 8
| 30> #end
| 31>
| 32> * xyz 0 1
| 33> C  -21.048   26.222   46.251
| 34> C  -20.361   27.558   45.944
| 35> C  -20.329   28.222   47.341
| 36> C  -20.110   27.022   48.296
| 37> O  -20.473   25.807   47.535
| 38> H  -20.833   25.428   45.533
| 39> H  -19.344   27.382   45.576
| 40> H  -20.898   28.157   45.201
| 41> H  -19.543   28.978   47.434
| 42> H  -21.289   28.710   47.548
| 43> H  -20.733   27.082   49.195
| 44> H  -19.064   26.913   48.597
| 45> C  -23.085   27.864   46.420
| 46> H  -24.001   27.918   47.021
| 47> H  -22.330   28.511   46.887
| 48> O  -22.586   26.394   46.375
| 49> C  -23.392   28.438   45.009
| 50> C  -23.769   29.922   45.082
| 51> C  -22.381   30.592   45.221
| 52> C  -21.467   29.691   44.353
| 53> O  -22.188   28.412   44.172
| 54> H  -24.136   27.806   44.520
| 55> O  -24.460   30.361   43.762
| 56> H  -24.439   30.155   45.917
| 57> H  -22.378   31.634   44.887
| 58> H  -22.058   30.575   46.269
| 59> H  -20.500   29.493   44.829
| 60> H  -21.294   30.107   43.357
| 61> H  -23.807   30.137   42.912
| 62> *
| 63>
| 64>                          ****END OF INPUT****
 Total Charge           Charge          ....    0
 Multiplicity           Mult            ....    1
 Number of Electrons    NEL             ....  102
FINAL SINGLE POINT ENERGY      -652.772329005900
FINAL SINGLE POINT ENERGY      -652.824531479287
FINAL SINGLE POINT ENERGY      -652.845413175362
FINAL SINGLE POINT ENERGY      -652.850186768393
FINAL SINGLE POINT ENERGY      -652.850888221428
FINAL SINGLE POINT ENERGY      -652.851034315316
FINAL SINGLE POINT ENERGY      -652.851053120911
FINAL SINGLE POINT ENERGY      -652.851055532359
FINAL SINGLE POINT ENERGY      -652.851054429690
                    ***********************HURRAY********************

CARTESIAN COORDINATES (ANGSTROEM)
---------------------------------
  C    -21.122189   26.248310   46.381766
  C    -20.048870   27.294257   46.058911
  C    -19.860184   28.000733   47.430157
  C    -20.054937   26.836481   48.434464
  O    -20.746134   25.762716   47.690620
  H    -21.093178   25.375790   45.728887
  H    -19.132776   26.761324   45.781597
  H    -20.342829   27.944503   45.238011
  H    -18.872449   28.462697   47.527552
  H    -20.606723   28.787475   47.581746
  H    -20.657122   27.115626   49.304545
  H    -19.102074   26.423867   48.779252
  C    -23.098234   27.951799   46.349036
  H    -24.083448   27.824952   46.810401
  H    -22.522906   28.644626   46.978561
  O    -22.522570   26.623406   46.349525
  C    -23.310756   28.541258   44.948030
  C    -23.938320   29.944046   44.943080
  C    -22.685308   30.849356   45.079598
  C    -21.606544   30.084419   44.275611
  O    -22.096378   28.685082   44.138706
  H    -23.941118   27.838624   44.392365
  O    -24.652479   30.196299   43.702995
  H    -24.671462   30.103755   45.734954
  H    -22.886239   31.847227   44.682947
  H    -22.401024   30.947480   46.133271
  H    -20.632362   30.075640   44.773535
  H    -21.476841   30.475546   43.262481
  H    -24.130544   29.843707   42.951397

 Multiplicity           Mult            ....    1
 Number of Electrons    NEL             ....  102
 Basis Dimension        Dim             ....  149

ORBITAL ENERGIES
----------------

  NO   OCC          E(Eh)            E(eV)
   0   2.0000     -19.156694      -521.2801
   1   2.0000     -19.146077      -520.9912
   2   2.0000     -19.135934      -520.7152
   3   2.0000     -19.132568      -520.6236
   4   2.0000     -10.273833      -279.5652
   5   2.0000     -10.251209      -278.9496
   6   2.0000     -10.241945      -278.6975
   7   2.0000     -10.239935      -278.6428
   8   2.0000     -10.239272      -278.6247
   9   2.0000     -10.223936      -278.2074
  10   2.0000     -10.198861      -277.5251
  11   2.0000     -10.191174      -277.3159
  12   2.0000     -10.181142      -277.0430
  13   2.0000      -1.048931       -28.5429
  14   2.0000      -1.041072       -28.3290
  15   2.0000      -1.015066       -27.6214
  16   2.0000      -0.989090       -26.9145
  17   2.0000      -0.793833       -21.6013
  18   2.0000      -0.783867       -21.3301
  19   2.0000      -0.776539       -21.1307
  20   2.0000      -0.733679       -19.9644
  21   2.0000      -0.683448       -18.5976
  22   2.0000      -0.613549       -16.6955
  23   2.0000      -0.607575       -16.5329
  24   2.0000      -0.600091       -16.3293
  25   2.0000      -0.572139       -15.5687
  26   2.0000      -0.529658       -14.4127
  27   2.0000      -0.516446       -14.0532
  28   2.0000      -0.504354       -13.7242
  29   2.0000      -0.484977       -13.1969
  30   2.0000      -0.479864       -13.0578
  31   2.0000      -0.462597       -12.5879
  32   2.0000      -0.453846       -12.3498
  33   2.0000      -0.441202       -12.0057
  34   2.0000      -0.432059       -11.7569
  35   2.0000      -0.416389       -11.3305
  36   2.0000      -0.410090       -11.1591
  37   2.0000      -0.398985       -10.8569
  38   2.0000      -0.381508       -10.3814
  39   2.0000      -0.377539       -10.2734
  40   2.0000      -0.366478        -9.9724
  41   2.0000      -0.357051        -9.7159
  42   2.0000      -0.349230        -9.5030
  43   2.0000      -0.339417        -9.2360
  44   2.0000      -0.318130        -8.6568
  45   2.0000      -0.308478        -8.3941
  46   2.0000      -0.284147        -7.7320
  47   2.0000      -0.281089        -7.6488
  48   2.0000      -0.275046        -7.4844
  49   2.0000      -0.255212        -6.9447
  50   2.0000      -0.239969        -6.5299
  51   0.0000       0.049796         1.3550
  52   0.0000       0.071933         1.9574
  53   0.0000       0.083014         2.2589
  54   0.0000       0.090784         2.4703
  55   0.0000       0.097189         2.6446

MULLIKEN ATOMIC CHARGES
-----------------------
   0 C :    0.318031
   1 C :   -0.312943
   2 C :   -0.315710
   3 C :   -0.002566
   4 O :   -0.497394
   5 H :    0.164764
   6 H :    0.149957
   7 H :    0.191302
   8 H :    0.141007
   9 H :    0.137413
  10 H :    0.142287
  11 H :    0.143933
  12 C :   -0.009756
  13 H :    0.159673
  14 H :    0.119796
  15 O :   -0.529163
  16 C :    0.069626
  17 C :    0.074101
  18 C :   -0.292896
  19 C :   -0.037135
  20 O :   -0.517697
  21 H :    0.171370
  22 O :   -0.599587
  23 H :    0.156676
  24 H :    0.167315
  25 H :    0.143859
  26 H :    0.142785
  27 H :    0.153705
  28 H :    0.367245
Sum of atomic charges:   -0.0000000

LOEWDIN ATOMIC CHARGES
----------------------
   0 C :    0.186176
   1 C :   -0.239095
   2 C :   -0.224164
   3 C :   -0.032193
   4 O :   -0.317566
   5 H :    0.112273
   6 H :    0.120549
   7 H :    0.135359
   8 H :    0.113649
   9 H :    0.101038
  10 H :    0.101813
  11 H :    0.103013
  12 C :   -0.037480
  13 H :    0.120166
  14 H :    0.088430
  15 O :   -0.325527
  16 C :    0.004955
  17 C :    0.035582
  18 C :   -0.239861
  19 C :   -0.040968
  20 O :   -0.326587
  21 H :    0.120233
  22 O :   -0.412111
  23 H :    0.117731
  24 H :    0.129566
  25 H :    0.112629
  26 H :    0.101451
  27 H :    0.106217
  28 H :    0.284722

  Mayer bond orders larger than 0.100000
B(  0-C ,  1-C ) :   0.9299 B(  0-C ,  4-O ) :   0.9090 B(  0-C ,  5-H ) :   0.9341
B(  0-C , 15-O ) :   0.8698 B(  1-C ,  2-C ) :   0.9525 B(  1-C ,  6-H ) :   0.9345
B(  1-C ,  7-H ) :   0.8970 B(  2-C ,  3-C ) :   0.9473 B(  2-C ,  8-H ) :   0.9460
B(  2-C ,  9-H ) :   0.9394 B(  3-C ,  4-O ) :   0.8527 B(  3-C , 10-H ) :   0.9349
B(  3-C , 11-H ) :   0.9386 B( 12-C , 13-H ) :   0.9256 B( 12-C , 14-H ) :   0.9097
B( 12-C , 15-O ) :   0.8632 B( 12-C , 16-C ) :   0.8855 B( 16-C , 17-C ) :   0.8913
B( 16-C , 20-O ) :   0.8518 B( 16-C , 21-H ) :   0.9232 B( 17-C , 18-C ) :   0.9102
B( 17-C , 22-O ) :   0.8964 B( 17-C , 23-H ) :   0.9330 B( 18-C , 19-C ) :   0.9435
B( 18-C , 24-H ) :   0.9363 B( 18-C , 25-H ) :   0.9337 B( 19-C , 20-O ) :   0.8399
B( 19-C , 26-H ) :   0.9285 B( 19-C , 27-H ) :   0.9382 B( 22-O , 28-H ) :   0.7934

FINAL SINGLE POINT ENERGY      -652.851052473043

DIPOLE MOMENT
-------------
                                X             Y             Z
Electronic contribution:     -4.14300      -4.80134      -2.39206
Nuclear contribution   :      5.03769       6.30078       2.48721
                        -----------------------------------------
Total Dipole Moment    :      0.89469       1.49944       0.09515
                        -----------------------------------------
Magnitude (a.u.)       :      1.74867
Magnitude (Debye)      :      4.44477

Rotational constants in cm-1:     0.057622     0.014683     0.013562
Rotational constants in MHz :  1727.463927   440.174770   406.585501

                             ****ORCA TERMINATED NORMALLY****
TOTAL RUN TIME: 0 days 2 hours 11 minutes 52 seconds 574 msec
