                         Program Version 4.2.0 -  RELEASE  -
|  1> # Test redundant internal optimization
|  2> #
|  3> ! RKS B3LYP  Opt TightSCF SmallPrint
|  4>
|  5> %basis
|  6>         Basis "6-31G"
|  7> end
|  8>
|  9> %geom
| 10> Constraints
| 11> { D 4  0  15  12  240.0   C } # D for Dihedral angle
| 12> { D 0  15  12  16  180.0   C } # D for Dihedral angle
| 13> { D 0  4  3  2   C } # D for Dihedral angle
| 14> { D 4  3  2  1   C } # D for Dihedral angle
| 15> { D 3  2  1  0   C } # D for Dihedral angle
| 16> { D 2  1  0  4   C } # D for Dihedral angle
| 17> { D 1  0  4  3   C } # D for Dihedral angle
| 18> { D 16  20  19  18   C } # D for Dihedral angle
| 19> { D 20  19  18  17   C } # D for Dihedral angle
| 20> { D 19  18  17  16   C } # D for Dihedral angle
| 21> { D 18  17  16  20   C } # D for Dihedral angle
| 22> { D 17  16  20  19   C } # D for Dihedral angle
| 23> { D 15  12  16  20   C } # D for Dihedral angle
| 24> end
| 25> end
| 26>
| 27>
| 28> #%pal
| 29> #nprocs 8
| 30> #end
| 31>
| 32> * xyz 0 1
| 33> C  -21.048   26.222   46.251
| 34> C  -20.361   27.558   45.944
| 35> C  -20.329   28.222   47.341
| 36> C  -20.110   27.022   48.296
| 37> O  -20.473   25.807   47.535
| 38> H  -20.833   25.428   45.533
| 39> H  -19.344   27.382   45.576
| 40> H  -20.898   28.157   45.201
| 41> H  -19.543   28.978   47.434
| 42> H  -21.289   28.710   47.548
| 43> H  -20.733   27.082   49.195
| 44> H  -19.064   26.913   48.597
| 45> C  -23.430   25.483   45.442
| 46> H  -23.166   25.691   44.398
| 47> H  -23.219   24.425   45.645
| 48> O  -22.586   26.394   46.375
| 49> C  -24.959   25.701   45.612
| 50> C  -25.370   27.114   45.184
| 51> C  -25.405   26.976   43.643
| 52> C  -25.914   25.528   43.430
| 53> O  -25.706   24.818   44.710
| 54> H  -25.247   25.435   46.631
| 55> H  -26.368   27.349   45.573
| 56> O  -24.384   28.211   45.669
| 57> H  -26.051   27.720   43.165
| 58> H  -24.396   27.096   43.232
| 59> H  -25.370   25.005   42.637
| 60> H  -26.984   25.490   43.210
| 61> H  -23.379   27.995   45.290
| 62> *
| 63>
| 64>                          ****END OF INPUT****
 Total Charge           Charge          ....    0
 Multiplicity           Mult            ....    1
 Number of Electrons    NEL             ....  102
FINAL SINGLE POINT ENERGY      -652.829452794388
FINAL SINGLE POINT ENERGY      -652.854207664111
FINAL SINGLE POINT ENERGY      -652.860479777138
FINAL SINGLE POINT ENERGY      -652.863111053273
FINAL SINGLE POINT ENERGY      -652.864716798907
FINAL SINGLE POINT ENERGY      -652.865767497139
FINAL SINGLE POINT ENERGY      -652.866302829013
FINAL SINGLE POINT ENERGY      -652.866440912392
FINAL SINGLE POINT ENERGY      -652.866461832501
                    ***********************HURRAY********************

CARTESIAN COORDINATES (ANGSTROEM)
---------------------------------
  C    -21.071924   26.154713   46.198432
  C    -20.430274   27.504430   45.882022
  C    -20.494120   28.218337   47.253600
  C    -20.272659   27.064881   48.254839
  O    -20.554599   25.815900   47.494695
  H    -20.819308   25.334269   45.522373
  H    -19.390900   27.347408   45.571604
  H    -20.956805   28.043220   45.090028
  H    -19.739867   29.004907   47.349785
  H    -21.478979   28.674391   47.395538
  H    -20.942363   27.105511   49.116919
  H    -19.237676   26.990800   48.600000
  C    -23.313129   25.417595   45.393338
  H    -23.029251   25.559928   44.341261
  H    -23.133487   24.372503   45.669718
  O    -22.522724   26.310045   46.248198
  C    -24.790641   25.759308   45.609680
  C    -25.200502   27.180976   45.189020
  C    -25.336798   27.025813   43.645057
  C    -25.885271   25.593006   43.484519
  O    -25.607966   24.886520   44.771021
  H    -25.056411   25.545052   46.648179
  H    -26.184040   27.401143   45.620156
  O    -24.299216   28.237462   45.577128
  H    -25.997429   27.784651   43.217630
  H    -24.348541   27.145085   43.188122
  H    -25.413368   25.035381   42.669693
  H    -26.970092   25.568934   43.345885
  H    -23.480660   27.829830   45.948561

 Multiplicity           Mult            ....    1
 Number of Electrons    NEL             ....  102
 Basis Dimension        Dim             ....  149

ORBITAL ENERGIES
----------------

  NO   OCC          E(Eh)            E(eV)
   0   2.0000     -19.164189      -521.4841
   1   2.0000     -19.148838      -521.0664
   2   2.0000     -19.141677      -520.8715
   3   2.0000     -19.114776      -520.1395
   4   2.0000     -10.292634      -280.0768
   5   2.0000     -10.241494      -278.6852
   6   2.0000     -10.235837      -278.5313
   7   2.0000     -10.231813      -278.4218
   8   2.0000     -10.231713      -278.4191
   9   2.0000     -10.228078      -278.3201
  10   2.0000     -10.195174      -277.4248
  11   2.0000     -10.193373      -277.3758
  12   2.0000     -10.180875      -277.0357
  13   2.0000      -1.065501       -28.9937
  14   2.0000      -1.027262       -27.9532
  15   2.0000      -1.009091       -27.4588
  16   2.0000      -0.993563       -27.0362
  17   2.0000      -0.796424       -21.6718
  18   2.0000      -0.774553       -21.0767
  19   2.0000      -0.769196       -20.9309
  20   2.0000      -0.736347       -20.0370
  21   2.0000      -0.680059       -18.5054
  22   2.0000      -0.607160       -16.5217
  23   2.0000      -0.603710       -16.4278
  24   2.0000      -0.594463       -16.1762
  25   2.0000      -0.583214       -15.8701
  26   2.0000      -0.529009       -14.3951
  27   2.0000      -0.523565       -14.2469
  28   2.0000      -0.501331       -13.6419
  29   2.0000      -0.487979       -13.2786
  30   2.0000      -0.474526       -12.9125
  31   2.0000      -0.461594       -12.5606
  32   2.0000      -0.442943       -12.0531
  33   2.0000      -0.435166       -11.8415
  34   2.0000      -0.428831       -11.6691
  35   2.0000      -0.424478       -11.5506
  36   2.0000      -0.407067       -11.0768
  37   2.0000      -0.389023       -10.5859
  38   2.0000      -0.382851       -10.4179
  39   2.0000      -0.370945       -10.0939
  40   2.0000      -0.364503        -9.9186
  41   2.0000      -0.360851        -9.8193
  42   2.0000      -0.348609        -9.4861
  43   2.0000      -0.343621        -9.3504
  44   2.0000      -0.324802        -8.8383
  45   2.0000      -0.320956        -8.7336
  46   2.0000      -0.292976        -7.9723
  47   2.0000      -0.276585        -7.5263
  48   2.0000      -0.262021        -7.1300
  49   2.0000      -0.249584        -6.7915
  50   2.0000      -0.244564        -6.6549
  51   0.0000       0.052967         1.4413
  52   0.0000       0.079442         2.1617
  53   0.0000       0.091249         2.4830
  54   0.0000       0.095915         2.6100
  55   0.0000       0.100093         2.7237

MULLIKEN ATOMIC CHARGES
-----------------------
   0 C :    0.297321
   1 C :   -0.266919
   2 C :   -0.308688
   3 C :   -0.004123
   4 O :   -0.498112
   5 H :    0.150046
   6 H :    0.151626
   7 H :    0.153578
   8 H :    0.149332
   9 H :    0.168165
  10 H :    0.157462
  11 H :    0.146539
  12 C :   -0.017795
  13 H :    0.137848
  14 H :    0.167764
  15 O :   -0.557078
  16 C :    0.052309
  17 C :    0.116359
  18 C :   -0.298024
  19 C :   -0.023976
  20 O :   -0.521482
  21 H :    0.165506
  22 H :    0.145696
  23 O :   -0.650546
  24 H :    0.152290
  25 H :    0.141908
  26 H :    0.141052
  27 H :    0.151943
  28 H :    0.399999
Sum of atomic charges:   -0.0000000

LOEWDIN ATOMIC CHARGES
----------------------
   0 C :    0.179282
   1 C :   -0.222950
   2 C :   -0.217261
   3 C :   -0.026029
   4 O :   -0.310739
   5 H :    0.105245
   6 H :    0.117418
   7 H :    0.120787
   8 H :    0.118253
   9 H :    0.120185
  10 H :    0.111019
  11 H :    0.105211
  12 C :   -0.042861
  13 H :    0.095017
  14 H :    0.115252
  15 O :   -0.342703
  16 C :    0.019934
  17 C :    0.042138
  18 C :   -0.235473
  19 C :   -0.033546
  20 O :   -0.322863
  21 H :    0.118584
  22 H :    0.104457
  23 O :   -0.440994
  24 H :    0.121694
  25 H :    0.109512
  26 H :    0.101474
  27 H :    0.107116
  28 H :    0.282842

  Mayer bond orders larger than 0.100000
B(  0-C ,  1-C ) :   0.9446 B(  0-C ,  4-O ) :   0.9460 B(  0-C ,  5-H ) :   0.9210
B(  0-C , 15-O ) :   0.8004 B(  1-C ,  2-C ) :   0.9531 B(  1-C ,  6-H ) :   0.9361
B(  1-C ,  7-H ) :   0.9352 B(  2-C ,  3-C ) :   0.9522 B(  2-C ,  8-H ) :   0.9445
B(  2-C ,  9-H ) :   0.9419 B(  3-C ,  4-O ) :   0.8310 B(  3-C , 10-H ) :   0.9342
B(  3-C , 11-H ) :   0.9395 B( 12-C , 13-H ) :   0.9204 B( 12-C , 14-H ) :   0.9210
B( 12-C , 15-O ) :   0.7857 B( 12-C , 16-C ) :   0.9091 B( 15-O , 28-H ) :   0.1012
B( 16-C , 17-C ) :   0.9163 B( 16-C , 20-O ) :   0.8547 B( 16-C , 21-H ) :   0.9282
B( 17-C , 18-C ) :   0.9030 B( 17-C , 22-H ) :   0.9287 B( 17-C , 23-O ) :   0.9331
B( 18-C , 19-C ) :   0.9407 B( 18-C , 24-H ) :   0.9444 B( 18-C , 25-H ) :   0.9432
B( 19-C , 20-O ) :   0.8338 B( 19-C , 26-H ) :   0.9343 B( 19-C , 27-H ) :   0.9379
B( 23-O , 28-H ) :   0.7077

FINAL SINGLE POINT ENERGY      -652.866465306313

DIPOLE MOMENT
-------------
                                X             Y             Z
Electronic contribution:     -1.75001      -3.36009       2.28875
Nuclear contribution   :      2.61101       3.65207      -2.89321
                        -----------------------------------------
Total Dipole Moment    :      0.86100       0.29198      -0.60446
                        -----------------------------------------
Magnitude (a.u.)       :      1.09176
Magnitude (Debye)      :      2.77504

Rotational constants in cm-1:     0.060713     0.013350     0.012247
Rotational constants in MHz :  1820.137720   400.217982   367.141731

                             ****ORCA TERMINATED NORMALLY****
TOTAL RUN TIME: 0 days 0 hours 43 minutes 17 seconds 812 msec
