                         Program Version 4.2.0 -  RELEASE  -
|  1> # Test redundant internal optimization
|  2> #
|  3> ! RKS B3LYP  Opt TightSCF SmallPrint
|  4>
|  5> %basis
|  6>         Basis "6-31G"
|  7> end
|  8>
|  9> %geom
| 10> Constraints
| 11> { D 4  0  15  12  75.0   C } # D for Dihedral angle
| 12> { D 0  15  12  16  150.0   C } # D for Dihedral angle
| 13> { D 0  4  3  2   C } # D for Dihedral angle
| 14> { D 4  3  2  1   C } # D for Dihedral angle
| 15> { D 3  2  1  0   C } # D for Dihedral angle
| 16> { D 2  1  0  4   C } # D for Dihedral angle
| 17> { D 1  0  4  3   C } # D for Dihedral angle
| 18> { D 16  20  19  18   C } # D for Dihedral angle
| 19> { D 20  19  18  17   C } # D for Dihedral angle
| 20> { D 19  18  17  16   C } # D for Dihedral angle
| 21> { D 18  17  16  20   C } # D for Dihedral angle
| 22> { D 17  16  20  19   C } # D for Dihedral angle
| 23> { D 15  12  16  20   C } # D for Dihedral angle
| 24> end
| 25> end
| 26>
| 27>
| 28> #%pal
| 29> #nprocs 8
| 30> #end
| 31>
| 32> * xyz 0 1
| 33> C  -21.048   26.222   46.251
| 34> C  -20.361   27.558   45.944
| 35> C  -20.329   28.222   47.341
| 36> C  -20.110   27.022   48.296
| 37> O  -20.473   25.807   47.535
| 38> H  -20.833   25.428   45.533
| 39> H  -19.344   27.382   45.576
| 40> H  -20.898   28.157   45.201
| 41> H  -19.543   28.978   47.434
| 42> H  -21.289   28.710   47.548
| 43> H  -20.733   27.082   49.195
| 44> H  -19.064   26.913   48.597
| 45> C  -23.049   27.675   47.122
| 46> H  -23.134   27.458   48.194
| 47> H  -22.316   28.481   46.992
| 48> O  -22.586   26.394   46.375
| 49> C  -24.423   28.199   46.619
| 50> C  -24.793   29.524   47.295
| 51> C  -23.940   30.535   46.492
| 52> C  -23.951   29.945   45.060
| 53> O  -24.354   28.529   45.192
| 54> H  -25.170   27.411   46.731
| 55> H  -25.862   29.729   47.162
| 56> O  -24.477   29.543   48.815
| 57> H  -24.342   31.553   46.528
| 58> H  -22.918   30.564   46.889
| 59> H  -22.968   29.995   44.578
| 60> H  -24.688   30.431   44.414
| 61> H  -23.412   29.342   48.974
| 62> *
| 63>
| 64>                          ****END OF INPUT****
 Total Charge           Charge          ....    0
 Multiplicity           Mult            ....    1
 Number of Electrons    NEL             ....  102
FINAL SINGLE POINT ENERGY      -652.787685155652
FINAL SINGLE POINT ENERGY      -652.824484950738
FINAL SINGLE POINT ENERGY      -652.844164219077
FINAL SINGLE POINT ENERGY      -652.848081002579
FINAL SINGLE POINT ENERGY      -652.848598256994
FINAL SINGLE POINT ENERGY      -652.848740332160
FINAL SINGLE POINT ENERGY      -652.848760681959
FINAL SINGLE POINT ENERGY      -652.848762316025
                    ***********************HURRAY********************

CARTESIAN COORDINATES (ANGSTROEM)
---------------------------------
  C    -21.179650   26.338964   46.389766
  C    -20.207941   27.446062   45.948947
  C    -19.780434   28.069473   47.313010
  C    -19.756774   26.830849   48.248245
  O    -20.550084   25.782367   47.570401
  H    -21.229006   25.514809   45.676736
  H    -19.350154   26.981369   45.453159
  H    -20.670302   28.159922   45.261896
  H    -18.797851   28.549522   47.258187
  H    -20.492708   28.823095   47.655992
  H    -20.189287   27.028017   49.234391
  H    -18.746109   26.432709   48.378570
  C    -23.067465   27.817165   47.256721
  H    -23.249399   27.552339   48.306330
  H    -22.357385   28.651289   47.216894
  O    -22.570220   26.664421   46.531422
  C    -24.377115   28.228474   46.584106
  C    -25.046793   29.472168   47.193385
  C    -24.277297   30.628034   46.486678
  C    -24.014837   30.052487   45.078324
  O    -24.189494   28.580626   45.179646
  H    -25.042128   27.360141   46.583966
  H    -26.101298   29.488515   46.910298
  O    -25.058894   29.535140   48.639612
  H    -24.853652   31.556840   46.468219
  H    -23.338668   30.826845   47.022010
  H    -23.006888   30.269650   44.709753
  H    -24.741040   30.410462   44.342352
  H    -24.165128   29.737246   48.983986

 Multiplicity           Mult            ....    1
 Number of Electrons    NEL             ....  102
 Basis Dimension        Dim             ....  149

ORBITAL ENERGIES
----------------

  NO   OCC          E(Eh)            E(eV)
   0   2.0000     -19.152622      -521.1693
   1   2.0000     -19.140258      -520.8329
   2   2.0000     -19.139407      -520.8097
   3   2.0000     -19.138782      -520.7927
   4   2.0000     -10.276335      -279.6333
   5   2.0000     -10.247731      -278.8549
   6   2.0000     -10.233861      -278.4775
   7   2.0000     -10.233401      -278.4650
   8   2.0000     -10.231106      -278.4026
   9   2.0000     -10.229714      -278.3647
  10   2.0000     -10.199313      -277.5374
  11   2.0000     -10.196158      -277.4516
  12   2.0000     -10.191264      -277.3184
  13   2.0000      -1.050109       -28.5749
  14   2.0000      -1.035790       -28.1853
  15   2.0000      -1.018094       -27.7037
  16   2.0000      -0.994623       -27.0651
  17   2.0000      -0.788927       -21.4678
  18   2.0000      -0.786025       -21.3888
  19   2.0000      -0.774561       -21.0769
  20   2.0000      -0.733180       -19.9508
  21   2.0000      -0.686507       -18.6808
  22   2.0000      -0.614479       -16.7208
  23   2.0000      -0.605579       -16.4786
  24   2.0000      -0.598891       -16.2967
  25   2.0000      -0.573972       -15.6186
  26   2.0000      -0.529284       -14.4025
  27   2.0000      -0.507740       -13.8163
  28   2.0000      -0.507121       -13.7995
  29   2.0000      -0.494802       -13.4642
  30   2.0000      -0.472736       -12.8638
  31   2.0000      -0.462729       -12.5915
  32   2.0000      -0.449251       -12.2248
  33   2.0000      -0.435610       -11.8536
  34   2.0000      -0.427435       -11.6311
  35   2.0000      -0.421019       -11.4565
  36   2.0000      -0.412077       -11.2132
  37   2.0000      -0.403915       -10.9911
  38   2.0000      -0.383991       -10.4489
  39   2.0000      -0.379621       -10.3300
  40   2.0000      -0.362267        -9.8578
  41   2.0000      -0.359103        -9.7717
  42   2.0000      -0.348214        -9.4754
  43   2.0000      -0.333907        -9.0861
  44   2.0000      -0.317617        -8.6428
  45   2.0000      -0.313891        -8.5414
  46   2.0000      -0.298961        -8.1351
  47   2.0000      -0.273255        -7.4357
  48   2.0000      -0.263814        -7.1788
  49   2.0000      -0.253085        -6.8868
  50   2.0000      -0.241933        -6.5833
  51   0.0000       0.041777         1.1368
  52   0.0000       0.060470         1.6455
  53   0.0000       0.082420         2.2428
  54   0.0000       0.090405         2.4600
  55   0.0000       0.103117         2.8060

MULLIKEN ATOMIC CHARGES
-----------------------
   0 C :    0.306161
   1 C :   -0.285536
   2 C :   -0.315333
   3 C :   -0.007308
   4 O :   -0.503934
   5 H :    0.170566
   6 H :    0.157826
   7 H :    0.156850
   8 H :    0.144892
   9 H :    0.138574
  10 H :    0.141207
  11 H :    0.148000
  12 C :   -0.013138
  13 H :    0.144205
  14 H :    0.113580
  15 O :   -0.511181
  16 C :    0.090808
  17 C :    0.084003
  18 C :   -0.327308
  19 C :   -0.011111
  20 O :   -0.504230
  21 H :    0.172826
  22 H :    0.172465
  23 O :   -0.597921
  24 H :    0.159533
  25 H :    0.130170
  26 H :    0.137986
  27 H :    0.153329
  28 H :    0.354018
Sum of atomic charges:   -0.0000000

LOEWDIN ATOMIC CHARGES
----------------------
   0 C :    0.176742
   1 C :   -0.230388
   2 C :   -0.224780
   3 C :   -0.033651
   4 O :   -0.322495
   5 H :    0.115830
   6 H :    0.123839
   7 H :    0.121377
   8 H :    0.114859
   9 H :    0.102221
  10 H :    0.100752
  11 H :    0.104584
  12 C :   -0.051905
  13 H :    0.105462
  14 H :    0.086317
  15 O :   -0.304784
  16 C :    0.020412
  17 C :    0.035165
  18 C :   -0.243362
  19 C :   -0.031172
  20 O :   -0.312972
  21 H :    0.123446
  22 H :    0.121646
  23 O :   -0.405812
  24 H :    0.123470
  25 H :    0.101746
  26 H :    0.099240
  27 H :    0.107587
  28 H :    0.276627

  Mayer bond orders larger than 0.100000
B(  0-C ,  1-C ) :   0.9185 B(  0-C ,  4-O ) :   0.8936 B(  0-C ,  5-H ) :   0.9355
B(  0-C , 15-O ) :   0.9090 B(  1-C ,  2-C ) :   0.9550 B(  1-C ,  6-H ) :   0.9352
B(  1-C ,  7-H ) :   0.9338 B(  2-C ,  3-C ) :   0.9460 B(  2-C ,  8-H ) :   0.9452
B(  2-C ,  9-H ) :   0.9390 B(  3-C ,  4-O ) :   0.8529 B(  3-C , 10-H ) :   0.9341
B(  3-C , 11-H ) :   0.9385 B( 12-C , 13-H ) :   0.9091 B( 12-C , 14-H ) :   0.9034
B( 12-C , 15-O ) :   0.8429 B( 12-C , 16-C ) :   0.9032 B( 16-C , 17-C ) :   0.8737
B( 16-C , 20-O ) :   0.8685 B( 16-C , 21-H ) :   0.9271 B( 17-C , 18-C ) :   0.9216
B( 17-C , 22-H ) :   0.9319 B( 17-C , 23-O ) :   0.8974 B( 18-C , 19-C ) :   0.9382
B( 18-C , 24-H ) :   0.9416 B( 18-C , 25-H ) :   0.9412 B( 19-C , 20-O ) :   0.8529
B( 19-C , 26-H ) :   0.9319 B( 19-C , 27-H ) :   0.9370 B( 23-O , 28-H ) :   0.7991

FINAL SINGLE POINT ENERGY      -652.848760392182

DIPOLE MOMENT
-------------
                                X             Y             Z
Electronic contribution:     -4.31892      -5.28848      -0.24393
Nuclear contribution   :      5.38387       7.05810       0.32922
                        -----------------------------------------
Total Dipole Moment    :      1.06496       1.76962       0.08529
                        -----------------------------------------
Magnitude (a.u.)       :      2.06712
Magnitude (Debye)      :      5.25419

Rotational constants in cm-1:     0.046871     0.014440     0.013669
Rotational constants in MHz :  1405.164663   432.906730   409.784288

                             ****ORCA TERMINATED NORMALLY****
TOTAL RUN TIME: 0 days 2 hours 14 minutes 12 seconds 937 msec
