                         Program Version 4.2.0 -  RELEASE  -
|  1> # Test redundant internal optimization
|  2> #
|  3> ! RKS B3LYP  Opt TightSCF SmallPrint
|  4>
|  5> %basis
|  6>         Basis "6-31G"
|  7> end
|  8>
|  9> %geom
| 10> Constraints
| 11> { D 4  0  15  12  15.0   C } # D for Dihedral angle
| 12> { D 0  15  12  16  195.0   C } # D for Dihedral angle
| 13> { D 0  4  3  2   C } # D for Dihedral angle
| 14> { D 4  3  2  1   C } # D for Dihedral angle
| 15> { D 3  2  1  0   C } # D for Dihedral angle
| 16> { D 2  1  0  4   C } # D for Dihedral angle
| 17> { D 1  0  4  3   C } # D for Dihedral angle
| 18> { D 16  20  19  18   C } # D for Dihedral angle
| 19> { D 20  19  18  17   C } # D for Dihedral angle
| 20> { D 19  18  17  16   C } # D for Dihedral angle
| 21> { D 18  17  16  20   C } # D for Dihedral angle
| 22> { D 17  16  20  19   C } # D for Dihedral angle
| 23> { D 15  12  16  20   C } # D for Dihedral angle
| 24> end
| 25> end
| 26>
| 27>
| 28> #%pal
| 29> #nprocs 8
| 30> #end
| 31>
| 32> * xyz 0 1
| 33> C  -21.048   26.222   46.251
| 34> C  -20.361   27.558   45.944
| 35> C  -20.329   28.222   47.341
| 36> C  -20.110   27.022   48.296
| 37> O  -20.473   25.807   47.535
| 38> H  -20.833   25.428   45.533
| 39> H  -19.344   27.382   45.576
| 40> H  -20.898   28.157   45.201
| 41> H  -19.543   28.978   47.434
| 42> H  -21.289   28.710   47.548
| 43> H  -20.733   27.082   49.195
| 44> H  -19.064   26.913   48.597
| 45> C  -23.128   26.462   47.829
| 46> H  -22.647   25.681   48.432
| 47> H  -22.895   27.435   48.280
| 48> O  -22.586   26.394   46.375
| 49> C  -24.667   26.261   47.907
| 50> C  -25.067   24.853   47.452
| 51> C  -24.739   24.012   48.708
| 52> C  -25.082   24.973   49.874
| 53> O  -25.123   26.334   49.299
| 54> H  -25.161   27.069   47.365
| 55> O  -26.589   24.806   47.143
| 56> H  -24.525   24.517   46.561
| 57> H  -25.308   23.079   48.755
| 58> H  -23.673   23.755   48.720
| 59> H  -24.336   24.945   50.675
| 60> H  -26.068   24.774   50.303
| 61> H  -27.154   25.138   48.022
| 62> *
| 63>
| 64>                          ****END OF INPUT****
 Total Charge           Charge          ....    0
 Multiplicity           Mult            ....    1
 Number of Electrons    NEL             ....  102
FINAL SINGLE POINT ENERGY      -652.834904337543
FINAL SINGLE POINT ENERGY      -652.857797549882
FINAL SINGLE POINT ENERGY      -652.862049681978
FINAL SINGLE POINT ENERGY      -652.862653083839
FINAL SINGLE POINT ENERGY      -652.862737533548
FINAL SINGLE POINT ENERGY      -652.862751958808
                    ***********************HURRAY********************

CARTESIAN COORDINATES (ANGSTROEM)
---------------------------------
  C    -21.163831   26.231797   46.402402
  C    -20.528769   27.546223   45.942576
  C    -20.269886   28.263594   47.291010
  C    -19.908155   27.099750   48.241409
  O    -20.405644   25.863541   47.574439
  H    -21.064527   25.410001   45.691125
  H    -19.586800   27.330256   45.424926
  H    -21.185019   28.105534   45.272461
  H    -19.467550   29.004941   47.226075
  H    -21.176260   28.778709   47.625221
  H    -20.376104   27.179863   49.226337
  H    -18.829028   26.971686   48.364753
  C    -23.097210   26.462257   47.997671
  H    -22.598793   25.724285   48.634722
  H    -22.923564   27.459246   48.422586
  O    -22.597426   26.368665   46.633563
  C    -24.602941   26.214684   47.932419
  C    -25.011273   24.820094   47.436360
  C    -24.806891   23.962163   48.710313
  C    -25.207779   24.925446   49.855139
  O    -25.162167   26.297020   49.287237
  H    -25.082220   26.994772   47.335230
  O    -26.400194   24.814099   47.000266
  H    -24.429840   24.486566   46.579015
  H    -25.426945   23.063270   48.674468
  H    -23.759927   23.652725   48.796198
  H    -24.531031   24.873498   50.713577
  H    -26.230454   24.758198   50.207193
  H    -26.942775   25.306118   47.652306

 Multiplicity           Mult            ....    1
 Number of Electrons    NEL             ....  102
 Basis Dimension        Dim             ....  149

ORBITAL ENERGIES
----------------

  NO   OCC          E(Eh)            E(eV)
   0   2.0000     -19.153907      -521.2043
   1   2.0000     -19.142370      -520.8904
   2   2.0000     -19.141825      -520.8755
   3   2.0000     -19.130931      -520.5791
   4   2.0000     -10.282442      -279.7995
   5   2.0000     -10.235947      -278.5343
   6   2.0000     -10.231318      -278.4083
   7   2.0000     -10.229257      -278.3522
   8   2.0000     -10.228971      -278.3445
   9   2.0000     -10.227683      -278.3094
  10   2.0000     -10.194847      -277.4159
  11   2.0000     -10.188606      -277.2461
  12   2.0000     -10.183297      -277.1016
  13   2.0000      -1.058318       -28.7983
  14   2.0000      -1.032689       -28.1009
  15   2.0000      -1.000706       -27.2306
  16   2.0000      -0.995689       -27.0941
  17   2.0000      -0.793784       -21.6000
  18   2.0000      -0.777514       -21.1572
  19   2.0000      -0.767683       -20.8897
  20   2.0000      -0.733579       -19.9617
  21   2.0000      -0.673049       -18.3146
  22   2.0000      -0.607292       -16.5253
  23   2.0000      -0.600469       -16.3396
  24   2.0000      -0.593335       -16.1455
  25   2.0000      -0.575701       -15.6656
  26   2.0000      -0.519805       -14.1446
  27   2.0000      -0.516962       -14.0672
  28   2.0000      -0.503058       -13.6889
  29   2.0000      -0.489071       -13.3083
  30   2.0000      -0.472545       -12.8586
  31   2.0000      -0.458178       -12.4677
  32   2.0000      -0.449075       -12.2199
  33   2.0000      -0.436065       -11.8659
  34   2.0000      -0.419948       -11.4274
  35   2.0000      -0.415753       -11.3132
  36   2.0000      -0.405821       -11.0430
  37   2.0000      -0.388785       -10.5794
  38   2.0000      -0.378614       -10.3026
  39   2.0000      -0.364307        -9.9133
  40   2.0000      -0.363773        -9.8988
  41   2.0000      -0.357978        -9.7411
  42   2.0000      -0.351232        -9.5575
  43   2.0000      -0.336337        -9.1522
  44   2.0000      -0.326219        -8.8769
  45   2.0000      -0.312377        -8.5002
  46   2.0000      -0.301977        -8.2172
  47   2.0000      -0.269754        -7.3404
  48   2.0000      -0.264514        -7.1978
  49   2.0000      -0.252796        -6.8789
  50   2.0000      -0.243034        -6.6133
  51   0.0000       0.067862         1.8466
  52   0.0000       0.070023         1.9054
  53   0.0000       0.094969         2.5842
  54   0.0000       0.096313         2.6208
  55   0.0000       0.101767         2.7692

MULLIKEN ATOMIC CHARGES
-----------------------
   0 C :    0.299341
   1 C :   -0.255381
   2 C :   -0.314503
   3 C :   -0.019001
   4 O :   -0.512032
   5 H :    0.161044
   6 H :    0.146092
   7 H :    0.160900
   8 H :    0.149690
   9 H :    0.158004
  10 H :    0.147365
  11 H :    0.153700
  12 C :   -0.002376
  13 H :    0.154903
  14 H :    0.134207
  15 O :   -0.544940
  16 C :    0.056996
  17 C :    0.088200
  18 C :   -0.299645
  19 C :   -0.031705
  20 O :   -0.530787
  21 H :    0.165500
  22 O :   -0.602402
  23 H :    0.174392
  24 H :    0.160968
  25 H :    0.150489
  26 H :    0.145854
  27 H :    0.144357
  28 H :    0.360771
Sum of atomic charges:   -0.0000000

LOEWDIN ATOMIC CHARGES
----------------------
   0 C :    0.181765
   1 C :   -0.222829
   2 C :   -0.220915
   3 C :   -0.033499
   4 O :   -0.318712
   5 H :    0.109143
   6 H :    0.114959
   7 H :    0.125519
   8 H :    0.118537
   9 H :    0.114451
  10 H :    0.104033
  11 H :    0.108499
  12 C :   -0.040732
  13 H :    0.105544
  14 H :    0.095503
  15 O :   -0.343011
  16 C :    0.019116
  17 C :    0.038495
  18 C :   -0.241767
  19 C :   -0.038857
  20 O :   -0.332968
  21 H :    0.117764
  22 O :   -0.415090
  23 H :    0.126809
  24 H :    0.126223
  25 H :    0.116457
  26 H :    0.103584
  27 H :    0.101710
  28 H :    0.280267

  Mayer bond orders larger than 0.100000
B(  0-C ,  1-C ) :   0.9249 B(  0-C ,  4-O ) :   0.9144 B(  0-C ,  5-H ) :   0.9325
B(  0-C , 15-O ) :   0.8469 B(  1-C ,  2-C ) :   0.9519 B(  1-C ,  6-H ) :   0.9345
B(  1-C ,  7-H ) :   0.9362 B(  2-C ,  3-C ) :   0.9529 B(  2-C ,  8-H ) :   0.9442
B(  2-C ,  9-H ) :   0.9426 B(  3-C ,  4-O ) :   0.8281 B(  3-C , 10-H ) :   0.9327
B(  3-C , 11-H ) :   0.9400 B( 12-C , 13-H ) :   0.9125 B( 12-C , 14-H ) :   0.9123
B( 12-C , 15-O ) :   0.8173 B( 12-C , 16-C ) :   0.9049 B( 16-C , 17-C ) :   0.9125
B( 16-C , 20-O ) :   0.8435 B( 16-C , 21-H ) :   0.9253 B( 17-C , 18-C ) :   0.9130
B( 17-C , 22-O ) :   0.8902 B( 17-C , 23-H ) :   0.9240 B( 18-C , 19-C ) :   0.9424
B( 18-C , 24-H ) :   0.9376 B( 18-C , 25-H ) :   0.9341 B( 19-C , 20-O ) :   0.8436
B( 19-C , 26-H ) :   0.9355 B( 19-C , 27-H ) :   0.9385 B( 22-O , 28-H ) :   0.7968

FINAL SINGLE POINT ENERGY      -652.862753874319

DIPOLE MOMENT
-------------
                                X             Y             Z
Electronic contribution:     -3.71079      -1.57161      -1.64233
Nuclear contribution   :      4.70072       2.02184       2.16481
                        -----------------------------------------
Total Dipole Moment    :      0.98993       0.45023       0.52247
                        -----------------------------------------
Magnitude (a.u.)       :      1.20650
Magnitude (Debye)      :      3.06669

Rotational constants in cm-1:     0.056932     0.013139     0.012414
Rotational constants in MHz :  1706.777230   393.907797   372.159854

                             ****ORCA TERMINATED NORMALLY****
TOTAL RUN TIME: 0 days 0 hours 19 minutes 35 seconds 675 msec
