                         Program Version 4.2.0 -  RELEASE  -
|  1> # Test redundant internal optimization
|  2> #
|  3> ! RKS B3LYP  Opt TightSCF SmallPrint
|  4>
|  5> %basis
|  6>         Basis "6-31G"
|  7> end
|  8>
|  9> %geom
| 10> Constraints
| 11> { D 4  0  15  12  210.0   C } # D for Dihedral angle
| 12> { D 0  15  12  16  75.0   C } # D for Dihedral angle
| 13> { D 0  4  3  2   C } # D for Dihedral angle
| 14> { D 4  3  2  1   C } # D for Dihedral angle
| 15> { D 3  2  1  0   C } # D for Dihedral angle
| 16> { D 2  1  0  4   C } # D for Dihedral angle
| 17> { D 1  0  4  3   C } # D for Dihedral angle
| 18> { D 16  20  19  18   C } # D for Dihedral angle
| 19> { D 20  19  18  17   C } # D for Dihedral angle
| 20> { D 19  18  17  16   C } # D for Dihedral angle
| 21> { D 18  17  16  20   C } # D for Dihedral angle
| 22> { D 17  16  20  19   C } # D for Dihedral angle
| 23> { D 15  12  16  20   C } # D for Dihedral angle
| 24> end
| 25> end
| 26>
| 27>
| 28> #%pal
| 29> #nprocs 8
| 30> #end
| 31>
| 32> * xyz 0 1
| 33> C  -21.048   26.222   46.251
| 34> C  -20.361   27.558   45.944
| 35> C  -20.329   28.222   47.341
| 36> C  -20.110   27.022   48.296
| 37> O  -20.473   25.807   47.535
| 38> H  -20.833   25.428   45.533
| 39> H  -19.344   27.382   45.576
| 40> H  -20.898   28.157   45.201
| 41> H  -19.543   28.978   47.434
| 42> H  -21.289   28.710   47.548
| 43> H  -20.733   27.082   49.195
| 44> H  -19.064   26.913   48.597
| 45> C  -23.389   26.110   45.076
| 46> H  -24.402   26.518   45.181
| 47> H  -22.911   26.596   44.215
| 48> O  -22.586   26.394   46.375
| 49> C  -23.503   24.593   44.760
| 50> C  -24.311   23.860   45.836
| 51> C  -25.763   24.211   45.431
| 52> C  -25.697   24.248   43.884
| 53> O  -24.269   24.383   43.527
| 54> H  -22.504   24.188   44.589
| 55> H  -24.140   22.780   45.763
| 56> O  -23.961   24.315   47.279
| 57> H  -26.494   23.484   45.800
| 58> H  -26.037   25.194   45.831
| 59> H  -26.254   25.090   43.461
| 60> H  -26.058   23.322   43.428
| 61> H  -24.125   25.394   47.374
| 62> *
| 63>
| 64>                          ****END OF INPUT****
 Total Charge           Charge          ....    0
 Multiplicity           Mult            ....    1
 Number of Electrons    NEL             ....  102
FINAL SINGLE POINT ENERGY      -652.828564544740
FINAL SINGLE POINT ENERGY      -652.853636629080
FINAL SINGLE POINT ENERGY      -652.860049698511
FINAL SINGLE POINT ENERGY      -652.862511636890
FINAL SINGLE POINT ENERGY      -652.863838364653
FINAL SINGLE POINT ENERGY      -652.864561525289
FINAL SINGLE POINT ENERGY      -652.864818941530
FINAL SINGLE POINT ENERGY      -652.864889041389
FINAL SINGLE POINT ENERGY      -652.864893840163
                    ***********************HURRAY********************

CARTESIAN COORDINATES (ANGSTROEM)
---------------------------------
  C    -21.086019   26.190494   46.201576
  C    -20.361008   27.503486   45.919795
  C    -20.429127   28.207238   47.294825
  C    -20.304937   27.037551   48.291601
  O    -20.632596   25.811853   47.506217
  H    -20.861841   25.368694   45.518489
  H    -19.323826   27.289519   45.636165
  H    -20.827302   28.083459   45.118373
  H    -19.637512   28.951168   47.424271
  H    -21.395839   28.707042   47.404743
  H    -20.999441   27.104689   49.131847
  H    -19.287665   26.898924   48.667546
  C    -23.309617   26.142904   45.052234
  H    -24.271475   26.631471   45.221735
  H    -22.835762   26.610584   44.179704
  O    -22.535001   26.413067   46.272962
  C    -23.484919   24.639126   44.799947
  C    -24.293611   23.903666   45.882138
  C    -25.754030   24.276104   45.490658
  C    -25.704200   24.324718   43.950374
  O    -24.261393   24.448333   43.575680
  H    -22.515425   24.164349   44.623302
  H    -24.148601   22.824685   45.756010
  O    -23.963267   24.220582   47.247101
  H    -26.472556   23.544891   45.869867
  H    -26.002315   25.248396   45.929303
  H    -26.249503   25.171955   43.522594
  H    -26.065212   23.402480   43.486200
  H    -23.415002   25.039571   47.285747

 Multiplicity           Mult            ....    1
 Number of Electrons    NEL             ....  102
 Basis Dimension        Dim             ....  149

ORBITAL ENERGIES
----------------

  NO   OCC          E(Eh)            E(eV)
   0   2.0000     -19.162737      -521.4446
   1   2.0000     -19.151723      -521.1449
   2   2.0000     -19.142055      -520.8818
   3   2.0000     -19.111377      -520.0470
   4   2.0000     -10.291749      -280.0527
   5   2.0000     -10.240519      -278.6587
   6   2.0000     -10.235594      -278.5247
   7   2.0000     -10.232479      -278.4399
   8   2.0000     -10.230154      -278.3766
   9   2.0000     -10.227495      -278.3043
  10   2.0000     -10.195149      -277.4241
  11   2.0000     -10.192911      -277.3632
  12   2.0000     -10.178998      -276.9846
  13   2.0000      -1.065876       -29.0040
  14   2.0000      -1.026062       -27.9206
  15   2.0000      -1.007005       -27.4020
  16   2.0000      -0.990584       -26.9552
  17   2.0000      -0.795178       -21.6379
  18   2.0000      -0.772712       -21.0266
  19   2.0000      -0.767020       -20.8717
  20   2.0000      -0.739674       -20.1276
  21   2.0000      -0.681082       -18.5332
  22   2.0000      -0.609187       -16.5768
  23   2.0000      -0.606070       -16.4920
  24   2.0000      -0.595299       -16.1989
  25   2.0000      -0.575078       -15.6487
  26   2.0000      -0.529753       -14.4153
  27   2.0000      -0.524138       -14.2625
  28   2.0000      -0.498326       -13.5601
  29   2.0000      -0.488027       -13.2799
  30   2.0000      -0.470395       -12.8001
  31   2.0000      -0.462044       -12.5729
  32   2.0000      -0.451561       -12.2876
  33   2.0000      -0.430384       -11.7114
  34   2.0000      -0.426281       -11.5997
  35   2.0000      -0.415783       -11.3140
  36   2.0000      -0.408828       -11.1248
  37   2.0000      -0.388574       -10.5736
  38   2.0000      -0.382297       -10.4028
  39   2.0000      -0.372325       -10.1315
  40   2.0000      -0.364486        -9.9182
  41   2.0000      -0.363214        -9.8835
  42   2.0000      -0.348486        -9.4828
  43   2.0000      -0.339253        -9.2315
  44   2.0000      -0.325623        -8.8606
  45   2.0000      -0.321418        -8.7462
  46   2.0000      -0.291996        -7.9456
  47   2.0000      -0.276073        -7.5123
  48   2.0000      -0.267511        -7.2793
  49   2.0000      -0.244981        -6.6663
  50   2.0000      -0.239547        -6.5184
  51   0.0000       0.057588         1.5670
  52   0.0000       0.078357         2.1322
  53   0.0000       0.091052         2.4777
  54   0.0000       0.092835         2.5262
  55   0.0000       0.103804         2.8246

MULLIKEN ATOMIC CHARGES
-----------------------
   0 C :    0.287219
   1 C :   -0.259867
   2 C :   -0.300005
   3 C :   -0.007012
   4 O :   -0.501202
   5 H :    0.152211
   6 H :    0.149909
   7 H :    0.148518
   8 H :    0.146120
   9 H :    0.164562
  10 H :    0.159897
  11 H :    0.148071
  12 C :   -0.050456
  13 H :    0.166173
  14 H :    0.151846
  15 O :   -0.533504
  16 C :    0.049294
  17 C :    0.120047
  18 C :   -0.300955
  19 C :   -0.021945
  20 O :   -0.522203
  21 H :    0.154878
  22 H :    0.149332
  23 O :   -0.637034
  24 H :    0.153897
  25 H :    0.144516
  26 H :    0.142314
  27 H :    0.150034
  28 H :    0.395346
Sum of atomic charges:   -0.0000000

LOEWDIN ATOMIC CHARGES
----------------------
   0 C :    0.175489
   1 C :   -0.223442
   2 C :   -0.216371
   3 C :   -0.024876
   4 O :   -0.303718
   5 H :    0.102714
   6 H :    0.116289
   7 H :    0.118002
   8 H :    0.116680
   9 H :    0.120439
  10 H :    0.112338
  11 H :    0.106057
  12 C :   -0.052816
  13 H :    0.118751
  14 H :    0.106530
  15 O :   -0.338599
  16 C :    0.004861
  17 C :    0.041660
  18 C :   -0.237163
  19 C :   -0.032502
  20 O :   -0.325254
  21 H :    0.109626
  22 H :    0.106022
  23 O :   -0.431466
  24 H :    0.122571
  25 H :    0.111122
  26 H :    0.101930
  27 H :    0.106592
  28 H :    0.288532

  Mayer bond orders larger than 0.100000
B(  0-C ,  1-C ) :   0.9374 B(  0-C ,  4-O ) :   0.9434 B(  0-C ,  5-H ) :   0.9151
B(  0-C , 15-O ) :   0.7902 B(  1-C ,  2-C ) :   0.9519 B(  1-C ,  6-H ) :   0.9343
B(  1-C ,  7-H ) :   0.9363 B(  2-C ,  3-C ) :   0.9551 B(  2-C ,  8-H ) :   0.9444
B(  2-C ,  9-H ) :   0.9433 B(  3-C ,  4-O ) :   0.8265 B(  3-C , 10-H ) :   0.9342
B(  3-C , 11-H ) :   0.9395 B( 12-C , 13-H ) :   0.9369 B( 12-C , 14-H ) :   0.9250
B( 12-C , 15-O ) :   0.8116 B( 12-C , 16-C ) :   0.8813 B( 16-C , 17-C ) :   0.9107
B( 16-C , 20-O ) :   0.8517 B( 16-C , 21-H ) :   0.9269 B( 17-C , 18-C ) :   0.9023
B( 17-C , 22-H ) :   0.9299 B( 17-C , 23-O ) :   0.9402 B( 18-C , 19-C ) :   0.9388
B( 18-C , 24-H ) :   0.9438 B( 18-C , 25-H ) :   0.9430 B( 19-C , 20-O ) :   0.8290
B( 19-C , 26-H ) :   0.9344 B( 19-C , 27-H ) :   0.9387 B( 23-O , 28-H ) :   0.7217

FINAL SINGLE POINT ENERGY      -652.864895049760

DIPOLE MOMENT
-------------
                                X             Y             Z
Electronic contribution:      0.15947      -3.55861       0.21474
Nuclear contribution   :      0.20980       4.81801      -0.73779
                        -----------------------------------------
Total Dipole Moment    :      0.36927       1.25940      -0.52304
                        -----------------------------------------
Magnitude (a.u.)       :      1.41281
Magnitude (Debye)      :      3.59107

Rotational constants in cm-1:     0.063075     0.013500     0.012206
Rotational constants in MHz :  1890.940720   404.719590   365.912596

                             ****ORCA TERMINATED NORMALLY****
TOTAL RUN TIME: 0 days 0 hours 31 minutes 5 seconds 98 msec
