                         Program Version 4.2.0 -  RELEASE  -
|  1> # Test redundant internal optimization
|  2> #
|  3> ! RKS B3LYP  Opt TightSCF SmallPrint
|  4>
|  5> %basis
|  6>         Basis "6-31G"
|  7> end
|  8>
|  9> %geom
| 10> Constraints
| 11> { D 4  0  15  12  150.0   C } # D for Dihedral angle
| 12> { D 0  15  12  16  300.0   C } # D for Dihedral angle
| 13> { D 0  4  3  2   C } # D for Dihedral angle
| 14> { D 4  3  2  1   C } # D for Dihedral angle
| 15> { D 3  2  1  0   C } # D for Dihedral angle
| 16> { D 2  1  0  4   C } # D for Dihedral angle
| 17> { D 1  0  4  3   C } # D for Dihedral angle
| 18> { D 16  20  19  18   C } # D for Dihedral angle
| 19> { D 20  19  18  17   C } # D for Dihedral angle
| 20> { D 19  18  17  16   C } # D for Dihedral angle
| 21> { D 18  17  16  20   C } # D for Dihedral angle
| 22> { D 17  16  20  19   C } # D for Dihedral angle
| 23> { D 15  12  16  20   C } # D for Dihedral angle
| 24> end
| 25> end
| 26>
| 27>
| 28> #%pal
| 29> #nprocs 8
| 30> #end
| 31>
| 32> * xyz 0 1
| 33> C  -21.048   26.222   46.251
| 34> C  -20.361   27.558   45.944
| 35> C  -20.329   28.222   47.341
| 36> C  -20.110   27.022   48.296
| 37> O  -20.473   25.807   47.535
| 38> H  -20.833   25.428   45.533
| 39> H  -19.344   27.382   45.576
| 40> H  -20.898   28.157   45.201
| 41> H  -19.543   28.978   47.434
| 42> H  -21.289   28.710   47.548
| 43> H  -20.733   27.082   49.195
| 44> H  -19.064   26.913   48.597
| 45> C  -23.210   27.459   45.431
| 46> H  -23.014   27.177   44.389
| 47> H  -24.297   27.510   45.575
| 48> O  -22.586   26.394   46.375
| 49> C  -22.634   28.882   45.669
| 50> C  -23.353   29.924   44.804
| 51> C  -24.657   30.150   45.605
| 52> C  -24.194   30.017   47.077
| 53> O  -22.893   29.316   47.046
| 54> H  -21.550   28.857   45.539
| 55> O  -22.516   31.231   44.739
| 56> H  -23.536   29.581   43.781
| 57> H  -25.119   31.122   45.399
| 58> H  -25.390   29.373   45.358
| 59> H  -24.898   29.439   47.687
| 60> H  -24.027   30.988   47.552
| 61> H  -22.320   31.594   45.754
| 62> *
| 63>
| 64>                          ****END OF INPUT****
 Total Charge           Charge          ....    0
 Multiplicity           Mult            ....    1
 Number of Electrons    NEL             ....  102
FINAL SINGLE POINT ENERGY      -652.758491058899
FINAL SINGLE POINT ENERGY      -652.820558441742
FINAL SINGLE POINT ENERGY      -652.841942147956
FINAL SINGLE POINT ENERGY      -652.846043800474
FINAL SINGLE POINT ENERGY      -652.846699182476
FINAL SINGLE POINT ENERGY      -652.846819608411
FINAL SINGLE POINT ENERGY      -652.846827982679
FINAL SINGLE POINT ENERGY      -652.846829584592
                    ***********************HURRAY********************

CARTESIAN COORDINATES (ANGSTROEM)
---------------------------------
  C    -20.997503   26.267291   46.213525
  C    -19.988616   27.402069   46.023939
  C    -19.983029   28.071974   47.426431
  C    -20.173937   26.865611   48.370474
  O    -20.707767   25.769725   47.525764
  H    -20.853902   25.430257   45.523437
  H    -19.014715   26.940111   45.821595
  H    -20.205444   28.078715   45.196550
  H    -19.048756   28.607897   47.621466
  H    -20.816541   28.772563   47.528094
  H    -20.885967   27.064406   49.175290
  H    -19.233923   26.501678   48.795837
  C    -23.105991   27.607246   45.427729
  H    -23.026084   27.377408   44.349811
  H    -24.150355   27.463400   45.718275
  O    -22.424504   26.588391   46.199889
  C    -22.726173   29.084923   45.601516
  C    -23.619213   30.008419   44.755250
  C    -24.883035   30.136801   45.651841
  C    -24.293580   30.120914   47.086071
  O    -22.927504   29.555369   46.974664
  H    -21.680736   29.267742   45.361418
  O    -22.974059   31.292605   44.538062
  H    -23.833516   29.624371   43.757435
  H    -25.425849   31.057743   45.424312
  H    -25.556796   29.289640   45.485154
  H    -24.875479   29.504605   47.777105
  H    -24.193696   31.124880   47.510590
  H    -22.612331   31.618246   45.389474

 Multiplicity           Mult            ....    1
 Number of Electrons    NEL             ....  102
 Basis Dimension        Dim             ....  149

ORBITAL ENERGIES
----------------

  NO   OCC          E(Eh)            E(eV)
   0   2.0000     -19.151548      -521.1401
   1   2.0000     -19.147445      -521.0285
   2   2.0000     -19.132315      -520.6168
   3   2.0000     -19.131676      -520.5994
   4   2.0000     -10.276427      -279.6358
   5   2.0000     -10.250934      -278.9421
   6   2.0000     -10.240759      -278.6652
   7   2.0000     -10.238640      -278.6076
   8   2.0000     -10.237616      -278.5797
   9   2.0000     -10.217168      -278.0233
  10   2.0000     -10.197594      -277.4906
  11   2.0000     -10.187184      -277.2074
  12   2.0000     -10.177778      -276.9514
  13   2.0000      -1.047671       -28.5086
  14   2.0000      -1.041433       -28.3388
  15   2.0000      -1.014693       -27.6112
  16   2.0000      -0.984471       -26.7888
  17   2.0000      -0.792301       -21.5596
  18   2.0000      -0.780998       -21.2520
  19   2.0000      -0.773175       -21.0392
  20   2.0000      -0.733604       -19.9624
  21   2.0000      -0.679357       -18.4862
  22   2.0000      -0.613111       -16.6836
  23   2.0000      -0.607009       -16.5175
  24   2.0000      -0.593757       -16.1570
  25   2.0000      -0.574977       -15.6459
  26   2.0000      -0.529085       -14.3971
  27   2.0000      -0.509361       -13.8604
  28   2.0000      -0.497278       -13.5316
  29   2.0000      -0.493123       -13.4186
  30   2.0000      -0.472990       -12.8707
  31   2.0000      -0.458601       -12.4792
  32   2.0000      -0.453006       -12.3269
  33   2.0000      -0.442749       -12.0478
  34   2.0000      -0.429953       -11.6996
  35   2.0000      -0.412638       -11.2284
  36   2.0000      -0.404973       -11.0199
  37   2.0000      -0.401428       -10.9234
  38   2.0000      -0.378472       -10.2987
  39   2.0000      -0.377746       -10.2790
  40   2.0000      -0.361054        -9.8248
  41   2.0000      -0.355424        -9.6716
  42   2.0000      -0.349380        -9.5071
  43   2.0000      -0.338077        -9.1995
  44   2.0000      -0.314658        -8.5623
  45   2.0000      -0.304044        -8.2735
  46   2.0000      -0.287437        -7.8216
  47   2.0000      -0.279282        -7.5996
  48   2.0000      -0.264410        -7.1950
  49   2.0000      -0.252077        -6.8594
  50   2.0000      -0.238897        -6.5007
  51   0.0000       0.057417         1.5624
  52   0.0000       0.080802         2.1987
  53   0.0000       0.083443         2.2706
  54   0.0000       0.089043         2.4230
  55   0.0000       0.096748         2.6326

MULLIKEN ATOMIC CHARGES
-----------------------
   0 C :    0.318812
   1 C :   -0.295078
   2 C :   -0.332488
   3 C :    0.000822
   4 O :   -0.495575
   5 H :    0.145819
   6 H :    0.148450
   7 H :    0.137108
   8 H :    0.134556
   9 H :    0.205155
  10 H :    0.154448
  11 H :    0.138613
  12 C :    0.014804
  13 H :    0.117370
  14 H :    0.155701
  15 O :   -0.524014
  16 C :    0.041057
  17 C :    0.077897
  18 C :   -0.299507
  19 C :   -0.029599
  20 O :   -0.522270
  21 H :    0.166445
  22 O :   -0.601059
  23 H :    0.155650
  24 H :    0.165575
  25 H :    0.149522
  26 H :    0.159517
  27 H :    0.147761
  28 H :    0.364508
Sum of atomic charges:   -0.0000000

LOEWDIN ATOMIC CHARGES
----------------------
   0 C :    0.188464
   1 C :   -0.232564
   2 C :   -0.230467
   3 C :   -0.024764
   4 O :   -0.304470
   5 H :    0.098739
   6 H :    0.118245
   7 H :    0.108877
   8 H :    0.111346
   9 H :    0.133982
  10 H :    0.109329
  11 H :    0.100134
  12 C :   -0.035058
  13 H :    0.089322
  14 H :    0.116680
  15 O :   -0.334858
  16 C :   -0.003213
  17 C :    0.037640
  18 C :   -0.240692
  19 C :   -0.037726
  20 O :   -0.328632
  21 H :    0.114635
  22 O :   -0.412931
  23 H :    0.117186
  24 H :    0.127994
  25 H :    0.115585
  26 H :    0.110735
  27 H :    0.103329
  28 H :    0.283153

  Mayer bond orders larger than 0.100000
B(  0-C ,  1-C ) :   0.9269 B(  0-C ,  4-O ) :   0.9384 B(  0-C ,  5-H ) :   0.9268
B(  0-C , 15-O ) :   0.8437 B(  1-C ,  2-C ) :   0.9508 B(  1-C ,  6-H ) :   0.9321
B(  1-C ,  7-H ) :   0.9243 B(  2-C ,  3-C ) :   0.9524 B(  2-C ,  8-H ) :   0.9460
B(  2-C ,  9-H ) :   0.9109 B(  3-C ,  4-O ) :   0.8345 B(  3-C , 10-H ) :   0.9347
B(  3-C , 11-H ) :   0.9404 B( 12-C , 13-H ) :   0.9099 B( 12-C , 14-H ) :   0.9355
B( 12-C , 15-O ) :   0.8761 B( 12-C , 16-C ) :   0.8725 B( 16-C , 17-C ) :   0.8924
B( 16-C , 20-O ) :   0.8404 B( 16-C , 21-H ) :   0.9104 B( 17-C , 18-C ) :   0.9131
B( 17-C , 22-O ) :   0.8913 B( 17-C , 23-H ) :   0.9323 B( 18-C , 19-C ) :   0.9397
B( 18-C , 24-H ) :   0.9367 B( 18-C , 25-H ) :   0.9325 B( 19-C , 20-O ) :   0.8380
B( 19-C , 26-H ) :   0.9328 B( 19-C , 27-H ) :   0.9376 B( 22-O , 28-H ) :   0.7948

FINAL SINGLE POINT ENERGY      -652.846829809928

DIPOLE MOMENT
-------------
                                X             Y             Z
Electronic contribution:     -0.27110      -2.43636      -0.06816
Nuclear contribution   :      0.08468       3.38212      -0.22312
                        -----------------------------------------
Total Dipole Moment    :     -0.18642       0.94576      -0.29128
                        -----------------------------------------
Magnitude (a.u.)       :      1.00700
Magnitude (Debye)      :      2.55960

Rotational constants in cm-1:     0.052291     0.014708     0.014494
Rotational constants in MHz :  1567.631398   440.948601   434.521900

                             ****ORCA TERMINATED NORMALLY****
TOTAL RUN TIME: 0 days 2 hours 50 minutes 53 seconds 237 msec
