                         Program Version 4.2.0 -  RELEASE  -
|  1> # Test redundant internal optimization
|  2> #
|  3> ! RKS B3LYP  Opt TightSCF SmallPrint
|  4>
|  5> %basis
|  6>         Basis "6-31G"
|  7> end
|  8>
|  9> %geom
| 10> Constraints
| 11> { D 4  0  15  12  270.0   C } # D for Dihedral angle
| 12> { D 0  15  12  16  135.0   C } # D for Dihedral angle
| 13> { D 0  4  3  2   C } # D for Dihedral angle
| 14> { D 4  3  2  1   C } # D for Dihedral angle
| 15> { D 3  2  1  0   C } # D for Dihedral angle
| 16> { D 2  1  0  4   C } # D for Dihedral angle
| 17> { D 1  0  4  3   C } # D for Dihedral angle
| 18> { D 16  20  19  18   C } # D for Dihedral angle
| 19> { D 20  19  18  17   C } # D for Dihedral angle
| 20> { D 19  18  17  16   C } # D for Dihedral angle
| 21> { D 18  17  16  20   C } # D for Dihedral angle
| 22> { D 17  16  20  19   C } # D for Dihedral angle
| 23> { D 15  12  16  20   C } # D for Dihedral angle
| 24> end
| 25> end
| 26>
| 27>
| 28> #%pal
| 29> #nprocs 8
| 30> #end
| 31>
| 32> * xyz 0 1
| 33> C  -21.048   26.222   46.251
| 34> C  -20.361   27.558   45.944
| 35> C  -20.329   28.222   47.341
| 36> C  -20.110   27.022   48.296
| 37> O  -20.473   25.807   47.535
| 38> H  -20.833   25.428   45.533
| 39> H  -19.344   27.382   45.576
| 40> H  -20.898   28.157   45.201
| 41> H  -19.543   28.978   47.434
| 42> H  -21.289   28.710   47.548
| 43> H  -20.733   27.082   49.195
| 44> H  -19.064   26.913   48.597
| 45> C  -23.420   25.119   46.072
| 46> H  -23.881   25.215   45.082
| 47> H  -22.774   24.231   46.066
| 48> O  -22.586   26.394   46.375
| 49> C  -24.546   24.876   47.115
| 50> C  -23.984   24.821   48.540
| 51> C  -23.798   26.324   48.862
| 52> C  -24.992   26.990   48.133
| 53> O  -25.477   26.010   47.137
| 54> H  -25.121   23.996   46.822
| 55> O  -25.024   24.181   49.498
| 56> H  -23.051   24.253   48.613
| 57> H  -23.797   26.531   49.937
| 58> H  -22.847   26.682   48.451
| 59> H  -24.707   27.914   47.619
| 60> H  -25.827   27.203   48.807
| 61> H  -25.968   24.735   49.442
| 62> *
| 63>
| 64>                          ****END OF INPUT****
 Total Charge           Charge          ....    0
 Multiplicity           Mult            ....    1
 Number of Electrons    NEL             ....  102
FINAL SINGLE POINT ENERGY      -652.837441348936
FINAL SINGLE POINT ENERGY      -652.860277461450
FINAL SINGLE POINT ENERGY      -652.864010425558
FINAL SINGLE POINT ENERGY      -652.865759663508
FINAL SINGLE POINT ENERGY      -652.865890434183
FINAL SINGLE POINT ENERGY      -652.865911046533
FINAL SINGLE POINT ENERGY      -652.865911538590
                    ***********************HURRAY********************

CARTESIAN COORDINATES (ANGSTROEM)
---------------------------------
  C    -21.061804   26.165279   46.241501
  C    -20.408719   27.502873   45.888761
  C    -20.368849   28.208735   47.264827
  C    -20.111351   27.043632   48.247962
  O    -20.466977   25.803336   47.511258
  H    -20.835501   25.343289   45.555800
  H    -19.396126   27.319746   45.512402
  H    -20.977587   28.051951   45.136090
  H    -19.591948   28.977340   47.322515
  H    -21.335083   28.682021   47.464831
  H    -20.717358   27.104271   49.155650
  H    -19.057697   26.948701   48.526367
  C    -23.309585   25.164141   46.100295
  H    -23.761966   25.267723   45.107055
  H    -22.681558   24.263001   46.113499
  O    -22.489713   26.354016   46.334698
  C    -24.432853   24.996350   47.119789
  C    -24.028566   24.846466   48.592254
  C    -23.877925   26.326311   49.030768
  C    -24.985553   27.044963   48.221418
  O    -25.358264   26.130710   47.115738
  H    -25.014269   24.120153   46.805032
  O    -25.067127   24.150847   49.338722
  H    -23.120051   24.262824   48.741807
  H    -24.004886   26.425655   50.112512
  H    -22.892119   26.685454   48.738775
  H    -24.642545   27.989782   47.792179
  H    -25.892789   27.226399   48.807789
  H    -25.936232   24.550030   49.121706

 Multiplicity           Mult            ....    1
 Number of Electrons    NEL             ....  102
 Basis Dimension        Dim             ....  149

ORBITAL ENERGIES
----------------

  NO   OCC          E(Eh)            E(eV)
   0   2.0000     -19.150380      -521.1083
   1   2.0000     -19.145743      -520.9822
   2   2.0000     -19.135792      -520.7114
   3   2.0000     -19.131959      -520.6071
   4   2.0000     -10.284448      -279.8541
   5   2.0000     -10.233929      -278.4794
   6   2.0000     -10.232455      -278.4393
   7   2.0000     -10.231845      -278.4227
   8   2.0000     -10.230345      -278.3818
   9   2.0000     -10.221115      -278.1307
  10   2.0000     -10.190431      -277.2957
  11   2.0000     -10.189479      -277.2698
  12   2.0000     -10.174664      -276.8667
  13   2.0000      -1.058256       -28.7966
  14   2.0000      -1.030002       -28.0278
  15   2.0000      -1.002587       -27.2818
  16   2.0000      -0.995610       -27.0919
  17   2.0000      -0.792908       -21.5761
  18   2.0000      -0.774828       -21.0841
  19   2.0000      -0.763100       -20.7650
  20   2.0000      -0.734180       -19.9780
  21   2.0000      -0.674200       -18.3459
  22   2.0000      -0.603489       -16.4218
  23   2.0000      -0.598593       -16.2885
  24   2.0000      -0.593951       -16.1622
  25   2.0000      -0.579891       -15.7796
  26   2.0000      -0.525447       -14.2981
  27   2.0000      -0.504578       -13.7303
  28   2.0000      -0.499714       -13.5979
  29   2.0000      -0.488943       -13.3048
  30   2.0000      -0.472600       -12.8601
  31   2.0000      -0.456664       -12.4265
  32   2.0000      -0.444914       -12.1067
  33   2.0000      -0.439434       -11.9576
  34   2.0000      -0.425680       -11.5834
  35   2.0000      -0.411581       -11.1997
  36   2.0000      -0.405635       -11.0379
  37   2.0000      -0.385049       -10.4777
  38   2.0000      -0.371425       -10.1070
  39   2.0000      -0.365120        -9.9354
  40   2.0000      -0.361709        -9.8426
  41   2.0000      -0.357808        -9.7364
  42   2.0000      -0.348560        -9.4848
  43   2.0000      -0.330767        -9.0006
  44   2.0000      -0.324203        -8.8220
  45   2.0000      -0.308421        -8.3926
  46   2.0000      -0.300558        -8.1786
  47   2.0000      -0.276776        -7.5315
  48   2.0000      -0.263484        -7.1698
  49   2.0000      -0.256203        -6.9716
  50   2.0000      -0.238216        -6.4822
  51   0.0000       0.064449         1.7537
  52   0.0000       0.083709         2.2778
  53   0.0000       0.086405         2.3512
  54   0.0000       0.103270         2.8101
  55   0.0000       0.108559         2.9541

MULLIKEN ATOMIC CHARGES
-----------------------
   0 C :    0.279586
   1 C :   -0.256579
   2 C :   -0.304543
   3 C :   -0.003784
   4 O :   -0.512651
   5 H :    0.145080
   6 H :    0.147226
   7 H :    0.158053
   8 H :    0.144930
   9 H :    0.161528
  10 H :    0.143068
  11 H :    0.145697
  12 C :    0.002405
  13 H :    0.152178
  14 H :    0.135876
  15 O :   -0.519068
  16 C :    0.066626
  17 C :    0.074611
  18 C :   -0.298366
  19 C :   -0.017338
  20 O :   -0.526772
  21 H :    0.153782
  22 O :   -0.604826
  23 H :    0.163006
  24 H :    0.148434
  25 H :    0.175331
  26 H :    0.149684
  27 H :    0.134638
  28 H :    0.362190
Sum of atomic charges:   -0.0000000

LOEWDIN ATOMIC CHARGES
----------------------
   0 C :    0.171254
   1 C :   -0.215264
   2 C :   -0.216937
   3 C :   -0.029846
   4 O :   -0.330086
   5 H :    0.098052
   6 H :    0.115354
   7 H :    0.124862
   8 H :    0.115382
   9 H :    0.117420
  10 H :    0.101653
  11 H :    0.104541
  12 C :   -0.035531
  13 H :    0.110059
  14 H :    0.103998
  15 O :   -0.327932
  16 C :    0.010892
  17 C :    0.039075
  18 C :   -0.241722
  19 C :   -0.032464
  20 O :   -0.331345
  21 H :    0.115701
  22 O :   -0.417909
  23 H :    0.121314
  24 H :    0.118627
  25 H :    0.126716
  26 H :    0.106990
  27 H :    0.095791
  28 H :    0.281354

  Mayer bond orders larger than 0.100000
B(  0-C ,  1-C ) :   0.9457 B(  0-C ,  4-O ) :   0.9052 B(  0-C ,  5-H ) :   0.9198
B(  0-C , 15-O ) :   0.8650 B(  1-C ,  2-C ) :   0.9562 B(  1-C ,  6-H ) :   0.9391
B(  1-C ,  7-H ) :   0.9364 B(  2-C ,  3-C ) :   0.9543 B(  2-C ,  8-H ) :   0.9451
B(  2-C ,  9-H ) :   0.9438 B(  3-C ,  4-O ) :   0.8361 B(  3-C , 10-H ) :   0.9299
B(  3-C , 11-H ) :   0.9403 B( 12-C , 13-H ) :   0.9255 B( 12-C , 14-H ) :   0.9108
B( 12-C , 15-O ) :   0.8395 B( 12-C , 16-C ) :   0.9081 B( 16-C , 17-C ) :   0.9086
B( 16-C , 20-O ) :   0.8724 B( 16-C , 21-H ) :   0.9188 B( 17-C , 18-C ) :   0.9242
B( 17-C , 22-O ) :   0.8867 B( 17-C , 23-H ) :   0.9316 B( 18-C , 19-C ) :   0.9440
B( 18-C , 24-H ) :   0.9380 B( 18-C , 25-H ) :   0.9108 B( 19-C , 20-O ) :   0.8388
B( 19-C , 26-H ) :   0.9344 B( 19-C , 27-H ) :   0.9378 B( 22-O , 28-H ) :   0.7964

FINAL SINGLE POINT ENERGY      -652.865910281822

DIPOLE MOMENT
-------------
                                X             Y             Z
Electronic contribution:     -3.69374      -4.19370      -0.78846
Nuclear contribution   :      4.48621       4.99385       0.39368
                        -----------------------------------------
Total Dipole Moment    :      0.79247       0.80015      -0.39479
                        -----------------------------------------
Magnitude (a.u.)       :      1.19336
Magnitude (Debye)      :      3.03327

Rotational constants in cm-1:     0.048253     0.016157     0.015471
Rotational constants in MHz :  1446.592095   484.383023   463.805883

                             ****ORCA TERMINATED NORMALLY****
TOTAL RUN TIME: 0 days 0 hours 17 minutes 33 seconds 63 msec
