                         Program Version 4.2.0 -  RELEASE  -
|  1> # Test redundant internal optimization
|  2> #
|  3> ! RKS B3LYP  Opt TightSCF SmallPrint
|  4>
|  5> %basis
|  6>         Basis "6-31G"
|  7> end
|  8>
|  9> %geom
| 10> Constraints
| 11> { D 4  0  15  12  0.0   C } # D for Dihedral angle
| 12> { D 0  15  12  16  195.0   C } # D for Dihedral angle
| 13> { D 0  4  3  2   C } # D for Dihedral angle
| 14> { D 4  3  2  1   C } # D for Dihedral angle
| 15> { D 3  2  1  0   C } # D for Dihedral angle
| 16> { D 2  1  0  4   C } # D for Dihedral angle
| 17> { D 1  0  4  3   C } # D for Dihedral angle
| 18> { D 16  20  19  18   C } # D for Dihedral angle
| 19> { D 20  19  18  17   C } # D for Dihedral angle
| 20> { D 19  18  17  16   C } # D for Dihedral angle
| 21> { D 18  17  16  20   C } # D for Dihedral angle
| 22> { D 17  16  20  19   C } # D for Dihedral angle
| 23> { D 15  12  16  20   C } # D for Dihedral angle
| 24> end
| 25> end
| 26>
| 27>
| 28> #%pal
| 29> #nprocs 8
| 30> #end
| 31>
| 32> * xyz 0 1
| 33> C  -21.048   26.222   46.251
| 34> C  -20.361   27.558   45.944
| 35> C  -20.329   28.222   47.341
| 36> C  -20.110   27.022   48.296
| 37> O  -20.473   25.807   47.535
| 38> H  -20.833   25.428   45.533
| 39> H  -19.344   27.382   45.576
| 40> H  -20.898   28.157   45.201
| 41> H  -19.543   28.978   47.434
| 42> H  -21.289   28.710   47.548
| 43> H  -20.733   27.082   49.195
| 44> H  -19.064   26.913   48.597
| 45> C  -23.172   26.101   47.783
| 46> H  -22.724   25.180   48.177
| 47> H  -22.937   26.920   48.475
| 48> O  -22.586   26.394   46.375
| 49> C  -24.716   25.924   47.767
| 50> C  -25.125   24.690   46.955
| 51> C  -24.851   23.547   47.962
| 52> C  -25.214   24.186   49.326
| 53> O  -25.214   25.649   49.118
| 54> H  -25.179   26.856   47.438
| 55> H  -26.192   24.739   46.709
| 56> O  -24.324   24.534   45.634
| 57> H  -25.437   22.647   47.753
| 58> H  -23.790   23.269   47.935
| 59> H  -24.494   23.935   50.112
| 60> H  -26.216   23.907   49.663
| 61> H  -23.253   24.482   45.857
| 62> *
| 63>
| 64>                          ****END OF INPUT****
 Total Charge           Charge          ....    0
 Multiplicity           Mult            ....    1
 Number of Electrons    NEL             ....  102
FINAL SINGLE POINT ENERGY      -652.828111599045
FINAL SINGLE POINT ENERGY      -652.852312081300
FINAL SINGLE POINT ENERGY      -652.858957981011
FINAL SINGLE POINT ENERGY      -652.861565212517
FINAL SINGLE POINT ENERGY      -652.863131515910
FINAL SINGLE POINT ENERGY      -652.864208380664
FINAL SINGLE POINT ENERGY      -652.864716832512
FINAL SINGLE POINT ENERGY      -652.864861652649
FINAL SINGLE POINT ENERGY      -652.864886272282
FINAL SINGLE POINT ENERGY      -652.864889602897
                    ***********************HURRAY********************

CARTESIAN COORDINATES (ANGSTROEM)
---------------------------------
  C    -21.067008   26.169456   46.386694
  C    -20.476074   27.513214   45.963506
  C    -20.339130   28.240400   47.320831
  C    -19.976049   27.101877   48.297437
  O    -20.368227   25.839503   47.599784
  H    -20.900509   25.344543   45.691631
  H    -19.495738   27.345478   45.502791
  H    -21.117902   28.040522   45.254632
  H    -19.577819   29.025997   47.301686
  H    -21.293278   28.702457   47.594774
  H    -20.509296   27.152720   49.249821
  H    -18.902231   27.024970   48.487136
  C    -23.103282   26.064486   47.888392
  H    -22.640952   25.188874   48.353356
  H    -22.925702   26.933172   48.531443
  O    -22.525004   26.286524   46.554076
  C    -24.614197   25.870771   47.715395
  C    -25.034540   24.635059   46.901342
  C    -24.869152   23.496135   47.949810
  C    -25.276608   24.175771   49.273148
  O    -25.197612   25.647990   49.037163
  H    -25.058087   26.789390   47.322269
  H    -26.094936   24.736710   46.641508
  O    -24.304410   24.407110   45.680739
  H    -25.489534   22.628759   47.709998
  H    -23.823531   23.170789   47.955773
  H    -24.620984   23.920544   50.111314
  H    -26.311112   23.962103   49.556177
  H    -23.536094   25.025674   45.657375

 Multiplicity           Mult            ....    1
 Number of Electrons    NEL             ....  102
 Basis Dimension        Dim             ....  149

ORBITAL ENERGIES
----------------

  NO   OCC          E(Eh)            E(eV)
   0   2.0000     -19.162631      -521.4417
   1   2.0000     -19.160274      -521.3776
   2   2.0000     -19.138285      -520.7792
   3   2.0000     -19.110382      -520.0199
   4   2.0000     -10.293273      -280.0942
   5   2.0000     -10.241545      -278.6866
   6   2.0000     -10.234351      -278.4909
   7   2.0000     -10.231821      -278.4220
   8   2.0000     -10.227477      -278.3038
   9   2.0000     -10.224097      -278.2118
  10   2.0000     -10.199731      -277.5488
  11   2.0000     -10.195891      -277.4443
  12   2.0000     -10.176041      -276.9041
  13   2.0000      -1.068400       -29.0726
  14   2.0000      -1.024314       -27.8730
  15   2.0000      -1.006395       -27.3854
  16   2.0000      -0.989801       -26.9339
  17   2.0000      -0.800917       -21.7941
  18   2.0000      -0.774674       -21.0799
  19   2.0000      -0.765966       -20.8430
  20   2.0000      -0.737831       -20.0774
  21   2.0000      -0.676451       -18.4072
  22   2.0000      -0.613469       -16.6933
  23   2.0000      -0.599953       -16.3256
  24   2.0000      -0.593020       -16.1369
  25   2.0000      -0.575251       -15.6534
  26   2.0000      -0.530927       -14.4473
  27   2.0000      -0.516639       -14.0585
  28   2.0000      -0.507185       -13.8012
  29   2.0000      -0.486791       -13.2463
  30   2.0000      -0.475740       -12.9455
  31   2.0000      -0.459073       -12.4920
  32   2.0000      -0.442052       -12.0289
  33   2.0000      -0.431793       -11.7497
  34   2.0000      -0.425607       -11.5814
  35   2.0000      -0.419955       -11.4276
  36   2.0000      -0.407584       -11.0909
  37   2.0000      -0.386301       -10.5118
  38   2.0000      -0.384261       -10.4563
  39   2.0000      -0.370943       -10.0939
  40   2.0000      -0.366618        -9.9762
  41   2.0000      -0.360051        -9.7975
  42   2.0000      -0.356292        -9.6952
  43   2.0000      -0.337939        -9.1958
  44   2.0000      -0.334605        -9.1051
  45   2.0000      -0.318669        -8.6714
  46   2.0000      -0.289899        -7.8886
  47   2.0000      -0.277503        -7.5512
  48   2.0000      -0.263798        -7.1783
  49   2.0000      -0.246017        -6.6945
  50   2.0000      -0.240399        -6.5416
  51   0.0000       0.057935         1.5765
  52   0.0000       0.072734         1.9792
  53   0.0000       0.091166         2.4808
  54   0.0000       0.098471         2.6795
  55   0.0000       0.099973         2.7204

MULLIKEN ATOMIC CHARGES
-----------------------
   0 C :    0.301632
   1 C :   -0.254702
   2 C :   -0.311475
   3 C :   -0.020316
   4 O :   -0.507883
   5 H :    0.164694
   6 H :    0.150174
   7 H :    0.164198
   8 H :    0.152785
   9 H :    0.160216
  10 H :    0.153169
  11 H :    0.156558
  12 C :   -0.011270
  13 H :    0.164132
  14 H :    0.148200
  15 O :   -0.575391
  16 C :    0.053770
  17 C :    0.118612
  18 C :   -0.300893
  19 C :   -0.017086
  20 O :   -0.524932
  21 H :    0.154866
  22 H :    0.145266
  23 O :   -0.641469
  24 H :    0.150749
  25 H :    0.147163
  26 H :    0.141588
  27 H :    0.146617
  28 H :    0.391028
Sum of atomic charges:   -0.0000000

LOEWDIN ATOMIC CHARGES
----------------------
   0 C :    0.182339
   1 C :   -0.218337
   2 C :   -0.219070
   3 C :   -0.031598
   4 O :   -0.312723
   5 H :    0.109756
   6 H :    0.116853
   7 H :    0.127424
   8 H :    0.120435
   9 H :    0.116802
  10 H :    0.107016
  11 H :    0.110406
  12 C :   -0.044157
  13 H :    0.110954
  14 H :    0.103692
  15 O :   -0.353673
  16 C :    0.019808
  17 C :    0.041901
  18 C :   -0.235783
  19 C :   -0.031519
  20 O :   -0.325407
  21 H :    0.113353
  22 H :    0.103559
  23 O :   -0.436971
  24 H :    0.120743
  25 H :    0.112673
  26 H :    0.101558
  27 H :    0.105096
  28 H :    0.284871

  Mayer bond orders larger than 0.100000
B(  0-C ,  1-C ) :   0.9361 B(  0-C ,  4-O ) :   0.9292 B(  0-C ,  5-H ) :   0.9288
B(  0-C , 15-O ) :   0.7946 B(  1-C ,  2-C ) :   0.9511 B(  1-C ,  6-H ) :   0.9345
B(  1-C ,  7-H ) :   0.9351 B(  2-C ,  3-C ) :   0.9534 B(  2-C ,  8-H ) :   0.9438
B(  2-C ,  9-H ) :   0.9441 B(  3-C ,  4-O ) :   0.8210 B(  3-C , 10-H ) :   0.9323
B(  3-C , 11-H ) :   0.9396 B( 12-C , 13-H ) :   0.9166 B( 12-C , 14-H ) :   0.9225
B( 12-C , 15-O ) :   0.7745 B( 12-C , 16-C ) :   0.9058 B( 16-C , 17-C ) :   0.9159
B( 16-C , 20-O ) :   0.8551 B( 16-C , 21-H ) :   0.9296 B( 17-C , 18-C ) :   0.9035
B( 17-C , 22-H ) :   0.9288 B( 17-C , 23-O ) :   0.9326 B( 18-C , 19-C ) :   0.9392
B( 18-C , 24-H ) :   0.9450 B( 18-C , 25-H ) :   0.9424 B( 19-C , 20-O ) :   0.8313
B( 19-C , 26-H ) :   0.9344 B( 19-C , 27-H ) :   0.9392 B( 23-O , 28-H ) :   0.7222

FINAL SINGLE POINT ENERGY      -652.864891006917

DIPOLE MOMENT
-------------
                                X             Y             Z
Electronic contribution:     -2.15351      -1.36441      -1.61576
Nuclear contribution   :      3.23209       2.14399       2.02983
                        -----------------------------------------
Total Dipole Moment    :      1.07858       0.77958       0.41407
                        -----------------------------------------
Magnitude (a.u.)       :      1.39375
Magnitude (Debye)      :      3.54263

Rotational constants in cm-1:     0.052944     0.014484     0.013165
Rotational constants in MHz :  1587.222210   434.227633   394.682084

                             ****ORCA TERMINATED NORMALLY****
TOTAL RUN TIME: 0 days 0 hours 23 minutes 10 seconds 766 msec
