                         Program Version 4.2.0 -  RELEASE  -
|  1> # Test redundant internal optimization
|  2> #
|  3> ! RKS B3LYP  Opt TightSCF SmallPrint
|  4>
|  5> %basis
|  6>         Basis "6-31G"
|  7> end
|  8>
|  9> %geom
| 10> Constraints
| 11> { D 4  0  15  12  270.0   C } # D for Dihedral angle
| 12> { D 0  15  12  16  315.0   C } # D for Dihedral angle
| 13> { D 0  4  3  2   C } # D for Dihedral angle
| 14> { D 4  3  2  1   C } # D for Dihedral angle
| 15> { D 3  2  1  0   C } # D for Dihedral angle
| 16> { D 2  1  0  4   C } # D for Dihedral angle
| 17> { D 1  0  4  3   C } # D for Dihedral angle
| 18> { D 16  20  19  18   C } # D for Dihedral angle
| 19> { D 20  19  18  17   C } # D for Dihedral angle
| 20> { D 19  18  17  16   C } # D for Dihedral angle
| 21> { D 18  17  16  20   C } # D for Dihedral angle
| 22> { D 17  16  20  19   C } # D for Dihedral angle
| 23> { D 15  12  16  20   C } # D for Dihedral angle
| 24> end
| 25> end
| 26>
| 27>
| 28> #%pal
| 29> #nprocs 8
| 30> #end
| 31>
| 32> * xyz 0 1
| 33> C  -21.048   26.222   46.251
| 34> C  -20.361   27.558   45.944
| 35> C  -20.329   28.222   47.341
| 36> C  -20.110   27.022   48.296
| 37> O  -20.473   25.807   47.535
| 38> H  -20.833   25.428   45.533
| 39> H  -19.344   27.382   45.576
| 40> H  -20.898   28.157   45.201
| 41> H  -19.543   28.978   47.434
| 42> H  -21.289   28.710   47.548
| 43> H  -20.733   27.082   49.195
| 44> H  -19.064   26.913   48.597
| 45> C  -23.420   25.119   46.072
| 46> H  -23.347   24.429   46.922
| 47> H  -24.477   25.376   45.929
| 48> O  -22.586   26.394   46.375
| 49> C  -22.938   24.375   44.796
| 50> C  -23.852   23.191   44.463
| 51> C  -25.049   23.899   43.785
| 52> C  -24.379   25.069   43.023
| 53> O  -23.040   25.250   43.623
| 54> H  -21.883   24.114   44.910
| 55> O  -23.144   22.235   43.465
| 56> H  -24.145   22.613   45.346
| 57> H  -25.613   23.237   43.121
| 58> H  -25.741   24.280   44.546
| 59> H  -24.941   26.006   43.113
| 60> H  -24.229   24.846   41.963
| 61> H  -22.841   22.793   42.572
| 62> *
| 63>
| 64>                          ****END OF INPUT****
 Total Charge           Charge          ....    0
 Multiplicity           Mult            ....    1
 Number of Electrons    NEL             ....  102
FINAL SINGLE POINT ENERGY      -652.831528669335
FINAL SINGLE POINT ENERGY      -652.855470116967
FINAL SINGLE POINT ENERGY      -652.860423546573
FINAL SINGLE POINT ENERGY      -652.861252618070
FINAL SINGLE POINT ENERGY      -652.861378540003
FINAL SINGLE POINT ENERGY      -652.861396227349
                    ***********************HURRAY********************

CARTESIAN COORDINATES (ANGSTROEM)
---------------------------------
  C    -20.961068   26.192733   46.183741
  C    -20.421806   27.607507   45.965624
  C    -20.470490   28.189915   47.398097
  C    -20.130046   26.968241   48.281635
  O    -20.359967   25.773188   47.433976
  H    -20.665479   25.462560   45.431527
  H    -19.389799   27.548918   45.600688
  H    -21.024757   28.164988   45.246967
  H    -19.767381   29.015847   47.542303
  H    -21.480477   28.551060   47.612203
  H    -20.759618   26.896477   49.172455
  H    -19.077808   26.941837   48.581453
  C    -23.245156   25.162284   46.011148
  H    -23.225283   24.469955   46.867510
  H    -24.245802   25.595738   45.940566
  O    -22.393375   26.307028   46.297590
  C    -22.909709   24.365826   44.747390
  C    -23.903414   23.222774   44.490090
  C    -25.077735   23.972031   43.803517
  C    -24.355617   25.063029   42.972640
  O    -22.990086   25.189073   43.536757
  H    -21.893343   23.966638   44.790072
  O    -23.321892   22.215150   43.618721
  H    -24.200819   22.683625   45.390070
  H    -25.665319   23.285488   43.188945
  H    -25.740782   24.413746   44.555265
  H    -24.853690   26.035638   43.027497
  H    -24.245031   24.786817   41.919104
  H    -22.874249   22.658888   42.867450

 Multiplicity           Mult            ....    1
 Number of Electrons    NEL             ....  102
 Basis Dimension        Dim             ....  149

ORBITAL ENERGIES
----------------

  NO   OCC          E(Eh)            E(eV)
   0   2.0000     -19.146763      -521.0099
   1   2.0000     -19.143618      -520.9243
   2   2.0000     -19.138895      -520.7958
   3   2.0000     -19.131281      -520.5886
   4   2.0000     -10.271699      -279.5071
   5   2.0000     -10.247998      -278.8622
   6   2.0000     -10.239410      -278.6285
   7   2.0000     -10.235660      -278.5265
   8   2.0000     -10.232947      -278.4526
   9   2.0000     -10.218410      -278.0571
  10   2.0000     -10.194737      -277.4129
  11   2.0000     -10.178182      -276.9624
  12   2.0000     -10.176882      -276.9270
  13   2.0000      -1.048524       -28.5318
  14   2.0000      -1.039407       -28.2837
  15   2.0000      -1.010734       -27.5035
  16   2.0000      -0.987619       -26.8745
  17   2.0000      -0.790814       -21.5191
  18   2.0000      -0.779534       -21.2122
  19   2.0000      -0.767235       -20.8775
  20   2.0000      -0.730749       -19.8847
  21   2.0000      -0.674186       -18.3455
  22   2.0000      -0.609620       -16.5886
  23   2.0000      -0.608603       -16.5609
  24   2.0000      -0.590868       -16.0783
  25   2.0000      -0.567299       -15.4370
  26   2.0000      -0.531879       -14.4732
  27   2.0000      -0.512518       -13.9463
  28   2.0000      -0.492626       -13.4050
  29   2.0000      -0.485390       -13.2081
  30   2.0000      -0.474517       -12.9123
  31   2.0000      -0.456818       -12.4307
  32   2.0000      -0.451745       -12.2926
  33   2.0000      -0.435851       -11.8601
  34   2.0000      -0.430681       -11.7194
  35   2.0000      -0.407793       -11.0966
  36   2.0000      -0.399234       -10.8637
  37   2.0000      -0.395308       -10.7569
  38   2.0000      -0.378362       -10.2958
  39   2.0000      -0.368915       -10.0387
  40   2.0000      -0.361272        -9.8307
  41   2.0000      -0.349169        -9.5014
  42   2.0000      -0.343214        -9.3393
  43   2.0000      -0.335823        -9.1382
  44   2.0000      -0.319434        -8.6922
  45   2.0000      -0.311450        -8.4750
  46   2.0000      -0.297747        -8.1021
  47   2.0000      -0.277551        -7.5525
  48   2.0000      -0.266883        -7.2623
  49   2.0000      -0.246265        -6.7012
  50   2.0000      -0.241020        -6.5585
  51   0.0000       0.061138         1.6637
  52   0.0000       0.085805         2.3349
  53   0.0000       0.089348         2.4313
  54   0.0000       0.093461         2.5432
  55   0.0000       0.100390         2.7317

MULLIKEN ATOMIC CHARGES
-----------------------
   0 C :    0.278629
   1 C :   -0.252902
   2 C :   -0.297944
   3 C :   -0.000353
   4 O :   -0.513199
   5 H :    0.151998
   6 H :    0.141132
   7 H :    0.159155
   8 H :    0.137123
   9 H :    0.161185
  10 H :    0.144927
  11 H :    0.139005
  12 C :    0.020113
  13 H :    0.139202
  14 H :    0.148370
  15 O :   -0.520481
  16 C :    0.027614
  17 C :    0.077313
  18 C :   -0.296270
  19 C :   -0.032136
  20 O :   -0.519385
  21 H :    0.172299
  22 O :   -0.599109
  23 H :    0.156459
  24 H :    0.164265
  25 H :    0.146717
  26 H :    0.152965
  27 H :    0.148469
  28 H :    0.364840
Sum of atomic charges:    0.0000000

LOEWDIN ATOMIC CHARGES
----------------------
   0 C :    0.172630
   1 C :   -0.213827
   2 C :   -0.216518
   3 C :   -0.027409
   4 O :   -0.331429
   5 H :    0.101235
   6 H :    0.111764
   7 H :    0.125322
   8 H :    0.111536
   9 H :    0.118613
  10 H :    0.104080
  11 H :    0.100674
  12 C :   -0.038048
  13 H :    0.101360
  14 H :    0.112506
  15 O :   -0.319214
  16 C :   -0.000727
  17 C :    0.038105
  18 C :   -0.240462
  19 C :   -0.038188
  20 O :   -0.330391
  21 H :    0.116770
  22 O :   -0.412306
  23 H :    0.117804
  24 H :    0.127606
  25 H :    0.114133
  26 H :    0.107396
  27 H :    0.103500
  28 H :    0.283484

  Mayer bond orders larger than 0.100000
B(  0-C ,  1-C ) :   0.9488 B(  0-C ,  4-O ) :   0.9057 B(  0-C ,  5-H ) :   0.9102
B(  0-C , 15-O ) :   0.8582 B(  1-C ,  2-C ) :   0.9572 B(  1-C ,  6-H ) :   0.9410
B(  1-C ,  7-H ) :   0.9361 B(  2-C ,  3-C ) :   0.9546 B(  2-C ,  8-H ) :   0.9457
B(  2-C ,  9-H ) :   0.9443 B(  3-C ,  4-O ) :   0.8410 B(  3-C , 10-H ) :   0.9359
B(  3-C , 11-H ) :   0.9404 B( 12-C , 13-H ) :   0.9102 B( 12-C , 14-H ) :   0.9376
B( 12-C , 15-O ) :   0.8552 B( 12-C , 16-C ) :   0.8883 B( 16-C , 17-C ) :   0.8944
B( 16-C , 20-O ) :   0.8545 B( 16-C , 21-H ) :   0.9151 B( 17-C , 18-C ) :   0.9125
B( 17-C , 22-O ) :   0.8958 B( 17-C , 23-H ) :   0.9319 B( 18-C , 19-C ) :   0.9393
B( 18-C , 24-H ) :   0.9373 B( 18-C , 25-H ) :   0.9340 B( 19-C , 20-O ) :   0.8473
B( 19-C , 26-H ) :   0.9336 B( 19-C , 27-H ) :   0.9370 B( 22-O , 28-H ) :   0.7940

FINAL SINGLE POINT ENERGY      -652.861397503955

DIPOLE MOMENT
-------------
                                X             Y             Z
Electronic contribution:      0.83629      -3.52502      -1.09575
Nuclear contribution   :     -1.40565       4.11349       0.84085
                        -----------------------------------------
Total Dipole Moment    :     -0.56936       0.58847      -0.25491
                        -----------------------------------------
Magnitude (a.u.)       :      0.85758
Magnitude (Debye)      :      2.17979

Rotational constants in cm-1:     0.065901     0.012022     0.011374
Rotational constants in MHz :  1975.652279   360.404642   340.981894

                             ****ORCA TERMINATED NORMALLY****
TOTAL RUN TIME: 0 days 0 hours 19 minutes 49 seconds 38 msec
