                         Program Version 4.2.0 -  RELEASE  -
|  1> # Test redundant internal optimization
|  2> #
|  3> ! RKS B3LYP  Opt TightSCF SmallPrint
|  4>
|  5> %basis
|  6>         Basis "6-31G"
|  7> end
|  8>
|  9> %geom
| 10> Constraints
| 11> { D 4  0  15  12  210.0   C } # D for Dihedral angle
| 12> { D 0  15  12  16  330.0   C } # D for Dihedral angle
| 13> { D 0  4  3  2   C } # D for Dihedral angle
| 14> { D 4  3  2  1   C } # D for Dihedral angle
| 15> { D 3  2  1  0   C } # D for Dihedral angle
| 16> { D 2  1  0  4   C } # D for Dihedral angle
| 17> { D 1  0  4  3   C } # D for Dihedral angle
| 18> { D 16  20  19  18   C } # D for Dihedral angle
| 19> { D 20  19  18  17   C } # D for Dihedral angle
| 20> { D 19  18  17  16   C } # D for Dihedral angle
| 21> { D 18  17  16  20   C } # D for Dihedral angle
| 22> { D 17  16  20  19   C } # D for Dihedral angle
| 23> { D 15  12  16  20   C } # D for Dihedral angle
| 24> end
| 25> end
| 26>
| 27>
| 28> #%pal
| 29> #nprocs 8
| 30> #end
| 31>
| 32> * xyz 0 1
| 33> C  -21.048   26.222   46.251
| 34> C  -20.361   27.558   45.944
| 35> C  -20.329   28.222   47.341
| 36> C  -20.110   27.022   48.296
| 37> O  -20.473   25.807   47.535
| 38> H  -20.833   25.428   45.533
| 39> H  -19.344   27.382   45.576
| 40> H  -20.898   28.157   45.201
| 41> H  -19.543   28.978   47.434
| 42> H  -21.289   28.710   47.548
| 43> H  -20.733   27.082   49.195
| 44> H  -19.064   26.913   48.597
| 45> C  -23.389   26.110   45.076
| 46> H  -23.673   25.051   45.050
| 47> H  -24.307   26.712   45.053
| 48> O  -22.586   26.394   46.375
| 49> C  -22.581   26.431   43.788
| 50> C  -21.363   25.510   43.652
| 51> C  -22.009   24.213   43.109
| 52> C  -23.145   24.742   42.198
| 53> O  -23.384   26.145   42.595
| 54> H  -22.347   27.497   43.769
| 55> O  -20.363   26.099   42.619
| 56> H  -20.831   25.357   44.597
| 57> H  -21.299   23.580   42.568
| 58> H  -22.420   23.623   43.937
| 59> H  -24.073   24.173   42.312
| 60> H  -22.863   24.749   41.141
| 61> H  -20.874   26.261   41.663
| 62> *
| 63>
| 64>                          ****END OF INPUT****
 Total Charge           Charge          ....    0
 Multiplicity           Mult            ....    1
 Number of Electrons    NEL             ....  102
FINAL SINGLE POINT ENERGY      -652.767357263604
FINAL SINGLE POINT ENERGY      -652.824709948407
FINAL SINGLE POINT ENERGY      -652.845173669766
FINAL SINGLE POINT ENERGY      -652.848610046967
FINAL SINGLE POINT ENERGY      -652.849133225784
FINAL SINGLE POINT ENERGY      -652.849231294174
FINAL SINGLE POINT ENERGY      -652.849241682922
FINAL SINGLE POINT ENERGY      -652.849247541206
                    ***********************HURRAY********************

CARTESIAN COORDINATES (ANGSTROEM)
---------------------------------
  C    -20.866938   26.249561   46.382124
  C    -20.123401   27.569540   46.184277
  C    -20.385772   28.288613   47.529035
  C    -20.385463   27.128529   48.546998
  O    -20.588868   25.891475   47.748002
  H    -20.516610   25.408635   45.781360
  H    -19.053415   27.368390   46.050501
  H    -20.480504   28.134861   45.319613
  H    -19.627967   29.044499   47.755013
  H    -21.365481   28.774040   47.500830
  H    -21.188409   27.203197   49.285001
  H    -19.426930   27.013535   49.062609
  C    -23.072923   26.185075   45.049323
  H    -23.469515   25.160951   45.107847
  H    -23.921779   26.868170   45.117834
  O    -22.298280   26.429934   46.262099
  C    -22.463385   26.364301   43.638565
  C    -21.299416   25.463481   43.189073
  C    -22.034345   24.128834   42.869981
  C    -23.390825   24.613340   42.297395
  O    -23.553022   26.023761   42.716698
  H    -22.210666   27.414701   43.460508
  O    -20.670289   26.027651   42.003840
  H    -20.488981   25.348736   43.901902
  H    -21.458307   23.532519   42.158166
  H    -22.172179   23.542363   43.784899
  H    -24.240221   24.033194   42.669618
  H    -23.411563   24.599099   41.203091
  H    -21.366546   26.317017   41.376796

 Multiplicity           Mult            ....    1
 Number of Electrons    NEL             ....  102
 Basis Dimension        Dim             ....  149

ORBITAL ENERGIES
----------------

  NO   OCC          E(Eh)            E(eV)
   0   2.0000     -19.154624      -521.2238
   1   2.0000     -19.145482      -520.9751
   2   2.0000     -19.137742      -520.7644
   3   2.0000     -19.137128      -520.7477
   4   2.0000     -10.281047      -279.7615
   5   2.0000     -10.250133      -278.9203
   6   2.0000     -10.244791      -278.7749
   7   2.0000     -10.239330      -278.6263
   8   2.0000     -10.234203      -278.4868
   9   2.0000     -10.222759      -278.1754
  10   2.0000     -10.196791      -277.4688
  11   2.0000     -10.185454      -277.1603
  12   2.0000     -10.184465      -277.1334
  13   2.0000      -1.051011       -28.5995
  14   2.0000      -1.045898       -28.4603
  15   2.0000      -1.014640       -27.6098
  16   2.0000      -0.989427       -26.9237
  17   2.0000      -0.786291       -21.3961
  18   2.0000      -0.784852       -21.3569
  19   2.0000      -0.771899       -21.0044
  20   2.0000      -0.737500       -20.0684
  21   2.0000      -0.679815       -18.4987
  22   2.0000      -0.612586       -16.6693
  23   2.0000      -0.606333       -16.4991
  24   2.0000      -0.597121       -16.2485
  25   2.0000      -0.581135       -15.8135
  26   2.0000      -0.529862       -14.4183
  27   2.0000      -0.517887       -14.0924
  28   2.0000      -0.502610       -13.6767
  29   2.0000      -0.483505       -13.1568
  30   2.0000      -0.479155       -13.0385
  31   2.0000      -0.461696       -12.5634
  32   2.0000      -0.445613       -12.1257
  33   2.0000      -0.440909       -11.9978
  34   2.0000      -0.429138       -11.6774
  35   2.0000      -0.420746       -11.4491
  36   2.0000      -0.401649       -10.9294
  37   2.0000      -0.400299       -10.8927
  38   2.0000      -0.378705       -10.3051
  39   2.0000      -0.377394       -10.2694
  40   2.0000      -0.361624        -9.8403
  41   2.0000      -0.357436        -9.7263
  42   2.0000      -0.352779        -9.5996
  43   2.0000      -0.338761        -9.2181
  44   2.0000      -0.317375        -8.6362
  45   2.0000      -0.312481        -8.5030
  46   2.0000      -0.304237        -8.2787
  47   2.0000      -0.279046        -7.5932
  48   2.0000      -0.262593        -7.1455
  49   2.0000      -0.254206        -6.9173
  50   2.0000      -0.242357        -6.5949
  51   0.0000       0.058587         1.5942
  52   0.0000       0.068989         1.8773
  53   0.0000       0.082417         2.2427
  54   0.0000       0.094061         2.5595
  55   0.0000       0.095675         2.6034

MULLIKEN ATOMIC CHARGES
-----------------------
   0 C :    0.292444
   1 C :   -0.263546
   2 C :   -0.299889
   3 C :   -0.002445
   4 O :   -0.504815
   5 H :    0.138957
   6 H :    0.146051
   7 H :    0.146898
   8 H :    0.141922
   9 H :    0.162956
  10 H :    0.153832
  11 H :    0.141388
  12 C :    0.011312
  13 H :    0.131255
  14 H :    0.171368
  15 O :   -0.526279
  16 C :    0.025194
  17 C :    0.075332
  18 C :   -0.303450
  19 C :   -0.033213
  20 O :   -0.521627
  21 H :    0.162591
  22 O :   -0.601826
  23 H :    0.161872
  24 H :    0.167947
  25 H :    0.155292
  26 H :    0.152940
  27 H :    0.151664
  28 H :    0.365875
Sum of atomic charges:   -0.0000000

LOEWDIN ATOMIC CHARGES
----------------------
   0 C :    0.178725
   1 C :   -0.227399
   2 C :   -0.216148
   3 C :   -0.025904
   4 O :   -0.307768
   5 H :    0.093066
   6 H :    0.114661
   7 H :    0.115456
   8 H :    0.114325
   9 H :    0.119401
  10 H :    0.108917
  11 H :    0.101826
  12 C :   -0.037795
  13 H :    0.095888
  14 H :    0.124940
  15 O :   -0.339419
  16 C :    0.001907
  17 C :    0.030594
  18 C :   -0.241960
  19 C :   -0.039430
  20 O :   -0.323959
  21 H :    0.113078
  22 O :   -0.413664
  23 H :    0.117560
  24 H :    0.128987
  25 H :    0.118455
  26 H :    0.107462
  27 H :    0.104621
  28 H :    0.283577

  Mayer bond orders larger than 0.100000
B(  0-C ,  1-C ) :   0.9311 B(  0-C ,  4-O ) :   0.9266 B(  0-C ,  5-H ) :   0.9072
B(  0-C , 15-O ) :   0.8335 B(  1-C ,  2-C ) :   0.9534 B(  1-C ,  6-H ) :   0.9334
B(  1-C ,  7-H ) :   0.9360 B(  2-C ,  3-C ) :   0.9539 B(  2-C ,  8-H ) :   0.9448
B(  2-C ,  9-H ) :   0.9434 B(  3-C ,  4-O ) :   0.8365 B(  3-C , 10-H ) :   0.9349
B(  3-C , 11-H ) :   0.9395 B( 12-C , 13-H ) :   0.9235 B( 12-C , 14-H ) :   0.9278
B( 12-C , 15-O ) :   0.8487 B( 12-C , 16-C ) :   0.8810 B( 16-C , 17-C ) :   0.9044
B( 16-C , 20-O ) :   0.8252 B( 16-C , 21-H ) :   0.9215 B( 17-C , 18-C ) :   0.9129
B( 17-C , 22-O ) :   0.8865 B( 17-C , 23-H ) :   0.9156 B( 18-C , 19-C ) :   0.9416
B( 18-C , 24-H ) :   0.9366 B( 18-C , 25-H ) :   0.9316 B( 19-C , 20-O ) :   0.8370
B( 19-C , 26-H ) :   0.9346 B( 19-C , 27-H ) :   0.9371 B( 22-O , 28-H ) :   0.7927

FINAL SINGLE POINT ENERGY      -652.849266230989

DIPOLE MOMENT
-------------
                                X             Y             Z
Electronic contribution:     -1.50178      -0.77159      -0.97386
Nuclear contribution   :      1.56626       0.84047       0.54856
                        -----------------------------------------
Total Dipole Moment    :      0.06448       0.06888      -0.42530
                        -----------------------------------------
Magnitude (a.u.)       :      0.43564
Magnitude (Debye)      :      1.10731

Rotational constants in cm-1:     0.057566     0.013272     0.012620
Rotational constants in MHz :  1725.776183   397.892930   378.326873

                             ****ORCA TERMINATED NORMALLY****
TOTAL RUN TIME: 0 days 0 hours 24 minutes 34 seconds 650 msec
