                         Program Version 4.2.0 -  RELEASE  -
|  1> # Test redundant internal optimization
|  2> #
|  3> ! RKS B3LYP  Opt TightSCF SmallPrint
|  4>
|  5> %basis
|  6>         Basis "6-31G"
|  7> end
|  8>
|  9> %geom
| 10> Constraints
| 11> { D 4  0  15  12  285.0   C } # D for Dihedral angle
| 12> { D 0  15  12  16  195.0   C } # D for Dihedral angle
| 13> { D 0  4  3  2   C } # D for Dihedral angle
| 14> { D 4  3  2  1   C } # D for Dihedral angle
| 15> { D 3  2  1  0   C } # D for Dihedral angle
| 16> { D 2  1  0  4   C } # D for Dihedral angle
| 17> { D 1  0  4  3   C } # D for Dihedral angle
| 18> { D 16  20  19  18   C } # D for Dihedral angle
| 19> { D 20  19  18  17   C } # D for Dihedral angle
| 20> { D 19  18  17  16   C } # D for Dihedral angle
| 21> { D 18  17  16  20   C } # D for Dihedral angle
| 22> { D 17  16  20  19   C } # D for Dihedral angle
| 23> { D 15  12  16  20   C } # D for Dihedral angle
| 24> end
| 25> end
| 26>
| 27>
| 28> #%pal
| 29> #nprocs 8
| 30> #end
| 31>
| 32> * xyz 0 1
| 33> C  -21.048   26.222   46.251
| 34> C  -20.361   27.558   45.944
| 35> C  -20.329   28.222   47.341
| 36> C  -20.110   27.022   48.296
| 37> O  -20.473   25.807   47.535
| 38> H  -20.833   25.428   45.533
| 39> H  -19.344   27.382   45.576
| 40> H  -20.898   28.157   45.201
| 41> H  -19.543   28.978   47.434
| 42> H  -21.289   28.710   47.548
| 43> H  -20.733   27.082   49.195
| 44> H  -19.064   26.913   48.597
| 45> C  -23.396   25.070   46.435
| 46> H  -23.015   24.378   45.674
| 47> H  -23.282   24.595   47.418
| 48> O  -22.586   26.394   46.375
| 49> C  -24.915   25.283   46.186
| 50> C  -25.697   23.978   46.367
| 51> C  -25.806   23.888   47.908
| 52> C  -25.949   25.369   48.337
| 53> O  -25.479   26.185   47.196
| 54> H  -25.054   25.763   45.215
| 55> H  -26.691   24.068   45.914
| 56> O  -24.984   22.747   45.741
| 57> H  -26.650   23.274   48.239
| 58> H  -24.890   23.452   48.325
| 59> H  -25.348   25.610   49.221
| 60> H  -26.988   25.651   48.527
| 61> H  -23.987   22.636   46.180
| 62> *
| 63>
| 64>                          ****END OF INPUT****
 Total Charge           Charge          ....    0
 Multiplicity           Mult            ....    1
 Number of Electrons    NEL             ....  102
FINAL SINGLE POINT ENERGY      -652.830923748986
FINAL SINGLE POINT ENERGY      -652.856275643495
FINAL SINGLE POINT ENERGY      -652.861264234621
FINAL SINGLE POINT ENERGY      -652.862162019522
FINAL SINGLE POINT ENERGY      -652.862311475426
FINAL SINGLE POINT ENERGY      -652.862339186287
FINAL SINGLE POINT ENERGY      -652.862344376377
FINAL SINGLE POINT ENERGY      -652.862345332569
                    ***********************HURRAY********************

CARTESIAN COORDINATES (ANGSTROEM)
---------------------------------
  C    -21.072780   26.156748   46.240743
  C    -20.527803   27.554908   45.946574
  C    -20.511560   28.190036   47.355606
  C    -20.148708   27.000836   48.272838
  O    -20.426098   25.775194   47.481193
  H    -20.823741   25.376872   45.512340
  H    -19.514080   27.469173   45.538874
  H    -21.155467   28.096715   45.236397
  H    -19.794219   29.012296   47.439245
  H    -21.508355   28.570581   47.595099
  H    -20.743420   26.971587   49.189337
  H    -19.085687   26.971357   48.531111
  C    -23.216828   25.018259   46.471071
  H    -22.861232   24.327753   45.690343
  H    -23.030396   24.559710   47.452245
  O    -22.498726   26.277309   46.386708
  C    -24.698100   25.299443   46.244501
  C    -25.585970   24.049175   46.353485
  C    -25.803311   23.943355   47.892959
  C    -25.864648   25.423148   48.329781
  O    -25.260387   26.218345   47.229743
  H    -24.803929   25.801013   45.278270
  H    -26.535022   24.233729   45.845669
  O    -25.060709   22.854862   45.723911
  H    -26.708680   23.385017   48.145652
  H    -24.948411   23.425889   48.348795
  H    -25.313089   25.617279   49.254732
  H    -26.892719   25.776693   48.451692
  H    -24.347925   22.464719   46.270087

 Multiplicity           Mult            ....    1
 Number of Electrons    NEL             ....  102
 Basis Dimension        Dim             ....  149

ORBITAL ENERGIES
----------------

  NO   OCC          E(Eh)            E(eV)
   0   2.0000     -19.149919      -521.0958
   1   2.0000     -19.141726      -520.8729
   2   2.0000     -19.135977      -520.7164
   3   2.0000     -19.135206      -520.6954
   4   2.0000     -10.275057      -279.5985
   5   2.0000     -10.244654      -278.7712
   6   2.0000     -10.229348      -278.3547
   7   2.0000     -10.228781      -278.3393
   8   2.0000     -10.227980      -278.3175
   9   2.0000     -10.221266      -278.1348
  10   2.0000     -10.195036      -277.4210
  11   2.0000     -10.180785      -277.0332
  12   2.0000     -10.179805      -277.0066
  13   2.0000      -1.052564       -28.6417
  14   2.0000      -1.032807       -28.1041
  15   2.0000      -1.014190       -27.5975
  16   2.0000      -0.991278       -26.9741
  17   2.0000      -0.786228       -21.3943
  18   2.0000      -0.780533       -21.2394
  19   2.0000      -0.765230       -20.8230
  20   2.0000      -0.726923       -19.7806
  21   2.0000      -0.677600       -18.4384
  22   2.0000      -0.611000       -16.6262
  23   2.0000      -0.594864       -16.1871
  24   2.0000      -0.586874       -15.9697
  25   2.0000      -0.576197       -15.6791
  26   2.0000      -0.530898       -14.4465
  27   2.0000      -0.509667       -13.8688
  28   2.0000      -0.494443       -13.4545
  29   2.0000      -0.487412       -13.2632
  30   2.0000      -0.468594       -12.7511
  31   2.0000      -0.455954       -12.4071
  32   2.0000      -0.439484       -11.9590
  33   2.0000      -0.437582       -11.9072
  34   2.0000      -0.426635       -11.6093
  35   2.0000      -0.412640       -11.2285
  36   2.0000      -0.402714       -10.9584
  37   2.0000      -0.397364       -10.8128
  38   2.0000      -0.376738       -10.2516
  39   2.0000      -0.369025       -10.0417
  40   2.0000      -0.354727        -9.6526
  41   2.0000      -0.351332        -9.5602
  42   2.0000      -0.342440        -9.3183
  43   2.0000      -0.331624        -9.0240
  44   2.0000      -0.321207        -8.7405
  45   2.0000      -0.314600        -8.5607
  46   2.0000      -0.296996        -8.0817
  47   2.0000      -0.271470        -7.3871
  48   2.0000      -0.264179        -7.1887
  49   2.0000      -0.250368        -6.8129
  50   2.0000      -0.239525        -6.5178
  51   0.0000       0.051503         1.4015
  52   0.0000       0.078594         2.1387
  53   0.0000       0.090646         2.4666
  54   0.0000       0.097857         2.6628
  55   0.0000       0.102932         2.8009

MULLIKEN ATOMIC CHARGES
-----------------------
   0 C :    0.286433
   1 C :   -0.260949
   2 C :   -0.299341
   3 C :   -0.002138
   4 O :   -0.516972
   5 H :    0.137114
   6 H :    0.142751
   7 H :    0.158652
   8 H :    0.138423
   9 H :    0.171202
  10 H :    0.145910
  11 H :    0.140261
  12 C :   -0.006066
  13 H :    0.129462
  14 H :    0.136394
  15 O :   -0.509596
  16 C :    0.093931
  17 C :    0.082163
  18 C :   -0.324950
  19 C :   -0.007082
  20 O :   -0.505337
  21 H :    0.160080
  22 H :    0.168055
  23 O :   -0.600884
  24 H :    0.157216
  25 H :    0.135744
  26 H :    0.144600
  27 H :    0.147406
  28 H :    0.357521
Sum of atomic charges:   -0.0000000

LOEWDIN ATOMIC CHARGES
----------------------
   0 C :    0.170693
   1 C :   -0.215000
   2 C :   -0.216071
   3 C :   -0.027520
   4 O :   -0.334224
   5 H :    0.093564
   6 H :    0.112909
   7 H :    0.125106
   8 H :    0.112227
   9 H :    0.123570
  10 H :    0.104819
  11 H :    0.101198
  12 C :   -0.050956
  13 H :    0.097078
  14 H :    0.096345
  15 O :   -0.311354
  16 C :    0.022117
  17 C :    0.034780
  18 C :   -0.241250
  19 C :   -0.028947
  20 O :   -0.313578
  21 H :    0.118458
  22 H :    0.119814
  23 O :   -0.408169
  24 H :    0.122262
  25 H :    0.104785
  26 H :    0.103394
  27 H :    0.105196
  28 H :    0.278754

  Mayer bond orders larger than 0.100000
B(  0-C ,  1-C ) :   0.9506 B(  0-C ,  4-O ) :   0.9017 B(  0-C ,  5-H ) :   0.9173
B(  0-C , 15-O ) :   0.8696 B(  1-C ,  2-C ) :   0.9573 B(  1-C ,  6-H ) :   0.9406
B(  1-C ,  7-H ) :   0.9357 B(  2-C ,  3-C ) :   0.9557 B(  2-C ,  8-H ) :   0.9453
B(  2-C ,  9-H ) :   0.9423 B(  3-C ,  4-O ) :   0.8377 B(  3-C , 10-H ) :   0.9362
B(  3-C , 11-H ) :   0.9405 B( 12-C , 13-H ) :   0.9026 B( 12-C , 14-H ) :   0.9173
B( 12-C , 15-O ) :   0.8374 B( 12-C , 16-C ) :   0.9059 B( 16-C , 17-C ) :   0.8744
B( 16-C , 20-O ) :   0.8720 B( 16-C , 21-H ) :   0.9299 B( 17-C , 18-C ) :   0.9238
B( 17-C , 22-H ) :   0.9333 B( 17-C , 23-O ) :   0.8966 B( 18-C , 19-C ) :   0.9375
B( 18-C , 24-H ) :   0.9423 B( 18-C , 25-H ) :   0.9403 B( 19-C , 20-O ) :   0.8516
B( 19-C , 26-H ) :   0.9319 B( 19-C , 27-H ) :   0.9380 B( 23-O , 28-H ) :   0.7976

FINAL SINGLE POINT ENERGY      -652.862345486129

DIPOLE MOMENT
-------------
                                X             Y             Z
Electronic contribution:     -1.70056      -1.74988      -2.37397
Nuclear contribution   :      1.93385       1.57300       2.91487
                        -----------------------------------------
Total Dipole Moment    :      0.23329      -0.17688       0.54090
                        -----------------------------------------
Magnitude (a.u.)       :      0.61505
Magnitude (Debye)      :      1.56332

Rotational constants in cm-1:     0.053559     0.012675     0.011854
Rotational constants in MHz :  1605.646823   379.995340   355.363663

                             ****ORCA TERMINATED NORMALLY****
TOTAL RUN TIME: 0 days 0 hours 27 minutes 48 seconds 429 msec
