                         Program Version 4.2.0 -  RELEASE  -
|  1> # Test redundant internal optimization
|  2> #
|  3> ! RKS B3LYP  Opt TightSCF SmallPrint
|  4>
|  5> %basis
|  6>         Basis "6-31G"
|  7> end
|  8>
|  9> %geom
| 10> Constraints
| 11> { D 4  0  15  12  120.0   C } # D for Dihedral angle
| 12> { D 0  15  12  16  135.0   C } # D for Dihedral angle
| 13> { D 0  4  3  2   C } # D for Dihedral angle
| 14> { D 4  3  2  1   C } # D for Dihedral angle
| 15> { D 3  2  1  0   C } # D for Dihedral angle
| 16> { D 2  1  0  4   C } # D for Dihedral angle
| 17> { D 1  0  4  3   C } # D for Dihedral angle
| 18> { D 16  20  19  18   C } # D for Dihedral angle
| 19> { D 20  19  18  17   C } # D for Dihedral angle
| 20> { D 19  18  17  16   C } # D for Dihedral angle
| 21> { D 18  17  16  20   C } # D for Dihedral angle
| 22> { D 17  16  20  19   C } # D for Dihedral angle
| 23> { D 15  12  16  20   C } # D for Dihedral angle
| 24> end
| 25> end
| 26>
| 27>
| 28> #%pal
| 29> #nprocs 8
| 30> #end
| 31>
| 32> * xyz 0 1
| 33> C  -21.048   26.222   46.251
| 34> C  -20.361   27.558   45.944
| 35> C  -20.329   28.222   47.341
| 36> C  -20.110   27.022   48.296
| 37> O  -20.473   25.807   47.535
| 38> H  -20.833   25.428   45.533
| 39> H  -19.344   27.382   45.576
| 40> H  -20.898   28.157   45.201
| 41> H  -19.543   28.978   47.434
| 42> H  -21.289   28.710   47.548
| 43> H  -20.733   27.082   49.195
| 44> H  -19.064   26.913   48.597
| 45> C  -23.119   27.818   46.058
| 46> H  -23.379   28.324   46.996
| 47> H  -22.348   28.412   45.549
| 48> O  -22.586   26.394   46.375
| 49> C  -24.378   27.799   45.147
| 50> C  -24.807   29.219   44.761
| 51> C  -23.805   29.552   43.630
| 52> C  -23.610   28.189   42.920
| 53> O  -24.075   27.152   43.866
| 54> H  -25.159   27.206   45.629
| 55> H  -25.834   29.212   44.378
| 56> O  -24.734   30.222   45.945
| 57> H  -24.174   30.328   42.951
| 58> H  -22.858   29.904   44.057
| 59> H  -22.562   27.996   42.664
| 60> H  -24.219   28.098   42.017
| 61> H  -23.714   30.248   46.345
| 62> *
| 63>
| 64>                          ****END OF INPUT****
 Total Charge           Charge          ....    0
 Multiplicity           Mult            ....    1
 Number of Electrons    NEL             ....  102
FINAL SINGLE POINT ENERGY      -652.809076016038
FINAL SINGLE POINT ENERGY      -652.833852879598
FINAL SINGLE POINT ENERGY      -652.844466267924
FINAL SINGLE POINT ENERGY      -652.846276509206
FINAL SINGLE POINT ENERGY      -652.846627079929
FINAL SINGLE POINT ENERGY      -652.846706627519
FINAL SINGLE POINT ENERGY      -652.846718006550
FINAL SINGLE POINT ENERGY      -652.846720005616
                    ***********************HURRAY********************

CARTESIAN COORDINATES (ANGSTROEM)
---------------------------------
  C    -21.115996   26.322835   46.295885
  C    -20.125690   27.457523   46.016797
  C    -19.992426   28.122389   47.413990
  C    -20.098870   26.911878   48.372665
  O    -20.707053   25.817103   47.584219
  H    -21.040712   25.477937   45.610262
  H    -19.173723   27.005386   45.718482
  H    -20.426889   28.146218   45.223946
  H    -19.048094   28.662808   47.530064
  H    -20.808993   28.832578   47.585536
  H    -20.724985   27.112459   49.246668
  H    -19.119698   26.557302   48.707649
  C    -23.067137   27.977608   46.074238
  H    -23.402539   28.422579   47.020849
  H    -22.321128   28.642333   45.621250
  O    -22.525445   26.659773   46.324685
  C    -24.266688   27.814008   45.139467
  C    -24.946188   29.132262   44.731805
  C    -24.042457   29.606047   43.554312
  C    -23.639660   28.277366   42.877747
  O    -23.894670   27.199913   43.868044
  H    -24.964933   27.116599   45.610578
  H    -25.957214   28.923109   44.376359
  O    -25.126625   30.100061   45.794912
  H    -24.566034   30.288346   42.879258
  H    -23.167370   30.135373   43.955277
  H    -22.586113   28.250839   42.581105
  H    -24.255054   28.057803   42.000498
  H    -24.273617   30.523566   46.022455

 Multiplicity           Mult            ....    1
 Number of Electrons    NEL             ....  102
 Basis Dimension        Dim             ....  149

ORBITAL ENERGIES
----------------

  NO   OCC          E(Eh)            E(eV)
   0   2.0000     -19.152815      -521.1746
   1   2.0000     -19.138793      -520.7930
   2   2.0000     -19.135523      -520.7041
   3   2.0000     -19.134741      -520.6828
   4   2.0000     -10.277760      -279.6721
   5   2.0000     -10.247370      -278.8451
   6   2.0000     -10.234261      -278.4884
   7   2.0000     -10.233379      -278.4644
   8   2.0000     -10.229750      -278.3656
   9   2.0000     -10.226309      -278.2720
  10   2.0000     -10.199294      -277.5369
  11   2.0000     -10.195489      -277.4334
  12   2.0000     -10.195336      -277.4292
  13   2.0000      -1.048340       -28.5268
  14   2.0000      -1.035482       -28.1769
  15   2.0000      -1.017632       -27.6912
  16   2.0000      -0.989978       -26.9387
  17   2.0000      -0.791181       -21.5291
  18   2.0000      -0.785616       -21.3777
  19   2.0000      -0.771999       -21.0072
  20   2.0000      -0.733182       -19.9509
  21   2.0000      -0.686747       -18.6873
  22   2.0000      -0.614344       -16.7171
  23   2.0000      -0.605701       -16.4820
  24   2.0000      -0.596744       -16.2382
  25   2.0000      -0.571938       -15.5632
  26   2.0000      -0.530581       -14.4379
  27   2.0000      -0.508085       -13.8257
  28   2.0000      -0.506678       -13.7874
  29   2.0000      -0.495961       -13.4958
  30   2.0000      -0.473623       -12.8879
  31   2.0000      -0.462175       -12.5764
  32   2.0000      -0.445753       -12.1296
  33   2.0000      -0.438762       -11.9393
  34   2.0000      -0.428943       -11.6721
  35   2.0000      -0.420524       -11.4430
  36   2.0000      -0.408526       -11.1166
  37   2.0000      -0.402912       -10.9638
  38   2.0000      -0.383744       -10.4422
  39   2.0000      -0.380963       -10.3665
  40   2.0000      -0.363945        -9.9034
  41   2.0000      -0.355018        -9.6605
  42   2.0000      -0.354204        -9.6384
  43   2.0000      -0.332847        -9.0572
  44   2.0000      -0.317288        -8.6339
  45   2.0000      -0.312699        -8.5090
  46   2.0000      -0.290448        -7.9035
  47   2.0000      -0.273022        -7.4293
  48   2.0000      -0.263804        -7.1785
  49   2.0000      -0.253308        -6.8929
  50   2.0000      -0.236557        -6.4371
  51   0.0000       0.043064         1.1718
  52   0.0000       0.062480         1.7002
  53   0.0000       0.083303         2.2668
  54   0.0000       0.091509         2.4901
  55   0.0000       0.101873         2.7721

MULLIKEN ATOMIC CHARGES
-----------------------
   0 C :    0.320141
   1 C :   -0.303971
   2 C :   -0.307969
   3 C :   -0.001359
   4 O :   -0.493899
   5 H :    0.166444
   6 H :    0.158017
   7 H :    0.143835
   8 H :    0.144822
   9 H :    0.145274
  10 H :    0.148526
  11 H :    0.143908
  12 C :   -0.007309
  13 H :    0.139305
  14 H :    0.110459
  15 O :   -0.520148
  16 C :    0.096613
  17 C :    0.079582
  18 C :   -0.325237
  19 C :   -0.010661
  20 O :   -0.505956
  21 H :    0.172752
  22 H :    0.170966
  23 O :   -0.597425
  24 H :    0.159961
  25 H :    0.129001
  26 H :    0.138432
  27 H :    0.152023
  28 H :    0.353874
Sum of atomic charges:   -0.0000000

LOEWDIN ATOMIC CHARGES
----------------------
   0 C :    0.185250
   1 C :   -0.232842
   2 C :   -0.221625
   3 C :   -0.029569
   4 O :   -0.313048
   5 H :    0.111864
   6 H :    0.123756
   7 H :    0.112342
   8 H :    0.115613
   9 H :    0.107418
  10 H :    0.105597
  11 H :    0.103303
  12 C :   -0.046914
  13 H :    0.101048
  14 H :    0.085331
  15 O :   -0.318580
  16 C :    0.018337
  17 C :    0.034155
  18 C :   -0.242727
  19 C :   -0.030940
  20 O :   -0.313886
  21 H :    0.123656
  22 H :    0.121195
  23 O :   -0.406645
  24 H :    0.123417
  25 H :    0.101207
  26 H :    0.099664
  27 H :    0.107150
  28 H :    0.276471

  Mayer bond orders larger than 0.100000
B(  0-C ,  1-C ) :   0.9323 B(  0-C ,  4-O ) :   0.9110 B(  0-C ,  5-H ) :   0.9295
B(  0-C , 15-O ) :   0.8726 B(  1-C ,  2-C ) :   0.9493 B(  1-C ,  6-H ) :   0.9336
B(  1-C ,  7-H ) :   0.9276 B(  2-C ,  3-C ) :   0.9499 B(  2-C ,  8-H ) :   0.9458
B(  2-C ,  9-H ) :   0.9438 B(  3-C ,  4-O ) :   0.8495 B(  3-C , 10-H ) :   0.9340
B(  3-C , 11-H ) :   0.9393 B( 12-C , 13-H ) :   0.9092 B( 12-C , 14-H ) :   0.9061
B( 12-C , 15-O ) :   0.8566 B( 12-C , 16-C ) :   0.8974 B( 16-C , 17-C ) :   0.8708
B( 16-C , 20-O ) :   0.8648 B( 16-C , 21-H ) :   0.9280 B( 17-C , 18-C ) :   0.9215
B( 17-C , 22-H ) :   0.9320 B( 17-C , 23-O ) :   0.8973 B( 18-C , 19-C ) :   0.9393
B( 18-C , 24-H ) :   0.9418 B( 18-C , 25-H ) :   0.9407 B( 19-C , 20-O ) :   0.8538
B( 19-C , 26-H ) :   0.9316 B( 19-C , 27-H ) :   0.9373 B( 23-O , 28-H ) :   0.7992

FINAL SINGLE POINT ENERGY      -652.846720208346

DIPOLE MOMENT
-------------
                                X             Y             Z
Electronic contribution:     -4.13417      -4.95836       0.88128
Nuclear contribution   :      5.26455       6.74145      -1.48035
                        -----------------------------------------
Total Dipole Moment    :      1.13038       1.78308      -0.59907
                        -----------------------------------------
Magnitude (a.u.)       :      2.19455
Magnitude (Debye)      :      5.57809

Rotational constants in cm-1:     0.051118     0.013549     0.012744
Rotational constants in MHz :  1532.484144   406.180885   382.067558

                             ****ORCA TERMINATED NORMALLY****
TOTAL RUN TIME: 0 days 0 hours 27 minutes 55 seconds 337 msec
