                         Program Version 4.2.0 -  RELEASE  -
|  1> # Test redundant internal optimization
|  2> #
|  3> ! RKS B3LYP  Opt TightSCF SmallPrint
|  4>
|  5> %basis
|  6>         Basis "6-31G"
|  7> end
|  8>
|  9> %geom
| 10> Constraints
| 11> { D 4  0  15  12  30.0   C } # D for Dihedral angle
| 12> { D 0  15  12  16  240.0   C } # D for Dihedral angle
| 13> { D 0  4  3  2   C } # D for Dihedral angle
| 14> { D 4  3  2  1   C } # D for Dihedral angle
| 15> { D 3  2  1  0   C } # D for Dihedral angle
| 16> { D 2  1  0  4   C } # D for Dihedral angle
| 17> { D 1  0  4  3   C } # D for Dihedral angle
| 18> { D 16  20  19  18   C } # D for Dihedral angle
| 19> { D 20  19  18  17   C } # D for Dihedral angle
| 20> { D 19  18  17  16   C } # D for Dihedral angle
| 21> { D 18  17  16  20   C } # D for Dihedral angle
| 22> { D 17  16  20  19   C } # D for Dihedral angle
| 23> { D 15  12  16  20   C } # D for Dihedral angle
| 24> end
| 25> end
| 26>
| 27>
| 28> #%pal
| 29> #nprocs 8
| 30> #end
| 31>
| 32> * xyz 0 1
| 33> C  -21.048   26.222   46.251
| 34> C  -20.361   27.558   45.944
| 35> C  -20.329   28.222   47.341
| 36> C  -20.110   27.022   48.296
| 37> O  -20.473   25.807   47.535
| 38> H  -20.833   25.428   45.533
| 39> H  -19.344   27.382   45.576
| 40> H  -20.898   28.157   45.201
| 41> H  -19.543   28.978   47.434
| 42> H  -21.289   28.710   47.548
| 43> H  -20.733   27.082   49.195
| 44> H  -19.064   26.913   48.597
| 45> C  -23.091   26.824   47.779
| 46> H  -22.233   26.941   48.453
| 47> H  -23.615   27.787   47.721
| 48> O  -22.586   26.394   46.375
| 49> C  -24.069   25.792   48.408
| 50> C  -25.254   25.509   47.477
| 51> C  -24.626   24.526   46.461
| 52> C  -23.637   23.707   47.328
| 53> O  -23.411   24.491   48.562
| 54> H  -24.350   26.129   49.407
| 55> H  -26.062   25.024   48.035
| 56> O  -25.821   26.789   46.805
| 57> H  -25.370   23.893   45.966
| 58> H  -24.088   25.081   45.683
| 59> H  -22.678   23.540   46.827
| 60> H  -24.050   22.740   47.632
| 61> H  -25.028   27.291   46.240
| 62> *
| 63>
| 64>                          ****END OF INPUT****
 Total Charge           Charge          ....    0
 Multiplicity           Mult            ....    1
 Number of Electrons    NEL             ....  102
FINAL SINGLE POINT ENERGY      -652.821202627316
FINAL SINGLE POINT ENERGY      -652.846484599145
FINAL SINGLE POINT ENERGY      -652.854657585014
FINAL SINGLE POINT ENERGY      -652.856991785719
FINAL SINGLE POINT ENERGY      -652.857324312773
FINAL SINGLE POINT ENERGY      -652.857376525383
FINAL SINGLE POINT ENERGY      -652.857381198410
FINAL SINGLE POINT ENERGY      -652.857380000561
                    ***********************HURRAY********************

CARTESIAN COORDINATES (ANGSTROEM)
---------------------------------
  C    -21.100211   26.340395   46.398307
  C    -20.388908   27.634984   45.993312
  C    -20.118801   28.299172   47.370182
  C    -19.836313   27.084918   48.285922
  O    -20.384883   25.901710   47.567817
  H    -21.009613   25.542447   45.659375
  H    -19.447367   27.383385   45.491935
  H    -20.995133   28.249968   45.324409
  H    -19.276971   28.997541   47.342237
  H    -21.001360   28.854398   47.706511
  H    -20.309621   27.154059   49.269255
  H    -18.766644   26.898379   48.418726
  C    -23.149709   26.847951   47.830661
  H    -22.382615   26.974170   48.597433
  H    -23.690316   27.793651   47.702430
  O    -22.539278   26.489629   46.555055
  C    -24.124115   25.777009   48.324988
  C    -25.303053   25.485576   47.380174
  C    -24.684452   24.436514   46.405594
  C    -23.740571   23.636578   47.329360
  O    -23.517102   24.473690   48.535892
  H    -24.483697   26.113133   49.305598
  H    -26.136530   25.059783   47.943075
  O    -25.850234   26.656940   46.726090
  H    -25.449221   23.810510   45.936658
  H    -24.120270   24.963038   45.632606
  H    -22.772178   23.422339   46.869624
  H    -24.188213   22.699594   47.674830
  H    -25.226623   26.957541   46.031947

 Multiplicity           Mult            ....    1
 Number of Electrons    NEL             ....  102
 Basis Dimension        Dim             ....  149

ORBITAL ENERGIES
----------------

  NO   OCC          E(Eh)            E(eV)
   0   2.0000     -19.151220      -521.1312
   1   2.0000     -19.145346      -520.9714
   2   2.0000     -19.135556      -520.7050
   3   2.0000     -19.127793      -520.4937
   4   2.0000     -10.284401      -279.8528
   5   2.0000     -10.235131      -278.5121
   6   2.0000     -10.231224      -278.4058
   7   2.0000     -10.229366      -278.3552
   8   2.0000     -10.224144      -278.2131
   9   2.0000     -10.216413      -278.0027
  10   2.0000     -10.196650      -277.4650
  11   2.0000     -10.190930      -277.3093
  12   2.0000     -10.174857      -276.8719
  13   2.0000      -1.057261       -28.7695
  14   2.0000      -1.022844       -27.8330
  15   2.0000      -1.005165       -27.3519
  16   2.0000      -0.995343       -27.0846
  17   2.0000      -0.793249       -21.5854
  18   2.0000      -0.772487       -21.0204
  19   2.0000      -0.762763       -20.7558
  20   2.0000      -0.734098       -19.9758
  21   2.0000      -0.676394       -18.4056
  22   2.0000      -0.608015       -16.5449
  23   2.0000      -0.601952       -16.3800
  24   2.0000      -0.596876       -16.2418
  25   2.0000      -0.559852       -15.2344
  26   2.0000      -0.527815       -14.3626
  27   2.0000      -0.508529       -13.8378
  28   2.0000      -0.496307       -13.5052
  29   2.0000      -0.487346       -13.2614
  30   2.0000      -0.473840       -12.8938
  31   2.0000      -0.459898       -12.5145
  32   2.0000      -0.435022       -11.8376
  33   2.0000      -0.430594       -11.7171
  34   2.0000      -0.423841       -11.5333
  35   2.0000      -0.414513       -11.2795
  36   2.0000      -0.401026       -10.9125
  37   2.0000      -0.390111       -10.6155
  38   2.0000      -0.381520       -10.3817
  39   2.0000      -0.370409       -10.0793
  40   2.0000      -0.364318        -9.9136
  41   2.0000      -0.356251        -9.6941
  42   2.0000      -0.344413        -9.3719
  43   2.0000      -0.328079        -8.9275
  44   2.0000      -0.319915        -8.7053
  45   2.0000      -0.310988        -8.4624
  46   2.0000      -0.301250        -8.1974
  47   2.0000      -0.267396        -7.2762
  48   2.0000      -0.261269        -7.1095
  49   2.0000      -0.255865        -6.9624
  50   2.0000      -0.229719        -6.2510
  51   0.0000       0.064626         1.7585
  52   0.0000       0.085952         2.3389
  53   0.0000       0.092461         2.5160
  54   0.0000       0.095223         2.5911
  55   0.0000       0.106511         2.8983

MULLIKEN ATOMIC CHARGES
-----------------------
   0 C :    0.307632
   1 C :   -0.261312
   2 C :   -0.313170
   3 C :   -0.022333
   4 O :   -0.498219
   5 H :    0.159122
   6 H :    0.149316
   7 H :    0.152908
   8 H :    0.150511
   9 H :    0.150904
  10 H :    0.151893
  11 H :    0.152856
  12 C :   -0.034708
  13 H :    0.157329
  14 H :    0.142404
  15 O :   -0.552169
  16 C :    0.108825
  17 C :    0.087653
  18 C :   -0.307799
  19 C :   -0.002942
  20 O :   -0.516737
  21 H :    0.140125
  22 H :    0.157477
  23 O :   -0.610560
  24 H :    0.140997
  25 H :    0.160167
  26 H :    0.147537
  27 H :    0.138120
  28 H :    0.364176
Sum of atomic charges:    0.0000000

LOEWDIN ATOMIC CHARGES
----------------------
   0 C :    0.181981
   1 C :   -0.225643
   2 C :   -0.222872
   3 C :   -0.034712
   4 O :   -0.308794
   5 H :    0.108474
   6 H :    0.116788
   7 H :    0.121279
   8 H :    0.118843
   9 H :    0.111608
  10 H :    0.104210
  11 H :    0.107823
  12 C :   -0.050299
  13 H :    0.112876
  14 H :    0.104479
  15 O :   -0.346183
  16 C :    0.016368
  17 C :    0.036824
  18 C :   -0.241688
  19 C :   -0.024252
  20 O :   -0.318455
  21 H :    0.110629
  22 H :    0.114206
  23 O :   -0.413722
  24 H :    0.113487
  25 H :    0.119625
  26 H :    0.105209
  27 H :    0.099574
  28 H :    0.282335

  Mayer bond orders larger than 0.100000
B(  0-C ,  1-C ) :   0.9208 B(  0-C ,  4-O ) :   0.9236 B(  0-C ,  5-H ) :   0.9345
B(  0-C , 15-O ) :   0.8500 B(  1-C ,  2-C ) :   0.9543 B(  1-C ,  6-H ) :   0.9346
B(  1-C ,  7-H ) :   0.9375 B(  2-C ,  3-C ) :   0.9494 B(  2-C ,  8-H ) :   0.9446
B(  2-C ,  9-H ) :   0.9442 B(  3-C ,  4-O ) :   0.8335 B(  3-C , 10-H ) :   0.9280
B(  3-C , 11-H ) :   0.9388 B( 12-C , 13-H ) :   0.9148 B( 12-C , 14-H ) :   0.9148
B( 12-C , 15-O ) :   0.8330 B( 12-C , 16-C ) :   0.8944 B( 16-C , 17-C ) :   0.8895
B( 16-C , 20-O ) :   0.8853 B( 16-C , 21-H ) :   0.9254 B( 17-C , 18-C ) :   0.9326
B( 17-C , 22-H ) :   0.9375 B( 17-C , 23-O ) :   0.8968 B( 18-C , 19-C ) :   0.9458
B( 18-C , 24-H ) :   0.9417 B( 18-C , 25-H ) :   0.9283 B( 19-C , 20-O ) :   0.8378
B( 19-C , 26-H ) :   0.9318 B( 19-C , 27-H ) :   0.9381 B( 23-O , 28-H ) :   0.7932

FINAL SINGLE POINT ENERGY      -652.857378322710

DIPOLE MOMENT
-------------
                                X             Y             Z
Electronic contribution:     -2.61645      -2.50407       0.98664
Nuclear contribution   :      3.48725       3.30060      -1.49068
                        -----------------------------------------
Total Dipole Moment    :      0.87079       0.79653      -0.50404
                        -----------------------------------------
Magnitude (a.u.)       :      1.28327
Magnitude (Debye)      :      3.26183

Rotational constants in cm-1:     0.050221     0.016379     0.015029
Rotational constants in MHz :  1505.594947   491.038690   450.543938

                             ****ORCA TERMINATED NORMALLY****
TOTAL RUN TIME: 0 days 0 hours 44 minutes 21 seconds 699 msec
