                         Program Version 4.2.0 -  RELEASE  -
|  1> # Test redundant internal optimization
|  2> #
|  3> ! RKS B3LYP  Opt TightSCF SmallPrint
|  4>
|  5> %basis
|  6>         Basis "6-31G"
|  7> end
|  8>
|  9> %geom
| 10> Constraints
| 11> { D 4  0  15  12  15.0   C } # D for Dihedral angle
| 12> { D 0  15  12  16  240.0   C } # D for Dihedral angle
| 13> { D 0  4  3  2   C } # D for Dihedral angle
| 14> { D 4  3  2  1   C } # D for Dihedral angle
| 15> { D 3  2  1  0   C } # D for Dihedral angle
| 16> { D 2  1  0  4   C } # D for Dihedral angle
| 17> { D 1  0  4  3   C } # D for Dihedral angle
| 18> { D 16  20  19  18   C } # D for Dihedral angle
| 19> { D 20  19  18  17   C } # D for Dihedral angle
| 20> { D 19  18  17  16   C } # D for Dihedral angle
| 21> { D 18  17  16  20   C } # D for Dihedral angle
| 22> { D 17  16  20  19   C } # D for Dihedral angle
| 23> { D 15  12  16  20   C } # D for Dihedral angle
| 24> end
| 25> end
| 26>
| 27>
| 28> #%pal
| 29> #nprocs 8
| 30> #end
| 31>
| 32> * xyz 0 1
| 33> C  -21.048   26.222   46.251
| 34> C  -20.361   27.558   45.944
| 35> C  -20.329   28.222   47.341
| 36> C  -20.110   27.022   48.296
| 37> O  -20.473   25.807   47.535
| 38> H  -20.833   25.428   45.533
| 39> H  -19.344   27.382   45.576
| 40> H  -20.898   28.157   45.201
| 41> H  -19.543   28.978   47.434
| 42> H  -21.289   28.710   47.548
| 43> H  -20.733   27.082   49.195
| 44> H  -19.064   26.913   48.597
| 45> C  -23.128   26.462   47.829
| 46> H  -22.289   26.382   48.532
| 47> H  -23.633   27.421   48.006
| 48> O  -22.586   26.394   46.375
| 49> C  -24.142   25.328   48.146
| 50> C  -23.471   23.951   48.089
| 51> C  -22.748   23.897   49.456
| 52> C  -23.719   24.653   50.397
| 53> O  -24.620   25.440   49.528
| 54> H  -25.012   25.435   47.497
| 55> O  -24.550   22.837   47.995
| 56> H  -22.787   23.839   47.241
| 57> H  -22.552   22.874   49.792
| 58> H  -21.786   24.418   49.392
| 59> H  -23.197   25.330   51.081
| 60> H  -24.346   23.974   50.982
| 61> H  -25.248   22.928   48.835
| 62> *
| 63>
| 64>                          ****END OF INPUT****
 Total Charge           Charge          ....    0
 Multiplicity           Mult            ....    1
 Number of Electrons    NEL             ....  102
FINAL SINGLE POINT ENERGY      -652.832739895882
FINAL SINGLE POINT ENERGY      -652.855544406388
FINAL SINGLE POINT ENERGY      -652.858898442807
FINAL SINGLE POINT ENERGY      -652.861607601123
FINAL SINGLE POINT ENERGY      -652.861773822849
FINAL SINGLE POINT ENERGY      -652.861809191414
                    ***********************HURRAY********************

CARTESIAN COORDINATES (ANGSTROEM)
---------------------------------
  C    -21.108824   26.240334   46.395890
  C    -20.471855   27.552506   45.929962
  C    -20.240634   28.288293   47.273822
  C    -19.890052   27.139349   48.246409
  O    -20.369448   25.890212   47.587149
  H    -20.980744   25.411924   45.696495
  H    -19.519678   27.334465   45.432778
  H    -21.119410   28.098506   45.241114
  H    -19.443182   29.035066   47.214570
  H    -21.157686   28.799590   47.586030
  H    -20.371687   27.233729   49.223496
  H    -18.812516   27.017457   48.388326
  C    -23.130476   26.461526   47.910989
  H    -22.355808   26.450624   48.680861
  H    -23.686786   27.402091   47.976663
  O    -22.548336   26.361318   46.579304
  C    -24.091936   25.290483   48.135873
  C    -23.445235   23.898099   48.118330
  C    -22.824785   23.823447   49.536290
  C    -23.844506   24.593524   50.410942
  O    -24.668893   25.407240   49.481935
  H    -24.918318   25.343771   47.421791
  O    -24.451234   22.866631   47.907086
  H    -22.719867   23.766538   47.317662
  H    -22.697351   22.783926   49.848518
  H    -21.842286   24.305916   49.531551
  H    -23.366622   25.258226   51.137705
  H    -24.528108   23.927089   50.946490
  H    -25.232736   23.062120   48.465969

 Multiplicity           Mult            ....    1
 Number of Electrons    NEL             ....  102
 Basis Dimension        Dim             ....  149

ORBITAL ENERGIES
----------------

  NO   OCC          E(Eh)            E(eV)
   0   2.0000     -19.159883      -521.3669
   1   2.0000     -19.142181      -520.8852
   2   2.0000     -19.140316      -520.8345
   3   2.0000     -19.129042      -520.5277
   4   2.0000     -10.285142      -279.8729
   5   2.0000     -10.240275      -278.6520
   6   2.0000     -10.229898      -278.3697
   7   2.0000     -10.228168      -278.3226
   8   2.0000     -10.227280      -278.2984
   9   2.0000     -10.226015      -278.2640
  10   2.0000     -10.197680      -277.4930
  11   2.0000     -10.190705      -277.3032
  12   2.0000     -10.179311      -276.9931
  13   2.0000      -1.060719       -28.8636
  14   2.0000      -1.030619       -28.0446
  15   2.0000      -0.999769       -27.2051
  16   2.0000      -0.996474       -27.1154
  17   2.0000      -0.796276       -21.6678
  18   2.0000      -0.775589       -21.1049
  19   2.0000      -0.766010       -20.8442
  20   2.0000      -0.735712       -20.0197
  21   2.0000      -0.674147       -18.3445
  22   2.0000      -0.610267       -16.6062
  23   2.0000      -0.597754       -16.2657
  24   2.0000      -0.595641       -16.2082
  25   2.0000      -0.575039       -15.6476
  26   2.0000      -0.524554       -14.2739
  27   2.0000      -0.513262       -13.9666
  28   2.0000      -0.506322       -13.7777
  29   2.0000      -0.485877       -13.2214
  30   2.0000      -0.474298       -12.9063
  31   2.0000      -0.459159       -12.4944
  32   2.0000      -0.452137       -12.3033
  33   2.0000      -0.433369       -11.7926
  34   2.0000      -0.421598       -11.4723
  35   2.0000      -0.412412       -11.2223
  36   2.0000      -0.407504       -11.0887
  37   2.0000      -0.386714       -10.5230
  38   2.0000      -0.380610       -10.3569
  39   2.0000      -0.367224        -9.9927
  40   2.0000      -0.361195        -9.8286
  41   2.0000      -0.356823        -9.7096
  42   2.0000      -0.355110        -9.6630
  43   2.0000      -0.333710        -9.0807
  44   2.0000      -0.324366        -8.8264
  45   2.0000      -0.313026        -8.5179
  46   2.0000      -0.301203        -8.1961
  47   2.0000      -0.274993        -7.4829
  48   2.0000      -0.266588        -7.2542
  49   2.0000      -0.257133        -6.9970
  50   2.0000      -0.235690        -6.4135
  51   0.0000       0.065286         1.7765
  52   0.0000       0.069627         1.8946
  53   0.0000       0.091222         2.4823
  54   0.0000       0.095058         2.5867
  55   0.0000       0.105794         2.8788

MULLIKEN ATOMIC CHARGES
-----------------------
   0 C :    0.300694
   1 C :   -0.256850
   2 C :   -0.310052
   3 C :   -0.026062
   4 O :   -0.515161
   5 H :    0.163109
   6 H :    0.146975
   7 H :    0.162819
   8 H :    0.151098
   9 H :    0.157038
  10 H :    0.145943
  11 H :    0.155574
  12 C :   -0.011672
  13 H :    0.145352
  14 H :    0.149643
  15 O :   -0.539236
  16 C :    0.056844
  17 C :    0.091871
  18 C :   -0.312270
  19 C :   -0.027114
  20 O :   -0.529082
  21 H :    0.165260
  22 O :   -0.604633
  23 H :    0.171126
  24 H :    0.158782
  25 H :    0.165669
  26 H :    0.139569
  27 H :    0.144100
  28 H :    0.360666
Sum of atomic charges:   -0.0000000

LOEWDIN ATOMIC CHARGES
----------------------
   0 C :    0.181073
   1 C :   -0.222321
   2 C :   -0.220560
   3 C :   -0.035356
   4 O :   -0.322251
   5 H :    0.108560
   6 H :    0.115386
   7 H :    0.126746
   8 H :    0.119524
   9 H :    0.115190
  10 H :    0.101452
  11 H :    0.109028
  12 C :   -0.041561
  13 H :    0.104799
  14 H :    0.108289
  15 O :   -0.338380
  16 C :    0.012804
  17 C :    0.039274
  18 C :   -0.245864
  19 C :   -0.038466
  20 O :   -0.333529
  21 H :    0.117431
  22 O :   -0.416469
  23 H :    0.124735
  24 H :    0.125132
  25 H :    0.123064
  26 H :    0.100559
  27 H :    0.101481
  28 H :    0.280231

  Mayer bond orders larger than 0.100000
B(  0-C ,  1-C ) :   0.9246 B(  0-C ,  4-O ) :   0.9030 B(  0-C ,  5-H ) :   0.9305
B(  0-C , 15-O ) :   0.8544 B(  1-C ,  2-C ) :   0.9530 B(  1-C ,  6-H ) :   0.9345
B(  1-C ,  7-H ) :   0.9361 B(  2-C ,  3-C ) :   0.9519 B(  2-C ,  8-H ) :   0.9443
B(  2-C ,  9-H ) :   0.9445 B(  3-C ,  4-O ) :   0.8277 B(  3-C , 10-H ) :   0.9300
B(  3-C , 11-H ) :   0.9398 B( 12-C , 13-H ) :   0.9117 B( 12-C , 14-H ) :   0.9290
B( 12-C , 15-O ) :   0.8266 B( 12-C , 16-C ) :   0.8956 B( 16-C , 17-C ) :   0.9132
B( 16-C , 20-O ) :   0.8375 B( 16-C , 21-H ) :   0.9268 B( 17-C , 18-C ) :   0.9146
B( 17-C , 22-O ) :   0.8872 B( 17-C , 23-H ) :   0.9260 B( 18-C , 19-C ) :   0.9407
B( 18-C , 24-H ) :   0.9382 B( 18-C , 25-H ) :   0.9252 B( 19-C , 20-O ) :   0.8437
B( 19-C , 26-H ) :   0.9369 B( 19-C , 27-H ) :   0.9385 B( 22-O , 28-H ) :   0.7969

FINAL SINGLE POINT ENERGY      -652.861813481967

DIPOLE MOMENT
-------------
                                X             Y             Z
Electronic contribution:     -4.37326      -3.38359      -1.89720
Nuclear contribution   :      5.47527       4.42516       2.41203
                        -----------------------------------------
Total Dipole Moment    :      1.10201       1.04157       0.51482
                        -----------------------------------------
Magnitude (a.u.)       :      1.60135
Magnitude (Debye)      :      4.07032

Rotational constants in cm-1:     0.052492     0.014892     0.014314
Rotational constants in MHz :  1573.669879   446.455908   429.123917

                             ****ORCA TERMINATED NORMALLY****
TOTAL RUN TIME: 0 days 0 hours 15 minutes 26 seconds 80 msec
