                         Program Version 4.2.0 -  RELEASE  -
|  1> # Test redundant internal optimization
|  2> #
|  3> ! RKS B3LYP  Opt TightSCF SmallPrint
|  4>
|  5> %basis
|  6>         Basis "6-31G"
|  7> end
|  8>
|  9> %geom
| 10> Constraints
| 11> { D 4  0  15  12  0.0   C } # D for Dihedral angle
| 12> { D 0  15  12  16  195.0   C } # D for Dihedral angle
| 13> { D 0  4  3  2   C } # D for Dihedral angle
| 14> { D 4  3  2  1   C } # D for Dihedral angle
| 15> { D 3  2  1  0   C } # D for Dihedral angle
| 16> { D 2  1  0  4   C } # D for Dihedral angle
| 17> { D 1  0  4  3   C } # D for Dihedral angle
| 18> { D 16  20  19  18   C } # D for Dihedral angle
| 19> { D 20  19  18  17   C } # D for Dihedral angle
| 20> { D 19  18  17  16   C } # D for Dihedral angle
| 21> { D 18  17  16  20   C } # D for Dihedral angle
| 22> { D 17  16  20  19   C } # D for Dihedral angle
| 23> { D 15  12  16  20   C } # D for Dihedral angle
| 24> end
| 25> end
| 26>
| 27>
| 28> #%pal
| 29> #nprocs 8
| 30> #end
| 31>
| 32> * xyz 0 1
| 33> C  -21.048   26.222   46.251
| 34> C  -20.361   27.558   45.944
| 35> C  -20.329   28.222   47.341
| 36> C  -20.110   27.022   48.296
| 37> O  -20.473   25.807   47.535
| 38> H  -20.833   25.428   45.533
| 39> H  -19.344   27.382   45.576
| 40> H  -20.898   28.157   45.201
| 41> H  -19.543   28.978   47.434
| 42> H  -21.289   28.710   47.548
| 43> H  -20.733   27.082   49.195
| 44> H  -19.064   26.913   48.597
| 45> C  -23.172   26.101   47.783
| 46> H  -22.724   25.180   48.177
| 47> H  -22.937   26.920   48.475
| 48> O  -22.586   26.394   46.375
| 49> C  -24.716   25.924   47.767
| 50> C  -25.409   27.141   47.142
| 51> C  -25.208   26.874   45.631
| 52> C  -25.305   25.332   45.530
| 53> O  -25.094   24.806   46.896
| 54> H  -25.058   25.676   48.773
| 55> H  -26.474   27.137   47.397
| 56> O  -24.799   28.493   47.602
| 57> H  -25.951   27.381   45.008
| 58> H  -24.216   27.220   45.317
| 59> H  -24.549   24.907   44.861
| 60> H  -26.294   24.996   45.205
| 61> H  -23.732   28.518   47.357
| 62> *
| 63>
| 64>                          ****END OF INPUT****
 Total Charge           Charge          ....    0
 Multiplicity           Mult            ....    1
 Number of Electrons    NEL             ....  102
FINAL SINGLE POINT ENERGY      -652.832666469551
FINAL SINGLE POINT ENERGY      -652.855193619551
FINAL SINGLE POINT ENERGY      -652.859834783081
FINAL SINGLE POINT ENERGY      -652.861174756844
FINAL SINGLE POINT ENERGY      -652.861312169232
FINAL SINGLE POINT ENERGY      -652.861331536468
                    ***********************HURRAY********************

CARTESIAN COORDINATES (ANGSTROEM)
---------------------------------
  C    -21.075772   26.195698   46.371590
  C    -20.442289   27.535875   45.996650
  C    -20.297197   28.216668   47.378778
  C    -19.975792   27.034361   48.319419
  O    -20.395371   25.808669   47.581994
  H    -20.915387   25.389227   45.653408
  H    -19.460639   27.356122   45.543359
  H    -21.057597   28.103025   45.294635
  H    -19.513810   28.980410   47.391971
  H    -21.238762   28.698366   47.664659
  H    -20.515111   27.073804   49.269312
  H    -18.905829   26.925599   48.516526
  C    -23.124868   26.089310   47.825750
  H    -22.703951   25.175647   48.255292
  H    -22.924992   26.922061   48.514450
  O    -22.524736   26.340349   46.518346
  C    -24.635427   25.927881   47.687465
  C    -25.380243   27.143953   47.109191
  C    -25.248945   26.902436   45.574112
  C    -25.326217   25.364383   45.467624
  O    -25.037845   24.829086   46.822335
  H    -25.009900   25.681286   48.688631
  H    -26.424715   27.129560   47.427000
  O    -24.866742   28.424511   47.555672
  H    -26.039922   27.405611   45.010160
  H    -24.275249   27.266160   45.240319
  H    -24.593828   24.954170   44.767100
  H    -26.325680   25.012104   45.194407
  H    -24.012187   28.594670   47.106845

 Multiplicity           Mult            ....    1
 Number of Electrons    NEL             ....  102
 Basis Dimension        Dim             ....  149

ORBITAL ENERGIES
----------------

  NO   OCC          E(Eh)            E(eV)
   0   2.0000     -19.156412      -521.2725
   1   2.0000     -19.145785      -520.9833
   2   2.0000     -19.138785      -520.7928
   3   2.0000     -19.129402      -520.5375
   4   2.0000     -10.285924      -279.8942
   5   2.0000     -10.238243      -278.5968
   6   2.0000     -10.233411      -278.4653
   7   2.0000     -10.226716      -278.2831
   8   2.0000     -10.226289      -278.2715
   9   2.0000     -10.217746      -278.0390
  10   2.0000     -10.199442      -277.5409
  11   2.0000     -10.194197      -277.3982
  12   2.0000     -10.176023      -276.9037
  13   2.0000      -1.061346       -28.8807
  14   2.0000      -1.025046       -27.8929
  15   2.0000      -1.007129       -27.4054
  16   2.0000      -0.995038       -27.0764
  17   2.0000      -0.798373       -21.7248
  18   2.0000      -0.772544       -21.0220
  19   2.0000      -0.763779       -20.7835
  20   2.0000      -0.736363       -20.0375
  21   2.0000      -0.674903       -18.3651
  22   2.0000      -0.611328       -16.6351
  23   2.0000      -0.600202       -16.3323
  24   2.0000      -0.598049       -16.2737
  25   2.0000      -0.561801       -15.2874
  26   2.0000      -0.526958       -14.3393
  27   2.0000      -0.515231       -14.0201
  28   2.0000      -0.500619       -13.6225
  29   2.0000      -0.490335       -13.3427
  30   2.0000      -0.469283       -12.7698
  31   2.0000      -0.456178       -12.4132
  32   2.0000      -0.446513       -12.1502
  33   2.0000      -0.425145       -11.5688
  34   2.0000      -0.424297       -11.5457
  35   2.0000      -0.418994       -11.4014
  36   2.0000      -0.398771       -10.8511
  37   2.0000      -0.396598       -10.7920
  38   2.0000      -0.380481       -10.3534
  39   2.0000      -0.372588       -10.1386
  40   2.0000      -0.367935       -10.0120
  41   2.0000      -0.358510        -9.7555
  42   2.0000      -0.350450        -9.5362
  43   2.0000      -0.334787        -9.1100
  44   2.0000      -0.322007        -8.7623
  45   2.0000      -0.309795        -8.4300
  46   2.0000      -0.304786        -8.2937
  47   2.0000      -0.270530        -7.3615
  48   2.0000      -0.261697        -7.1211
  49   2.0000      -0.254080        -6.9139
  50   2.0000      -0.235436        -6.4065
  51   0.0000       0.045048         1.2258
  52   0.0000       0.082407         2.2424
  53   0.0000       0.091971         2.5027
  54   0.0000       0.097999         2.6667
  55   0.0000       0.105564         2.8725

MULLIKEN ATOMIC CHARGES
-----------------------
   0 C :    0.307327
   1 C :   -0.258198
   2 C :   -0.311813
   3 C :   -0.016759
   4 O :   -0.507801
   5 H :    0.162758
   6 H :    0.148944
   7 H :    0.152803
   8 H :    0.152769
   9 H :    0.149302
  10 H :    0.150861
  11 H :    0.154353
  12 C :   -0.010082
  13 H :    0.170007
  14 H :    0.127217
  15 O :   -0.559407
  16 C :    0.092200
  17 C :    0.084339
  18 C :   -0.308424
  19 C :    0.003126
  20 O :   -0.522022
  21 H :    0.146572
  22 H :    0.159032
  23 O :   -0.609790
  24 H :    0.141641
  25 H :    0.159692
  26 H :    0.145358
  27 H :    0.135705
  28 H :    0.360287
Sum of atomic charges:   -0.0000000

LOEWDIN ATOMIC CHARGES
----------------------
   0 C :    0.183701
   1 C :   -0.221250
   2 C :   -0.219646
   3 C :   -0.031956
   4 O :   -0.313606
   5 H :    0.108985
   6 H :    0.116281
   7 H :    0.121052
   8 H :    0.120019
   9 H :    0.110092
  10 H :    0.105596
  11 H :    0.109203
  12 C :   -0.045729
  13 H :    0.118142
  14 H :    0.092526
  15 O :   -0.352438
  16 C :    0.020490
  17 C :    0.036942
  18 C :   -0.242054
  19 C :   -0.023361
  20 O :   -0.322012
  21 H :    0.113440
  22 H :    0.114969
  23 O :   -0.413750
  24 H :    0.113733
  25 H :    0.119408
  26 H :    0.104844
  27 H :    0.098717
  28 H :    0.277660

  Mayer bond orders larger than 0.100000
B(  0-C ,  1-C ) :   0.9323 B(  0-C ,  4-O ) :   0.9172 B(  0-C ,  5-H ) :   0.9295
B(  0-C , 15-O ) :   0.8279 B(  1-C ,  2-C ) :   0.9510 B(  1-C ,  6-H ) :   0.9343
B(  1-C ,  7-H ) :   0.9372 B(  2-C ,  3-C ) :   0.9525 B(  2-C ,  8-H ) :   0.9441
B(  2-C ,  9-H ) :   0.9444 B(  3-C ,  4-O ) :   0.8281 B(  3-C , 10-H ) :   0.9319
B(  3-C , 11-H ) :   0.9397 B( 12-C , 13-H ) :   0.9174 B( 12-C , 14-H ) :   0.9022
B( 12-C , 15-O ) :   0.8153 B( 12-C , 16-C ) :   0.9146 B( 16-C , 17-C ) :   0.8849
B( 16-C , 20-O ) :   0.8797 B( 16-C , 21-H ) :   0.9294 B( 17-C , 18-C ) :   0.9343
B( 17-C , 22-H ) :   0.9368 B( 17-C , 23-O ) :   0.8975 B( 18-C , 19-C ) :   0.9461
B( 18-C , 24-H ) :   0.9412 B( 18-C , 25-H ) :   0.9273 B( 19-C , 20-O ) :   0.8394
B( 19-C , 26-H ) :   0.9330 B( 19-C , 27-H ) :   0.9383 B( 23-O , 28-H ) :   0.7914

FINAL SINGLE POINT ENERGY      -652.861332168065

DIPOLE MOMENT
-------------
                                X             Y             Z
Electronic contribution:     -2.17303      -3.74142       1.08355
Nuclear contribution   :      3.10878       4.63655      -1.49595
                        -----------------------------------------
Total Dipole Moment    :      0.93575       0.89513      -0.41240
                        -----------------------------------------
Magnitude (a.u.)       :      1.35903
Magnitude (Debye)      :      3.45439

Rotational constants in cm-1:     0.048507     0.016054     0.015021
Rotational constants in MHz :  1454.214116   481.301634   450.328851

                             ****ORCA TERMINATED NORMALLY****
TOTAL RUN TIME: 0 days 0 hours 20 minutes 39 seconds 210 msec
