                         Program Version 4.2.0 -  RELEASE  -
|  1> # Test redundant internal optimization
|  2> #
|  3> ! RKS B3LYP  Opt TightSCF SmallPrint
|  4>
|  5> %basis
|  6>         Basis "6-31G"
|  7> end
|  8>
|  9> %geom
| 10> Constraints
| 11> { D 4  0  15  12  300.0   C } # D for Dihedral angle
| 12> { D 0  15  12  16  270.0   C } # D for Dihedral angle
| 13> { D 0  4  3  2   C } # D for Dihedral angle
| 14> { D 4  3  2  1   C } # D for Dihedral angle
| 15> { D 3  2  1  0   C } # D for Dihedral angle
| 16> { D 2  1  0  4   C } # D for Dihedral angle
| 17> { D 1  0  4  3   C } # D for Dihedral angle
| 18> { D 16  20  19  18   C } # D for Dihedral angle
| 19> { D 20  19  18  17   C } # D for Dihedral angle
| 20> { D 19  18  17  16   C } # D for Dihedral angle
| 21> { D 18  17  16  20   C } # D for Dihedral angle
| 22> { D 17  16  20  19   C } # D for Dihedral angle
| 23> { D 15  12  16  20   C } # D for Dihedral angle
| 24> end
| 25> end
| 26>
| 27>
| 28> #%pal
| 29> #nprocs 8
| 30> #end
| 31>
| 32> * xyz 0 1
| 33> C  -21.048   26.222   46.251
| 34> C  -20.361   27.558   45.944
| 35> C  -20.329   28.222   47.341
| 36> C  -20.110   27.022   48.296
| 37> O  -20.473   25.807   47.535
| 38> H  -20.833   25.428   45.533
| 39> H  -19.344   27.382   45.576
| 40> H  -20.898   28.157   45.201
| 41> H  -19.543   28.978   47.434
| 42> H  -21.289   28.710   47.548
| 43> H  -20.733   27.082   49.195
| 44> H  -19.064   26.913   48.597
| 45> C  -23.362   25.116   46.798
| 46> H  -22.719   24.498   47.437
| 47> H  -24.259   25.384   47.370
| 48> O  -22.586   26.394   46.375
| 49> C  -23.813   24.258   45.583
| 50> C  -24.644   25.086   44.596
| 51> C  -23.544   25.862   43.834
| 52> C  -22.377   24.846   43.768
| 53> O  -22.651   23.824   44.802
| 54> H  -24.309   23.357   45.947
| 55> H  -25.190   24.422   43.916
| 56> O  -25.668   26.022   45.293
| 57> H  -23.866   26.192   42.841
| 58> H  -23.249   26.753   44.403
| 59> H  -21.405   25.309   43.970
| 60> H  -22.329   24.326   42.807
| 61> H  -25.143   26.695   45.980
| 62> *
| 63>
| 64>                          ****END OF INPUT****
 Total Charge           Charge          ....    0
 Multiplicity           Mult            ....    1
 Number of Electrons    NEL             ....  102
FINAL SINGLE POINT ENERGY      -652.831498020651
FINAL SINGLE POINT ENERGY      -652.857545660416
FINAL SINGLE POINT ENERGY      -652.864253657551
FINAL SINGLE POINT ENERGY      -652.867541474802
FINAL SINGLE POINT ENERGY      -652.867936723336
FINAL SINGLE POINT ENERGY      -652.867989132885
FINAL SINGLE POINT ENERGY      -652.867993648393
FINAL SINGLE POINT ENERGY      -652.867992519653
                    ***********************HURRAY********************

CARTESIAN COORDINATES (ANGSTROEM)
---------------------------------
  C    -20.996667   26.236032   46.307839
  C    -20.365226   27.607668   46.072553
  C    -20.364800   28.203499   47.498054
  C    -20.101965   26.973658   48.394271
  O    -20.419478   25.786571   47.555282
  H    -20.778127   25.452676   45.582231
  H    -19.344098   27.473606   45.698203
  H    -20.930253   28.208396   45.356273
  H    -19.605969   28.981068   47.628838
  H    -21.345779   28.636039   47.714631
  H    -20.728294   26.951782   49.289562
  H    -19.052312   26.875000   48.685611
  C    -23.193547   25.242223   46.797612
  H    -22.579181   24.633828   47.469077
  H    -24.066563   25.601176   47.351706
  O    -22.433942   26.437775   46.422732
  C    -23.679454   24.394243   45.623508
  C    -24.651013   25.091512   44.652351
  C    -23.668659   25.767404   43.647312
  C    -22.512241   24.749058   43.562833
  O    -22.630703   23.865493   44.754722
  H    -24.159363   23.514223   46.070898
  H    -25.276810   24.348965   44.153151
  O    -25.580805   26.002503   45.282629
  H    -24.133903   25.959723   42.676808
  H    -23.327640   26.713886   44.075706
  H    -21.525868   25.222640   43.562224
  H    -22.588950   24.099945   42.685418
  H    -25.097391   26.794410   45.598963

 Multiplicity           Mult            ....    1
 Number of Electrons    NEL             ....  102
 Basis Dimension        Dim             ....  149

ORBITAL ENERGIES
----------------

  NO   OCC          E(Eh)            E(eV)
   0   2.0000     -19.148640      -521.0610
   1   2.0000     -19.143608      -520.9241
   2   2.0000     -19.141009      -520.8533
   3   2.0000     -19.140961      -520.8520
   4   2.0000     -10.277813      -279.6735
   5   2.0000     -10.237974      -278.5894
   6   2.0000     -10.229227      -278.3514
   7   2.0000     -10.228628      -278.3351
   8   2.0000     -10.227421      -278.3023
   9   2.0000     -10.224256      -278.2161
  10   2.0000     -10.188794      -277.2512
  11   2.0000     -10.187846      -277.2254
  12   2.0000     -10.184088      -277.1231
  13   2.0000      -1.055907       -28.7327
  14   2.0000      -1.029103       -28.0033
  15   2.0000      -1.012186       -27.5430
  16   2.0000      -0.993060       -27.0225
  17   2.0000      -0.791618       -21.5410
  18   2.0000      -0.774125       -21.0650
  19   2.0000      -0.766319       -20.8526
  20   2.0000      -0.732199       -19.9241
  21   2.0000      -0.677335       -18.4312
  22   2.0000      -0.605534       -16.4774
  23   2.0000      -0.602612       -16.3979
  24   2.0000      -0.597729       -16.2650
  25   2.0000      -0.565739       -15.3945
  26   2.0000      -0.527617       -14.3572
  27   2.0000      -0.508653       -13.8411
  28   2.0000      -0.498908       -13.5760
  29   2.0000      -0.489607       -13.3229
  30   2.0000      -0.463201       -12.6043
  31   2.0000      -0.460075       -12.5193
  32   2.0000      -0.442280       -12.0351
  33   2.0000      -0.437610       -11.9080
  34   2.0000      -0.425040       -11.5659
  35   2.0000      -0.409882       -11.1534
  36   2.0000      -0.403668       -10.9844
  37   2.0000      -0.395437       -10.7604
  38   2.0000      -0.382970       -10.4211
  39   2.0000      -0.363737        -9.8978
  40   2.0000      -0.360993        -9.8231
  41   2.0000      -0.356944        -9.7129
  42   2.0000      -0.347273        -9.4498
  43   2.0000      -0.333203        -9.0669
  44   2.0000      -0.328374        -8.9355
  45   2.0000      -0.310479        -8.4486
  46   2.0000      -0.300468        -8.1762
  47   2.0000      -0.278409        -7.5759
  48   2.0000      -0.262960        -7.1555
  49   2.0000      -0.258992        -7.0475
  50   2.0000      -0.238267        -6.4836
  51   0.0000       0.069043         1.8787
  52   0.0000       0.076058         2.0697
  53   0.0000       0.092764         2.5242
  54   0.0000       0.100973         2.7476
  55   0.0000       0.102813         2.7977

MULLIKEN ATOMIC CHARGES
-----------------------
   0 C :    0.280392
   1 C :   -0.266841
   2 C :   -0.298119
   3 C :   -0.005776
   4 O :   -0.512172
   5 H :    0.175235
   6 H :    0.147697
   7 H :    0.152380
   8 H :    0.142498
   9 H :    0.160476
  10 H :    0.147782
  11 H :    0.145162
  12 C :   -0.056238
  13 H :    0.177228
  14 H :    0.150981
  15 O :   -0.537959
  16 C :    0.096748
  17 C :    0.095734
  18 C :   -0.313664
  19 C :   -0.010207
  20 O :   -0.522816
  21 H :    0.147988
  22 H :    0.161930
  23 O :   -0.608179
  24 H :    0.146528
  25 H :    0.156788
  26 H :    0.131752
  27 H :    0.147685
  28 H :    0.366985
Sum of atomic charges:   -0.0000000

LOEWDIN ATOMIC CHARGES
----------------------
   0 C :    0.169783
   1 C :   -0.216149
   2 C :   -0.215842
   3 C :   -0.028231
   4 O :   -0.322690
   5 H :    0.110719
   6 H :    0.115601
   7 H :    0.120748
   8 H :    0.114052
   9 H :    0.118253
  10 H :    0.105737
  11 H :    0.104224
  12 C :   -0.058664
  13 H :    0.121666
  14 H :    0.115067
  15 O :   -0.343487
  16 C :    0.010170
  17 C :    0.037911
  18 C :   -0.242216
  19 C :   -0.028665
  20 O :   -0.326020
  21 H :    0.114526
  22 H :    0.116121
  23 O :   -0.410072
  24 H :    0.117031
  25 H :    0.116830
  26 H :    0.095032
  27 H :    0.104424
  28 H :    0.284139

  Mayer bond orders larger than 0.100000
B(  0-C ,  1-C ) :   0.9473 B(  0-C ,  4-O ) :   0.8981 B(  0-C ,  5-H ) :   0.9039
B(  0-C , 15-O ) :   0.8376 B(  1-C ,  2-C ) :   0.9540 B(  1-C ,  6-H ) :   0.9399
B(  1-C ,  7-H ) :   0.9365 B(  2-C ,  3-C ) :   0.9562 B(  2-C ,  8-H ) :   0.9451
B(  2-C ,  9-H ) :   0.9446 B(  3-C ,  4-O ) :   0.8351 B(  3-C , 10-H ) :   0.9358
B(  3-C , 11-H ) :   0.9403 B( 12-C , 13-H ) :   0.9139 B( 12-C , 14-H ) :   0.9217
B( 12-C , 15-O ) :   0.8462 B( 12-C , 16-C ) :   0.8980 B( 16-C , 17-C ) :   0.8838
B( 16-C , 20-O ) :   0.8679 B( 16-C , 21-H ) :   0.9235 B( 17-C , 18-C ) :   0.9284
B( 17-C , 22-H ) :   0.9369 B( 17-C , 23-O ) :   0.9033 B( 18-C , 19-C ) :   0.9425
B( 18-C , 24-H ) :   0.9412 B( 18-C , 25-H ) :   0.9305 B( 19-C , 20-O ) :   0.8395
B( 19-C , 26-H ) :   0.9267 B( 19-C , 27-H ) :   0.9400 B( 23-O , 28-H ) :   0.7912

FINAL SINGLE POINT ENERGY      -652.867990966738

DIPOLE MOMENT
-------------
                                X             Y             Z
Electronic contribution:     -2.61142      -4.10663       0.50118
Nuclear contribution   :      3.17706       5.13345      -0.68968
                        -----------------------------------------
Total Dipole Moment    :      0.56564       1.02681      -0.18850
                        -----------------------------------------
Magnitude (a.u.)       :      1.18736
Magnitude (Debye)      :      3.01803

Rotational constants in cm-1:     0.050168     0.015587     0.015030
Rotational constants in MHz :  1503.986959   467.291734   450.588887

                             ****ORCA TERMINATED NORMALLY****
TOTAL RUN TIME: 0 days 0 hours 33 minutes 21 seconds 440 msec
