                         Program Version 4.2.1 -  RELEASE  -
|  1> # Test redundant internal optimization
|  2> #
|  3> ! RKS B3LYP  Opt TightSCF SmallPrint
|  4>
|  5> %basis
|  6>         Basis "6-31G"
|  7> end
|  8>
|  9> %geom
| 10> Constraints
| 11> { D 4  0  19  14  255.0   C } # D for Dihedral angle
| 12> { D 0  19  14  12  240.0   C } # D for Dihedral angle
| 13> { D 0  4  3  2   C } # D for Dihedral angle
| 14> { D 4  3  2  1   C } # D for Dihedral angle
| 15> { D 3  2  1  0   C } # D for Dihedral angle
| 16> { D 2  1  0  4   C } # D for Dihedral angle
| 17> { D 1  0  4  3   C } # D for Dihedral angle
| 18> { D 14  15  16  17   C } # D for Dihedral angle
| 19> { D 15  16  17  12   C } # D for Dihedral angle
| 20> { D 16  17  12  14   C } # D for Dihedral angle
| 21> { D 17  12  14  15   C } # D for Dihedral angle
| 22> { D 12  14  15  16   C } # D for Dihedral angle
| 23> end
| 24> end
| 25>
| 26>
| 27> #%pal
| 28> #nprocs 8
| 29> #end
| 30>
| 31> * xyz 0 1
| 32> C  -21.048   26.222   46.251
| 33> C  -20.361   27.558   45.944
| 34> C  -20.329   28.222   47.341
| 35> C  -20.110   27.022   48.296
| 36> O  -20.473   25.807   47.535
| 37> H  -20.833   25.428   45.533
| 38> H  -19.344   27.382   45.576
| 39> H  -20.898   28.157   45.201
| 40> H  -19.543   28.978   47.434
| 41> H  -21.289   28.710   47.548
| 42> H  -20.733   27.082   49.195
| 43> H  -19.064   26.913   48.597
| 44> C  -24.143   25.886   44.667
| 45> H  -24.936   25.171   44.395
| 46> C  -23.236   25.322   45.767
| 47> C  -22.318   24.374   44.962
| 48> C  -22.145   25.113   43.612
| 49> O  -23.240   26.105   43.532
| 50> H  -24.597   26.850   44.904
| 51> O  -22.472   26.381   46.366
| 52> H  -23.791   24.806   46.558
| 53> H  -21.362   24.183   45.459
| 54> H  -22.815   23.406   44.811
| 55> H  -22.208   24.439   42.751
| 56> H  -21.203   25.669   43.558
| 57> *
| 58>
| 59>                          ****END OF INPUT****
 Total Charge           Charge          ....    0
 Multiplicity           Mult            ....    1
 Number of Electrons    NEL             ....   86
FINAL SINGLE POINT ENERGY      -538.403981113055
FINAL SINGLE POINT ENERGY      -538.427701382612
FINAL SINGLE POINT ENERGY      -538.429371134305
FINAL SINGLE POINT ENERGY      -538.429642146136
FINAL SINGLE POINT ENERGY      -538.429672231275
FINAL SINGLE POINT ENERGY      -538.429676885785
                    ***********************HURRAY********************

CARTESIAN COORDINATES (ANGSTROEM)
---------------------------------
  C    -20.820235   26.270236   46.237833
  C    -20.325084   27.702984   46.032291
  C    -20.448532   28.290331   47.459073
  C    -20.096899   27.084826   48.360631
  O    -20.251821   25.879800   47.510563
  H    -20.462120   25.549092   45.504363
  H    -19.277646   27.683210   45.708668
  H    -20.920729   28.233927   45.287580
  H    -19.782384   29.142241   47.623786
  H    -21.478579   28.614467   47.633685
  H    -20.756862   26.992524   49.227281
  H    -19.056450   27.098699   48.699939
  C    -24.020729   25.990431   44.676840
  H    -24.943333   25.417467   44.503529
  C    -23.131253   25.296420   45.708793
  C    -22.467279   24.200544   44.858042
  C    -22.288999   24.874324   43.474486
  O    -23.201580   26.038473   43.459479
  H    -24.262733   27.015284   44.956674
  O    -22.257954   26.313039   46.300435
  H    -23.708775   24.870270   46.536349
  H    -21.539292   23.810741   45.283018
  H    -23.168502   23.361228   44.789386
  H    -22.548323   24.202218   42.649035
  H    -21.274906   25.253223   43.311242

 Multiplicity           Mult            ....    1
 Number of Electrons    NEL             ....   86
 Basis Dimension        Dim             ....  127

ORBITAL ENERGIES
----------------

  NO   OCC          E(Eh)            E(eV)
   0   2.0000     -19.138093      -520.7740
   1   2.0000     -19.133237      -520.6419
   2   2.0000     -19.132408      -520.6193
   3   2.0000     -10.276005      -279.6243
   4   2.0000     -10.242950      -278.7249
   5   2.0000     -10.228438      -278.3299
   6   2.0000     -10.221287      -278.1354
   7   2.0000     -10.219575      -278.0888
   8   2.0000     -10.194593      -277.4090
   9   2.0000     -10.179577      -277.0004
  10   2.0000     -10.178458      -276.9699
  11   2.0000      -1.047951       -28.5162
  12   2.0000      -1.016201       -27.6522
  13   2.0000      -0.985959       -26.8293
  14   2.0000      -0.791599       -21.5405
  15   2.0000      -0.774896       -21.0860
  16   2.0000      -0.747994       -20.3540
  17   2.0000      -0.717343       -19.5199
  18   2.0000      -0.616292       -16.7702
  19   2.0000      -0.604101       -16.4384
  20   2.0000      -0.592116       -16.1123
  21   2.0000      -0.565311       -15.3829
  22   2.0000      -0.527850       -14.3635
  23   2.0000      -0.502504       -13.6738
  24   2.0000      -0.482285       -13.1236
  25   2.0000      -0.477680       -12.9983
  26   2.0000      -0.455117       -12.3844
  27   2.0000      -0.435935       -11.8624
  28   2.0000      -0.428665       -11.6646
  29   2.0000      -0.418819       -11.3966
  30   2.0000      -0.401014       -10.9121
  31   2.0000      -0.390895       -10.6368
  32   2.0000      -0.371583       -10.1113
  33   2.0000      -0.369640       -10.0584
  34   2.0000      -0.359461        -9.7814
  35   2.0000      -0.350542        -9.5387
  36   2.0000      -0.342277        -9.3138
  37   2.0000      -0.316729        -8.6186
  38   2.0000      -0.306902        -8.3512
  39   2.0000      -0.296024        -8.0552
  40   2.0000      -0.262227        -7.1356
  41   2.0000      -0.247757        -6.7418
  42   2.0000      -0.235846        -6.4177
  43   0.0000       0.074843         2.0366
  44   0.0000       0.096256         2.6192
  45   0.0000       0.101132         2.7519
  46   0.0000       0.110035         2.9942
  47   0.0000       0.114619         3.1189

MULLIKEN ATOMIC CHARGES
-----------------------
   0 C :    0.285704
   1 C :   -0.251492
   2 C :   -0.296853
   3 C :   -0.000764
   4 O :   -0.510363
   5 H :    0.140262
   6 H :    0.138581
   7 H :    0.159826
   8 H :    0.137479
   9 H :    0.161057
  10 H :    0.146867
  11 H :    0.138516
  12 C :   -0.000320
  13 H :    0.124231
  14 C :    0.106196
  15 C :   -0.343698
  16 C :   -0.000892
  17 O :   -0.522661
  18 H :    0.166425
  19 O :   -0.531441
  20 H :    0.143781
  21 H :    0.168073
  22 H :    0.156008
  23 H :    0.141071
  24 H :    0.144406
Sum of atomic charges:   -0.0000000

LOEWDIN ATOMIC CHARGES
----------------------
   0 C :    0.173813
   1 C :   -0.216655
   2 C :   -0.215855
   3 C :   -0.027206
   4 O :   -0.328026
   5 H :    0.097998
   6 H :    0.110300
   7 H :    0.124936
   8 H :    0.111969
   9 H :    0.118639
  10 H :    0.104981
  11 H :    0.100402
  12 C :   -0.039912
  13 H :    0.090638
  14 C :    0.048906
  15 C :   -0.242353
  16 C :   -0.032856
  17 O :   -0.332630
  18 H :    0.122449
  19 O :   -0.325962
  20 H :    0.106587
  21 H :    0.126097
  22 H :    0.122723
  23 H :    0.101080
  24 H :    0.099937

  Mayer bond orders larger than 0.100000
B(  0-C ,  1-C ) :   0.9424 B(  0-C ,  4-O ) :   0.9170 B(  0-C ,  5-H ) :   0.9101
B(  0-C , 19-O ) :   0.8542 B(  1-C ,  2-C ) :   0.9580 B(  1-C ,  6-H ) :   0.9400
B(  1-C ,  7-H ) :   0.9354 B(  2-C ,  3-C ) :   0.9539 B(  2-C ,  8-H ) :   0.9459
B(  2-C ,  9-H ) :   0.9441 B(  3-C ,  4-O ) :   0.8405 B(  3-C , 10-H ) :   0.9356
B(  3-C , 11-H ) :   0.9402 B( 12-C , 13-H ) :   0.9129 B( 12-C , 14-C ) :   0.9185
B( 12-C , 17-O ) :   0.8634 B( 12-C , 18-H ) :   0.9315 B( 14-C , 15-C ) :   0.9434
B( 14-C , 19-O ) :   0.8438 B( 14-C , 20-H ) :   0.9291 B( 15-C , 16-C ) :   0.9384
B( 15-C , 21-H ) :   0.9277 B( 15-C , 22-H ) :   0.9346 B( 16-C , 17-O ) :   0.8607
B( 16-C , 23-H ) :   0.9323 B( 16-C , 24-H ) :   0.9326

FINAL SINGLE POINT ENERGY      -538.429677260469

DIPOLE MOMENT
-------------
                                X             Y             Z
Electronic contribution:     -1.24765      -0.98940      -0.08743
Nuclear contribution   :      1.33386       0.75555       0.20200
                        -----------------------------------------
Total Dipole Moment    :      0.08621      -0.23385       0.11457
                        -----------------------------------------
Magnitude (a.u.)       :      0.27431
Magnitude (Debye)      :      0.69723

Rotational constants in cm-1:     0.080807     0.021428     0.020550
Rotational constants in MHz :  2422.531197   642.384793   616.064534

                             ****ORCA TERMINATED NORMALLY****
TOTAL RUN TIME: 0 days 0 hours 7 minutes 13 seconds 719 msec
