                         Program Version 4.2.0 -  RELEASE  -
|  1> # Test redundant internal optimization
|  2> #
|  3> ! RKS B3LYP  Opt TightSCF SmallPrint
|  4>
|  5> %basis
|  6>         Basis "6-31G"
|  7> end
|  8>
|  9> %geom
| 10> Constraints
| 11> { D 4  0  15  12  315.0   C } # D for Dihedral angle
| 12> { D 0  15  12  16  150.0   C } # D for Dihedral angle
| 13> { D 0  4  3  2   C } # D for Dihedral angle
| 14> { D 4  3  2  1   C } # D for Dihedral angle
| 15> { D 3  2  1  0   C } # D for Dihedral angle
| 16> { D 2  1  0  4   C } # D for Dihedral angle
| 17> { D 1  0  4  3   C } # D for Dihedral angle
| 18> { D 16  20  19  18   C } # D for Dihedral angle
| 19> { D 20  19  18  17   C } # D for Dihedral angle
| 20> { D 19  18  17  16   C } # D for Dihedral angle
| 21> { D 18  17  16  20   C } # D for Dihedral angle
| 22> { D 17  16  20  19   C } # D for Dihedral angle
| 23> { D 15  12  16  20   C } # D for Dihedral angle
| 24> end
| 25> end
| 26>
| 27>
| 28> #%pal
| 29> #nprocs 8
| 30> #end
| 31>
| 32> * xyz 0 1
| 33> C  -21.048   26.222   46.251
| 34> C  -20.361   27.558   45.944
| 35> C  -20.329   28.222   47.341
| 36> C  -20.110   27.022   48.296
| 37> O  -20.473   25.807   47.535
| 38> H  -20.833   25.428   45.533
| 39> H  -19.344   27.382   45.576
| 40> H  -20.898   28.157   45.201
| 41> H  -19.543   28.978   47.434
| 42> H  -21.289   28.710   47.548
| 43> H  -20.733   27.082   49.195
| 44> H  -19.064   26.913   48.597
| 45> C  -23.319   25.255   47.135
| 46> H  -23.611   24.473   46.422
| 47> H  -22.655   24.804   47.885
| 48> O  -22.586   26.394   46.375
| 49> C  -24.596   25.748   47.870
| 50> C  -25.228   24.626   48.701
| 51> C  -24.322   24.617   49.956
| 52> C  -23.970   26.114   50.145
| 53> O  -24.255   26.779   48.855
| 54> H  -25.271   26.208   47.145
| 55> O  -26.687   25.000   49.080
| 56> H  -25.242   23.661   48.182
| 57> H  -24.818   24.191   50.834
| 58> H  -23.418   24.029   49.763
| 59> H  -22.916   26.267   50.402
| 60> H  -24.594   26.598   50.902
| 61> H  -26.696   25.963   49.603
| 62> *
| 63>
| 64>                          ****END OF INPUT****
 Total Charge           Charge          ....    0
 Multiplicity           Mult            ....    1
 Number of Electrons    NEL             ....  102
FINAL SINGLE POINT ENERGY      -652.837442870353
FINAL SINGLE POINT ENERGY      -652.861704483624
FINAL SINGLE POINT ENERGY      -652.866203193823
FINAL SINGLE POINT ENERGY      -652.867020964583
FINAL SINGLE POINT ENERGY      -652.867136460081
FINAL SINGLE POINT ENERGY      -652.867151499946
                    ***********************HURRAY********************

CARTESIAN COORDINATES (ANGSTROEM)
---------------------------------
  C    -21.099512   26.167074   46.251874
  C    -20.588905   27.586132   46.005547
  C    -20.543761   28.155549   47.439537
  C    -20.134061   26.938800   48.294909
  O    -20.412820   25.739897   47.453796
  H    -20.860042   25.421350   45.486920
  H    -19.588652   27.539812   45.559390
  H    -21.250942   28.146679   45.342262
  H    -19.842026   28.989138   47.539904
  H    -21.542786   28.494904   47.725605
  H    -20.708217   26.859225   49.221219
  H    -19.064848   26.911559   48.524594
  C    -23.181665   25.173285   47.134813
  H    -23.509421   24.407537   46.414954
  H    -22.474113   24.719936   47.836921
  O    -22.530475   26.267749   46.436213
  C    -24.391924   25.752458   47.860173
  C    -25.176266   24.728682   48.693458
  C    -24.342609   24.684111   50.000572
  C    -23.856318   26.146154   50.157684
  O    -24.004553   26.786950   48.827559
  H    -25.038104   26.249540   47.130570
  O    -26.536417   25.183061   48.933825
  H    -25.279204   23.754113   48.214652
  H    -24.956133   24.344223   50.838784
  H    -23.498731   23.994389   49.887628
  H    -22.810079   26.208901   50.471679
  H    -24.466974   26.719349   50.862207
  H    -26.519440   26.137441   49.158747

 Multiplicity           Mult            ....    1
 Number of Electrons    NEL             ....  102
 Basis Dimension        Dim             ....  149

ORBITAL ENERGIES
----------------

  NO   OCC          E(Eh)            E(eV)
   0   2.0000     -19.143086      -520.9098
   1   2.0000     -19.142342      -520.8896
   2   2.0000     -19.138724      -520.7912
   3   2.0000     -19.138205      -520.7770
   4   2.0000     -10.276179      -279.6290
   5   2.0000     -10.242524      -278.7133
   6   2.0000     -10.232134      -278.4305
   7   2.0000     -10.231059      -278.4013
   8   2.0000     -10.225459      -278.2489
   9   2.0000     -10.224552      -278.2242
  10   2.0000     -10.189629      -277.2739
  11   2.0000     -10.181120      -277.0424
  12   2.0000     -10.179049      -276.9860
  13   2.0000      -1.053716       -28.6731
  14   2.0000      -1.035161       -28.1682
  15   2.0000      -1.005853       -27.3707
  16   2.0000      -0.989773       -26.9331
  17   2.0000      -0.789493       -21.4832
  18   2.0000      -0.780313       -21.2334
  19   2.0000      -0.765716       -20.8362
  20   2.0000      -0.729149       -19.8411
  21   2.0000      -0.670750       -18.2520
  22   2.0000      -0.604558       -16.4509
  23   2.0000      -0.597320       -16.2539
  24   2.0000      -0.588509       -16.0141
  25   2.0000      -0.578536       -15.7428
  26   2.0000      -0.526201       -14.3186
  27   2.0000      -0.510161       -13.8822
  28   2.0000      -0.489155       -13.3106
  29   2.0000      -0.486763       -13.2455
  30   2.0000      -0.479200       -13.0397
  31   2.0000      -0.458147       -12.4668
  32   2.0000      -0.448333       -12.1998
  33   2.0000      -0.442909       -12.0522
  34   2.0000      -0.417686       -11.3658
  35   2.0000      -0.402613       -10.9557
  36   2.0000      -0.398334       -10.8392
  37   2.0000      -0.394248       -10.7280
  38   2.0000      -0.372846       -10.1457
  39   2.0000      -0.371671       -10.1137
  40   2.0000      -0.359813        -9.7910
  41   2.0000      -0.352725        -9.5981
  42   2.0000      -0.344029        -9.3615
  43   2.0000      -0.332777        -9.0553
  44   2.0000      -0.327769        -8.9191
  45   2.0000      -0.307405        -8.3649
  46   2.0000      -0.294556        -8.0153
  47   2.0000      -0.271122        -7.3776
  48   2.0000      -0.261744        -7.1224
  49   2.0000      -0.255274        -6.9464
  50   2.0000      -0.245006        -6.6669
  51   0.0000       0.058922         1.6034
  52   0.0000       0.086971         2.3666
  53   0.0000       0.092653         2.5212
  54   0.0000       0.101537         2.7630
  55   0.0000       0.104563         2.8453

MULLIKEN ATOMIC CHARGES
-----------------------
   0 C :    0.293690
   1 C :   -0.260916
   2 C :   -0.300991
   3 C :   -0.012952
   4 O :   -0.517070
   5 H :    0.142679
   6 H :    0.140979
   7 H :    0.161067
   8 H :    0.137413
   9 H :    0.182160
  10 H :    0.147927
  11 H :    0.143234
  12 C :   -0.008773
  13 H :    0.125622
  14 H :    0.161306
  15 O :   -0.521984
  16 C :    0.068474
  17 C :    0.075764
  18 C :   -0.296777
  19 C :   -0.033934
  20 O :   -0.514523
  21 H :    0.168761
  22 O :   -0.600314
  23 H :    0.151605
  24 H :    0.161409
  25 H :    0.149257
  26 H :    0.145339
  27 H :    0.146716
  28 H :    0.364833
Sum of atomic charges:   -0.0000000

LOEWDIN ATOMIC CHARGES
----------------------
   0 C :    0.177095
   1 C :   -0.214052
   2 C :   -0.217410
   3 C :   -0.028158
   4 O :   -0.329726
   5 H :    0.095542
   6 H :    0.111666
   7 H :    0.126469
   8 H :    0.112295
   9 H :    0.129217
  10 H :    0.103454
  11 H :    0.102773
  12 C :   -0.048296
  13 H :    0.095180
  14 H :    0.110718
  15 O :   -0.324624
  16 C :    0.017623
  17 C :    0.035612
  18 C :   -0.241086
  19 C :   -0.039612
  20 O :   -0.325219
  21 H :    0.119898
  22 O :   -0.413741
  23 H :    0.115670
  24 H :    0.126188
  25 H :    0.115398
  26 H :    0.101486
  27 H :    0.102317
  28 H :    0.283324

  Mayer bond orders larger than 0.100000
B(  0-C ,  1-C ) :   0.9500 B(  0-C ,  4-O ) :   0.8995 B(  0-C ,  5-H ) :   0.9212
B(  0-C , 15-O ) :   0.8557 B(  1-C ,  2-C ) :   0.9550 B(  1-C ,  6-H ) :   0.9397
B(  1-C ,  7-H ) :   0.9352 B(  2-C ,  3-C ) :   0.9580 B(  2-C ,  8-H ) :   0.9446
B(  2-C ,  9-H ) :   0.9357 B(  3-C ,  4-O ) :   0.8301 B(  3-C , 10-H ) :   0.9307
B(  3-C , 11-H ) :   0.9404 B( 12-C , 13-H ) :   0.9156 B( 12-C , 14-H ) :   0.9052
B( 12-C , 15-O ) :   0.8358 B( 12-C , 16-C ) :   0.9009 B( 16-C , 17-C ) :   0.9011
B( 16-C , 20-O ) :   0.8590 B( 16-C , 21-H ) :   0.9241 B( 17-C , 18-C ) :   0.9106
B( 17-C , 22-O ) :   0.8958 B( 17-C , 23-H ) :   0.9334 B( 18-C , 19-C ) :   0.9411
B( 18-C , 24-H ) :   0.9378 B( 18-C , 25-H ) :   0.9333 B( 19-C , 20-O ) :   0.8540
B( 19-C , 26-H ) :   0.9296 B( 19-C , 27-H ) :   0.9372 B( 22-O , 28-H ) :   0.7942

FINAL SINGLE POINT ENERGY      -652.867153734226

DIPOLE MOMENT
-------------
                                X             Y             Z
Electronic contribution:     -3.29731      -1.14678      -2.11447
Nuclear contribution   :      3.98663       1.23216       2.49682
                        -----------------------------------------
Total Dipole Moment    :      0.68932       0.08538       0.38235
                        -----------------------------------------
Magnitude (a.u.)       :      0.79287
Magnitude (Debye)      :      2.01531

Rotational constants in cm-1:     0.056514     0.014697     0.013715
Rotational constants in MHz :  1694.249898   440.595038   411.153283

                             ****ORCA TERMINATED NORMALLY****
TOTAL RUN TIME: 0 days 0 hours 23 minutes 48 seconds 878 msec
