                         Program Version 4.2.0 -  RELEASE  -
|  1> # Test redundant internal optimization
|  2> #
|  3> ! RKS B3LYP  Opt TightSCF SmallPrint
|  4>
|  5> %basis
|  6>         Basis "6-31G"
|  7> end
|  8>
|  9> %geom
| 10> Constraints
| 11> { D 4  0  15  12  330.0   C } # D for Dihedral angle
| 12> { D 0  15  12  16  270.0   C } # D for Dihedral angle
| 13> { D 0  4  3  2   C } # D for Dihedral angle
| 14> { D 4  3  2  1   C } # D for Dihedral angle
| 15> { D 3  2  1  0   C } # D for Dihedral angle
| 16> { D 2  1  0  4   C } # D for Dihedral angle
| 17> { D 1  0  4  3   C } # D for Dihedral angle
| 18> { D 16  20  19  18   C } # D for Dihedral angle
| 19> { D 20  19  18  17   C } # D for Dihedral angle
| 20> { D 19  18  17  16   C } # D for Dihedral angle
| 21> { D 18  17  16  20   C } # D for Dihedral angle
| 22> { D 17  16  20  19   C } # D for Dihedral angle
| 23> { D 15  12  16  20   C } # D for Dihedral angle
| 24> end
| 25> end
| 26>
| 27>
| 28> #%pal
| 29> #nprocs 8
| 30> #end
| 31>
| 32> * xyz 0 1
| 33> C  -21.048   26.222   46.251
| 34> C  -20.361   27.558   45.944
| 35> C  -20.329   28.222   47.341
| 36> C  -20.110   27.022   48.296
| 37> O  -20.473   25.807   47.535
| 38> H  -20.833   25.428   45.533
| 39> H  -19.344   27.382   45.576
| 40> H  -20.898   28.157   45.201
| 41> H  -19.543   28.978   47.434
| 42> H  -21.289   28.710   47.548
| 43> H  -20.733   27.082   49.195
| 44> H  -19.064   26.913   48.597
| 45> C  -23.271   25.476   47.424
| 46> H  -22.568   25.273   48.241
| 47> H  -24.155   25.969   47.847
| 48> O  -22.586   26.394   46.375
| 49> C  -23.729   24.117   46.825
| 50> C  -24.648   24.324   45.615
| 51> C  -23.626   24.647   44.498
| 52> C  -22.409   23.762   44.867
| 53> O  -22.581   23.381   46.286
| 54> H  -24.158   23.503   47.618
| 55> H  -25.186   23.396   45.390
| 56> O  -25.689   25.456   45.825
| 57> H  -24.010   24.432   43.496
| 58> H  -23.355   25.709   44.532
| 59> H  -21.456   24.288   44.748
| 60> H  -22.376   22.835   44.287
| 61> H  -25.171   26.395   46.052
| 62> *
| 63>
| 64>                          ****END OF INPUT****
 Total Charge           Charge          ....    0
 Multiplicity           Mult            ....    1
 Number of Electrons    NEL             ....  102
FINAL SINGLE POINT ENERGY      -652.826124734520
FINAL SINGLE POINT ENERGY      -652.851478632311
FINAL SINGLE POINT ENERGY      -652.860097865866
FINAL SINGLE POINT ENERGY      -652.862933959377
FINAL SINGLE POINT ENERGY      -652.863293586942
FINAL SINGLE POINT ENERGY      -652.863355371420
FINAL SINGLE POINT ENERGY      -652.863361529007
                    ***********************HURRAY********************

CARTESIAN COORDINATES (ANGSTROEM)
---------------------------------
  C    -20.987307   26.298246   46.308766
  C    -20.400854   27.688623   46.069385
  C    -20.353054   28.262071   47.503575
  C    -20.021565   27.027912   48.367901
  O    -20.347919   25.844375   47.518979
  H    -20.757705   25.548678   45.550370
  H    -19.394291   27.586977   45.647770
  H    -21.014173   28.283854   45.389228
  H    -19.609104   29.056900   47.613848
  H    -21.333382   28.668939   47.768803
  H    -20.608644   26.972049   49.288266
  H    -18.958764   26.946868   48.611571
  C    -23.140539   25.563827   47.367739
  H    -22.482080   25.348115   48.213709
  H    -24.005226   26.137565   47.715881
  O    -22.436381   26.442409   46.433889
  C    -23.636892   24.240937   46.780826
  C    -24.661257   24.367822   45.638677
  C    -23.735378   24.477746   44.387732
  C    -22.553502   23.556688   44.760599
  O    -22.607543   23.366612   46.232427
  H    -24.073929   23.689175   47.623491
  H    -25.280911   23.470021   45.590922
  O    -25.597864   25.460434   45.787398
  H    -24.239845   24.167525   43.468520
  H    -23.408334   25.516548   44.283710
  H    -21.580692   23.974218   44.484923
  H    -22.642488   22.561826   44.313186
  H    -25.129377   26.311042   45.654908

 Multiplicity           Mult            ....    1
 Number of Electrons    NEL             ....  102
 Basis Dimension        Dim             ....  149

ORBITAL ENERGIES
----------------

  NO   OCC          E(Eh)            E(eV)
   0   2.0000     -19.149273      -521.0782
   1   2.0000     -19.146191      -520.9943
   2   2.0000     -19.138405      -520.7825
   3   2.0000     -19.135221      -520.6958
   4   2.0000     -10.281035      -279.7612
   5   2.0000     -10.234719      -278.5009
   6   2.0000     -10.231348      -278.4091
   7   2.0000     -10.225588      -278.2524
   8   2.0000     -10.224788      -278.2306
   9   2.0000     -10.223514      -278.1960
  10   2.0000     -10.190220      -277.2900
  11   2.0000     -10.188702      -277.2487
  12   2.0000     -10.181671      -277.0574
  13   2.0000      -1.056685       -28.7539
  14   2.0000      -1.026321       -27.9276
  15   2.0000      -1.009005       -27.4564
  16   2.0000      -0.992894       -27.0180
  17   2.0000      -0.792979       -21.5781
  18   2.0000      -0.771140       -20.9838
  19   2.0000      -0.765714       -20.8361
  20   2.0000      -0.733781       -19.9672
  21   2.0000      -0.675711       -18.3870
  22   2.0000      -0.605040       -16.4640
  23   2.0000      -0.602475       -16.3942
  24   2.0000      -0.599336       -16.3088
  25   2.0000      -0.559847       -15.2342
  26   2.0000      -0.528233       -14.3740
  27   2.0000      -0.508384       -13.8338
  28   2.0000      -0.496361       -13.5067
  29   2.0000      -0.489430       -13.3181
  30   2.0000      -0.467107       -12.7106
  31   2.0000      -0.461967       -12.5708
  32   2.0000      -0.437293       -11.8993
  33   2.0000      -0.435468       -11.8497
  34   2.0000      -0.423234       -11.5168
  35   2.0000      -0.412083       -11.2134
  36   2.0000      -0.403583       -10.9821
  37   2.0000      -0.390440       -10.6244
  38   2.0000      -0.378552       -10.3009
  39   2.0000      -0.369637       -10.0583
  40   2.0000      -0.361030        -9.8241
  41   2.0000      -0.355757        -9.6806
  42   2.0000      -0.348118        -9.4728
  43   2.0000      -0.334321        -9.0973
  44   2.0000      -0.324924        -8.8416
  45   2.0000      -0.307753        -8.3744
  46   2.0000      -0.299124        -8.1396
  47   2.0000      -0.269793        -7.3414
  48   2.0000      -0.265718        -7.2305
  49   2.0000      -0.259400        -7.0586
  50   2.0000      -0.234083        -6.3697
  51   0.0000       0.069755         1.8981
  52   0.0000       0.079953         2.1756
  53   0.0000       0.093451         2.5429
  54   0.0000       0.098167         2.6713
  55   0.0000       0.104912         2.8548

MULLIKEN ATOMIC CHARGES
-----------------------
   0 C :    0.301164
   1 C :   -0.261572
   2 C :   -0.299152
   3 C :   -0.015271
   4 O :   -0.502767
   5 H :    0.156338
   6 H :    0.146148
   7 H :    0.155704
   8 H :    0.145119
   9 H :    0.158227
  10 H :    0.146716
  11 H :    0.150578
  12 C :   -0.049317
  13 H :    0.173964
  14 H :    0.147715
  15 O :   -0.550347
  16 C :    0.096316
  17 C :    0.093439
  18 C :   -0.311733
  19 C :   -0.010084
  20 O :   -0.516471
  21 H :    0.146384
  22 H :    0.160759
  23 O :   -0.609421
  24 H :    0.144187
  25 H :    0.155982
  26 H :    0.134760
  27 H :    0.145983
  28 H :    0.366656
Sum of atomic charges:   -0.0000000

LOEWDIN ATOMIC CHARGES
----------------------
   0 C :    0.180650
   1 C :   -0.217298
   2 C :   -0.216921
   3 C :   -0.030687
   4 O :   -0.312246
   5 H :    0.100430
   6 H :    0.114398
   7 H :    0.123558
   8 H :    0.115866
   9 H :    0.117142
  10 H :    0.104287
  11 H :    0.107134
  12 C :   -0.057514
  13 H :    0.119494
  14 H :    0.112463
  15 O :   -0.350553
  16 C :    0.009330
  17 C :    0.036873
  18 C :   -0.241817
  19 C :   -0.027417
  20 O :   -0.319571
  21 H :    0.113746
  22 H :    0.115568
  23 O :   -0.411298
  24 H :    0.115952
  25 H :    0.116504
  26 H :    0.094909
  27 H :    0.103292
  28 H :    0.283727

  Mayer bond orders larger than 0.100000
B(  0-C ,  1-C ) :   0.9417 B(  0-C ,  4-O ) :   0.9165 B(  0-C ,  5-H ) :   0.9100
B(  0-C , 15-O ) :   0.8263 B(  1-C ,  2-C ) :   0.9541 B(  1-C ,  6-H ) :   0.9375
B(  1-C ,  7-H ) :   0.9359 B(  2-C ,  3-C ) :   0.9542 B(  2-C ,  8-H ) :   0.9448
B(  2-C ,  9-H ) :   0.9450 B(  3-C ,  4-O ) :   0.8310 B(  3-C , 10-H ) :   0.9346
B(  3-C , 11-H ) :   0.9404 B( 12-C , 13-H ) :   0.9115 B( 12-C , 14-H ) :   0.9206
B( 12-C , 15-O ) :   0.8488 B( 12-C , 16-C ) :   0.8947 B( 16-C , 17-C ) :   0.8863
B( 16-C , 20-O ) :   0.8761 B( 16-C , 21-H ) :   0.9223 B( 17-C , 18-C ) :   0.9282
B( 17-C , 22-H ) :   0.9369 B( 17-C , 23-O ) :   0.9005 B( 18-C , 19-C ) :   0.9426
B( 18-C , 24-H ) :   0.9423 B( 18-C , 25-H ) :   0.9318 B( 19-C , 20-O ) :   0.8430
B( 19-C , 26-H ) :   0.9219 B( 19-C , 27-H ) :   0.9383 B( 23-O , 28-H ) :   0.7918

FINAL SINGLE POINT ENERGY      -652.863360939695

DIPOLE MOMENT
-------------
                                X             Y             Z
Electronic contribution:     -2.42344      -3.55588       0.82045
Nuclear contribution   :      3.05873       4.56511      -1.08558
                        -----------------------------------------
Total Dipole Moment    :      0.63530       1.00924      -0.26513
                        -----------------------------------------
Magnitude (a.u.)       :      1.22166
Magnitude (Debye)      :      3.10521

Rotational constants in cm-1:     0.050990     0.015867     0.015017
Rotational constants in MHz :  1528.639837   475.694909   450.184923

                             ****ORCA TERMINATED NORMALLY****
TOTAL RUN TIME: 0 days 0 hours 47 minutes 5 seconds 964 msec
