                         Program Version 4.2.1 -  RELEASE  -
|  1> # Test redundant internal optimization
|  2> #
|  3> ! RKS B3LYP  Opt TightSCF SmallPrint
|  4>
|  5> %basis
|  6>         Basis "6-31G"
|  7> end
|  8>
|  9> %geom
| 10> Constraints
| 11> { D 4  0  19  14  195.0   C } # D for Dihedral angle
| 12> { D 0  19  14  12  315.0   C } # D for Dihedral angle
| 13> { D 0  4  3  2   C } # D for Dihedral angle
| 14> { D 4  3  2  1   C } # D for Dihedral angle
| 15> { D 3  2  1  0   C } # D for Dihedral angle
| 16> { D 2  1  0  4   C } # D for Dihedral angle
| 17> { D 1  0  4  3   C } # D for Dihedral angle
| 18> { D 14  15  16  17   C } # D for Dihedral angle
| 19> { D 15  16  17  12   C } # D for Dihedral angle
| 20> { D 16  17  12  14   C } # D for Dihedral angle
| 21> { D 17  12  14  15   C } # D for Dihedral angle
| 22> { D 12  14  15  16   C } # D for Dihedral angle
| 23> end
| 24> end
| 25>
| 26>
| 27> #%pal
| 28> #nprocs 8
| 29> #end
| 30>
| 31> * xyz 0 1
| 32> C  -21.048   26.222   46.251
| 33> C  -20.361   27.558   45.944
| 34> C  -20.329   28.222   47.341
| 35> C  -20.110   27.022   48.296
| 36> O  -20.473   25.807   47.535
| 37> H  -20.833   25.428   45.533
| 38> H  -19.344   27.382   45.576
| 39> H  -20.898   28.157   45.201
| 40> H  -19.543   28.978   47.434
| 41> H  -21.289   28.710   47.548
| 42> H  -20.733   27.082   49.195
| 43> H  -19.064   26.913   48.597
| 44> C  -22.419   27.388   44.151
| 45> H  -23.058   27.688   43.306
| 46> C  -23.163   26.451   45.109
| 47> C  -23.075   25.101   44.360
| 48> C  -21.683   25.164   43.683
| 49> O  -21.284   26.589   43.674
| 50> H  -22.005   28.281   44.621
| 51> O  -22.472   26.381   46.366
| 52> H  -24.196   26.764   45.299
| 53> H  -23.177   24.238   45.026
| 54> H  -23.869   25.035   43.605
| 55> H  -21.698   24.789   42.654
| 56> H  -20.919   24.619   44.247
| 57> *
| 58>
| 59>                          ****END OF INPUT****
 Total Charge           Charge          ....    0
 Multiplicity           Mult            ....    1
 Number of Electrons    NEL             ....   86
FINAL SINGLE POINT ENERGY      -538.382947849883
FINAL SINGLE POINT ENERGY      -538.422989801551
FINAL SINGLE POINT ENERGY      -538.425895954508
FINAL SINGLE POINT ENERGY      -538.426386197506
FINAL SINGLE POINT ENERGY      -538.426469686475
FINAL SINGLE POINT ENERGY      -538.426482540767
FINAL SINGLE POINT ENERGY      -538.426482614679
                    ***********************HURRAY********************

CARTESIAN COORDINATES (ANGSTROEM)
---------------------------------
  C    -20.788606   26.256432   46.306587
  C    -20.067160   27.589384   46.109521
  C    -20.285297   28.281922   47.479933
  C    -20.232692   27.096358   48.466702
  O    -20.453241   25.879643   47.649941
  H    -20.454473   25.454095   45.646595
  H    -19.002002   27.378419   45.952283
  H    -20.417904   28.170211   45.259468
  H    -19.525496   29.039353   47.693804
  H    -21.269478   28.759700   47.502778
  H    -21.005511   27.142886   49.238723
  H    -19.252898   26.983143   48.941234
  C    -22.565952   27.340463   43.953361
  H    -23.404334   27.582471   43.283768
  C    -23.052942   26.418415   45.074123
  C    -23.110132   25.057650   44.351644
  C    -21.915459   25.114576   43.371646
  O    -21.552610   26.552068   43.241055
  H    -22.105614   28.266982   44.290955
  O    -22.250210   26.365517   46.293346
  H    -24.034503   26.719906   45.448601
  H    -23.045080   24.235520   45.068402
  H    -24.056875   24.967318   43.807270
  H    -22.162344   24.729092   42.377031
  H    -21.032187   24.587475   43.743228

 Multiplicity           Mult            ....    1
 Number of Electrons    NEL             ....   86
 Basis Dimension        Dim             ....  127

ORBITAL ENERGIES
----------------

  NO   OCC          E(Eh)            E(eV)
   0   2.0000     -19.140254      -520.8328
   1   2.0000     -19.134429      -520.6743
   2   2.0000     -19.134163      -520.6671
   3   2.0000     -10.275038      -279.5980
   4   2.0000     -10.242630      -278.7161
   5   2.0000     -10.229484      -278.3584
   6   2.0000     -10.228687      -278.3367
   7   2.0000     -10.220025      -278.1010
   8   2.0000     -10.187299      -277.2105
   9   2.0000     -10.181710      -277.0584
  10   2.0000     -10.179487      -276.9979
  11   2.0000      -1.047498       -28.5039
  12   2.0000      -1.020119       -27.7589
  13   2.0000      -0.983514       -26.7628
  14   2.0000      -0.786862       -21.4116
  15   2.0000      -0.777431       -21.1550
  16   2.0000      -0.745296       -20.2805
  17   2.0000      -0.723480       -19.6869
  18   2.0000      -0.617738       -16.8095
  19   2.0000      -0.605591       -16.4790
  20   2.0000      -0.593780       -16.1576
  21   2.0000      -0.565904       -15.3990
  22   2.0000      -0.518556       -14.1106
  23   2.0000      -0.504793       -13.7361
  24   2.0000      -0.485761       -13.2182
  25   2.0000      -0.480464       -13.0741
  26   2.0000      -0.451767       -12.2932
  27   2.0000      -0.442097       -12.0301
  28   2.0000      -0.433748       -11.8029
  29   2.0000      -0.413352       -11.2479
  30   2.0000      -0.400976       -10.9111
  31   2.0000      -0.394776       -10.7424
  32   2.0000      -0.378201       -10.2914
  33   2.0000      -0.365682        -9.9507
  34   2.0000      -0.360150        -9.8002
  35   2.0000      -0.349795        -9.5184
  36   2.0000      -0.345719        -9.4075
  37   2.0000      -0.320141        -8.7115
  38   2.0000      -0.304239        -8.2788
  39   2.0000      -0.289795        -7.8857
  40   2.0000      -0.261369        -7.1122
  41   2.0000      -0.251480        -6.8431
  42   2.0000      -0.237763        -6.4699
  43   0.0000       0.073638         2.0038
  44   0.0000       0.089968         2.4482
  45   0.0000       0.100535         2.7357
  46   0.0000       0.103067         2.8046
  47   0.0000       0.107917         2.9366

MULLIKEN ATOMIC CHARGES
-----------------------
   0 C :    0.302018
   1 C :   -0.269742
   2 C :   -0.300910
   3 C :    0.000679
   4 O :   -0.502750
   5 H :    0.147212
   6 H :    0.147444
   7 H :    0.154467
   8 H :    0.140051
   9 H :    0.153764
  10 H :    0.151368
  11 H :    0.139999
  12 C :   -0.027060
  13 H :    0.135541
  14 C :    0.083391
  15 C :   -0.292502
  16 C :   -0.023420
  17 O :   -0.529692
  18 H :    0.154852
  19 O :   -0.521639
  20 H :    0.150246
  21 H :    0.169144
  22 H :    0.142090
  23 H :    0.144286
  24 H :    0.151164
Sum of atomic charges:   -0.0000000

LOEWDIN ATOMIC CHARGES
----------------------
   0 C :    0.184668
   1 C :   -0.225932
   2 C :   -0.219049
   3 C :   -0.025791
   4 O :   -0.305214
   5 H :    0.099520
   6 H :    0.116590
   7 H :    0.119209
   8 H :    0.113324
   9 H :    0.114473
  10 H :    0.107525
  11 H :    0.101008
  12 C :   -0.052900
  13 H :    0.098941
  14 C :    0.041903
  15 C :   -0.235575
  16 C :   -0.035878
  17 O :   -0.339873
  18 H :    0.112440
  19 O :   -0.333963
  20 H :    0.115152
  21 H :    0.129879
  22 H :    0.114670
  23 H :    0.102732
  24 H :    0.102139

  Mayer bond orders larger than 0.100000
B(  0-C ,  1-C ) :   0.9315 B(  0-C ,  4-O ) :   0.9274 B(  0-C ,  5-H ) :   0.9127
B(  0-C , 19-O ) :   0.8233 B(  1-C ,  2-C ) :   0.9499 B(  1-C ,  6-H ) :   0.9334
B(  1-C ,  7-H ) :   0.9258 B(  2-C ,  3-C ) :   0.9537 B(  2-C ,  8-H ) :   0.9450
B(  2-C ,  9-H ) :   0.9450 B(  3-C ,  4-O ) :   0.8366 B(  3-C , 10-H ) :   0.9352
B(  3-C , 11-H ) :   0.9398 B( 12-C , 13-H ) :   0.9139 B( 12-C , 14-C ) :   0.9155
B( 12-C , 17-O ) :   0.8543 B( 12-C , 18-H ) :   0.9238 B( 14-C , 15-C ) :   0.9218
B( 14-C , 19-O ) :   0.8834 B( 14-C , 20-H ) :   0.9358 B( 15-C , 16-C ) :   0.9475
B( 15-C , 21-H ) :   0.9363 B( 15-C , 22-H ) :   0.9396 B( 16-C , 17-O ) :   0.8428
B( 16-C , 23-H ) :   0.9344 B( 16-C , 24-H ) :   0.9303

FINAL SINGLE POINT ENERGY      -538.426483225961

DIPOLE MOMENT
-------------
                                X             Y             Z
Electronic contribution:     -0.27527      -1.89278       0.62148
Nuclear contribution   :     -0.10569       2.34715      -0.94487
                        -----------------------------------------
Total Dipole Moment    :     -0.38097       0.45437      -0.32339
                        -----------------------------------------
Magnitude (a.u.)       :      0.67541
Magnitude (Debye)      :      1.71675

Rotational constants in cm-1:     0.077586     0.023535     0.022021
Rotational constants in MHz :  2325.971800   705.555198   660.185737

                             ****ORCA TERMINATED NORMALLY****
TOTAL RUN TIME: 0 days 0 hours 8 minutes 20 seconds 549 msec
