                         Program Version 4.2.0 -  RELEASE  -
|  1> # Test redundant internal optimization
|  2> #
|  3> ! RKS B3LYP  Opt TightSCF SmallPrint
|  4>
|  5> %basis
|  6>         Basis "6-31G"
|  7> end
|  8>
|  9> %geom
| 10> Constraints
| 11> { D 4  0  15  12  120.0   C } # D for Dihedral angle
| 12> { D 0  15  12  16  165.0   C } # D for Dihedral angle
| 13> { D 0  4  3  2   C } # D for Dihedral angle
| 14> { D 4  3  2  1   C } # D for Dihedral angle
| 15> { D 3  2  1  0   C } # D for Dihedral angle
| 16> { D 2  1  0  4   C } # D for Dihedral angle
| 17> { D 1  0  4  3   C } # D for Dihedral angle
| 18> { D 16  20  19  18   C } # D for Dihedral angle
| 19> { D 20  19  18  17   C } # D for Dihedral angle
| 20> { D 19  18  17  16   C } # D for Dihedral angle
| 21> { D 18  17  16  20   C } # D for Dihedral angle
| 22> { D 17  16  20  19   C } # D for Dihedral angle
| 23> { D 15  12  16  20   C } # D for Dihedral angle
| 24> end
| 25> end
| 26>
| 27>
| 28> #%pal
| 29> #nprocs 8
| 30> #end
| 31>
| 32> * xyz 0 1
| 33> C  -21.048   26.222   46.251
| 34> C  -20.361   27.558   45.944
| 35> C  -20.329   28.222   47.341
| 36> C  -20.110   27.022   48.296
| 37> O  -20.473   25.807   47.535
| 38> H  -20.833   25.428   45.533
| 39> H  -19.344   27.382   45.576
| 40> H  -20.898   28.157   45.201
| 41> H  -19.543   28.978   47.434
| 42> H  -21.289   28.710   47.548
| 43> H  -20.733   27.082   49.195
| 44> H  -19.064   26.913   48.597
| 45> C  -23.119   27.818   46.058
| 46> H  -22.879   28.489   46.892
| 47> H  -22.642   28.214   45.152
| 48> O  -22.586   26.394   46.375
| 49> C  -24.656   27.848   45.833
| 50> C  -25.413   27.470   47.112
| 51> C  -25.349   28.791   47.916
| 52> C  -25.444   29.877   46.815
| 53> O  -25.105   29.213   45.539
| 54> H  -24.903   27.235   44.964
| 55> O  -26.883   27.105   46.772
| 56> H  -24.963   26.626   47.645
| 57> H  -26.150   28.876   48.656
| 58> H  -24.393   28.861   48.448
| 59> H  -24.750   30.707   46.984
| 60> H  -26.456   30.278   46.711
| 61> H  -27.356   27.937   46.237
| 62> *
| 63>
| 64>                          ****END OF INPUT****
 Total Charge           Charge          ....    0
 Multiplicity           Mult            ....    1
 Number of Electrons    NEL             ....  102
FINAL SINGLE POINT ENERGY      -652.822418653416
FINAL SINGLE POINT ENERGY      -652.846991522251
FINAL SINGLE POINT ENERGY      -652.854267405166
FINAL SINGLE POINT ENERGY      -652.856355888989
FINAL SINGLE POINT ENERGY      -652.856651424747
FINAL SINGLE POINT ENERGY      -652.856697726286
FINAL SINGLE POINT ENERGY      -652.856704121229
                    ***********************HURRAY********************

CARTESIAN COORDINATES (ANGSTROEM)
---------------------------------
  C    -21.230038   26.352543   46.301535
  C    -20.227959   27.447196   45.921614
  C    -20.008248   28.170994   47.278681
  C    -20.095061   27.009018   48.296699
  O    -20.769667   25.895166   47.588635
  H    -21.204466   25.473860   45.654946
  H    -19.303113   26.961971   45.592192
  H    -20.563714   28.111706   45.121959
  H    -19.043968   28.686336   47.321160
  H    -20.790950   28.915118   47.456121
  H    -20.670734   27.263072   49.191169
  H    -19.110103   26.641079   48.597628
  C    -23.120489   28.063045   46.065168
  H    -22.890879   28.768504   46.875470
  H    -22.695605   28.459723   45.135681
  O    -22.632728   26.728981   46.366294
  C    -24.632136   27.928782   45.883925
  C    -25.401704   27.460830   47.127454
  C    -25.508750   28.775086   47.940743
  C    -25.667569   29.859434   46.846212
  O    -25.204867   29.244218   45.575578
  H    -24.836490   27.275210   45.031838
  O    -26.713738   26.952975   46.756593
  H    -24.902904   26.650623   47.655738
  H    -26.358364   28.735324   48.627510
  H    -24.599088   28.932368   48.530844
  H    -25.072656   30.756493   47.042969
  H    -26.709615   30.157637   46.697311
  H    -27.106396   27.542708   46.078333

 Multiplicity           Mult            ....    1
 Number of Electrons    NEL             ....  102
 Basis Dimension        Dim             ....  149

ORBITAL ENERGIES
----------------

  NO   OCC          E(Eh)            E(eV)
   0   2.0000     -19.145361      -520.9718
   1   2.0000     -19.145020      -520.9625
   2   2.0000     -19.141300      -520.8613
   3   2.0000     -19.132282      -520.6159
   4   2.0000     -10.283145      -279.8186
   5   2.0000     -10.236244      -278.5424
   6   2.0000     -10.232875      -278.4507
   7   2.0000     -10.232699      -278.4459
   8   2.0000     -10.231827      -278.4222
   9   2.0000     -10.230352      -278.3820
  10   2.0000     -10.197850      -277.4976
  11   2.0000     -10.197502      -277.4881
  12   2.0000     -10.186629      -277.1923
  13   2.0000      -1.053498       -28.6671
  14   2.0000      -1.035316       -28.1724
  15   2.0000      -1.002470       -27.2786
  16   2.0000      -0.997508       -27.1436
  17   2.0000      -0.794080       -21.6080
  18   2.0000      -0.781212       -21.2578
  19   2.0000      -0.770499       -20.9664
  20   2.0000      -0.734072       -19.9751
  21   2.0000      -0.680717       -18.5233
  22   2.0000      -0.608434       -16.5563
  23   2.0000      -0.602992       -16.4082
  24   2.0000      -0.597146       -16.2492
  25   2.0000      -0.575927       -15.6718
  26   2.0000      -0.521752       -14.1976
  27   2.0000      -0.517727       -14.0881
  28   2.0000      -0.505767       -13.7626
  29   2.0000      -0.492724       -13.4077
  30   2.0000      -0.474084       -12.9005
  31   2.0000      -0.457738       -12.4557
  32   2.0000      -0.452280       -12.3072
  33   2.0000      -0.439696       -11.9647
  34   2.0000      -0.431595       -11.7443
  35   2.0000      -0.413810       -11.2603
  36   2.0000      -0.409342       -11.1388
  37   2.0000      -0.391138       -10.6434
  38   2.0000      -0.386352       -10.5132
  39   2.0000      -0.368509       -10.0276
  40   2.0000      -0.364486        -9.9182
  41   2.0000      -0.361505        -9.8370
  42   2.0000      -0.353037        -9.6066
  43   2.0000      -0.331781        -9.0282
  44   2.0000      -0.317293        -8.6340
  45   2.0000      -0.305791        -8.3210
  46   2.0000      -0.295956        -8.0534
  47   2.0000      -0.270481        -7.3602
  48   2.0000      -0.269273        -7.3273
  49   2.0000      -0.255744        -6.9591
  50   2.0000      -0.245570        -6.6823
  51   0.0000       0.061914         1.6848
  52   0.0000       0.065170         1.7734
  53   0.0000       0.089913         2.4466
  54   0.0000       0.096454         2.6246
  55   0.0000       0.101137         2.7521

MULLIKEN ATOMIC CHARGES
-----------------------
   0 C :    0.317967
   1 C :   -0.299669
   2 C :   -0.309746
   3 C :   -0.004242
   4 O :   -0.494399
   5 H :    0.162156
   6 H :    0.158651
   7 H :    0.149790
   8 H :    0.147534
   9 H :    0.149805
  10 H :    0.147005
  11 H :    0.147019
  12 C :    0.000045
  13 H :    0.128561
  14 H :    0.141574
  15 O :   -0.536319
  16 C :    0.055008
  17 C :    0.089416
  18 C :   -0.299151
  19 C :   -0.031014
  20 O :   -0.529267
  21 H :    0.167366
  22 O :   -0.602484
  23 H :    0.185723
  24 H :    0.163936
  25 H :    0.142814
  26 H :    0.143421
  27 H :    0.147074
  28 H :    0.361427
Sum of atomic charges:    0.0000000

LOEWDIN ATOMIC CHARGES
----------------------
   0 C :    0.181715
   1 C :   -0.231695
   2 C :   -0.220428
   3 C :   -0.030338
   4 O :   -0.312350
   5 H :    0.109038
   6 H :    0.124096
   7 H :    0.117148
   8 H :    0.117261
   9 H :    0.109201
  10 H :    0.104978
  11 H :    0.104943
  12 C :   -0.037386
  13 H :    0.088783
  14 H :    0.101469
  15 O :   -0.334002
  16 C :    0.018497
  17 C :    0.039453
  18 C :   -0.242188
  19 C :   -0.038747
  20 O :   -0.332657
  21 H :    0.119179
  22 O :   -0.414209
  23 H :    0.132244
  24 H :    0.127487
  25 H :    0.112374
  26 H :    0.102341
  27 H :    0.103262
  28 H :    0.280531

  Mayer bond orders larger than 0.100000
B(  0-C ,  1-C ) :   0.9343 B(  0-C ,  4-O ) :   0.9189 B(  0-C ,  5-H ) :   0.9312
B(  0-C , 15-O ) :   0.8607 B(  1-C ,  2-C ) :   0.9494 B(  1-C ,  6-H ) :   0.9337
B(  1-C ,  7-H ) :   0.9286 B(  2-C ,  3-C ) :   0.9495 B(  2-C ,  8-H ) :   0.9453
B(  2-C ,  9-H ) :   0.9411 B(  3-C ,  4-O ) :   0.8457 B(  3-C , 10-H ) :   0.9347
B(  3-C , 11-H ) :   0.9390 B( 12-C , 13-H ) :   0.9099 B( 12-C , 14-H ) :   0.9115
B( 12-C , 15-O ) :   0.8305 B( 12-C , 16-C ) :   0.8989 B( 16-C , 17-C ) :   0.9146
B( 16-C , 20-O ) :   0.8431 B( 16-C , 21-H ) :   0.9251 B( 17-C , 18-C ) :   0.9107
B( 17-C , 22-O ) :   0.8882 B( 17-C , 23-H ) :   0.9212 B( 18-C , 19-C ) :   0.9420
B( 18-C , 24-H ) :   0.9375 B( 18-C , 25-H ) :   0.9350 B( 19-C , 20-O ) :   0.8430
B( 19-C , 26-H ) :   0.9359 B( 19-C , 27-H ) :   0.9382 B( 22-O , 28-H ) :   0.7961

FINAL SINGLE POINT ENERGY      -652.856705673909

DIPOLE MOMENT
-------------
                                X             Y             Z
Electronic contribution:     -3.91997      -4.61588      -2.19973
Nuclear contribution   :      4.97518       6.06392       2.26433
                        -----------------------------------------
Total Dipole Moment    :      1.05521       1.44804       0.06460
                        -----------------------------------------
Magnitude (a.u.)       :      1.79289
Magnitude (Debye)      :      4.55717

Rotational constants in cm-1:     0.053175     0.012967     0.012470
Rotational constants in MHz :  1594.142870   388.742219   373.855531

                             ****ORCA TERMINATED NORMALLY****
TOTAL RUN TIME: 0 days 1 hours 1 minutes 34 seconds 245 msec
