                         Program Version 4.2.0 -  RELEASE  -
|  1> # Test redundant internal optimization
|  2> #
|  3> ! RKS B3LYP  Opt TightSCF SmallPrint
|  4>
|  5> %basis
|  6>         Basis "6-31G"
|  7> end
|  8>
|  9> %geom
| 10> Constraints
| 11> { D 4  0  15  12  315.0   C } # D for Dihedral angle
| 12> { D 0  15  12  16  210.0   C } # D for Dihedral angle
| 13> { D 0  4  3  2   C } # D for Dihedral angle
| 14> { D 4  3  2  1   C } # D for Dihedral angle
| 15> { D 3  2  1  0   C } # D for Dihedral angle
| 16> { D 2  1  0  4   C } # D for Dihedral angle
| 17> { D 1  0  4  3   C } # D for Dihedral angle
| 18> { D 16  20  19  18   C } # D for Dihedral angle
| 19> { D 20  19  18  17   C } # D for Dihedral angle
| 20> { D 19  18  17  16   C } # D for Dihedral angle
| 21> { D 18  17  16  20   C } # D for Dihedral angle
| 22> { D 17  16  20  19   C } # D for Dihedral angle
| 23> { D 15  12  16  20   C } # D for Dihedral angle
| 24> end
| 25> end
| 26>
| 27>
| 28> #%pal
| 29> #nprocs 8
| 30> #end
| 31>
| 32> * xyz 0 1
| 33> C  -21.048   26.222   46.251
| 34> C  -20.361   27.558   45.944
| 35> C  -20.329   28.222   47.341
| 36> C  -20.110   27.022   48.296
| 37> O  -20.473   25.807   47.535
| 38> H  -20.833   25.428   45.533
| 39> H  -19.344   27.382   45.576
| 40> H  -20.898   28.157   45.201
| 41> H  -19.543   28.978   47.434
| 42> H  -21.289   28.710   47.548
| 43> H  -20.733   27.082   49.195
| 44> H  -19.064   26.913   48.597
| 45> C  -23.319   25.255   47.135
| 46> H  -22.766   24.316   47.001
| 47> H  -23.363   25.476   48.209
| 48> O  -22.586   26.394   46.375
| 49> C  -24.775   25.040   46.636
| 50> C  -24.799   24.559   45.181
| 51> C  -24.469   23.056   45.341
| 52> C  -25.163   22.684   46.676
| 53> O  -25.418   23.955   47.386
| 54> H  -25.354   25.946   46.824
| 55> H  -25.802   24.691   44.759
| 56> O  -23.784   25.307   44.274
| 57> H  -24.826   22.451   44.502
| 58> H  -23.384   22.916   45.417
| 59> H  -24.541   22.040   47.306
| 60> H  -26.131   22.200   46.522
| 61> H  -22.773   25.188   44.679
| 62> *
| 63>
| 64>                          ****END OF INPUT****
 Total Charge           Charge          ....    0
 Multiplicity           Mult            ....    1
 Number of Electrons    NEL             ....  102
FINAL SINGLE POINT ENERGY      -652.829238629228
FINAL SINGLE POINT ENERGY      -652.855395543598
FINAL SINGLE POINT ENERGY      -652.861947077597
FINAL SINGLE POINT ENERGY      -652.864773563731
FINAL SINGLE POINT ENERGY      -652.866347062118
FINAL SINGLE POINT ENERGY      -652.867649881636
FINAL SINGLE POINT ENERGY      -652.868606265870
FINAL SINGLE POINT ENERGY      -652.869119032246
FINAL SINGLE POINT ENERGY      -652.869281999264
FINAL SINGLE POINT ENERGY      -652.869307464576
FINAL SINGLE POINT ENERGY      -652.869315252506
                    ***********************HURRAY********************

CARTESIAN COORDINATES (ANGSTROEM)
---------------------------------
  C    -21.050372   26.107283   46.306527
  C    -20.444765   27.461249   45.944148
  C    -20.439067   28.179336   47.310648
  C    -20.146794   27.040813   48.310332
  O    -20.455708   25.777491   47.577440
  H    -20.825263   25.273523   45.634688
  H    -19.426772   27.306451   45.569943
  H    -21.023767   27.990166   45.183659
  H    -19.691782   28.977067   47.361660
  H    -21.423709   28.616721   47.499252
  H    -20.765010   27.082754   49.210236
  H    -19.093368   26.979804   48.596370
  C    -23.198817   25.228741   47.175409
  H    -22.640008   24.287678   47.116277
  H    -23.251525   25.528639   48.224591
  O    -22.497416   26.268911   46.397058
  C    -24.609651   25.063754   46.599871
  C    -24.675463   24.564734   45.146903
  C    -24.438145   23.036862   45.325017
  C    -25.141302   22.729207   46.664288
  O    -25.311106   24.034907   47.364635
  H    -25.169530   25.993780   46.735713
  H    -25.691153   24.734397   44.767434
  O    -23.739055   25.168918   44.230418
  H    -24.845580   22.460176   44.490513
  H    -23.359875   22.850863   45.369032
  H    -24.567880   22.056226   47.309681
  H    -26.145306   22.316694   46.528726
  H    -23.209809   25.837854   44.723531

 Multiplicity           Mult            ....    1
 Number of Electrons    NEL             ....  102
 Basis Dimension        Dim             ....  149

ORBITAL ENERGIES
----------------

  NO   OCC          E(Eh)            E(eV)
   0   2.0000     -19.163835      -521.4745
   1   2.0000     -19.155176      -521.2388
   2   2.0000     -19.139350      -520.8082
   3   2.0000     -19.116003      -520.1729
   4   2.0000     -10.291074      -280.0344
   5   2.0000     -10.235706      -278.5277
   6   2.0000     -10.233235      -278.4605
   7   2.0000     -10.233071      -278.4560
   8   2.0000     -10.230563      -278.3878
   9   2.0000     -10.225840      -278.2593
  10   2.0000     -10.195325      -277.4289
  11   2.0000     -10.194097      -277.3955
  12   2.0000     -10.179145      -276.9886
  13   2.0000      -1.067848       -29.0576
  14   2.0000      -1.025604       -27.9081
  15   2.0000      -1.006938       -27.4002
  16   2.0000      -0.993775       -27.0420
  17   2.0000      -0.799023       -21.7425
  18   2.0000      -0.772702       -21.0263
  19   2.0000      -0.767030       -20.8720
  20   2.0000      -0.736212       -20.0334
  21   2.0000      -0.676386       -18.4054
  22   2.0000      -0.609686       -16.5904
  23   2.0000      -0.599017       -16.3001
  24   2.0000      -0.593821       -16.1587
  25   2.0000      -0.577713       -15.7204
  26   2.0000      -0.529682       -14.4134
  27   2.0000      -0.518789       -14.1170
  28   2.0000      -0.501845       -13.6559
  29   2.0000      -0.488598       -13.2954
  30   2.0000      -0.474064       -12.8999
  31   2.0000      -0.457443       -12.4477
  32   2.0000      -0.441627       -12.0173
  33   2.0000      -0.434215       -11.8156
  34   2.0000      -0.428058       -11.6480
  35   2.0000      -0.415225       -11.2989
  36   2.0000      -0.411332       -11.1929
  37   2.0000      -0.387826       -10.5533
  38   2.0000      -0.379751       -10.3336
  39   2.0000      -0.367887       -10.0107
  40   2.0000      -0.365800        -9.9539
  41   2.0000      -0.360378        -9.8064
  42   2.0000      -0.354775        -9.6539
  43   2.0000      -0.340060        -9.2535
  44   2.0000      -0.332993        -9.0612
  45   2.0000      -0.312937        -8.5155
  46   2.0000      -0.292905        -7.9704
  47   2.0000      -0.276105        -7.5132
  48   2.0000      -0.269660        -7.3378
  49   2.0000      -0.247326        -6.7301
  50   2.0000      -0.244385        -6.6501
  51   0.0000       0.059276         1.6130
  52   0.0000       0.078840         2.1453
  53   0.0000       0.090999         2.4762
  54   0.0000       0.099000         2.6939
  55   0.0000       0.105239         2.8637

MULLIKEN ATOMIC CHARGES
-----------------------
   0 C :    0.287198
   1 C :   -0.263507
   2 C :   -0.300403
   3 C :   -0.011210
   4 O :   -0.511101
   5 H :    0.160766
   6 H :    0.152404
   7 H :    0.161262
   8 H :    0.147475
   9 H :    0.163921
  10 H :    0.151880
  11 H :    0.150621
  12 C :   -0.002718
  13 H :    0.152451
  14 H :    0.164048
  15 O :   -0.560368
  16 C :    0.042158
  17 C :    0.121009
  18 C :   -0.296603
  19 C :   -0.025870
  20 O :   -0.520471
  21 H :    0.158783
  22 H :    0.141685
  23 O :   -0.644965
  24 H :    0.151188
  25 H :    0.146616
  26 H :    0.144783
  27 H :    0.150853
  28 H :    0.388118
Sum of atomic charges:    0.0000000

LOEWDIN ATOMIC CHARGES
----------------------
   0 C :    0.173266
   1 C :   -0.214187
   2 C :   -0.216130
   3 C :   -0.028034
   4 O :   -0.321028
   5 H :    0.103775
   6 H :    0.118299
   7 H :    0.125748
   8 H :    0.117133
   9 H :    0.120009
  10 H :    0.107697
  11 H :    0.107223
  12 C :   -0.041721
  13 H :    0.107924
  14 H :    0.115666
  15 O :   -0.344261
  16 C :    0.015150
  17 C :    0.041592
  18 C :   -0.233020
  19 C :   -0.033639
  20 O :   -0.322608
  21 H :    0.114177
  22 H :    0.100944
  23 O :   -0.438921
  24 H :    0.121248
  25 H :    0.111874
  26 H :    0.102919
  27 H :    0.106421
  28 H :    0.282483

  Mayer bond orders larger than 0.100000
B(  0-C ,  1-C ) :   0.9496 B(  0-C ,  4-O ) :   0.9145 B(  0-C ,  5-H ) :   0.9177
B(  0-C , 15-O ) :   0.8039 B(  1-C ,  2-C ) :   0.9525 B(  1-C ,  6-H ) :   0.9372
B(  1-C ,  7-H ) :   0.9355 B(  2-C ,  3-C ) :   0.9558 B(  2-C ,  8-H ) :   0.9443
B(  2-C ,  9-H ) :   0.9441 B(  3-C ,  4-O ) :   0.8269 B(  3-C , 10-H ) :   0.9350
B(  3-C , 11-H ) :   0.9400 B( 12-C , 13-H ) :   0.9200 B( 12-C , 14-H ) :   0.9284
B( 12-C , 15-O ) :   0.7734 B( 12-C , 16-C ) :   0.9043 B( 16-C , 17-C ) :   0.9141
B( 16-C , 20-O ) :   0.8564 B( 16-C , 21-H ) :   0.9285 B( 17-C , 18-C ) :   0.9079
B( 17-C , 22-H ) :   0.9277 B( 17-C , 23-O ) :   0.9238 B( 18-C , 19-C ) :   0.9416
B( 18-C , 24-H ) :   0.9445 B( 18-C , 25-H ) :   0.9420 B( 19-C , 20-O ) :   0.8326
B( 19-C , 26-H ) :   0.9336 B( 19-C , 27-H ) :   0.9377 B( 23-O , 28-H ) :   0.7246

FINAL SINGLE POINT ENERGY      -652.869317286933

DIPOLE MOMENT
-------------
                                X             Y             Z
Electronic contribution:     -2.34117      -0.79598      -0.19600
Nuclear contribution   :      3.14857       1.28505       0.54824
                        -----------------------------------------
Total Dipole Moment    :      0.80741       0.48906       0.35224
                        -----------------------------------------
Magnitude (a.u.)       :      1.00755
Magnitude (Debye)      :      2.56100

Rotational constants in cm-1:     0.057776     0.013762     0.012523
Rotational constants in MHz :  1732.087249   412.566850   375.436362

                             ****ORCA TERMINATED NORMALLY****
TOTAL RUN TIME: 0 days 0 hours 54 minutes 42 seconds 125 msec
