                         Program Version 4.2.0 -  RELEASE  -
|  1> # Test redundant internal optimization
|  2> #
|  3> ! RKS B3LYP  Opt TightSCF SmallPrint
|  4>
|  5> %basis
|  6>         Basis "6-31G"
|  7> end
|  8>
|  9> %geom
| 10> Constraints
| 11> { D 4  0  15  12  270.0   C } # D for Dihedral angle
| 12> { D 0  15  12  16  150.0   C } # D for Dihedral angle
| 13> { D 0  4  3  2   C } # D for Dihedral angle
| 14> { D 4  3  2  1   C } # D for Dihedral angle
| 15> { D 3  2  1  0   C } # D for Dihedral angle
| 16> { D 2  1  0  4   C } # D for Dihedral angle
| 17> { D 1  0  4  3   C } # D for Dihedral angle
| 18> { D 16  20  19  18   C } # D for Dihedral angle
| 19> { D 20  19  18  17   C } # D for Dihedral angle
| 20> { D 19  18  17  16   C } # D for Dihedral angle
| 21> { D 18  17  16  20   C } # D for Dihedral angle
| 22> { D 17  16  20  19   C } # D for Dihedral angle
| 23> { D 15  12  16  20   C } # D for Dihedral angle
| 24> end
| 25> end
| 26>
| 27>
| 28> #%pal
| 29> #nprocs 8
| 30> #end
| 31>
| 32> * xyz 0 1
| 33> C  -21.048   26.222   46.251
| 34> C  -20.361   27.558   45.944
| 35> C  -20.329   28.222   47.341
| 36> C  -20.110   27.022   48.296
| 37> O  -20.473   25.807   47.535
| 38> H  -20.833   25.428   45.533
| 39> H  -19.344   27.382   45.576
| 40> H  -20.898   28.157   45.201
| 41> H  -19.543   28.978   47.434
| 42> H  -21.289   28.710   47.548
| 43> H  -20.733   27.082   49.195
| 44> H  -19.064   26.913   48.597
| 45> C  -23.420   25.119   46.072
| 46> H  -23.657   25.087   45.002
| 47> H  -22.847   24.217   46.324
| 48> O  -22.586   26.394   46.375
| 49> C  -24.753   25.070   46.869
| 50> C  -24.505   25.201   48.377
| 51> C  -24.293   26.726   48.528
| 52> C  -25.262   27.322   47.476
| 53> O  -25.591   26.226   46.538
| 54> H  -25.310   24.177   46.579
| 55> H  -25.392   24.877   48.932
| 56> O  -23.288   24.372   48.870
| 57> H  -24.503   27.086   49.540
| 58> H  -23.255   26.987   48.288
| 59> H  -24.816   28.152   46.917
| 60> H  -26.203   27.660   47.920
| 61> H  -22.388   24.680   48.327
| 62> *
| 63>
| 64>                          ****END OF INPUT****
 Total Charge           Charge          ....    0
 Multiplicity           Mult            ....    1
 Number of Electrons    NEL             ....  102
FINAL SINGLE POINT ENERGY      -652.840424640729
FINAL SINGLE POINT ENERGY      -652.863835565156
FINAL SINGLE POINT ENERGY      -652.867909017661
FINAL SINGLE POINT ENERGY      -652.869946153117
FINAL SINGLE POINT ENERGY      -652.870119709712
FINAL SINGLE POINT ENERGY      -652.870166166329
FINAL SINGLE POINT ENERGY      -652.870171398340
                    ***********************HURRAY********************

CARTESIAN COORDINATES (ANGSTROEM)
---------------------------------
  C    -21.080772   26.161037   46.208970
  C    -20.400094   27.500075   45.909429
  C    -20.412522   28.175475   47.300607
  C    -20.207769   26.991486   48.273575
  O    -20.541851   25.762544   47.502592
  H    -20.845153   25.350570   45.514057
  H    -19.375710   27.315354   45.568226
  H    -20.936509   28.067735   45.146825
  H    -19.631506   28.934357   47.407574
  H    -21.381514   28.655081   47.469191
  H    -20.853790   27.040907   49.153853
  H    -19.168705   26.881756   48.595843
  C    -23.299662   25.156212   46.037233
  H    -23.515776   25.118377   44.962701
  H    -22.742616   24.255665   46.325799
  O    -22.500316   26.355526   46.307896
  C    -24.604106   25.175761   46.819621
  C    -24.421146   25.224441   48.348307
  C    -24.296034   26.758481   48.608153
  C    -25.253492   27.358309   47.556092
  O    -25.483996   26.299778   46.535084
  H    -25.157844   24.277045   46.519561
  H    -25.303187   24.812734   48.842693
  O    -23.309639   24.440443   48.841031
  H    -24.579111   27.022012   49.631606
  H    -23.267394   27.068529   48.424510
  H    -24.836604   28.237260   47.056589
  H    -26.233345   27.610470   47.972598
  H    -22.453837   24.826582   48.544782

 Multiplicity           Mult            ....    1
 Number of Electrons    NEL             ....  102
 Basis Dimension        Dim             ....  149

ORBITAL ENERGIES
----------------

  NO   OCC          E(Eh)            E(eV)
   0   2.0000     -19.156377      -521.2715
   1   2.0000     -19.155537      -521.2487
   2   2.0000     -19.131044      -520.5822
   3   2.0000     -19.126556      -520.4601
   4   2.0000     -10.290495      -280.0186
   5   2.0000     -10.236800      -278.5575
   6   2.0000     -10.232169      -278.4315
   7   2.0000     -10.230352      -278.3820
   8   2.0000     -10.227881      -278.3148
   9   2.0000     -10.218533      -278.0604
  10   2.0000     -10.195814      -277.4422
  11   2.0000     -10.195519      -277.4342
  12   2.0000     -10.174865      -276.8722
  13   2.0000      -1.067279       -29.0421
  14   2.0000      -1.020993       -27.7826
  15   2.0000      -1.003648       -27.3106
  16   2.0000      -0.998815       -27.1791
  17   2.0000      -0.798323       -21.7235
  18   2.0000      -0.772056       -21.0087
  19   2.0000      -0.762667       -20.7532
  20   2.0000      -0.736518       -20.0417
  21   2.0000      -0.677018       -18.4226
  22   2.0000      -0.609155       -16.5760
  23   2.0000      -0.602226       -16.3874
  24   2.0000      -0.595176       -16.1956
  25   2.0000      -0.575035       -15.6475
  26   2.0000      -0.526403       -14.3242
  27   2.0000      -0.509399       -13.8614
  28   2.0000      -0.505308       -13.7501
  29   2.0000      -0.487119       -13.2552
  30   2.0000      -0.474879       -12.9221
  31   2.0000      -0.463347       -12.6083
  32   2.0000      -0.438865       -11.9421
  33   2.0000      -0.434272       -11.8171
  34   2.0000      -0.420068       -11.4306
  35   2.0000      -0.414508       -11.2793
  36   2.0000      -0.402771       -10.9600
  37   2.0000      -0.399496       -10.8708
  38   2.0000      -0.377650       -10.2764
  39   2.0000      -0.368986       -10.0406
  40   2.0000      -0.367010        -9.9868
  41   2.0000      -0.356512        -9.7012
  42   2.0000      -0.346487        -9.4284
  43   2.0000      -0.339545        -9.2395
  44   2.0000      -0.319484        -8.6936
  45   2.0000      -0.314773        -8.5654
  46   2.0000      -0.300786        -8.1848
  47   2.0000      -0.280975        -7.6457
  48   2.0000      -0.261237        -7.1086
  49   2.0000      -0.255066        -6.9407
  50   2.0000      -0.235124        -6.3981
  51   0.0000       0.064469         1.7543
  52   0.0000       0.082180         2.2362
  53   0.0000       0.089547         2.4367
  54   0.0000       0.095343         2.5944
  55   0.0000       0.102292         2.7835

MULLIKEN ATOMIC CHARGES
-----------------------
   0 C :    0.271800
   1 C :   -0.254353
   2 C :   -0.304861
   3 C :   -0.010968
   4 O :   -0.516300
   5 H :    0.151637
   6 H :    0.150044
   7 H :    0.161765
   8 H :    0.147937
   9 H :    0.165000
  10 H :    0.149841
  11 H :    0.150820
  12 C :   -0.028906
  13 H :    0.152571
  14 H :    0.150749
  15 O :   -0.520505
  16 C :    0.086659
  17 C :    0.093712
  18 C :   -0.308647
  19 C :   -0.002274
  20 O :   -0.520950
  21 H :    0.147764
  22 H :    0.156269
  23 O :   -0.627817
  24 H :    0.136774
  25 H :    0.164526
  26 H :    0.142154
  27 H :    0.139125
  28 H :    0.376434
Sum of atomic charges:   -0.0000000

LOEWDIN ATOMIC CHARGES
----------------------
   0 C :    0.169540
   1 C :   -0.213935
   2 C :   -0.216058
   3 C :   -0.031519
   4 O :   -0.334411
   5 H :    0.102359
   6 H :    0.117032
   7 H :    0.127215
   8 H :    0.117018
   9 H :    0.118495
  10 H :    0.104610
  11 H :    0.107472
  12 C :   -0.049320
  13 H :    0.108691
  14 H :    0.109871
  15 O :   -0.327299
  16 C :    0.016370
  17 C :    0.041291
  18 C :   -0.241502
  19 C :   -0.024265
  20 O :   -0.323929
  21 H :    0.114369
  22 H :    0.113994
  23 O :   -0.422381
  24 H :    0.112089
  25 H :    0.117976
  26 H :    0.103166
  27 H :    0.100329
  28 H :    0.282732

  Mayer bond orders larger than 0.100000
B(  0-C ,  1-C ) :   0.9471 B(  0-C ,  4-O ) :   0.8832 B(  0-C ,  5-H ) :   0.9177
B(  0-C , 15-O ) :   0.8722 B(  1-C ,  2-C ) :   0.9540 B(  1-C ,  6-H ) :   0.9381
B(  1-C ,  7-H ) :   0.9359 B(  2-C ,  3-C ) :   0.9538 B(  2-C ,  8-H ) :   0.9448
B(  2-C ,  9-H ) :   0.9421 B(  3-C ,  4-O ) :   0.8275 B(  3-C , 10-H ) :   0.9315
B(  3-C , 11-H ) :   0.9398 B( 12-C , 13-H ) :   0.9251 B( 12-C , 14-H ) :   0.9001
B( 12-C , 15-O ) :   0.8187 B( 12-C , 16-C ) :   0.9197 B( 16-C , 17-C ) :   0.8856
B( 16-C , 20-O ) :   0.8831 B( 16-C , 21-H ) :   0.9265 B( 17-C , 18-C ) :   0.9268
B( 17-C , 22-H ) :   0.9380 B( 17-C , 23-O ) :   0.9150 B( 18-C , 19-C ) :   0.9442
B( 18-C , 24-H ) :   0.9433 B( 18-C , 25-H ) :   0.9254 B( 19-C , 20-O ) :   0.8372
B( 19-C , 26-H ) :   0.9337 B( 19-C , 27-H ) :   0.9387 B( 23-O , 28-H ) :   0.7534

FINAL SINGLE POINT ENERGY      -652.870160857931

DIPOLE MOMENT
-------------
                                X             Y             Z
Electronic contribution:     -2.52837      -4.27910      -1.20300
Nuclear contribution   :      3.50112       5.24097       0.91897
                        -----------------------------------------
Total Dipole Moment    :      0.97275       0.96187      -0.28403
                        -----------------------------------------
Magnitude (a.u.)       :      1.39717
Magnitude (Debye)      :      3.55134

Rotational constants in cm-1:     0.043636     0.018234     0.017488
Rotational constants in MHz :  1308.164265   546.635632   524.284977

                             ****ORCA TERMINATED NORMALLY****
TOTAL RUN TIME: 0 days 0 hours 43 minutes 8 seconds 450 msec
