                         Program Version 4.2.0 -  RELEASE  -
|  1> # Test redundant internal optimization
|  2> #
|  3> ! RKS B3LYP  Opt TightSCF SmallPrint
|  4>
|  5> %basis
|  6>         Basis "6-31G"
|  7> end
|  8>
|  9> %geom
| 10> Constraints
| 11> { D 4  0  15  12  270.0   C } # D for Dihedral angle
| 12> { D 0  15  12  16  135.0   C } # D for Dihedral angle
| 13> { D 0  4  3  2   C } # D for Dihedral angle
| 14> { D 4  3  2  1   C } # D for Dihedral angle
| 15> { D 3  2  1  0   C } # D for Dihedral angle
| 16> { D 2  1  0  4   C } # D for Dihedral angle
| 17> { D 1  0  4  3   C } # D for Dihedral angle
| 18> { D 16  20  19  18   C } # D for Dihedral angle
| 19> { D 20  19  18  17   C } # D for Dihedral angle
| 20> { D 19  18  17  16   C } # D for Dihedral angle
| 21> { D 18  17  16  20   C } # D for Dihedral angle
| 22> { D 17  16  20  19   C } # D for Dihedral angle
| 23> { D 15  12  16  20   C } # D for Dihedral angle
| 24> end
| 25> end
| 26>
| 27>
| 28> #%pal
| 29> #nprocs 8
| 30> #end
| 31>
| 32> * xyz 0 1
| 33> C  -21.048   26.222   46.251
| 34> C  -20.361   27.558   45.944
| 35> C  -20.329   28.222   47.341
| 36> C  -20.110   27.022   48.296
| 37> O  -20.473   25.807   47.535
| 38> H  -20.833   25.428   45.533
| 39> H  -19.344   27.382   45.576
| 40> H  -20.898   28.157   45.201
| 41> H  -19.543   28.978   47.434
| 42> H  -21.289   28.710   47.548
| 43> H  -20.733   27.082   49.195
| 44> H  -19.064   26.913   48.597
| 45> C  -23.420   25.119   46.072
| 46> H  -23.881   25.215   45.082
| 47> H  -22.774   24.231   46.066
| 48> O  -22.586   26.394   46.375
| 49> C  -24.546   24.876   47.115
| 50> C  -23.984   24.821   48.540
| 51> C  -23.798   26.324   48.862
| 52> C  -24.992   26.990   48.133
| 53> O  -25.477   26.010   47.137
| 54> H  -25.121   23.996   46.822
| 55> H  -24.718   24.369   49.216
| 56> O  -22.661   24.016   48.643
| 57> H  -23.797   26.531   49.937
| 58> H  -22.847   26.682   48.451
| 59> H  -24.707   27.914   47.619
| 60> H  -25.827   27.203   48.807
| 61> H  -21.911   24.451   47.974
| 62> *
| 63>
| 64>                          ****END OF INPUT****
 Total Charge           Charge          ....    0
 Multiplicity           Mult            ....    1
 Number of Electrons    NEL             ....  102
FINAL SINGLE POINT ENERGY      -652.839448410603
FINAL SINGLE POINT ENERGY      -652.863336980497
FINAL SINGLE POINT ENERGY      -652.867994364288
FINAL SINGLE POINT ENERGY      -652.871643225748
FINAL SINGLE POINT ENERGY      -652.871969777906
FINAL SINGLE POINT ENERGY      -652.872034943309
FINAL SINGLE POINT ENERGY      -652.872058842040
                    ***********************HURRAY********************

CARTESIAN COORDINATES (ANGSTROEM)
---------------------------------
  C    -21.071840   26.181230   46.207296
  C    -20.375982   27.507279   45.882029
  C    -20.351600   28.196490   47.267288
  C    -20.146653   27.017386   48.248027
  O    -20.514425   25.786779   47.494809
  H    -20.846099   25.362507   45.518413
  H    -19.361215   27.303356   45.523686
  H    -20.919027   28.074839   45.124345
  H    -19.556468   28.943105   47.353795
  H    -21.309985   28.692142   47.449685
  H    -20.772512   27.085223   49.141134
  H    -19.103047   26.892627   48.549087
  C    -23.300335   25.188001   46.037831
  H    -23.732690   25.298990   45.036999
  H    -22.669525   24.291387   46.062055
  O    -22.489807   26.385667   46.302042
  C    -24.423139   24.996361   47.047315
  C    -23.958194   24.825617   48.504063
  C    -23.854678   26.307568   48.984493
  C    -25.019737   26.987609   48.233874
  O    -25.391168   26.083194   47.113122
  H    -24.984816   24.115177   46.710413
  H    -24.718159   24.284145   49.072039
  O    -22.742584   24.060225   48.655727
  H    -23.945084   26.392218   50.071745
  H    -22.896905   26.716318   48.666803
  H    -24.746041   27.961700   47.818867
  H    -25.913235   27.099807   48.856412
  H    -21.957051   24.586053   48.368608

 Multiplicity           Mult            ....    1
 Number of Electrons    NEL             ....  102
 Basis Dimension        Dim             ....  149

ORBITAL ENERGIES
----------------

  NO   OCC          E(Eh)            E(eV)
   0   2.0000     -19.162636      -521.4418
   1   2.0000     -19.156210      -521.2670
   2   2.0000     -19.129461      -520.5391
   3   2.0000     -19.118755      -520.2478
   4   2.0000     -10.292734      -280.0795
   5   2.0000     -10.239928      -278.6426
   6   2.0000     -10.230920      -278.3975
   7   2.0000     -10.227473      -278.3037
   8   2.0000     -10.225248      -278.2431
   9   2.0000     -10.217990      -278.0456
  10   2.0000     -10.197647      -277.4921
  11   2.0000     -10.197064      -277.4762
  12   2.0000     -10.174745      -276.8689
  13   2.0000      -1.069009       -29.0892
  14   2.0000      -1.019074       -27.7304
  15   2.0000      -1.005433       -27.3592
  16   2.0000      -0.993487       -27.0341
  17   2.0000      -0.799874       -21.7657
  18   2.0000      -0.771194       -20.9853
  19   2.0000      -0.761482       -20.7210
  20   2.0000      -0.738041       -20.0831
  21   2.0000      -0.676220       -18.4009
  22   2.0000      -0.611622       -16.6431
  23   2.0000      -0.603769       -16.4294
  24   2.0000      -0.594573       -16.1792
  25   2.0000      -0.573381       -15.6025
  26   2.0000      -0.525147       -14.2900
  27   2.0000      -0.510177       -13.8826
  28   2.0000      -0.506321       -13.7777
  29   2.0000      -0.485627       -13.2146
  30   2.0000      -0.475118       -12.9286
  31   2.0000      -0.462721       -12.5913
  32   2.0000      -0.441934       -12.0256
  33   2.0000      -0.433363       -11.7924
  34   2.0000      -0.420578       -11.4445
  35   2.0000      -0.413475       -11.2512
  36   2.0000      -0.404340       -11.0026
  37   2.0000      -0.397912       -10.8277
  38   2.0000      -0.375367       -10.2143
  39   2.0000      -0.369536       -10.0556
  40   2.0000      -0.367475        -9.9995
  41   2.0000      -0.358136        -9.7454
  42   2.0000      -0.345170        -9.3925
  43   2.0000      -0.342448        -9.3185
  44   2.0000      -0.319296        -8.6885
  45   2.0000      -0.315060        -8.5732
  46   2.0000      -0.299612        -8.1528
  47   2.0000      -0.280680        -7.6377
  48   2.0000      -0.264860        -7.2072
  49   2.0000      -0.251203        -6.8356
  50   2.0000      -0.232013        -6.3134
  51   0.0000       0.065827         1.7913
  52   0.0000       0.082315         2.2399
  53   0.0000       0.090225         2.4551
  54   0.0000       0.096963         2.6385
  55   0.0000       0.106275         2.8919

MULLIKEN ATOMIC CHARGES
-----------------------
   0 C :    0.272451
   1 C :   -0.255013
   2 C :   -0.304202
   3 C :   -0.008047
   4 O :   -0.524843
   5 H :    0.153648
   6 H :    0.150635
   7 H :    0.163536
   8 H :    0.149086
   9 H :    0.166810
  10 H :    0.149066
  11 H :    0.152731
  12 C :   -0.027456
  13 H :    0.153271
  14 H :    0.149917
  15 O :   -0.515824
  16 C :    0.095755
  17 C :    0.089979
  18 C :   -0.321611
  19 C :   -0.004064
  20 O :   -0.522671
  21 H :    0.145649
  22 H :    0.155711
  23 O :   -0.638631
  24 H :    0.142075
  25 H :    0.162133
  26 H :    0.143556
  27 H :    0.139703
  28 H :    0.386651
Sum of atomic charges:    0.0000000

LOEWDIN ATOMIC CHARGES
----------------------
   0 C :    0.169219
   1 C :   -0.213279
   2 C :   -0.215436
   3 C :   -0.030663
   4 O :   -0.331123
   5 H :    0.101914
   6 H :    0.117327
   7 H :    0.128211
   8 H :    0.117643
   9 H :    0.120118
  10 H :    0.104663
  11 H :    0.108488
  12 C :   -0.046273
  13 H :    0.110810
  14 H :    0.110917
  15 O :   -0.324997
  16 C :    0.015174
  17 C :    0.040528
  18 C :   -0.244115
  19 C :   -0.025198
  20 O :   -0.325045
  21 H :    0.113845
  22 H :    0.112652
  23 O :   -0.430855
  24 H :    0.113919
  25 H :    0.116845
  26 H :    0.103337
  27 H :    0.100143
  28 H :    0.281229

  Mayer bond orders larger than 0.100000
B(  0-C ,  1-C ) :   0.9466 B(  0-C ,  4-O ) :   0.8635 B(  0-C ,  5-H ) :   0.9171
B(  0-C , 15-O ) :   0.8863 B(  1-C ,  2-C ) :   0.9538 B(  1-C ,  6-H ) :   0.9380
B(  1-C ,  7-H ) :   0.9361 B(  2-C ,  3-C ) :   0.9552 B(  2-C ,  8-H ) :   0.9448
B(  2-C ,  9-H ) :   0.9426 B(  3-C ,  4-O ) :   0.8171 B(  3-C , 10-H ) :   0.9286
B(  3-C , 11-H ) :   0.9402 B( 12-C , 13-H ) :   0.9294 B( 12-C , 14-H ) :   0.9017
B( 12-C , 15-O ) :   0.8209 B( 12-C , 16-C ) :   0.9153 B( 16-C , 17-C ) :   0.8826
B( 16-C , 20-O ) :   0.8806 B( 16-C , 21-H ) :   0.9250 B( 17-C , 18-C ) :   0.9303
B( 17-C , 22-H ) :   0.9373 B( 17-C , 23-O ) :   0.9258 B( 18-C , 19-C ) :   0.9445
B( 18-C , 24-H ) :   0.9424 B( 18-C , 25-H ) :   0.9211 B( 19-C , 20-O ) :   0.8375
B( 19-C , 26-H ) :   0.9329 B( 19-C , 27-H ) :   0.9386 B( 23-O , 28-H ) :   0.7279

FINAL SINGLE POINT ENERGY      -652.872050925435

DIPOLE MOMENT
-------------
                                X             Y             Z
Electronic contribution:     -2.61632      -4.09118      -1.29729
Nuclear contribution   :      3.64506       5.13554       1.01639
                        -----------------------------------------
Total Dipole Moment    :      1.02873       1.04436      -0.28090
                        -----------------------------------------
Magnitude (a.u.)       :      1.49261
Magnitude (Debye)      :      3.79390

Rotational constants in cm-1:     0.043616     0.018644     0.018041
Rotational constants in MHz :  1307.588289   558.938760   540.864888

                             ****ORCA TERMINATED NORMALLY****
TOTAL RUN TIME: 0 days 0 hours 49 minutes 43 seconds 277 msec
