                         Program Version 4.2.0 -  RELEASE  -
|  1> # Test redundant internal optimization
|  2> #
|  3> ! RKS B3LYP  Opt TightSCF SmallPrint
|  4>
|  5> %basis
|  6>         Basis "6-31G"
|  7> end
|  8>
|  9> %geom
| 10> Constraints
| 11> { D 4  0  15  12  210.0   C } # D for Dihedral angle
| 12> { D 0  15  12  16  0.0   C } # D for Dihedral angle
| 13> { D 0  4  3  2   C } # D for Dihedral angle
| 14> { D 4  3  2  1   C } # D for Dihedral angle
| 15> { D 3  2  1  0   C } # D for Dihedral angle
| 16> { D 2  1  0  4   C } # D for Dihedral angle
| 17> { D 1  0  4  3   C } # D for Dihedral angle
| 18> { D 16  20  19  18   C } # D for Dihedral angle
| 19> { D 20  19  18  17   C } # D for Dihedral angle
| 20> { D 19  18  17  16   C } # D for Dihedral angle
| 21> { D 18  17  16  20   C } # D for Dihedral angle
| 22> { D 17  16  20  19   C } # D for Dihedral angle
| 23> { D 15  12  16  20   C } # D for Dihedral angle
| 24> end
| 25> end
| 26>
| 27>
| 28> #%pal
| 29> #nprocs 8
| 30> #end
| 31>
| 32> * xyz 0 1
| 33> C  -21.048   26.222   46.251
| 34> C  -20.361   27.558   45.944
| 35> C  -20.329   28.222   47.341
| 36> C  -20.110   27.022   48.296
| 37> O  -20.473   25.807   47.535
| 38> H  -20.833   25.428   45.533
| 39> H  -19.344   27.382   45.576
| 40> H  -20.898   28.157   45.201
| 41> H  -19.543   28.978   47.434
| 42> H  -21.289   28.710   47.548
| 43> H  -20.733   27.082   49.195
| 44> H  -19.064   26.913   48.597
| 45> C  -23.389   26.110   45.076
| 46> H  -24.101   25.296   45.261
| 47> H  -23.957   27.000   44.773
| 48> O  -22.586   26.394   46.375
| 49> C  -22.479   25.702   43.884
| 50> C  -23.290   25.543   42.594
| 51> C  -23.470   27.015   42.153
| 52> C  -22.138   27.677   42.586
| 53> O  -21.523   26.772   43.580
| 54> H  -21.897   24.822   44.164
| 55> H  -22.710   24.985   41.850
| 56> O  -24.643   24.810   42.810
| 57> H  -23.657   27.117   41.079
| 58> H  -24.316   27.467   42.684
| 59> H  -22.288   28.662   43.042
| 60> H  -21.431   27.774   41.757
| 61> H  -25.242   25.351   43.550
| 62> *
| 63>
| 64>                          ****END OF INPUT****
 Total Charge           Charge          ....    0
 Multiplicity           Mult            ....    1
 Number of Electrons    NEL             ....  102
FINAL SINGLE POINT ENERGY      -652.816960254715
FINAL SINGLE POINT ENERGY      -652.839939739797
FINAL SINGLE POINT ENERGY      -652.848461391005
FINAL SINGLE POINT ENERGY      -652.850300597042
FINAL SINGLE POINT ENERGY      -652.850648787670
FINAL SINGLE POINT ENERGY      -652.850721513365
FINAL SINGLE POINT ENERGY      -652.850727457784
FINAL SINGLE POINT ENERGY      -652.850728574564
                    ***********************HURRAY********************

CARTESIAN COORDINATES (ANGSTROEM)
---------------------------------
  C    -20.868290   26.221091   46.249392
  C    -20.198714   27.580996   46.059417
  C    -20.385537   28.228635   47.453130
  C    -20.256834   27.023589   48.409623
  O    -20.469560   25.818433   47.570419
  H    -20.547515   25.442091   45.557978
  H    -19.134652   27.429743   45.839397
  H    -20.642909   28.147947   45.242277
  H    -19.645119   29.007201   47.660262
  H    -21.384178   28.670007   47.523990
  H    -21.000369   27.026515   49.211261
  H    -19.256358   26.930499   48.843866
  C    -23.155173   26.124455   45.094747
  H    -23.862257   25.327907   45.360029
  H    -23.726415   27.050746   44.937003
  O    -22.321785   26.356714   46.266075
  C    -22.470188   25.719367   43.787328
  C    -23.457919   25.557833   42.616732
  C    -23.619389   27.032104   42.127245
  C    -22.209395   27.620647   42.353345
  O    -21.514201   26.714294   43.307153
  H    -21.897482   24.799484   43.939292
  H    -22.991612   24.950298   41.837915
  O    -24.691421   24.870860   42.921328
  H    -23.940504   27.085583   41.084058
  H    -24.371783   27.543279   42.741641
  H    -22.229546   28.630065   42.774808
  H    -21.612640   27.631942   41.437049
  H    -25.280255   25.435676   43.462238

 Multiplicity           Mult            ....    1
 Number of Electrons    NEL             ....  102
 Basis Dimension        Dim             ....  149

ORBITAL ENERGIES
----------------

  NO   OCC          E(Eh)            E(eV)
   0   2.0000     -19.157088      -521.2909
   1   2.0000     -19.151910      -521.1500
   2   2.0000     -19.128892      -520.5236
   3   2.0000     -19.128041      -520.5005
   4   2.0000     -10.268164      -279.4109
   5   2.0000     -10.254972      -279.0520
   6   2.0000     -10.242107      -278.7019
   7   2.0000     -10.241475      -278.6847
   8   2.0000     -10.233385      -278.4646
   9   2.0000     -10.214335      -277.9462
  10   2.0000     -10.204130      -277.6685
  11   2.0000     -10.174124      -276.8520
  12   2.0000     -10.168226      -276.6915
  13   2.0000      -1.046034       -28.4640
  14   2.0000      -1.037850       -28.2413
  15   2.0000      -1.026106       -27.9218
  16   2.0000      -0.980716       -26.6866
  17   2.0000      -0.792251       -21.5582
  18   2.0000      -0.775661       -21.1068
  19   2.0000      -0.768804       -20.9202
  20   2.0000      -0.728523       -19.8241
  21   2.0000      -0.682056       -18.5597
  22   2.0000      -0.621392       -16.9089
  23   2.0000      -0.605074       -16.4649
  24   2.0000      -0.586746       -15.9662
  25   2.0000      -0.559513       -15.2251
  26   2.0000      -0.538269       -14.6471
  27   2.0000      -0.516094       -14.0436
  28   2.0000      -0.493130       -13.4188
  29   2.0000      -0.478802       -13.0289
  30   2.0000      -0.471764       -12.8373
  31   2.0000      -0.454803       -12.3758
  32   2.0000      -0.443062       -12.0563
  33   2.0000      -0.437105       -11.8942
  34   2.0000      -0.433307       -11.7909
  35   2.0000      -0.423335       -11.5195
  36   2.0000      -0.408199       -11.1077
  37   2.0000      -0.393065       -10.6959
  38   2.0000      -0.388375       -10.5682
  39   2.0000      -0.366589        -9.9754
  40   2.0000      -0.357631        -9.7316
  41   2.0000      -0.349751        -9.5172
  42   2.0000      -0.341608        -9.2956
  43   2.0000      -0.336329        -9.1520
  44   2.0000      -0.324174        -8.8212
  45   2.0000      -0.303152        -8.2492
  46   2.0000      -0.298403        -8.1200
  47   2.0000      -0.280698        -7.6382
  48   2.0000      -0.254949        -6.9375
  49   2.0000      -0.247549        -6.7361
  50   2.0000      -0.235150        -6.3988
  51   0.0000       0.046070         1.2536
  52   0.0000       0.065913         1.7936
  53   0.0000       0.082019         2.2319
  54   0.0000       0.096005         2.6124
  55   0.0000       0.101116         2.7515

MULLIKEN ATOMIC CHARGES
-----------------------
   0 C :    0.302657
   1 C :   -0.248228
   2 C :   -0.302718
   3 C :    0.000506
   4 O :   -0.506768
   5 H :    0.147898
   6 H :    0.137169
   7 H :    0.155324
   8 H :    0.134885
   9 H :    0.154355
  10 H :    0.148921
  11 H :    0.136898
  12 C :    0.017087
  13 H :    0.147718
  14 H :    0.123189
  15 O :   -0.535768
  16 C :    0.052444
  17 C :    0.081970
  18 C :   -0.321323
  19 C :   -0.015778
  20 O :   -0.519077
  21 H :    0.165299
  22 H :    0.173156
  23 O :   -0.595039
  24 H :    0.160862
  25 H :    0.138338
  26 H :    0.148735
  27 H :    0.157234
  28 H :    0.360052
Sum of atomic charges:   -0.0000000

LOEWDIN ATOMIC CHARGES
----------------------
   0 C :    0.186928
   1 C :   -0.222942
   2 C :   -0.220239
   3 C :   -0.026016
   4 O :   -0.308954
   5 H :    0.100848
   6 H :    0.111049
   7 H :    0.121072
   8 H :    0.110741
   9 H :    0.115102
  10 H :    0.105993
  11 H :    0.099569
  12 C :   -0.044052
  13 H :    0.109036
  14 H :    0.092283
  15 O :   -0.338675
  16 C :    0.002789
  17 C :    0.038723
  18 C :   -0.240843
  19 C :   -0.029983
  20 O :   -0.323953
  21 H :    0.115784
  22 H :    0.121420
  23 O :   -0.402065
  24 H :    0.124819
  25 H :    0.106580
  26 H :    0.104775
  27 H :    0.109447
  28 H :    0.280762

  Mayer bond orders larger than 0.100000
B(  0-C ,  1-C ) :   0.9379 B(  0-C ,  4-O ) :   0.9227 B(  0-C ,  5-H ) :   0.9166
B(  0-C , 15-O ) :   0.8211 B(  1-C ,  2-C ) :   0.9489 B(  1-C ,  6-H ) :   0.9369
B(  1-C ,  7-H ) :   0.9318 B(  2-C ,  3-C ) :   0.9540 B(  2-C ,  8-H ) :   0.9457
B(  2-C ,  9-H ) :   0.9452 B(  3-C ,  4-O ) :   0.8390 B(  3-C , 10-H ) :   0.9355
B(  3-C , 11-H ) :   0.9402 B( 12-C , 13-H ) :   0.9072 B( 12-C , 14-H ) :   0.9254
B( 12-C , 15-O ) :   0.8586 B( 12-C , 16-C ) :   0.9038 B( 16-C , 17-C ) :   0.8693
B( 16-C , 20-O ) :   0.8437 B( 16-C , 21-H ) :   0.9241 B( 17-C , 18-C ) :   0.9233
B( 17-C , 22-H ) :   0.9319 B( 17-C , 23-O ) :   0.9071 B( 18-C , 19-C ) :   0.9395
B( 18-C , 24-H ) :   0.9417 B( 18-C , 25-H ) :   0.9395 B( 19-C , 20-O ) :   0.8374
B( 19-C , 26-H ) :   0.9308 B( 19-C , 27-H ) :   0.9372 B( 23-O , 28-H ) :   0.7957

FINAL SINGLE POINT ENERGY      -652.850728551062

DIPOLE MOMENT
-------------
                                X             Y             Z
Electronic contribution:     -0.76313      -5.13332       0.46727
Nuclear contribution   :      0.34513       6.42289      -1.44971
                        -----------------------------------------
Total Dipole Moment    :     -0.41800       1.28956      -0.98244
                        -----------------------------------------
Magnitude (a.u.)       :      1.67418
Magnitude (Debye)      :      4.25543

Rotational constants in cm-1:     0.059238     0.013727     0.012229
Rotational constants in MHz :  1775.915587   411.535598   366.618309

                             ****ORCA TERMINATED NORMALLY****
TOTAL RUN TIME: 0 days 0 hours 24 minutes 29 seconds 237 msec
