                         Program Version 4.2.0 -  RELEASE  -
|  1> # Test redundant internal optimization
|  2> #
|  3> ! RKS B3LYP  Opt TightSCF SmallPrint
|  4>
|  5> %basis
|  6>         Basis "6-31G"
|  7> end
|  8>
|  9> %geom
| 10> Constraints
| 11> { D 4  0  15  12  90.0   C } # D for Dihedral angle
| 12> { D 0  15  12  16  240.0   C } # D for Dihedral angle
| 13> { D 0  4  3  2   C } # D for Dihedral angle
| 14> { D 4  3  2  1   C } # D for Dihedral angle
| 15> { D 3  2  1  0   C } # D for Dihedral angle
| 16> { D 2  1  0  4   C } # D for Dihedral angle
| 17> { D 1  0  4  3   C } # D for Dihedral angle
| 18> { D 16  20  19  18   C } # D for Dihedral angle
| 19> { D 20  19  18  17   C } # D for Dihedral angle
| 20> { D 19  18  17  16   C } # D for Dihedral angle
| 21> { D 18  17  16  20   C } # D for Dihedral angle
| 22> { D 17  16  20  19   C } # D for Dihedral angle
| 23> { D 15  12  16  20   C } # D for Dihedral angle
| 24> end
| 25> end
| 26>
| 27>
| 28> #%pal
| 29> #nprocs 8
| 30> #end
| 31>
| 32> * xyz 0 1
| 33> C  -21.048   26.222   46.251
| 34> C  -20.361   27.558   45.944
| 35> C  -20.329   28.222   47.341
| 36> C  -20.110   27.022   48.296
| 37> O  -20.473   25.807   47.535
| 38> H  -20.833   25.428   45.533
| 39> H  -19.344   27.382   45.576
| 40> H  -20.898   28.157   45.201
| 41> H  -19.543   28.978   47.434
| 42> H  -21.289   28.710   47.548
| 43> H  -20.733   27.082   49.195
| 44> H  -19.064   26.913   48.597
| 45> C  -23.061   27.816   46.783
| 46> H  -22.187   28.468   46.906
| 47> H  -23.702   28.245   46.003
| 48> O  -22.586   26.394   46.375
| 49> C  -23.865   27.821   48.112
| 50> C  -25.057   26.859   48.046
| 51> C  -24.370   25.493   48.289
| 52> C  -23.240   25.841   49.290
| 53> O  -23.044   27.305   49.211
| 54> H  -24.129   28.849   48.366
| 55> O  -26.062   27.176   49.187
| 56> H  -25.593   26.901   47.092
| 57> H  -25.057   24.736   48.681
| 58> H  -23.950   25.111   47.351
| 59> H  -22.297   25.338   49.051
| 60> H  -23.513   25.608   50.324
| 61> H  -25.547   27.139   50.153
| 62> *
| 63>
| 64>                          ****END OF INPUT****
 Total Charge           Charge          ....    0
 Multiplicity           Mult            ....    1
 Number of Electrons    NEL             ....  102
FINAL SINGLE POINT ENERGY      -652.798342674414
FINAL SINGLE POINT ENERGY      -652.836543096671
FINAL SINGLE POINT ENERGY      -652.855070846579
FINAL SINGLE POINT ENERGY      -652.858960430114
FINAL SINGLE POINT ENERGY      -652.859558779214
FINAL SINGLE POINT ENERGY      -652.859690190174
FINAL SINGLE POINT ENERGY      -652.859697568460
FINAL SINGLE POINT ENERGY      -652.859698463150
FINAL SINGLE POINT ENERGY      -652.859701954200
                    ***********************HURRAY********************

CARTESIAN COORDINATES (ANGSTROEM)
---------------------------------
  C    -21.135515   26.411527   46.343251
  C    -20.239977   27.581877   45.906847
  C    -19.928803   28.281215   47.266671
  C    -19.845716   27.080656   48.244618
  O    -20.520441   25.947064   47.564552
  H    -21.094169   25.561664   45.659935
  H    -19.324879   27.172868   45.468169
  H    -20.716315   28.238955   45.173522
  H    -18.986576   28.837835   47.231588
  H    -20.711976   28.981313   47.560952
  H    -20.358763   27.271587   49.189694
  H    -18.815718   26.766783   48.434836
  C    -23.186026   27.883444   46.848685
  H    -22.451117   28.670198   47.020797
  H    -23.830757   28.197525   46.016822
  O    -22.558925   26.629332   46.454926
  C    -24.031947   27.721896   48.112620
  C    -25.192372   26.716786   48.052541
  C    -24.462876   25.378476   48.348977
  C    -23.364603   25.789824   49.359528
  O    -23.216295   27.267791   49.238755
  H    -24.419805   28.713939   48.377589
  O    -26.196855   27.040226   49.055444
  H    -25.725734   26.718668   47.101549
  H    -25.160159   24.639435   48.754051
  H    -24.013328   25.000037   47.430349
  H    -22.399516   25.333933   49.133835
  H    -23.643197   25.584888   50.398710
  H    -25.752637   27.161258   49.921187

 Multiplicity           Mult            ....    1
 Number of Electrons    NEL             ....  102
 Basis Dimension        Dim             ....  149

ORBITAL ENERGIES
----------------

  NO   OCC          E(Eh)            E(eV)
   0   2.0000     -19.146861      -521.0126
   1   2.0000     -19.142298      -520.8884
   2   2.0000     -19.136037      -520.7180
   3   2.0000     -19.131212      -520.5867
   4   2.0000     -10.283311      -279.8231
   5   2.0000     -10.234947      -278.5071
   6   2.0000     -10.232329      -278.4358
   7   2.0000     -10.230664      -278.3905
   8   2.0000     -10.225245      -278.2431
   9   2.0000     -10.213072      -277.9118
  10   2.0000     -10.196316      -277.4559
  11   2.0000     -10.193938      -277.3912
  12   2.0000     -10.169229      -276.7188
  13   2.0000      -1.053105       -28.6565
  14   2.0000      -1.027711       -27.9654
  15   2.0000      -1.001271       -27.2460
  16   2.0000      -0.993380       -27.0313
  17   2.0000      -0.790200       -21.5024
  18   2.0000      -0.778007       -21.1707
  19   2.0000      -0.760003       -20.6807
  20   2.0000      -0.732552       -19.9338
  21   2.0000      -0.676825       -18.4174
  22   2.0000      -0.607940       -16.5429
  23   2.0000      -0.600245       -16.3335
  24   2.0000      -0.590863       -16.0782
  25   2.0000      -0.566354       -15.4113
  26   2.0000      -0.524872       -14.2825
  27   2.0000      -0.508134       -13.8270
  28   2.0000      -0.495580       -13.4854
  29   2.0000      -0.488410       -13.2903
  30   2.0000      -0.468259       -12.7420
  31   2.0000      -0.458318       -12.4715
  32   2.0000      -0.443650       -12.0723
  33   2.0000      -0.433259       -11.7896
  34   2.0000      -0.426837       -11.6148
  35   2.0000      -0.412422       -11.2226
  36   2.0000      -0.400214       -10.8904
  37   2.0000      -0.387880       -10.5547
  38   2.0000      -0.380731       -10.3602
  39   2.0000      -0.362137        -9.8542
  40   2.0000      -0.359929        -9.7942
  41   2.0000      -0.354445        -9.6449
  42   2.0000      -0.350112        -9.5270
  43   2.0000      -0.325504        -8.8574
  44   2.0000      -0.314294        -8.5524
  45   2.0000      -0.303044        -8.2462
  46   2.0000      -0.294299        -8.0083
  47   2.0000      -0.277740        -7.5577
  48   2.0000      -0.261661        -7.1202
  49   2.0000      -0.254209        -6.9174
  50   2.0000      -0.236802        -6.4437
  51   0.0000       0.069916         1.9025
  52   0.0000       0.080993         2.2039
  53   0.0000       0.093203         2.5362
  54   0.0000       0.104747         2.8503
  55   0.0000       0.107468         2.9244

MULLIKEN ATOMIC CHARGES
-----------------------
   0 C :    0.315327
   1 C :   -0.292578
   2 C :   -0.317924
   3 C :   -0.010216
   4 O :   -0.503590
   5 H :    0.164395
   6 H :    0.159331
   7 H :    0.148589
   8 H :    0.145137
   9 H :    0.162122
  10 H :    0.169278
  11 H :    0.142662
  12 C :   -0.009290
  13 H :    0.135297
  14 H :    0.140751
  15 O :   -0.532543
  16 C :    0.078974
  17 C :    0.077816
  18 C :   -0.287196
  19 C :   -0.035980
  20 O :   -0.537101
  21 H :    0.147450
  22 O :   -0.604843
  23 H :    0.149388
  24 H :    0.145073
  25 H :    0.178199
  26 H :    0.181782
  27 H :    0.128025
  28 H :    0.361664
Sum of atomic charges:    0.0000000

LOEWDIN ATOMIC CHARGES
----------------------
   0 C :    0.177971
   1 C :   -0.229741
   2 C :   -0.222542
   3 C :   -0.033198
   4 O :   -0.320149
   5 H :    0.111043
   6 H :    0.124754
   7 H :    0.117400
   8 H :    0.115470
   9 H :    0.111994
  10 H :    0.116024
  11 H :    0.102635
  12 C :   -0.039408
  13 H :    0.103501
  14 H :    0.104225
  15 O :   -0.324483
  16 C :    0.010003
  17 C :    0.039215
  18 C :   -0.240593
  19 C :   -0.039481
  20 O :   -0.338487
  21 H :    0.112216
  22 O :   -0.418161
  23 H :    0.115103
  24 H :    0.116693
  25 H :    0.132348
  26 H :    0.121597
  27 H :    0.092720
  28 H :    0.281332

  Mayer bond orders larger than 0.100000
B(  0-C ,  1-C ) :   0.9265 B(  0-C ,  4-O ) :   0.9014 B(  0-C ,  5-H ) :   0.9360
B(  0-C , 15-O ) :   0.8851 B(  1-C ,  2-C ) :   0.9537 B(  1-C ,  6-H ) :   0.9344
B(  1-C ,  7-H ) :   0.9355 B(  2-C ,  3-C ) :   0.9494 B(  2-C ,  8-H ) :   0.9448
B(  2-C ,  9-H ) :   0.9321 B(  3-C ,  4-O ) :   0.8344 B(  3-C , 10-H ) :   0.9253
B(  3-C , 11-H ) :   0.9387 B( 12-C , 13-H ) :   0.9059 B( 12-C , 14-H ) :   0.9240
B( 12-C , 15-O ) :   0.8491 B( 12-C , 16-C ) :   0.8917 B( 16-C , 17-C ) :   0.9116
B( 16-C , 20-O ) :   0.8754 B( 16-C , 21-H ) :   0.9193 B( 17-C , 18-C ) :   0.9256
B( 17-C , 22-O ) :   0.8886 B( 17-C , 23-H ) :   0.9361 B( 18-C , 19-C ) :   0.9473
B( 18-C , 24-H ) :   0.9377 B( 18-C , 25-H ) :   0.9174 B( 19-C , 20-O ) :   0.8229
B( 19-C , 26-H ) :   0.9156 B( 19-C , 27-H ) :   0.9381 B( 22-O , 28-H ) :   0.7969

FINAL SINGLE POINT ENERGY      -652.859702586610

DIPOLE MOMENT
-------------
                                X             Y             Z
Electronic contribution:     -3.30714      -1.61536       0.90603
Nuclear contribution   :      4.31185       2.29051      -1.41149
                        -----------------------------------------
Total Dipole Moment    :      1.00472       0.67514      -0.50546
                        -----------------------------------------
Magnitude (a.u.)       :      1.31178
Magnitude (Debye)      :      3.33428

Rotational constants in cm-1:     0.056020     0.016600     0.015855
Rotational constants in MHz :  1679.447881   497.655053   475.331714

                             ****ORCA TERMINATED NORMALLY****
TOTAL RUN TIME: 0 days 1 hours 24 minutes 3 seconds 935 msec
