                         Program Version 4.2.0 -  RELEASE  -
|  1> # Test redundant internal optimization
|  2> #
|  3> ! RKS B3LYP  Opt TightSCF SmallPrint
|  4>
|  5> %basis
|  6>         Basis "6-31G"
|  7> end
|  8>
|  9> %geom
| 10> Constraints
| 11> { D 4  0  15  12  285.0   C } # D for Dihedral angle
| 12> { D 0  15  12  16  105.0   C } # D for Dihedral angle
| 13> { D 0  4  3  2   C } # D for Dihedral angle
| 14> { D 4  3  2  1   C } # D for Dihedral angle
| 15> { D 3  2  1  0   C } # D for Dihedral angle
| 16> { D 2  1  0  4   C } # D for Dihedral angle
| 17> { D 1  0  4  3   C } # D for Dihedral angle
| 18> { D 16  20  19  18   C } # D for Dihedral angle
| 19> { D 20  19  18  17   C } # D for Dihedral angle
| 20> { D 19  18  17  16   C } # D for Dihedral angle
| 21> { D 18  17  16  20   C } # D for Dihedral angle
| 22> { D 17  16  20  19   C } # D for Dihedral angle
| 23> { D 15  12  16  20   C } # D for Dihedral angle
| 24> end
| 25> end
| 26>
| 27>
| 28> #%pal
| 29> #nprocs 8
| 30> #end
| 31>
| 32> * xyz 0 1
| 33> C  -21.048   26.222   46.251
| 34> C  -20.361   27.558   45.944
| 35> C  -20.329   28.222   47.341
| 36> C  -20.110   27.022   48.296
| 37> O  -20.473   25.807   47.535
| 38> H  -20.833   25.428   45.533
| 39> H  -19.344   27.382   45.576
| 40> H  -20.898   28.157   45.201
| 41> H  -19.543   28.978   47.434
| 42> H  -21.289   28.710   47.548
| 43> H  -20.733   27.082   49.195
| 44> H  -19.064   26.913   48.597
| 45> C  -23.396   25.070   46.435
| 46> H  -24.260   25.144   45.764
| 47> H  -22.777   24.226   46.106
| 48> O  -22.586   26.394   46.375
| 49> C  -23.913   24.747   47.864
| 50> C  -22.764   24.717   48.879
| 51> C  -22.535   26.226   49.137
| 52> C  -23.963   26.819   49.050
| 53> O  -24.793   25.817   48.345
| 54> H  -24.510   23.834   47.831
| 55> O  -23.222   24.003   50.180
| 56> H  -21.870   24.210   48.503
| 57> H  -22.058   26.424   50.102
| 58> H  -21.893   26.648   48.354
| 59> H  -23.993   27.764   48.497
| 60> H  -24.412   26.972   50.036
| 61> H  -24.117   24.495   50.576
| 62> *
| 63>
| 64>                          ****END OF INPUT****
 Total Charge           Charge          ....    0
 Multiplicity           Mult            ....    1
 Number of Electrons    NEL             ....  102
FINAL SINGLE POINT ENERGY      -652.790857277262
FINAL SINGLE POINT ENERGY      -652.837051596179
FINAL SINGLE POINT ENERGY      -652.855477254019
FINAL SINGLE POINT ENERGY      -652.859923820607
FINAL SINGLE POINT ENERGY      -652.860710837813
FINAL SINGLE POINT ENERGY      -652.860833371103
FINAL SINGLE POINT ENERGY      -652.860852892282
FINAL SINGLE POINT ENERGY      -652.860853355457
FINAL SINGLE POINT ENERGY      -652.860851113765
                    ***********************HURRAY********************

CARTESIAN COORDINATES (ANGSTROEM)
---------------------------------
  C    -20.976164   26.243376   46.251987
  C    -20.329969   27.523357   45.716041
  C    -20.156273   28.353676   47.009895
  C    -19.836587   27.284422   48.078084
  O    -20.280787   25.983760   47.496858
  H    -20.765938   25.355939   45.640973
  H    -19.359480   27.273101   45.274872
  H    -20.952659   28.014345   44.966115
  H    -19.364399   29.104736   46.929606
  H    -21.093882   28.868384   47.244751
  H    -20.344845   27.456862   49.028431
  H    -18.763698   27.180131   48.264934
  C    -23.205080   25.190901   46.500561
  H    -24.032066   25.313913   45.793790
  H    -22.610716   24.319135   46.185386
  O    -22.407329   26.406782   46.313146
  C    -23.849523   24.867623   47.852820
  C    -22.976898   24.611733   49.086872
  C    -22.781344   26.044497   49.636103
  C    -24.134959   26.730125   49.319445
  O    -24.792093   25.900139   48.286626
  H    -24.450495   23.969408   47.654954
  O    -23.671777   23.742030   50.026637
  H    -22.033807   24.113334   48.866625
  H    -22.540695   26.032665   50.702308
  H    -21.976165   26.513756   49.081305
  H    -24.010635   27.744428   48.929093
  H    -24.808043   26.764605   50.183068
  H    -24.580695   24.083839   50.163713

 Multiplicity           Mult            ....    1
 Number of Electrons    NEL             ....  102
 Basis Dimension        Dim             ....  149

ORBITAL ENERGIES
----------------

  NO   OCC          E(Eh)            E(eV)
   0   2.0000     -19.153477      -521.1926
   1   2.0000     -19.153387      -521.1902
   2   2.0000     -19.136274      -520.7245
   3   2.0000     -19.131623      -520.5979
   4   2.0000     -10.284417      -279.8532
   5   2.0000     -10.233645      -278.4716
   6   2.0000     -10.233597      -278.4703
   7   2.0000     -10.231717      -278.4192
   8   2.0000     -10.231196      -278.4050
   9   2.0000     -10.222595      -278.1709
  10   2.0000     -10.192544      -277.3532
  11   2.0000     -10.190773      -277.3050
  12   2.0000     -10.174888      -276.8728
  13   2.0000      -1.057727       -28.7822
  14   2.0000      -1.030555       -28.0428
  15   2.0000      -1.004817       -27.3425
  16   2.0000      -0.997572       -27.1453
  17   2.0000      -0.794630       -21.6230
  18   2.0000      -0.774671       -21.0799
  19   2.0000      -0.764732       -20.8094
  20   2.0000      -0.737426       -20.0664
  21   2.0000      -0.675835       -18.3904
  22   2.0000      -0.606798       -16.5118
  23   2.0000      -0.601266       -16.3613
  24   2.0000      -0.594800       -16.1853
  25   2.0000      -0.576231       -15.6800
  26   2.0000      -0.524260       -14.2658
  27   2.0000      -0.505038       -13.7428
  28   2.0000      -0.501916       -13.6578
  29   2.0000      -0.490052       -13.3350
  30   2.0000      -0.472437       -12.8557
  31   2.0000      -0.456920       -12.4334
  32   2.0000      -0.445033       -12.1100
  33   2.0000      -0.443236       -12.0611
  34   2.0000      -0.425714       -11.5843
  35   2.0000      -0.410256       -11.1636
  36   2.0000      -0.407120       -11.0783
  37   2.0000      -0.385959       -10.5025
  38   2.0000      -0.369887       -10.0651
  39   2.0000      -0.367216        -9.9924
  40   2.0000      -0.362953        -9.8764
  41   2.0000      -0.357318        -9.7231
  42   2.0000      -0.345865        -9.4115
  43   2.0000      -0.335912        -9.1406
  44   2.0000      -0.324020        -8.8170
  45   2.0000      -0.307637        -8.3712
  46   2.0000      -0.300287        -8.1712
  47   2.0000      -0.279895        -7.6163
  48   2.0000      -0.266358        -7.2480
  49   2.0000      -0.262917        -7.1543
  50   2.0000      -0.237042        -6.4502
  51   0.0000       0.064098         1.7442
  52   0.0000       0.082599         2.2476
  53   0.0000       0.087528         2.3818
  54   0.0000       0.103151         2.8069
  55   0.0000       0.106574         2.9000

MULLIKEN ATOMIC CHARGES
-----------------------
   0 C :    0.293441
   1 C :   -0.264346
   2 C :   -0.301472
   3 C :   -0.015447
   4 O :   -0.512533
   5 H :    0.142254
   6 H :    0.149819
   7 H :    0.162947
   8 H :    0.146275
   9 H :    0.161803
  10 H :    0.139056
  11 H :    0.150279
  12 C :   -0.008562
  13 H :    0.165171
  14 H :    0.124994
  15 O :   -0.515321
  16 C :    0.072580
  17 C :    0.074225
  18 C :   -0.308718
  19 C :   -0.026091
  20 O :   -0.525220
  21 H :    0.153909
  22 O :   -0.602608
  23 H :    0.167601
  24 H :    0.147347
  25 H :    0.179648
  26 H :    0.148988
  27 H :    0.138577
  28 H :    0.361404
Sum of atomic charges:    0.0000000

LOEWDIN ATOMIC CHARGES
----------------------
   0 C :    0.169801
   1 C :   -0.213576
   2 C :   -0.216692
   3 C :   -0.033879
   4 O :   -0.330420
   5 H :    0.091900
   6 H :    0.116875
   7 H :    0.127321
   8 H :    0.116475
   9 H :    0.118126
  10 H :    0.100552
  11 H :    0.106491
  12 C :   -0.038956
  13 H :    0.120296
  14 H :    0.099131
  15 O :   -0.322063
  16 C :    0.006721
  17 C :    0.037136
  18 C :   -0.244349
  19 C :   -0.035886
  20 O :   -0.331141
  21 H :    0.117356
  22 O :   -0.417847
  23 H :    0.123795
  24 H :    0.120312
  25 H :    0.129454
  26 H :    0.105590
  27 H :    0.096704
  28 H :    0.280773

  Mayer bond orders larger than 0.100000
B(  0-C ,  1-C ) :   0.9405 B(  0-C ,  4-O ) :   0.8917 B(  0-C ,  5-H ) :   0.9206
B(  0-C , 15-O ) :   0.8806 B(  1-C ,  2-C ) :   0.9583 B(  1-C ,  6-H ) :   0.9405
B(  1-C ,  7-H ) :   0.9362 B(  2-C ,  3-C ) :   0.9553 B(  2-C ,  8-H ) :   0.9445
B(  2-C ,  9-H ) :   0.9445 B(  3-C ,  4-O ) :   0.8314 B(  3-C , 10-H ) :   0.9228
B(  3-C , 11-H ) :   0.9416 B( 12-C , 13-H ) :   0.9311 B( 12-C , 14-H ) :   0.9100
B( 12-C , 15-O ) :   0.8570 B( 12-C , 16-C ) :   0.8963 B( 16-C , 17-C ) :   0.9075
B( 16-C , 20-O ) :   0.8669 B( 16-C , 21-H ) :   0.9124 B( 17-C , 18-C ) :   0.9257
B( 17-C , 22-O ) :   0.8877 B( 17-C , 23-H ) :   0.9287 B( 18-C , 19-C ) :   0.9449
B( 18-C , 24-H ) :   0.9406 B( 18-C , 25-H ) :   0.8984 B( 19-C , 20-O ) :   0.8411
B( 19-C , 26-H ) :   0.9339 B( 19-C , 27-H ) :   0.9367 B( 22-O , 28-H ) :   0.7965

FINAL SINGLE POINT ENERGY      -652.860848797042

DIPOLE MOMENT
-------------
                                X             Y             Z
Electronic contribution:     -3.74195      -4.13569      -0.03476
Nuclear contribution   :      4.49560       4.98840      -0.35525
                        -----------------------------------------
Total Dipole Moment    :      0.75365       0.85271      -0.39001
                        -----------------------------------------
Magnitude (a.u.)       :      1.20300
Magnitude (Debye)      :      3.05779

Rotational constants in cm-1:     0.046937     0.016980     0.015830
Rotational constants in MHz :  1407.146421   509.048671   474.578471

                             ****ORCA TERMINATED NORMALLY****
TOTAL RUN TIME: 0 days 0 hours 23 minutes 38 seconds 398 msec
