                         Program Version 4.2.1 -  RELEASE  -
|  1> # Test redundant internal optimization
|  2> #
|  3> ! RKS B3LYP  Opt TightSCF SmallPrint
|  4>
|  5> %basis
|  6>         Basis "6-31G"
|  7> end
|  8>
|  9> %geom
| 10> Constraints
| 11> { D 4  0  19  14  300.0   C } # D for Dihedral angle
| 12> { D 0  19  14  12  45.0   C } # D for Dihedral angle
| 13> { D 0  4  3  2   C } # D for Dihedral angle
| 14> { D 4  3  2  1   C } # D for Dihedral angle
| 15> { D 3  2  1  0   C } # D for Dihedral angle
| 16> { D 2  1  0  4   C } # D for Dihedral angle
| 17> { D 1  0  4  3   C } # D for Dihedral angle
| 18> { D 14  15  16  17   C } # D for Dihedral angle
| 19> { D 15  16  17  12   C } # D for Dihedral angle
| 20> { D 16  17  12  14   C } # D for Dihedral angle
| 21> { D 17  12  14  15   C } # D for Dihedral angle
| 22> { D 12  14  15  16   C } # D for Dihedral angle
| 23> end
| 24> end
| 25>
| 26>
| 27> #%pal
| 28> #nprocs 8
| 29> #end
| 30>
| 31> * xyz 0 1
| 32> C  -21.048   26.222   46.251
| 33> C  -20.361   27.558   45.944
| 34> C  -20.329   28.222   47.341
| 35> C  -20.110   27.022   48.296
| 36> O  -20.473   25.807   47.535
| 37> H  -20.833   25.428   45.533
| 38> H  -19.344   27.382   45.576
| 39> H  -20.898   28.157   45.201
| 40> H  -19.543   28.978   47.434
| 41> H  -21.289   28.710   47.548
| 42> H  -20.733   27.082   49.195
| 43> H  -19.064   26.913   48.597
| 44> C  -22.436   24.505   47.916
| 45> H  -22.770   23.463   48.044
| 46> C  -23.171   25.189   46.758
| 47> C  -24.528   25.541   47.411
| 48> C  -24.139   25.882   48.871
| 49> O  -22.795   25.305   49.093
| 50> H  -21.348   24.525   47.837
| 51> O  -22.472   26.381   46.366
| 52> H  -23.278   24.546   45.877
| 53> H  -25.039   26.370   46.910
| 54> H  -25.197   24.671   47.383
| 55> H  -24.836   25.459   49.602
| 56> H  -24.058   26.960   49.041
| 57> *
| 58>
| 59>                          ****END OF INPUT****
 Total Charge           Charge          ....    0
 Multiplicity           Mult            ....    1
 Number of Electrons    NEL             ....   86
FINAL SINGLE POINT ENERGY      -538.410495275402
FINAL SINGLE POINT ENERGY      -538.433124286925
FINAL SINGLE POINT ENERGY      -538.435710458735
FINAL SINGLE POINT ENERGY      -538.436260438147
FINAL SINGLE POINT ENERGY      -538.436345733481
FINAL SINGLE POINT ENERGY      -538.436368313199
                    ***********************HURRAY********************

CARTESIAN COORDINATES (ANGSTROEM)
---------------------------------
  C    -20.905174   26.190465   46.251051
  C    -20.451516   27.619033   45.949378
  C    -20.444843   28.254665   47.359426
  C    -19.992095   27.087531   48.267144
  O    -20.214335   25.849756   47.472570
  H    -20.619533   25.427073   45.519321
  H    -19.442333   27.595077   45.522021
  H    -21.123627   28.121826   45.251296
  H    -19.775499   29.117550   47.427701
  H    -21.456487   28.576165   47.621127
  H    -20.572589   27.003237   49.187525
  H    -18.924090   27.119286   48.501540
  C    -22.583985   24.300912   47.990424
  H    -23.123261   23.343267   48.053823
  C    -23.128541   25.093318   46.801541
  C    -24.445241   25.649730   47.375819
  C    -24.102635   25.922375   48.860291
  O    -22.882783   25.141921   49.156469
  H    -21.510477   24.135616   47.983352
  O    -22.344545   26.256852   46.380691
  H    -23.288318   24.447151   45.926343
  H    -24.755412   26.546590   46.835093
  H    -25.233108   24.893048   47.282711
  H    -24.904197   25.610768   49.539599
  H    -23.867378   26.974786   49.043742

 Multiplicity           Mult            ....    1
 Number of Electrons    NEL             ....   86
 Basis Dimension        Dim             ....  127

ORBITAL ENERGIES
----------------

  NO   OCC          E(Eh)            E(eV)
   0   2.0000     -19.139567      -520.8141
   1   2.0000     -19.137744      -520.7645
   2   2.0000     -19.124560      -520.4057
   3   2.0000     -10.276851      -279.6473
   4   2.0000     -10.237016      -278.5634
   5   2.0000     -10.218303      -278.0542
   6   2.0000     -10.217391      -278.0294
   7   2.0000     -10.211492      -277.8688
   8   2.0000     -10.182091      -277.0688
   9   2.0000     -10.181731      -277.0590
  10   2.0000     -10.180837      -277.0347
  11   2.0000      -1.049948       -28.5705
  12   2.0000      -1.007612       -27.4185
  13   2.0000      -0.986552       -26.8454
  14   2.0000      -0.790532       -21.5115
  15   2.0000      -0.772561       -21.0225
  16   2.0000      -0.732422       -19.9302
  17   2.0000      -0.718481       -19.5508
  18   2.0000      -0.609876       -16.5956
  19   2.0000      -0.596809       -16.2400
  20   2.0000      -0.588648       -16.0179
  21   2.0000      -0.566746       -15.4219
  22   2.0000      -0.515210       -14.0196
  23   2.0000      -0.498450       -13.5635
  24   2.0000      -0.481683       -13.1073
  25   2.0000      -0.475685       -12.9440
  26   2.0000      -0.445349       -12.1186
  27   2.0000      -0.442191       -12.0326
  28   2.0000      -0.425325       -11.5737
  29   2.0000      -0.405992       -11.0476
  30   2.0000      -0.398320       -10.8388
  31   2.0000      -0.381259       -10.3746
  32   2.0000      -0.366033        -9.9603
  33   2.0000      -0.362664        -9.8686
  34   2.0000      -0.354763        -9.6536
  35   2.0000      -0.351755        -9.5717
  36   2.0000      -0.339480        -9.2377
  37   2.0000      -0.325290        -8.8516
  38   2.0000      -0.299741        -8.1564
  39   2.0000      -0.292578        -7.9614
  40   2.0000      -0.262171        -7.1340
  41   2.0000      -0.248459        -6.7609
  42   2.0000      -0.231123        -6.2892
  43   0.0000       0.080571         2.1924
  44   0.0000       0.097618         2.6563
  45   0.0000       0.101807         2.7703
  46   0.0000       0.116925         3.1817
  47   0.0000       0.123491         3.3604

MULLIKEN ATOMIC CHARGES
-----------------------
   0 C :    0.295979
   1 C :   -0.260965
   2 C :   -0.297430
   3 C :   -0.007856
   4 O :   -0.512761
   5 H :    0.139162
   6 H :    0.142830
   7 H :    0.156927
   8 H :    0.138497
   9 H :    0.159436
  10 H :    0.169843
  11 H :    0.140121
  12 C :   -0.017277
  13 H :    0.117270
  14 C :    0.083715
  15 C :   -0.296282
  16 C :    0.000025
  17 O :   -0.524511
  18 H :    0.197726
  19 O :   -0.533569
  20 H :    0.126770
  21 H :    0.163285
  22 H :    0.139325
  23 H :    0.134941
  24 H :    0.144802
Sum of atomic charges:    0.0000000

LOEWDIN ATOMIC CHARGES
----------------------
   0 C :    0.176072
   1 C :   -0.213812
   2 C :   -0.215254
   3 C :   -0.028736
   4 O :   -0.322713
   5 H :    0.093932
   6 H :    0.112588
   7 H :    0.123849
   8 H :    0.112468
   9 H :    0.117439
  10 H :    0.116974
  11 H :    0.101779
  12 C :   -0.054629
  13 H :    0.089316
  14 C :    0.041985
  15 C :   -0.225555
  16 C :   -0.030414
  17 O :   -0.332146
  18 H :    0.135300
  19 O :   -0.332448
  20 H :    0.095048
  21 H :    0.127725
  22 H :    0.111008
  23 H :    0.097550
  24 H :    0.102674

  Mayer bond orders larger than 0.100000
B(  0-C ,  1-C ) :   0.9496 B(  0-C ,  4-O ) :   0.9028 B(  0-C ,  5-H ) :   0.9221
B(  0-C , 19-O ) :   0.8525 B(  1-C ,  2-C ) :   0.9572 B(  1-C ,  6-H ) :   0.9405
B(  1-C ,  7-H ) :   0.9367 B(  2-C ,  3-C ) :   0.9563 B(  2-C ,  8-H ) :   0.9450
B(  2-C ,  9-H ) :   0.9441 B(  3-C ,  4-O ) :   0.8225 B(  3-C , 10-H ) :   0.9276
B(  3-C , 11-H ) :   0.9403 B( 12-C , 13-H ) :   0.9088 B( 12-C , 14-C ) :   0.9206
B( 12-C , 17-O ) :   0.8576 B( 12-C , 18-H ) :   0.9074 B( 14-C , 15-C ) :   0.9554
B( 14-C , 19-O ) :   0.8343 B( 14-C , 20-H ) :   0.9234 B( 15-C , 16-C ) :   0.9467
B( 15-C , 21-H ) :   0.9364 B( 15-C , 22-H ) :   0.9416 B( 16-C , 17-O ) :   0.8604
B( 16-C , 23-H ) :   0.9330 B( 16-C , 24-H ) :   0.9374

FINAL SINGLE POINT ENERGY      -538.436369987431

DIPOLE MOMENT
-------------
                                X             Y             Z
Electronic contribution:      0.93931      -2.69903      -0.00793
Nuclear contribution   :     -1.19121       3.06654      -0.64080
                        -----------------------------------------
Total Dipole Moment    :     -0.25190       0.36752      -0.64873
                        -----------------------------------------
Magnitude (a.u.)       :      0.78700
Magnitude (Debye)      :      2.00040

Rotational constants in cm-1:     0.066137     0.027067     0.025259
Rotational constants in MHz :  1982.751125   811.439404   757.256329

                             ****ORCA TERMINATED NORMALLY****
TOTAL RUN TIME: 0 days 0 hours 7 minutes 45 seconds 473 msec
