                         Program Version 4.2.0 -  RELEASE  -
|  1> # Test redundant internal optimization
|  2> #
|  3> ! RKS B3LYP  Opt TightSCF SmallPrint
|  4>
|  5> %basis
|  6>         Basis "6-31G"
|  7> end
|  8>
|  9> %geom
| 10> Constraints
| 11> { D 4  0  15  12  345.0   C } # D for Dihedral angle
| 12> { D 0  15  12  16  60.0   C } # D for Dihedral angle
| 13> { D 0  4  3  2   C } # D for Dihedral angle
| 14> { D 4  3  2  1   C } # D for Dihedral angle
| 15> { D 3  2  1  0   C } # D for Dihedral angle
| 16> { D 2  1  0  4   C } # D for Dihedral angle
| 17> { D 1  0  4  3   C } # D for Dihedral angle
| 18> { D 16  20  19  18   C } # D for Dihedral angle
| 19> { D 20  19  18  17   C } # D for Dihedral angle
| 20> { D 19  18  17  16   C } # D for Dihedral angle
| 21> { D 18  17  16  20   C } # D for Dihedral angle
| 22> { D 17  16  20  19   C } # D for Dihedral angle
| 23> { D 15  12  16  20   C } # D for Dihedral angle
| 24> end
| 25> end
| 26>
| 27>
| 28> #%pal
| 29> #nprocs 8
| 30> #end
| 31>
| 32> * xyz 0 1
| 33> C  -21.048   26.222   46.251
| 34> C  -20.361   27.558   45.944
| 35> C  -20.329   28.222   47.341
| 36> C  -20.110   27.022   48.296
| 37> O  -20.473   25.807   47.535
| 38> H  -20.833   25.428   45.533
| 39> H  -19.344   27.382   45.576
| 40> H  -20.898   28.157   45.201
| 41> H  -19.543   28.978   47.434
| 42> H  -21.289   28.710   47.548
| 43> H  -20.733   27.082   49.195
| 44> H  -19.064   26.913   48.597
| 45> C  -23.221   25.764   47.645
| 46> H  -24.305   25.934   47.630
| 47> H  -23.043   24.681   47.667
| 48> O  -22.586   26.394   46.375
| 49> C  -22.651   26.363   48.961
| 50> C  -23.004   27.848   49.096
| 51> C  -24.471   27.779   49.581
| 52> C  -24.484   26.519   50.483
| 53> O  -23.283   25.734   50.126
| 54> H  -21.583   26.144   49.020
| 55> H  -22.367   28.318   49.854
| 56> O  -22.845   28.636   47.766
| 57> H  -24.783   28.680   50.119
| 58> H  -25.145   27.649   48.726
| 59> H  -25.375   25.902   50.328
| 60> H  -24.405   26.765   51.545
| 61> H  -23.474   28.182   46.993
| 62> *
| 63>
| 64>                          ****END OF INPUT****
 Total Charge           Charge          ....    0
 Multiplicity           Mult            ....    1
 Number of Electrons    NEL             ....  102
FINAL SINGLE POINT ENERGY      -652.773929697320
FINAL SINGLE POINT ENERGY      -652.828932245991
FINAL SINGLE POINT ENERGY      -652.850581158628
FINAL SINGLE POINT ENERGY      -652.856039162650
FINAL SINGLE POINT ENERGY      -652.857053495248
FINAL SINGLE POINT ENERGY      -652.857490270505
FINAL SINGLE POINT ENERGY      -652.857616016964
FINAL SINGLE POINT ENERGY      -652.857655505357
FINAL SINGLE POINT ENERGY      -652.857659491775
FINAL SINGLE POINT ENERGY      -652.857661862463
                    ***********************HURRAY********************

CARTESIAN COORDINATES (ANGSTROEM)
---------------------------------
  C    -21.069986   26.264621   46.380929
  C    -20.421681   27.528425   45.805897
  C    -20.031604   28.302502   47.094499
  C    -19.642576   27.175043   48.074942
  O    -20.242260   25.924350   47.506162
  H    -20.956923   25.409324   45.704143
  H    -19.537313   27.222729   45.237445
  H    -21.091592   28.088612   45.148449
  H    -19.195971   28.988234   46.919547
  H    -20.877887   28.871067   47.480685
  H    -20.027625   27.329088   49.085912
  H    -18.565714   26.991708   48.123028
  C    -23.203750   25.791909   47.764748
  H    -24.258556   25.986390   47.554487
  H    -23.058453   24.704250   47.785032
  O    -22.528616   26.347784   46.573855
  C    -22.807471   26.335922   49.144537
  C    -23.179707   27.819631   49.331053
  C    -24.716865   27.734512   49.599988
  C    -24.847126   26.419276   50.399404
  O    -23.597617   25.645028   50.159350
  H    -21.766404   26.105754   49.357361
  H    -22.659604   28.244318   50.193085
  O    -22.875442   28.679692   48.205542
  H    -25.080586   28.605549   50.151249
  H    -25.246100   27.696771   48.642784
  H    -25.703214   25.809073   50.094219
  H    -24.905051   26.590220   51.478379
  H    -22.954306   28.161218   47.369289

 Multiplicity           Mult            ....    1
 Number of Electrons    NEL             ....  102
 Basis Dimension        Dim             ....  149

ORBITAL ENERGIES
----------------

  NO   OCC          E(Eh)            E(eV)
   0   2.0000     -19.157383      -521.2989
   1   2.0000     -19.156184      -521.2663
   2   2.0000     -19.143574      -520.9231
   3   2.0000     -19.135794      -520.7114
   4   2.0000     -10.284842      -279.8648
   5   2.0000     -10.240542      -278.6593
   6   2.0000     -10.236019      -278.5362
   7   2.0000     -10.233048      -278.4554
   8   2.0000     -10.230925      -278.3976
   9   2.0000     -10.230412      -278.3837
  10   2.0000     -10.190648      -277.3016
  11   2.0000     -10.187312      -277.2109
  12   2.0000     -10.179626      -277.0017
  13   2.0000      -1.056408       -28.7463
  14   2.0000      -1.031169       -28.0595
  15   2.0000      -1.011463       -27.5233
  16   2.0000      -0.999590       -27.2002
  17   2.0000      -0.790478       -21.5100
  18   2.0000      -0.776179       -21.1209
  19   2.0000      -0.768368       -20.9083
  20   2.0000      -0.735980       -20.0270
  21   2.0000      -0.682405       -18.5692
  22   2.0000      -0.603267       -16.4157
  23   2.0000      -0.602821       -16.4036
  24   2.0000      -0.600959       -16.3529
  25   2.0000      -0.575821       -15.6689
  26   2.0000      -0.530580       -14.4378
  27   2.0000      -0.509707       -13.8698
  28   2.0000      -0.498455       -13.5636
  29   2.0000      -0.489375       -13.3166
  30   2.0000      -0.473327       -12.8799
  31   2.0000      -0.459611       -12.5066
  32   2.0000      -0.444613       -12.0985
  33   2.0000      -0.430568       -11.7163
  34   2.0000      -0.426856       -11.6153
  35   2.0000      -0.411041       -11.1850
  36   2.0000      -0.410243       -11.1633
  37   2.0000      -0.397820       -10.8252
  38   2.0000      -0.382082       -10.3970
  39   2.0000      -0.365981        -9.9588
  40   2.0000      -0.361493        -9.8367
  41   2.0000      -0.359472        -9.7817
  42   2.0000      -0.352198        -9.5838
  43   2.0000      -0.342593        -9.3224
  44   2.0000      -0.332325        -9.0430
  45   2.0000      -0.314843        -8.5673
  46   2.0000      -0.302413        -8.2291
  47   2.0000      -0.276412        -7.5216
  48   2.0000      -0.264842        -7.2067
  49   2.0000      -0.258391        -7.0312
  50   2.0000      -0.241391        -6.5686
  51   0.0000       0.056391         1.5345
  52   0.0000       0.077500         2.1089
  53   0.0000       0.084469         2.2985
  54   0.0000       0.092955         2.5294
  55   0.0000       0.105307         2.8656

MULLIKEN ATOMIC CHARGES
-----------------------
   0 C :    0.314033
   1 C :   -0.281764
   2 C :   -0.333551
   3 C :   -0.028016
   4 O :   -0.512732
   5 H :    0.158717
   6 H :    0.155542
   7 H :    0.157024
   8 H :    0.139895
   9 H :    0.203266
  10 H :    0.145299
  11 H :    0.154481
  12 C :   -0.044148
  13 H :    0.158068
  14 H :    0.168125
  15 O :   -0.555829
  16 C :    0.051085
  17 C :    0.101263
  18 C :   -0.303127
  19 C :   -0.024825
  20 O :   -0.518435
  21 H :    0.185605
  22 H :    0.152371
  23 O :   -0.622494
  24 H :    0.152495
  25 H :    0.147366
  26 H :    0.144496
  27 H :    0.153472
  28 H :    0.382317
Sum of atomic charges:   -0.0000000

LOEWDIN ATOMIC CHARGES
----------------------
   0 C :    0.177619
   1 C :   -0.218372
   2 C :   -0.237136
   3 C :   -0.033515
   4 O :   -0.318285
   5 H :    0.100617
   6 H :    0.120117
   7 H :    0.123602
   8 H :    0.114278
   9 H :    0.136675
  10 H :    0.102099
  11 H :    0.107772
  12 C :   -0.050097
  13 H :    0.113189
  14 H :    0.115715
  15 O :   -0.347596
  16 C :    0.003958
  17 C :    0.035903
  18 C :   -0.236777
  19 C :   -0.035160
  20 O :   -0.318067
  21 H :    0.126584
  22 H :    0.110677
  23 O :   -0.420277
  24 H :    0.122206
  25 H :    0.112041
  26 H :    0.102998
  27 H :    0.107745
  28 H :    0.281487

  Mayer bond orders larger than 0.100000
B(  0-C ,  1-C ) :   0.9330 B(  0-C ,  4-O ) :   0.9167 B(  0-C ,  5-H ) :   0.9315
B(  0-C , 15-O ) :   0.8162 B(  1-C ,  2-C ) :   0.9570 B(  1-C ,  6-H ) :   0.9365
B(  1-C ,  7-H ) :   0.9365 B(  2-C ,  3-C ) :   0.9549 B(  2-C ,  8-H ) :   0.9428
B(  2-C ,  9-H ) :   0.8969 B(  3-C ,  4-O ) :   0.8174 B(  3-C , 10-H ) :   0.9271
B(  3-C , 11-H ) :   0.9413 B( 12-C , 13-H ) :   0.9374 B( 12-C , 14-H ) :   0.9259
B( 12-C , 15-O ) :   0.8036 B( 12-C , 16-C ) :   0.8807 B( 16-C , 17-C ) :   0.9036
B( 16-C , 20-O ) :   0.8365 B( 16-C , 21-H ) :   0.9122 B( 17-C , 18-C ) :   0.9061
B( 17-C , 22-H ) :   0.9347 B( 17-C , 23-O ) :   0.8967 B( 18-C , 19-C ) :   0.9416
B( 18-C , 24-H ) :   0.9442 B( 18-C , 25-H ) :   0.9417 B( 19-C , 20-O ) :   0.8356
B( 19-C , 26-H ) :   0.9330 B( 19-C , 27-H ) :   0.9375 B( 23-O , 28-H ) :   0.7280

FINAL SINGLE POINT ENERGY      -652.857662355973

DIPOLE MOMENT
-------------
                                X             Y             Z
Electronic contribution:     -0.13495      -3.35999      -0.04403
Nuclear contribution   :      0.09060       3.82364      -0.10442
                        -----------------------------------------
Total Dipole Moment    :     -0.04435       0.46365      -0.14845
                        -----------------------------------------
Magnitude (a.u.)       :      0.48886
Magnitude (Debye)      :      1.24257

Rotational constants in cm-1:     0.050979     0.017554     0.016576
Rotational constants in MHz :  1528.304545   526.259946   496.923818

                             ****ORCA TERMINATED NORMALLY****
TOTAL RUN TIME: 0 days 0 hours 36 minutes 22 seconds 548 msec
