                         Program Version 4.2.0 -  RELEASE  -
|  1> # Test redundant internal optimization
|  2> #
|  3> ! RKS B3LYP  Opt TightSCF SmallPrint
|  4>
|  5> %basis
|  6>         Basis "6-31G"
|  7> end
|  8>
|  9> %geom
| 10> Constraints
| 11> { D 4  0  15  12  240.0   C } # D for Dihedral angle
| 12> { D 0  15  12  16  135.0   C } # D for Dihedral angle
| 13> { D 0  4  3  2   C } # D for Dihedral angle
| 14> { D 4  3  2  1   C } # D for Dihedral angle
| 15> { D 3  2  1  0   C } # D for Dihedral angle
| 16> { D 2  1  0  4   C } # D for Dihedral angle
| 17> { D 1  0  4  3   C } # D for Dihedral angle
| 18> { D 16  20  19  18   C } # D for Dihedral angle
| 19> { D 20  19  18  17   C } # D for Dihedral angle
| 20> { D 19  18  17  16   C } # D for Dihedral angle
| 21> { D 18  17  16  20   C } # D for Dihedral angle
| 22> { D 17  16  20  19   C } # D for Dihedral angle
| 23> { D 15  12  16  20   C } # D for Dihedral angle
| 24> end
| 25> end
| 26>
| 27>
| 28> #%pal
| 29> #nprocs 8
| 30> #end
| 31>
| 32> * xyz 0 1
| 33> C  -21.048   26.222   46.251
| 34> C  -20.361   27.558   45.944
| 35> C  -20.329   28.222   47.341
| 36> C  -20.110   27.022   48.296
| 37> O  -20.473   25.807   47.535
| 38> H  -20.833   25.428   45.533
| 39> H  -19.344   27.382   45.576
| 40> H  -20.898   28.157   45.201
| 41> H  -19.543   28.978   47.434
| 42> H  -21.289   28.710   47.548
| 43> H  -20.733   27.082   49.195
| 44> H  -19.064   26.913   48.597
| 45> C  -23.430   25.483   45.442
| 46> H  -23.822   26.081   44.610
| 47> H  -22.808   24.680   45.024
| 48> O  -22.586   26.394   46.375
| 49> C  -24.629   24.819   46.175
| 50> C  -24.163   24.036   47.408
| 51> C  -23.961   25.170   48.441
| 52> C  -25.087   26.174   48.087
| 53> O  -25.529   25.842   46.715
| 54> H  -25.205   24.231   45.458
| 55> H  -24.951   23.350   47.737
| 56> O  -22.870   23.213   47.157
| 57> H  -24.026   24.819   49.476
| 58> H  -22.976   25.632   48.305
| 59> H  -24.746   27.214   48.113
| 60> H  -25.959   26.071   48.740
| 61> H  -22.067   23.881   46.827
| 62> *
| 63>
| 64>                          ****END OF INPUT****
 Total Charge           Charge          ....    0
 Multiplicity           Mult            ....    1
 Number of Electrons    NEL             ....  102
FINAL SINGLE POINT ENERGY      -652.832613270733
FINAL SINGLE POINT ENERGY      -652.856665256763
FINAL SINGLE POINT ENERGY      -652.862286688473
FINAL SINGLE POINT ENERGY      -652.865298397911
FINAL SINGLE POINT ENERGY      -652.865965353067
FINAL SINGLE POINT ENERGY      -652.866159110647
FINAL SINGLE POINT ENERGY      -652.866165832276
                    ***********************HURRAY********************

CARTESIAN COORDINATES (ANGSTROEM)
---------------------------------
  C    -21.061591   26.204375   46.169873
  C    -20.378491   27.544632   45.889266
  C    -20.403310   28.211931   47.285696
  C    -20.207879   27.017286   48.247445
  O    -20.536976   25.801125   47.457069
  H    -20.826749   25.402979   45.463295
  H    -19.348859   27.367453   45.557241
  H    -20.905001   28.121481   45.126045
  H    -19.624637   28.970816   47.405614
  H    -21.376901   28.683435   47.449280
  H    -20.865077   27.055191   49.119790
  H    -19.171980   26.901596   48.578505
  C    -23.326964   25.551328   45.410410
  H    -23.700828   26.168908   44.585439
  H    -22.739510   24.719127   45.001294
  O    -22.491875   26.387243   46.269897
  C    -24.509258   24.963302   46.172070
  C    -24.125150   24.067219   47.364087
  C    -23.957532   25.112829   48.512432
  C    -25.043460   26.157051   48.175209
  O    -25.412402   25.947451   46.751907
  H    -25.104174   24.406135   45.436822
  H    -24.932454   23.362936   47.576283
  O    -22.939420   23.261823   47.136488
  H    -24.101311   24.661410   49.498959
  H    -22.958298   25.545227   48.451472
  H    -24.691274   27.185482   48.295581
  H    -25.957568   26.018124   48.761384
  H    -22.141072   23.773105   47.392147

 Multiplicity           Mult            ....    1
 Number of Electrons    NEL             ....  102
 Basis Dimension        Dim             ....  149

ORBITAL ENERGIES
----------------

  NO   OCC          E(Eh)            E(eV)
   0   2.0000     -19.154642      -521.2243
   1   2.0000     -19.150072      -521.1000
   2   2.0000     -19.129663      -520.5446
   3   2.0000     -19.129316      -520.5351
   4   2.0000     -10.289558      -279.9931
   5   2.0000     -10.235411      -278.5197
   6   2.0000     -10.230176      -278.3772
   7   2.0000     -10.229783      -278.3665
   8   2.0000     -10.224942      -278.2348
   9   2.0000     -10.217326      -278.0276
  10   2.0000     -10.193239      -277.3721
  11   2.0000     -10.192624      -277.3554
  12   2.0000     -10.173747      -276.8417
  13   2.0000      -1.063302       -28.9339
  14   2.0000      -1.020875       -27.7794
  15   2.0000      -1.002784       -27.2871
  16   2.0000      -0.999240       -27.1907
  17   2.0000      -0.794639       -21.6232
  18   2.0000      -0.770041       -20.9539
  19   2.0000      -0.761063       -20.7096
  20   2.0000      -0.735424       -20.0119
  21   2.0000      -0.675061       -18.3693
  22   2.0000      -0.607531       -16.5318
  23   2.0000      -0.601650       -16.3717
  24   2.0000      -0.596033       -16.2189
  25   2.0000      -0.570216       -15.5164
  26   2.0000      -0.525815       -14.3082
  27   2.0000      -0.504707       -13.7338
  28   2.0000      -0.501023       -13.6335
  29   2.0000      -0.488344       -13.2885
  30   2.0000      -0.473787       -12.8924
  31   2.0000      -0.454371       -12.3641
  32   2.0000      -0.447653       -12.1813
  33   2.0000      -0.429817       -11.6959
  34   2.0000      -0.421845       -11.4790
  35   2.0000      -0.409800       -11.1512
  36   2.0000      -0.407140       -11.0788
  37   2.0000      -0.397850       -10.8261
  38   2.0000      -0.372973       -10.1491
  39   2.0000      -0.366989        -9.9863
  40   2.0000      -0.363277        -9.8853
  41   2.0000      -0.355276        -9.6675
  42   2.0000      -0.348207        -9.4752
  43   2.0000      -0.329966        -8.9788
  44   2.0000      -0.319588        -8.6964
  45   2.0000      -0.310232        -8.4418
  46   2.0000      -0.303663        -8.2631
  47   2.0000      -0.277179        -7.5424
  48   2.0000      -0.259048        -7.0491
  49   2.0000      -0.255944        -6.9646
  50   2.0000      -0.232188        -6.3181
  51   0.0000       0.067972         1.8496
  52   0.0000       0.082093         2.2339
  53   0.0000       0.085477         2.3259
  54   0.0000       0.099140         2.6977
  55   0.0000       0.110630         3.0104

MULLIKEN ATOMIC CHARGES
-----------------------
   0 C :    0.273358
   1 C :   -0.249786
   2 C :   -0.301352
   3 C :   -0.006009
   4 O :   -0.519313
   5 H :    0.150970
   6 H :    0.145681
   7 H :    0.155191
   8 H :    0.145961
   9 H :    0.166887
  10 H :    0.150037
  11 H :    0.147936
  12 C :   -0.017509
  13 H :    0.150034
  14 H :    0.143441
  15 O :   -0.522558
  16 C :    0.092759
  17 C :    0.092981
  18 C :   -0.326083
  19 C :   -0.001310
  20 O :   -0.522092
  21 H :    0.145783
  22 H :    0.155605
  23 O :   -0.626488
  24 H :    0.137053
  25 H :    0.180166
  26 H :    0.142081
  27 H :    0.139129
  28 H :    0.377447
Sum of atomic charges:   -0.0000000

LOEWDIN ATOMIC CHARGES
----------------------
   0 C :    0.169444
   1 C :   -0.218594
   2 C :   -0.215766
   3 C :   -0.027290
   4 O :   -0.329228
   5 H :    0.101785
   6 H :    0.114323
   7 H :    0.123211
   8 H :    0.116433
   9 H :    0.121423
  10 H :    0.106088
  11 H :    0.105446
  12 C :   -0.042510
  13 H :    0.107140
  14 H :    0.106929
  15 O :   -0.330607
  16 C :    0.015788
  17 C :    0.039656
  18 C :   -0.245004
  19 C :   -0.024378
  20 O :   -0.323952
  21 H :    0.112530
  22 H :    0.112267
  23 O :   -0.422730
  24 H :    0.111873
  25 H :    0.126418
  26 H :    0.103089
  27 H :    0.099617
  28 H :    0.286600

  Mayer bond orders larger than 0.100000
B(  0-C ,  1-C ) :   0.9446 B(  0-C ,  4-O ) :   0.8915 B(  0-C ,  5-H ) :   0.9152
B(  0-C , 15-O ) :   0.8567 B(  1-C ,  2-C ) :   0.9550 B(  1-C ,  6-H ) :   0.9357
B(  1-C ,  7-H ) :   0.9380 B(  2-C ,  3-C ) :   0.9547 B(  2-C ,  8-H ) :   0.9445
B(  2-C ,  9-H ) :   0.9426 B(  3-C ,  4-O ) :   0.8267 B(  3-C , 10-H ) :   0.9339
B(  3-C , 11-H ) :   0.9403 B( 12-C , 13-H ) :   0.9276 B( 12-C , 14-H ) :   0.9013
B( 12-C , 15-O ) :   0.8325 B( 12-C , 16-C ) :   0.9124 B( 16-C , 17-C ) :   0.8849
B( 16-C , 20-O ) :   0.8825 B( 16-C , 21-H ) :   0.9263 B( 17-C , 18-C ) :   0.9393
B( 17-C , 22-H ) :   0.9365 B( 17-C , 23-O ) :   0.8996 B( 18-C , 19-C ) :   0.9450
B( 18-C , 24-H ) :   0.9425 B( 18-C , 25-H ) :   0.9150 B( 19-C , 20-O ) :   0.8400
B( 19-C , 26-H ) :   0.9338 B( 19-C , 27-H ) :   0.9381 B( 23-O , 28-H ) :   0.7733

FINAL SINGLE POINT ENERGY      -652.866164840278

DIPOLE MOMENT
-------------
                                X             Y             Z
Electronic contribution:     -2.60773      -3.58229      -1.66222
Nuclear contribution   :      3.57487       4.50628       1.72619
                        -----------------------------------------
Total Dipole Moment    :      0.96714       0.92399       0.06396
                        -----------------------------------------
Magnitude (a.u.)       :      1.33911
Magnitude (Debye)      :      3.40375

Rotational constants in cm-1:     0.044466     0.017347     0.017006
Rotational constants in MHz :  1333.048200   520.045467   509.821295

                             ****ORCA TERMINATED NORMALLY****
TOTAL RUN TIME: 0 days 0 hours 29 minutes 46 seconds 676 msec
