                         Program Version 4.2.0 -  RELEASE  -
|  1> # Test redundant internal optimization
|  2> #
|  3> ! RKS B3LYP  Opt TightSCF SmallPrint
|  4>
|  5> %basis
|  6>         Basis "6-31G"
|  7> end
|  8>
|  9> %geom
| 10> Constraints
| 11> { D 4  0  15  12  195.0   C } # D for Dihedral angle
| 12> { D 0  15  12  16  0.0   C } # D for Dihedral angle
| 13> { D 0  4  3  2   C } # D for Dihedral angle
| 14> { D 4  3  2  1   C } # D for Dihedral angle
| 15> { D 3  2  1  0   C } # D for Dihedral angle
| 16> { D 2  1  0  4   C } # D for Dihedral angle
| 17> { D 1  0  4  3   C } # D for Dihedral angle
| 18> { D 16  20  19  18   C } # D for Dihedral angle
| 19> { D 20  19  18  17   C } # D for Dihedral angle
| 20> { D 19  18  17  16   C } # D for Dihedral angle
| 21> { D 18  17  16  20   C } # D for Dihedral angle
| 22> { D 17  16  20  19   C } # D for Dihedral angle
| 23> { D 15  12  16  20   C } # D for Dihedral angle
| 24> end
| 25> end
| 26>
| 27>
| 28> #%pal
| 29> #nprocs 8
| 30> #end
| 31>
| 32> * xyz 0 1
| 33> C  -21.048   26.222   46.251
| 34> C  -20.361   27.558   45.944
| 35> C  -20.329   28.222   47.341
| 36> C  -20.110   27.022   48.296
| 37> O  -20.473   25.807   47.535
| 38> H  -20.833   25.428   45.533
| 39> H  -19.344   27.382   45.576
| 40> H  -20.898   28.157   45.201
| 41> H  -19.543   28.978   47.434
| 42> H  -21.289   28.710   47.548
| 43> H  -20.733   27.082   49.195
| 44> H  -19.064   26.913   48.597
| 45> C  -23.353   26.472   45.026
| 46> H  -24.084   25.655   44.978
| 47> H  -23.895   27.423   44.948
| 48> O  -22.586   26.394   46.375
| 49> C  -22.413   26.361   43.794
| 50> C  -23.186   26.557   42.485
| 51> C  -23.327   28.097   42.432
| 52> C  -21.998   28.593   43.055
| 53> O  -21.429   27.449   43.799
| 54> H  -21.855   25.424   43.853
| 55> O  -22.344   26.042   41.286
| 56> H  -24.152   26.042   42.475
| 57> H  -23.478   28.475   41.416
| 58> H  -24.181   28.418   43.040
| 59> H  -22.145   29.432   43.745
| 60> H  -21.264   28.882   42.298
| 61> H  -21.370   26.546   41.276
| 62> *
| 63>
| 64>                          ****END OF INPUT****
 Total Charge           Charge          ....    0
 Multiplicity           Mult            ....    1
 Number of Electrons    NEL             ....  102
FINAL SINGLE POINT ENERGY      -652.798616796085
FINAL SINGLE POINT ENERGY      -652.829784843200
FINAL SINGLE POINT ENERGY      -652.847706338229
FINAL SINGLE POINT ENERGY      -652.850601245801
FINAL SINGLE POINT ENERGY      -652.851172828774
FINAL SINGLE POINT ENERGY      -652.851285024401
FINAL SINGLE POINT ENERGY      -652.851291470098
                    ***********************HURRAY********************

CARTESIAN COORDINATES (ANGSTROEM)
---------------------------------
  C    -20.810661   26.219944   46.286419
  C    -20.079276   27.555159   46.157632
  C    -20.351712   28.207672   47.536911
  C    -20.342068   26.994639   48.490715
  O    -20.531574   25.802616   47.630601
  H    -20.471466   25.428227   45.614016
  H    -19.007095   27.357688   46.029714
  H    -20.425322   28.139940   45.308559
  H    -19.598801   28.955417   47.803783
  H    -21.334609   28.688277   47.534174
  H    -21.145846   27.019688   49.231748
  H    -19.382767   26.862851   49.001502
  C    -23.044086   26.482890   44.995750
  H    -23.765838   25.653647   45.014951
  H    -23.613526   27.417818   45.082997
  O    -22.263923   26.375069   46.221112
  C    -22.355008   26.438233   43.625381
  C    -23.350905   26.602225   42.465814
  C    -23.472987   28.148734   42.370369
  C    -22.043997   28.633931   42.722343
  O    -21.369311   27.498814   43.405205
  H    -21.808695   25.495387   43.516625
  O    -22.827558   26.023390   41.241237
  H    -24.306273   26.103970   42.631566
  H    -23.790206   28.448239   41.368905
  H    -24.208979   28.518292   43.092003
  H    -22.041903   29.500958   43.389531
  H    -21.447879   28.872813   41.836533
  H    -21.892726   26.296474   41.125903

 Multiplicity           Mult            ....    1
 Number of Electrons    NEL             ....  102
 Basis Dimension        Dim             ....  149

ORBITAL ENERGIES
----------------

  NO   OCC          E(Eh)            E(eV)
   0   2.0000     -19.158161      -521.3201
   1   2.0000     -19.148806      -521.0655
   2   2.0000     -19.129855      -520.5498
   3   2.0000     -19.129283      -520.5343
   4   2.0000     -10.271401      -279.4990
   5   2.0000     -10.253826      -279.0208
   6   2.0000     -10.246839      -278.8307
   7   2.0000     -10.243892      -278.7505
   8   2.0000     -10.236259      -278.5428
   9   2.0000     -10.215478      -277.9773
  10   2.0000     -10.200404      -277.5671
  11   2.0000     -10.175386      -276.8863
  12   2.0000     -10.166783      -276.6522
  13   2.0000      -1.050999       -28.5991
  14   2.0000      -1.040188       -28.3050
  15   2.0000      -1.018062       -27.7029
  16   2.0000      -0.980862       -26.6906
  17   2.0000      -0.795756       -21.6536
  18   2.0000      -0.776516       -21.1301
  19   2.0000      -0.770984       -20.9795
  20   2.0000      -0.729592       -19.8532
  21   2.0000      -0.677377       -18.4324
  22   2.0000      -0.616232       -16.7685
  23   2.0000      -0.610562       -16.6142
  24   2.0000      -0.588229       -16.0065
  25   2.0000      -0.564948       -15.3730
  26   2.0000      -0.533596       -14.5199
  27   2.0000      -0.515986       -14.0407
  28   2.0000      -0.492660       -13.4060
  29   2.0000      -0.487215       -13.2578
  30   2.0000      -0.475046       -12.9267
  31   2.0000      -0.456592       -12.4245
  32   2.0000      -0.450738       -12.2652
  33   2.0000      -0.444239       -12.0884
  34   2.0000      -0.425270       -11.5722
  35   2.0000      -0.412796       -11.2328
  36   2.0000      -0.407654       -11.0928
  37   2.0000      -0.393676       -10.7125
  38   2.0000      -0.383484       -10.4351
  39   2.0000      -0.370998       -10.0954
  40   2.0000      -0.359630        -9.7860
  41   2.0000      -0.355239        -9.6666
  42   2.0000      -0.344483        -9.3739
  43   2.0000      -0.336219        -9.1490
  44   2.0000      -0.319159        -8.6848
  45   2.0000      -0.305846        -8.3225
  46   2.0000      -0.296706        -8.0738
  47   2.0000      -0.282408        -7.6847
  48   2.0000      -0.254003        -6.9118
  49   2.0000      -0.249699        -6.7946
  50   2.0000      -0.238843        -6.4993
  51   0.0000       0.052609         1.4316
  52   0.0000       0.080573         2.1925
  53   0.0000       0.086173         2.3449
  54   0.0000       0.088772         2.4156
  55   0.0000       0.098228         2.6729

MULLIKEN ATOMIC CHARGES
-----------------------
   0 C :    0.306061
   1 C :   -0.270200
   2 C :   -0.303384
   3 C :    0.001843
   4 O :   -0.503537
   5 H :    0.139084
   6 H :    0.135564
   7 H :    0.178006
   8 H :    0.135573
   9 H :    0.151719
  10 H :    0.149426
  11 H :    0.137899
  12 C :    0.021633
  13 H :    0.145041
  14 H :    0.133575
  15 O :   -0.536296
  16 C :    0.042605
  17 C :    0.073910
  18 C :   -0.291008
  19 C :   -0.039172
  20 O :   -0.523338
  21 H :    0.165734
  22 O :   -0.598668
  23 H :    0.159864
  24 H :    0.165019
  25 H :    0.150582
  26 H :    0.152684
  27 H :    0.153937
  28 H :    0.365844
Sum of atomic charges:    0.0000000

LOEWDIN ATOMIC CHARGES
----------------------
   0 C :    0.190438
   1 C :   -0.234331
   2 C :   -0.219920
   3 C :   -0.026013
   4 O :   -0.304683
   5 H :    0.096266
   6 H :    0.110574
   7 H :    0.129745
   8 H :    0.111091
   9 H :    0.113419
  10 H :    0.106325
  11 H :    0.099952
  12 C :   -0.037854
  13 H :    0.108822
  14 H :    0.098866
  15 O :   -0.343493
  16 C :    0.001450
  17 C :    0.038976
  18 C :   -0.238646
  19 C :   -0.039714
  20 O :   -0.327334
  21 H :    0.115226
  22 O :   -0.410670
  23 H :    0.119634
  24 H :    0.128478
  25 H :    0.116165
  26 H :    0.107082
  27 H :    0.105996
  28 H :    0.284154

  Mayer bond orders larger than 0.100000
B(  0-C ,  1-C ) :   0.9357 B(  0-C ,  4-O ) :   0.9329 B(  0-C ,  5-H ) :   0.9229
B(  0-C , 15-O ) :   0.8133 B(  1-C ,  2-C ) :   0.9474 B(  1-C ,  6-H ) :   0.9357
B(  1-C ,  7-H ) :   0.9136 B(  2-C ,  3-C ) :   0.9536 B(  2-C ,  8-H ) :   0.9456
B(  2-C ,  9-H ) :   0.9461 B(  3-C ,  4-O ) :   0.8360 B(  3-C , 10-H ) :   0.9359
B(  3-C , 11-H ) :   0.9400 B( 12-C , 13-H ) :   0.9146 B( 12-C , 14-H ) :   0.9263
B( 12-C , 15-O ) :   0.8577 B( 12-C , 16-C ) :   0.8971 B( 16-C , 17-C ) :   0.8917
B( 16-C , 20-O ) :   0.8391 B( 16-C , 21-H ) :   0.9225 B( 17-C , 18-C ) :   0.9113
B( 17-C , 22-O ) :   0.8953 B( 17-C , 23-H ) :   0.9318 B( 18-C , 19-C ) :   0.9430
B( 18-C , 24-H ) :   0.9370 B( 18-C , 25-H ) :   0.9325 B( 19-C , 20-O ) :   0.8367
B( 19-C , 26-H ) :   0.9334 B( 19-C , 27-H ) :   0.9370 B( 22-O , 28-H ) :   0.7941

FINAL SINGLE POINT ENERGY      -652.851293046999

DIPOLE MOMENT
-------------
                                X             Y             Z
Electronic contribution:     -0.00886      -5.14680      -0.84758
Nuclear contribution   :     -0.12028       6.51268       0.16395
                        -----------------------------------------
Total Dipole Moment    :     -0.12913       1.36588      -0.68363
                        -----------------------------------------
Magnitude (a.u.)       :      1.53286
Magnitude (Debye)      :      3.89622

Rotational constants in cm-1:     0.063424     0.013290     0.012397
Rotational constants in MHz :  1901.412657   398.424712   371.652964

                             ****ORCA TERMINATED NORMALLY****
TOTAL RUN TIME: 0 days 0 hours 25 minutes 12 seconds 875 msec
