                         Program Version 4.2.1 -  RELEASE  -
|  1> # Test redundant internal optimization
|  2> #
|  3> ! RKS B3LYP  Opt TightSCF SmallPrint
|  4>
|  5> %basis
|  6>         Basis "6-31G"
|  7> end
|  8>
|  9> %geom
| 10> Constraints
| 11> { D 4  0  19  14  225.0   C } # D for Dihedral angle
| 12> { D 0  19  14  12  150.0   C } # D for Dihedral angle
| 13> { D 0  4  3  2   C } # D for Dihedral angle
| 14> { D 4  3  2  1   C } # D for Dihedral angle
| 15> { D 3  2  1  0   C } # D for Dihedral angle
| 16> { D 2  1  0  4   C } # D for Dihedral angle
| 17> { D 1  0  4  3   C } # D for Dihedral angle
| 18> { D 14  15  16  17   C } # D for Dihedral angle
| 19> { D 15  16  17  12   C } # D for Dihedral angle
| 20> { D 16  17  12  14   C } # D for Dihedral angle
| 21> { D 17  12  14  15   C } # D for Dihedral angle
| 22> { D 12  14  15  16   C } # D for Dihedral angle
| 23> end
| 24> end
| 25>
| 26>
| 27> #%pal
| 28> #nprocs 8
| 29> #end
| 30>
| 31> * xyz 0 1
| 32> C  -21.048   26.222   46.251
| 33> C  -20.361   27.558   45.944
| 34> C  -20.329   28.222   47.341
| 35> C  -20.110   27.022   48.296
| 36> O  -20.473   25.807   47.535
| 37> H  -20.833   25.428   45.533
| 38> H  -19.344   27.382   45.576
| 39> H  -20.898   28.157   45.201
| 40> H  -19.543   28.978   47.434
| 41> H  -21.289   28.710   47.548
| 42> H  -20.733   27.082   49.195
| 43> H  -19.064   26.913   48.597
| 44> C  -24.598   25.346   45.788
| 45> H  -25.073   24.650   45.079
| 46> C  -23.222   25.800   45.287
| 47> C  -23.606   26.878   44.246
| 48> C  -24.865   27.534   44.867
| 49> O  -25.374   26.587   45.884
| 50> H  -24.592   24.896   46.782
| 51> O  -22.472   26.381   46.366
| 52> H  -22.631   24.985   44.856
| 53> H  -22.804   27.600   44.067
| 54> H  -23.851   26.405   43.287
| 55> H  -25.650   27.722   44.127
| 56> H  -24.635   28.470   45.386
| 57> *
| 58>
| 59>                          ****END OF INPUT****
 Total Charge           Charge          ....    0
 Multiplicity           Mult            ....    1
 Number of Electrons    NEL             ....   86
FINAL SINGLE POINT ENERGY      -538.428773190135
FINAL SINGLE POINT ENERGY      -538.430870202136
FINAL SINGLE POINT ENERGY      -538.431051869643
FINAL SINGLE POINT ENERGY      -538.431082251578
FINAL SINGLE POINT ENERGY      -538.431090545970
                    ***********************HURRAY********************

CARTESIAN COORDINATES (ANGSTROEM)
---------------------------------
  C    -20.977352   26.214986   46.214773
  C    -20.316220   27.568576   45.957687
  C    -20.366840   28.222176   47.360467
  C    -20.160205   27.019333   48.306716
  O    -20.460975   25.812246   47.495042
  H    -20.726432   25.425204   45.498593
  H    -19.278491   27.412415   45.638411
  H    -20.834087   28.151858   45.192491
  H    -19.604747   28.995623   47.493505
  H    -21.351936   28.670761   47.519830
  H    -20.827846   27.033002   49.171427
  H    -19.125268   26.918481   48.647034
  C    -24.576825   25.380628   45.829928
  H    -25.095845   24.675295   45.163689
  C    -23.228344   25.792486   45.237730
  C    -23.651831   26.854952   44.202995
  C    -24.854788   27.551771   44.883457
  O    -25.318278   26.636810   45.947456
  H    -24.481408   24.955052   46.829031
  O    -22.419281   26.360434   46.306663
  H    -22.695360   24.947172   44.780359
  H    -22.839208   27.546526   43.965713
  H    -23.957838   26.356984   43.275214
  H    -25.678160   27.742634   44.186146
  H    -24.570435   28.489594   45.368645

 Multiplicity           Mult            ....    1
 Number of Electrons    NEL             ....   86
 Basis Dimension        Dim             ....  127

ORBITAL ENERGIES
----------------

  NO   OCC          E(Eh)            E(eV)
   0   2.0000     -19.139558      -520.8139
   1   2.0000     -19.138151      -520.7756
   2   2.0000     -19.126785      -520.4663
   3   2.0000     -10.280510      -279.7469
   4   2.0000     -10.243067      -278.7280
   5   2.0000     -10.223004      -278.1821
   6   2.0000     -10.221012      -278.1279
   7   2.0000     -10.219770      -278.0941
   8   2.0000     -10.188234      -277.2360
   9   2.0000     -10.186268      -277.1824
  10   2.0000     -10.184801      -277.1425
  11   2.0000      -1.052845       -28.6494
  12   2.0000      -1.013990       -27.5921
  13   2.0000      -0.989889       -26.9363
  14   2.0000      -0.789179       -21.4746
  15   2.0000      -0.778871       -21.1942
  16   2.0000      -0.741650       -20.1813
  17   2.0000      -0.720712       -19.6116
  18   2.0000      -0.606659       -16.5080
  19   2.0000      -0.601447       -16.3662
  20   2.0000      -0.595334       -16.1999
  21   2.0000      -0.580941       -15.8082
  22   2.0000      -0.519350       -14.1322
  23   2.0000      -0.505310       -13.7502
  24   2.0000      -0.482340       -13.1251
  25   2.0000      -0.479583       -13.0501
  26   2.0000      -0.452546       -12.3144
  27   2.0000      -0.446400       -12.1472
  28   2.0000      -0.425253       -11.5717
  29   2.0000      -0.415508       -11.3066
  30   2.0000      -0.407993       -11.1020
  31   2.0000      -0.387443       -10.5429
  32   2.0000      -0.375281       -10.2119
  33   2.0000      -0.365940        -9.9577
  34   2.0000      -0.357691        -9.7333
  35   2.0000      -0.353522        -9.6198
  36   2.0000      -0.347474        -9.4552
  37   2.0000      -0.312803        -8.5118
  38   2.0000      -0.310174        -8.4403
  39   2.0000      -0.297638        -8.0991
  40   2.0000      -0.264296        -7.1918
  41   2.0000      -0.249832        -6.7983
  42   2.0000      -0.230665        -6.2767
  43   0.0000       0.072628         1.9763
  44   0.0000       0.080958         2.2030
  45   0.0000       0.098422         2.6782
  46   0.0000       0.114577         3.1178
  47   0.0000       0.121592         3.3087

MULLIKEN ATOMIC CHARGES
-----------------------
   0 C :    0.290745
   1 C :   -0.259317
   2 C :   -0.300850
   3 C :   -0.000671
   4 O :   -0.502101
   5 H :    0.136234
   6 H :    0.142171
   7 H :    0.142151
   8 H :    0.140996
   9 H :    0.165560
  10 H :    0.155569
  11 H :    0.140054
  12 C :    0.004803
  13 H :    0.124144
  14 C :    0.065113
  15 C :   -0.292186
  16 C :    0.003804
  17 O :   -0.517940
  18 H :    0.172531
  19 O :   -0.507611
  20 H :    0.124131
  21 H :    0.147908
  22 H :    0.139521
  23 H :    0.135906
  24 H :    0.149336
Sum of atomic charges:   -0.0000000

LOEWDIN ATOMIC CHARGES
----------------------
   0 C :    0.178337
   1 C :   -0.225034
   2 C :   -0.216821
   3 C :   -0.025550
   4 O :   -0.311137
   5 H :    0.095610
   6 H :    0.112155
   7 H :    0.113303
   8 H :    0.113834
   9 H :    0.120855
  10 H :    0.109971
  11 H :    0.101480
  12 C :   -0.035685
  13 H :    0.091130
  14 C :    0.040175
  15 C :   -0.236560
  16 C :   -0.028303
  17 O :   -0.328033
  18 H :    0.125816
  19 O :   -0.324978
  20 H :    0.095815
  21 H :    0.117133
  22 H :    0.112040
  23 H :    0.098387
  24 H :    0.106062

  Mayer bond orders larger than 0.100000
B(  0-C ,  1-C ) :   0.9372 B(  0-C ,  4-O ) :   0.9337 B(  0-C ,  5-H ) :   0.9165
B(  0-C , 19-O ) :   0.8428 B(  1-C ,  2-C ) :   0.9559 B(  1-C ,  6-H ) :   0.9351
B(  1-C ,  7-H ) :   0.9354 B(  2-C ,  3-C ) :   0.9548 B(  2-C ,  8-H ) :   0.9450
B(  2-C ,  9-H ) :   0.9427 B(  3-C ,  4-O ) :   0.8364 B(  3-C , 10-H ) :   0.9342
B(  3-C , 11-H ) :   0.9398 B( 12-C , 13-H ) :   0.9143 B( 12-C , 14-C ) :   0.9354
B( 12-C , 17-O ) :   0.8693 B( 12-C , 18-H ) :   0.9294 B( 14-C , 15-C ) :   0.9335
B( 14-C , 19-O ) :   0.8392 B( 14-C , 20-H ) :   0.9171 B( 15-C , 16-C ) :   0.9476
B( 15-C , 21-H ) :   0.9380 B( 15-C , 22-H ) :   0.9365 B( 16-C , 17-O ) :   0.8608
B( 16-C , 23-H ) :   0.9328 B( 16-C , 24-H ) :   0.9360

FINAL SINGLE POINT ENERGY      -538.431091871414

DIPOLE MOMENT
-------------
                                X             Y             Z
Electronic contribution:     -1.61596      -3.27059       2.28369
Nuclear contribution   :      2.41151       3.70274      -3.38396
                        -----------------------------------------
Total Dipole Moment    :      0.79556       0.43214      -1.10027
                        -----------------------------------------
Magnitude (a.u.)       :      1.42487
Magnitude (Debye)      :      3.62174

Rotational constants in cm-1:     0.077556     0.020460     0.019518
Rotational constants in MHz :  2325.074048   613.376524   585.147450

                             ****ORCA TERMINATED NORMALLY****
TOTAL RUN TIME: 0 days 0 hours 7 minutes 20 seconds 864 msec
