                         Program Version 4.2.0 -  RELEASE  -
|  1> # Test redundant internal optimization
|  2> #
|  3> ! RKS B3LYP  Opt TightSCF SmallPrint
|  4>
|  5> %basis
|  6>         Basis "6-31G"
|  7> end
|  8>
|  9> %geom
| 10> Constraints
| 11> { D 4  0  15  12  120.0   C } # D for Dihedral angle
| 12> { D 0  15  12  16  225.0   C } # D for Dihedral angle
| 13> { D 0  4  3  2   C } # D for Dihedral angle
| 14> { D 4  3  2  1   C } # D for Dihedral angle
| 15> { D 3  2  1  0   C } # D for Dihedral angle
| 16> { D 2  1  0  4   C } # D for Dihedral angle
| 17> { D 1  0  4  3   C } # D for Dihedral angle
| 18> { D 16  20  19  18   C } # D for Dihedral angle
| 19> { D 20  19  18  17   C } # D for Dihedral angle
| 20> { D 19  18  17  16   C } # D for Dihedral angle
| 21> { D 18  17  16  20   C } # D for Dihedral angle
| 22> { D 17  16  20  19   C } # D for Dihedral angle
| 23> { D 15  12  16  20   C } # D for Dihedral angle
| 24> end
| 25> end
| 26>
| 27>
| 28> #%pal
| 29> #nprocs 8
| 30> #end
| 31>
| 32> * xyz 0 1
| 33> C  -21.048   26.222   46.251
| 34> C  -20.361   27.558   45.944
| 35> C  -20.329   28.222   47.341
| 36> C  -20.110   27.022   48.296
| 37> O  -20.473   25.807   47.535
| 38> H  -20.833   25.428   45.533
| 39> H  -19.344   27.382   45.576
| 40> H  -20.898   28.157   45.201
| 41> H  -19.543   28.978   47.434
| 42> H  -21.289   28.710   47.548
| 43> H  -20.733   27.082   49.195
| 44> H  -19.064   26.913   48.597
| 45> C  -23.119   27.818   46.058
| 46> H  -22.280   28.525   46.049
| 47> H  -23.595   27.838   45.069
| 48> O  -22.586   26.394   46.375
| 49> C  -24.164   28.314   47.096
| 50> C  -25.328   27.325   47.230
| 51> C  -24.711   26.236   48.141
| 52> C  -23.792   27.048   49.087
| 53> O  -23.572   28.359   48.437
| 54> H  -24.463   29.332   46.844
| 55> O  -26.530   28.011   47.933
| 56> H  -25.670   26.929   46.268
| 57> H  -25.466   25.660   48.685
| 58> H  -24.122   25.532   47.540
| 59> H  -22.824   26.562   49.251
| 60> H  -24.259   27.244   50.056
| 61> H  -26.211   28.414   48.901
| 62> *
| 63>
| 64>                          ****END OF INPUT****
 Total Charge           Charge          ....    0
 Multiplicity           Mult            ....    1
 Number of Electrons    NEL             ....  102
FINAL SINGLE POINT ENERGY      -652.822691026801
FINAL SINGLE POINT ENERGY      -652.846828465187
FINAL SINGLE POINT ENERGY      -652.856505263192
FINAL SINGLE POINT ENERGY      -652.858497363946
FINAL SINGLE POINT ENERGY      -652.858834995272
FINAL SINGLE POINT ENERGY      -652.858891790309
FINAL SINGLE POINT ENERGY      -652.858896138231
                    ***********************HURRAY********************

CARTESIAN COORDINATES (ANGSTROEM)
---------------------------------
  C    -21.129883   26.365990   46.273867
  C    -20.221883   27.549480   45.920628
  C    -20.078110   28.267972   47.291962
  C    -20.073687   27.088545   48.291349
  O    -20.644026   25.928860   47.559132
  H    -21.021535   25.504283   45.612594
  H    -19.256411   27.148088   45.595872
  H    -20.604237   28.190860   45.122258
  H    -19.163085   28.864916   47.351866
  H    -20.930337   28.923791   47.489944
  H    -20.684014   27.285066   49.175497
  H    -19.065869   26.796961   48.600042
  C    -23.176532   27.901196   46.057454
  H    -22.443745   28.712032   46.056656
  H    -23.647880   27.864908   45.064756
  O    -22.560364   26.615865   46.336130
  C    -24.228040   28.224641   47.118318
  C    -25.401860   27.246564   47.275270
  C    -24.784286   26.160867   48.195587
  C    -23.849290   26.972306   49.123252
  O    -23.622400   28.281325   48.451007
  H    -24.615279   29.228251   46.902918
  O    -26.543119   27.914953   47.883880
  H    -25.773002   26.852019   46.329042
  H    -25.566724   25.626050   48.741693
  H    -24.205354   25.459437   47.594190
  H    -22.885867   26.478294   49.260667
  H    -24.294701   27.191262   50.099544
  H    -26.245478   28.377217   48.695622

 Multiplicity           Mult            ....    1
 Number of Electrons    NEL             ....  102
 Basis Dimension        Dim             ....  149

ORBITAL ENERGIES
----------------

  NO   OCC          E(Eh)            E(eV)
   0   2.0000     -19.144401      -520.9456
   1   2.0000     -19.141905      -520.8777
   2   2.0000     -19.139060      -520.8003
   3   2.0000     -19.132502      -520.6218
   4   2.0000     -10.283928      -279.8399
   5   2.0000     -10.236663      -278.5538
   6   2.0000     -10.233521      -278.4683
   7   2.0000     -10.232252      -278.4337
   8   2.0000     -10.226019      -278.2641
   9   2.0000     -10.218739      -278.0660
  10   2.0000     -10.196291      -277.4552
  11   2.0000     -10.190604      -277.3004
  12   2.0000     -10.170667      -276.7579
  13   2.0000      -1.053394       -28.6643
  14   2.0000      -1.029899       -28.0250
  15   2.0000      -1.002187       -27.2709
  16   2.0000      -0.992985       -27.0205
  17   2.0000      -0.790619       -21.5138
  18   2.0000      -0.778166       -21.1750
  19   2.0000      -0.762079       -20.7372
  20   2.0000      -0.733953       -19.9719
  21   2.0000      -0.678104       -18.4522
  22   2.0000      -0.606532       -16.5046
  23   2.0000      -0.599537       -16.3142
  24   2.0000      -0.593134       -16.1400
  25   2.0000      -0.568119       -15.4593
  26   2.0000      -0.527285       -14.3481
  27   2.0000      -0.507522       -13.8104
  28   2.0000      -0.498435       -13.5631
  29   2.0000      -0.489815       -13.3286
  30   2.0000      -0.471064       -12.8183
  31   2.0000      -0.458408       -12.4739
  32   2.0000      -0.445103       -12.1119
  33   2.0000      -0.439345       -11.9552
  34   2.0000      -0.424365       -11.5476
  35   2.0000      -0.408749       -11.1226
  36   2.0000      -0.402608       -10.9555
  37   2.0000      -0.386022       -10.5042
  38   2.0000      -0.382968       -10.4211
  39   2.0000      -0.362754        -9.8710
  40   2.0000      -0.361899        -9.8478
  41   2.0000      -0.355442        -9.6721
  42   2.0000      -0.352975        -9.6050
  43   2.0000      -0.325834        -8.8664
  44   2.0000      -0.315970        -8.5980
  45   2.0000      -0.304668        -8.2905
  46   2.0000      -0.291813        -7.9406
  47   2.0000      -0.276447        -7.5225
  48   2.0000      -0.262935        -7.1548
  49   2.0000      -0.253463        -6.8971
  50   2.0000      -0.240587        -6.5467
  51   0.0000       0.068032         1.8512
  52   0.0000       0.081717         2.2236
  53   0.0000       0.096449         2.6245
  54   0.0000       0.103351         2.8123
  55   0.0000       0.105564         2.8726

MULLIKEN ATOMIC CHARGES
-----------------------
   0 C :    0.326863
   1 C :   -0.311124
   2 C :   -0.312114
   3 C :   -0.006090
   4 O :   -0.502010
   5 H :    0.158385
   6 H :    0.157663
   7 H :    0.148635
   8 H :    0.143690
   9 H :    0.175540
  10 H :    0.154508
  11 H :    0.143306
  12 C :   -0.001666
  13 H :    0.140961
  14 H :    0.132916
  15 O :   -0.539068
  16 C :    0.078952
  17 C :    0.075594
  18 C :   -0.280111
  19 C :   -0.035402
  20 O :   -0.536491
  21 H :    0.149553
  22 O :   -0.603501
  23 H :    0.150444
  24 H :    0.144029
  25 H :    0.184719
  26 H :    0.168012
  27 H :    0.132527
  28 H :    0.361279
Sum of atomic charges:   -0.0000000

LOEWDIN ATOMIC CHARGES
----------------------
   0 C :    0.183921
   1 C :   -0.233300
   2 C :   -0.222914
   3 C :   -0.028818
   4 O :   -0.317217
   5 H :    0.106258
   6 H :    0.123577
   7 H :    0.115635
   8 H :    0.115514
   9 H :    0.120595
  10 H :    0.107820
  11 H :    0.102834
  12 C :   -0.036000
  13 H :    0.104222
  14 H :    0.098283
  15 O :   -0.332476
  16 C :    0.012513
  17 C :    0.039007
  18 C :   -0.238813
  19 C :   -0.036785
  20 O :   -0.338053
  21 H :    0.112981
  22 O :   -0.417584
  23 H :    0.116066
  24 H :    0.116736
  25 H :    0.135973
  26 H :    0.114490
  27 H :    0.094514
  28 H :    0.281023

  Mayer bond orders larger than 0.100000
B(  0-C ,  1-C ) :   0.9340 B(  0-C ,  4-O ) :   0.9173 B(  0-C ,  5-H ) :   0.9324
B(  0-C , 15-O ) :   0.8533 B(  1-C ,  2-C ) :   0.9499 B(  1-C ,  6-H ) :   0.9336
B(  1-C ,  7-H ) :   0.9296 B(  2-C ,  3-C ) :   0.9514 B(  2-C ,  8-H ) :   0.9451
B(  2-C ,  9-H ) :   0.9285 B(  3-C ,  4-O ) :   0.8380 B(  3-C , 10-H ) :   0.9283
B(  3-C , 11-H ) :   0.9403 B( 12-C , 13-H ) :   0.9064 B( 12-C , 14-H ) :   0.9195
B( 12-C , 15-O ) :   0.8504 B( 12-C , 16-C ) :   0.8927 B( 16-C , 17-C ) :   0.9118
B( 16-C , 20-O ) :   0.8703 B( 16-C , 21-H ) :   0.9211 B( 17-C , 18-C ) :   0.9252
B( 17-C , 22-O ) :   0.8887 B( 17-C , 23-H ) :   0.9361 B( 18-C , 19-C ) :   0.9467
B( 18-C , 24-H ) :   0.9376 B( 18-C , 25-H ) :   0.9164 B( 19-C , 20-O ) :   0.8308
B( 19-C , 26-H ) :   0.9225 B( 19-C , 27-H ) :   0.9372 B( 22-O , 28-H ) :   0.7973

FINAL SINGLE POINT ENERGY      -652.858881703219

DIPOLE MOMENT
-------------
                                X             Y             Z
Electronic contribution:     -3.34412      -1.39605      -0.01518
Nuclear contribution   :      4.34741       1.96722      -0.39201
                        -----------------------------------------
Total Dipole Moment    :      1.00329       0.57117      -0.40718
                        -----------------------------------------
Magnitude (a.u.)       :      1.22418
Magnitude (Debye)      :      3.11163

Rotational constants in cm-1:     0.055028     0.016553     0.015770
Rotational constants in MHz :  1649.691274   496.233864   472.775547

                             ****ORCA TERMINATED NORMALLY****
TOTAL RUN TIME: 0 days 0 hours 41 minutes 44 seconds 879 msec
