                         Program Version 4.2.0 -  RELEASE  -
|  1> # Test redundant internal optimization
|  2> #
|  3> ! RKS B3LYP  Opt TightSCF SmallPrint
|  4>
|  5> %basis
|  6>         Basis "6-31G"
|  7> end
|  8>
|  9> %geom
| 10> Constraints
| 11> { D 4  0  15  12  195.0   C } # D for Dihedral angle
| 12> { D 0  15  12  16  165.0   C } # D for Dihedral angle
| 13> { D 0  4  3  2   C } # D for Dihedral angle
| 14> { D 4  3  2  1   C } # D for Dihedral angle
| 15> { D 3  2  1  0   C } # D for Dihedral angle
| 16> { D 2  1  0  4   C } # D for Dihedral angle
| 17> { D 1  0  4  3   C } # D for Dihedral angle
| 18> { D 16  20  19  18   C } # D for Dihedral angle
| 19> { D 20  19  18  17   C } # D for Dihedral angle
| 20> { D 19  18  17  16   C } # D for Dihedral angle
| 21> { D 18  17  16  20   C } # D for Dihedral angle
| 22> { D 17  16  20  19   C } # D for Dihedral angle
| 23> { D 15  12  16  20   C } # D for Dihedral angle
| 24> end
| 25> end
| 26>
| 27>
| 28> #%pal
| 29> #nprocs 8
| 30> #end
| 31>
| 32> * xyz 0 1
| 33> C  -21.048   26.222   46.251
| 34> C  -20.361   27.558   45.944
| 35> C  -20.329   28.222   47.341
| 36> C  -20.110   27.022   48.296
| 37> O  -20.473   25.807   47.535
| 38> H  -20.833   25.428   45.533
| 39> H  -19.344   27.382   45.576
| 40> H  -20.898   28.157   45.201
| 41> H  -19.543   28.978   47.434
| 42> H  -21.289   28.710   47.548
| 43> H  -20.733   27.082   49.195
| 44> H  -19.064   26.913   48.597
| 45> C  -23.353   26.472   45.026
| 46> H  -23.182   27.455   44.569
| 47> H  -22.989   25.703   44.332
| 48> O  -22.586   26.394   46.375
| 49> C  -24.884   26.270   45.194
| 50> C  -25.508   27.404   46.015
| 51> C  -25.616   28.532   44.961
| 52> C  -25.935   27.763   43.654
| 53> O  -25.557   26.354   43.893
| 54> H  -25.072   25.270   45.587
| 55> O  -26.918   26.985   46.516
| 56> H  -24.905   27.690   46.883
| 57> H  -26.384   29.272   45.208
| 58> H  -24.659   29.059   44.876
| 59> H  -25.374   28.145   42.796
| 60> H  -27.002   27.775   43.413
| 61> H  -27.541   26.695   45.662
| 62> *
| 63>
| 64>                          ****END OF INPUT****
 Total Charge           Charge          ....    0
 Multiplicity           Mult            ....    1
 Number of Electrons    NEL             ....  102
FINAL SINGLE POINT ENERGY      -652.835360474500
FINAL SINGLE POINT ENERGY      -652.858958650981
FINAL SINGLE POINT ENERGY      -652.862600985463
FINAL SINGLE POINT ENERGY      -652.863250062182
FINAL SINGLE POINT ENERGY      -652.863343891984
FINAL SINGLE POINT ENERGY      -652.863355185312
                    ***********************HURRAY********************

CARTESIAN COORDINATES (ANGSTROEM)
---------------------------------
  C    -21.143510   26.215020   46.183450
  C    -20.391703   27.515387   45.908764
  C    -20.457175   28.221550   47.284870
  C    -20.362186   27.045377   48.278626
  O    -20.705530   25.829921   47.491949
  H    -20.921165   25.388913   45.498716
  H    -19.355711   27.282944   45.635885
  H    -20.832711   28.108679   45.102375
  H    -19.652699   28.950334   47.421433
  H    -21.415108   28.739293   47.390324
  H    -21.061075   27.126368   49.114459
  H    -19.349696   26.891915   48.662892
  C    -23.251664   26.486531   44.945524
  H    -23.039599   27.437782   44.435077
  H    -22.913871   25.670805   44.290112
  O    -22.584453   26.424233   46.234246
  C    -24.748006   26.327549   45.205120
  C    -25.383476   27.437218   46.054362
  C    -25.578592   28.561682   45.005486
  C    -25.919641   27.783751   43.710242
  O    -25.475091   26.383906   43.931696
  H    -24.935532   25.344928   45.645534
  O    -26.653916   26.997365   46.609245
  H    -24.769994   27.726310   46.905728
  H    -26.374560   29.243788   45.314462
  H    -24.655675   29.140987   44.891003
  H    -25.411876   28.182162   42.826854
  H    -26.994929   27.751079   43.509402
  H    -27.150855   26.503222   45.923164

 Multiplicity           Mult            ....    1
 Number of Electrons    NEL             ....  102
 Basis Dimension        Dim             ....  149

ORBITAL ENERGIES
----------------

  NO   OCC          E(Eh)            E(eV)
   0   2.0000     -19.146890      -521.0134
   1   2.0000     -19.145922      -520.9870
   2   2.0000     -19.143245      -520.9142
   3   2.0000     -19.134070      -520.6645
   4   2.0000     -10.283207      -279.8203
   5   2.0000     -10.235575      -278.5242
   6   2.0000     -10.235080      -278.5107
   7   2.0000     -10.233771      -278.4751
   8   2.0000     -10.232856      -278.4502
   9   2.0000     -10.227380      -278.3012
  10   2.0000     -10.190949      -277.3098
  11   2.0000     -10.190058      -277.2856
  12   2.0000     -10.188518      -277.2437
  13   2.0000      -1.057809       -28.7845
  14   2.0000      -1.036464       -28.2036
  15   2.0000      -1.004201       -27.3257
  16   2.0000      -0.999498       -27.1977
  17   2.0000      -0.790765       -21.5178
  18   2.0000      -0.780466       -21.2376
  19   2.0000      -0.769517       -20.9396
  20   2.0000      -0.732386       -19.9292
  21   2.0000      -0.677270       -18.4295
  22   2.0000      -0.604765       -16.4565
  23   2.0000      -0.604340       -16.4449
  24   2.0000      -0.592225       -16.1153
  25   2.0000      -0.582787       -15.8584
  26   2.0000      -0.525075       -14.2880
  27   2.0000      -0.517768       -14.0892
  28   2.0000      -0.500826       -13.6282
  29   2.0000      -0.491660       -13.3787
  30   2.0000      -0.473045       -12.8722
  31   2.0000      -0.456243       -12.4150
  32   2.0000      -0.452716       -12.3190
  33   2.0000      -0.447392       -12.1742
  34   2.0000      -0.426412       -11.6033
  35   2.0000      -0.415839       -11.3156
  36   2.0000      -0.402404       -10.9500
  37   2.0000      -0.392630       -10.6840
  38   2.0000      -0.377716       -10.2782
  39   2.0000      -0.367866       -10.0101
  40   2.0000      -0.363706        -9.8969
  41   2.0000      -0.358825        -9.7641
  42   2.0000      -0.355547        -9.6749
  43   2.0000      -0.333475        -9.0743
  44   2.0000      -0.317471        -8.6388
  45   2.0000      -0.312258        -8.4970
  46   2.0000      -0.302948        -8.2436
  47   2.0000      -0.272565        -7.4169
  48   2.0000      -0.261914        -7.1270
  49   2.0000      -0.257246        -7.0000
  50   2.0000      -0.247742        -6.7414
  51   0.0000       0.064200         1.7470
  52   0.0000       0.065945         1.7944
  53   0.0000       0.093391         2.5413
  54   0.0000       0.098746         2.6870
  55   0.0000       0.103622         2.8197

MULLIKEN ATOMIC CHARGES
-----------------------
   0 C :    0.308146
   1 C :   -0.274255
   2 C :   -0.297865
   3 C :   -0.003006
   4 O :   -0.502476
   5 H :    0.140885
   6 H :    0.148200
   7 H :    0.141266
   8 H :    0.143727
   9 H :    0.157550
  10 H :    0.157084
  11 H :    0.143590
  12 C :   -0.009798
  13 H :    0.122775
  14 H :    0.145590
  15 O :   -0.516614
  16 C :    0.056226
  17 C :    0.092598
  18 C :   -0.299045
  19 C :   -0.031977
  20 O :   -0.528022
  21 H :    0.171790
  22 O :   -0.602248
  23 H :    0.175586
  24 H :    0.163681
  25 H :    0.141834
  26 H :    0.143980
  27 H :    0.148558
  28 H :    0.362242
Sum of atomic charges:    0.0000000

LOEWDIN ATOMIC CHARGES
----------------------
   0 C :    0.180668
   1 C :   -0.230284
   2 C :   -0.216654
   3 C :   -0.024872
   4 O :   -0.302274
   5 H :    0.097225
   6 H :    0.115858
   7 H :    0.112959
   8 H :    0.115183
   9 H :    0.116372
  10 H :    0.110829
  11 H :    0.103520
  12 C :   -0.041955
  13 H :    0.086519
  14 H :    0.103418
  15 O :   -0.334615
  16 C :    0.019143
  17 C :    0.039254
  18 C :   -0.242090
  19 C :   -0.038742
  20 O :   -0.331349
  21 H :    0.121702
  22 O :   -0.413856
  23 H :    0.127245
  24 H :    0.127207
  25 H :    0.111736
  26 H :    0.102879
  27 H :    0.103674
  28 H :    0.281299

  Mayer bond orders larger than 0.100000
B(  0-C ,  1-C ) :   0.9282 B(  0-C ,  4-O ) :   0.9415 B(  0-C ,  5-H ) :   0.9193
B(  0-C , 15-O ) :   0.8245 B(  1-C ,  2-C ) :   0.9526 B(  1-C ,  6-H ) :   0.9342
B(  1-C ,  7-H ) :   0.9355 B(  2-C ,  3-C ) :   0.9554 B(  2-C ,  8-H ) :   0.9450
B(  2-C ,  9-H ) :   0.9449 B(  3-C ,  4-O ) :   0.8345 B(  3-C , 10-H ) :   0.9341
B(  3-C , 11-H ) :   0.9396 B( 12-C , 13-H ) :   0.9139 B( 12-C , 14-H ) :   0.9132
B( 12-C , 15-O ) :   0.8312 B( 12-C , 16-C ) :   0.9042 B( 16-C , 17-C ) :   0.9144
B( 16-C , 20-O ) :   0.8419 B( 16-C , 21-H ) :   0.9246 B( 17-C , 18-C ) :   0.9115
B( 17-C , 22-O ) :   0.8893 B( 17-C , 23-H ) :   0.9241 B( 18-C , 19-C ) :   0.9410
B( 18-C , 24-H ) :   0.9373 B( 18-C , 25-H ) :   0.9352 B( 19-C , 20-O ) :   0.8449
B( 19-C , 26-H ) :   0.9358 B( 19-C , 27-H ) :   0.9379 B( 22-O , 28-H ) :   0.7957

FINAL SINGLE POINT ENERGY      -652.863357247559

DIPOLE MOMENT
-------------
                                X             Y             Z
Electronic contribution:     -3.09787      -5.65414       1.05489
Nuclear contribution   :      3.83987       6.92138      -1.91261
                        -----------------------------------------
Total Dipole Moment    :      0.74199       1.26724      -0.85773
                        -----------------------------------------
Magnitude (a.u.)       :      1.70063
Magnitude (Debye)      :      4.32265

Rotational constants in cm-1:     0.054899     0.012352     0.011991
Rotational constants in MHz :  1645.829769   370.304887   359.491477

                             ****ORCA TERMINATED NORMALLY****
TOTAL RUN TIME: 0 days 0 hours 17 minutes 37 seconds 848 msec
