                         Program Version 4.2.0 -  RELEASE  -
|  1> # Test redundant internal optimization
|  2> #
|  3> ! RKS B3LYP  Opt TightSCF SmallPrint
|  4>
|  5> %basis
|  6>         Basis "6-31G"
|  7> end
|  8>
|  9> %geom
| 10> Constraints
| 11> { D 4  0  15  12  45.0   C } # D for Dihedral angle
| 12> { D 0  15  12  16  180.0   C } # D for Dihedral angle
| 13> { D 0  4  3  2   C } # D for Dihedral angle
| 14> { D 4  3  2  1   C } # D for Dihedral angle
| 15> { D 3  2  1  0   C } # D for Dihedral angle
| 16> { D 2  1  0  4   C } # D for Dihedral angle
| 17> { D 1  0  4  3   C } # D for Dihedral angle
| 18> { D 16  20  19  18   C } # D for Dihedral angle
| 19> { D 20  19  18  17   C } # D for Dihedral angle
| 20> { D 19  18  17  16   C } # D for Dihedral angle
| 21> { D 18  17  16  20   C } # D for Dihedral angle
| 22> { D 17  16  20  19   C } # D for Dihedral angle
| 23> { D 15  12  16  20   C } # D for Dihedral angle
| 24> end
| 25> end
| 26>
| 27>
| 28> #%pal
| 29> #nprocs 8
| 30> #end
| 31>
| 32> * xyz 0 1
| 33> C  -21.048   26.222   46.251
| 34> C  -20.361   27.558   45.944
| 35> C  -20.329   28.222   47.341
| 36> C  -20.110   27.022   48.296
| 37> O  -20.473   25.807   47.535
| 38> H  -20.833   25.428   45.533
| 39> H  -19.344   27.382   45.576
| 40> H  -20.898   28.157   45.201
| 41> H  -19.543   28.978   47.434
| 42> H  -21.289   28.710   47.548
| 43> H  -20.733   27.082   49.195
| 44> H  -19.064   26.913   48.597
| 45> C  -23.065   27.161   47.638
| 46> H  -22.727   26.628   48.535
| 47> H  -22.637   28.172   47.658
| 48> O  -22.586   26.394   46.375
| 49> C  -24.611   27.301   47.705
| 50> C  -25.287   25.933   47.852
| 51> C  -25.093   25.647   49.360
| 52> C  -25.213   27.052   50.002
| 53> O  -25.007   28.031   48.914
| 54> H  -24.955   27.886   46.850
| 55> O  -26.797   26.046   47.505
| 56> H  -24.844   25.162   47.212
| 57> H  -25.830   24.943   49.757
| 58> H  -24.097   25.225   49.537
| 59> H  -24.465   27.222   50.783
| 60> H  -26.207   27.237   50.419
| 61> H  -27.264   26.813   48.134
| 62> *
| 63>
| 64>                          ****END OF INPUT****
 Total Charge           Charge          ....    0
 Multiplicity           Mult            ....    1
 Number of Electrons    NEL             ....  102
FINAL SINGLE POINT ENERGY      -652.821520985332
FINAL SINGLE POINT ENERGY      -652.847723377737
FINAL SINGLE POINT ENERGY      -652.859289539508
FINAL SINGLE POINT ENERGY      -652.861107970434
FINAL SINGLE POINT ENERGY      -652.861418326459
FINAL SINGLE POINT ENERGY      -652.861465470797
FINAL SINGLE POINT ENERGY      -652.861460887187
                    ***********************HURRAY********************

CARTESIAN COORDINATES (ANGSTROEM)
---------------------------------
  C    -21.225873   26.335717   46.435564
  C    -20.442110   27.544015   45.904747
  C    -20.033609   28.267753   47.220424
  C    -19.789028   27.088170   48.193632
  O    -20.468976   25.911304   47.592450
  H    -21.226438   25.493027   45.742187
  H    -19.558012   27.180828   45.369837
  H    -21.036341   28.165023   45.230119
  H    -19.134859   28.880137   47.095549
  H    -20.833312   28.925091   47.570521
  H    -20.196655   27.260890   49.194022
  H    -18.729606   26.829343   48.278194
  C    -23.095614   27.249767   47.861700
  H    -22.743227   26.743461   48.768113
  H    -22.747446   28.288102   47.880638
  O    -22.636339   26.533261   46.681113
  C    -24.621259   27.263482   47.789845
  C    -25.287249   25.881555   47.850833
  C    -25.246415   25.581299   49.370119
  C    -25.455509   26.974351   50.013522
  O    -25.152276   27.975484   48.958573
  H    -24.941358   27.812210   46.900139
  O    -26.652751   25.946245   47.351740
  H    -24.779722   25.138212   47.239132
  H    -26.025283   24.865005   49.642797
  H    -24.275862   25.155376   49.647120
  H    -24.797901   27.151281   50.869807
  H    -26.490261   27.143037   50.327599
  H    -27.086711   26.750574   47.706965

 Multiplicity           Mult            ....    1
 Number of Electrons    NEL             ....  102
 Basis Dimension        Dim             ....  149

ORBITAL ENERGIES
----------------

  NO   OCC          E(Eh)            E(eV)
   0   2.0000     -19.148907      -521.0683
   1   2.0000     -19.147100      -521.0191
   2   2.0000     -19.144131      -520.9383
   3   2.0000     -19.131610      -520.5976
   4   2.0000     -10.281769      -279.7812
   5   2.0000     -10.234467      -278.4940
   6   2.0000     -10.231887      -278.4238
   7   2.0000     -10.231545      -278.4145
   8   2.0000     -10.231320      -278.4084
   9   2.0000     -10.230353      -278.3820
  10   2.0000     -10.195818      -277.4423
  11   2.0000     -10.191523      -277.3254
  12   2.0000     -10.184363      -277.1306
  13   2.0000      -1.057188       -28.7675
  14   2.0000      -1.034128       -28.1400
  15   2.0000      -1.002092       -27.2683
  16   2.0000      -0.998683       -27.1756
  17   2.0000      -0.792262       -21.5585
  18   2.0000      -0.780347       -21.2343
  19   2.0000      -0.769614       -20.9423
  20   2.0000      -0.733539       -19.9606
  21   2.0000      -0.677069       -18.4240
  22   2.0000      -0.607523       -16.5315
  23   2.0000      -0.602204       -16.3868
  24   2.0000      -0.595470       -16.2036
  25   2.0000      -0.576452       -15.6860
  26   2.0000      -0.520942       -14.1756
  27   2.0000      -0.516410       -14.0522
  28   2.0000      -0.504790       -13.7360
  29   2.0000      -0.488643       -13.2967
  30   2.0000      -0.472815       -12.8660
  31   2.0000      -0.461501       -12.5581
  32   2.0000      -0.449590       -12.2340
  33   2.0000      -0.438179       -11.9235
  34   2.0000      -0.421122       -11.4593
  35   2.0000      -0.417683       -11.3657
  36   2.0000      -0.408221       -11.1083
  37   2.0000      -0.389650       -10.6029
  38   2.0000      -0.382920       -10.4198
  39   2.0000      -0.365468        -9.9449
  40   2.0000      -0.363922        -9.9028
  41   2.0000      -0.357957        -9.7405
  42   2.0000      -0.352098        -9.5811
  43   2.0000      -0.329911        -8.9773
  44   2.0000      -0.324867        -8.8401
  45   2.0000      -0.314605        -8.5608
  46   2.0000      -0.302745        -8.2381
  47   2.0000      -0.269841        -7.3428
  48   2.0000      -0.265121        -7.2143
  49   2.0000      -0.254774        -6.9328
  50   2.0000      -0.246539        -6.7087
  51   0.0000       0.066749         1.8163
  52   0.0000       0.068381         1.8607
  53   0.0000       0.090973         2.4755
  54   0.0000       0.097045         2.6407
  55   0.0000       0.101378         2.7586

MULLIKEN ATOMIC CHARGES
-----------------------
   0 C :    0.301506
   1 C :   -0.266294
   2 C :   -0.317855
   3 C :   -0.014419
   4 O :   -0.510223
   5 H :    0.166212
   6 H :    0.153070
   7 H :    0.155363
   8 H :    0.147910
   9 H :    0.153882
  10 H :    0.144140
  11 H :    0.151690
  12 C :   -0.005508
  13 H :    0.143111
  14 H :    0.142118
  15 O :   -0.533257
  16 C :    0.052426
  17 C :    0.094512
  18 C :   -0.303508
  19 C :   -0.029983
  20 O :   -0.530287
  21 H :    0.165264
  22 O :   -0.604819
  23 H :    0.179613
  24 H :    0.163699
  25 H :    0.150143
  26 H :    0.145342
  27 H :    0.144807
  28 H :    0.361346
Sum of atomic charges:   -0.0000000

LOEWDIN ATOMIC CHARGES
----------------------
   0 C :    0.177284
   1 C :   -0.226970
   2 C :   -0.223400
   3 C :   -0.033890
   4 O :   -0.321653
   5 H :    0.113170
   6 H :    0.119992
   7 H :    0.122442
   8 H :    0.116950
   9 H :    0.111080
  10 H :    0.102166
  11 H :    0.106828
  12 C :   -0.042247
  13 H :    0.100611
  14 H :    0.099185
  15 O :   -0.327844
  16 C :    0.019025
  17 C :    0.039282
  18 C :   -0.241851
  19 C :   -0.037819
  20 O :   -0.333091
  21 H :    0.118034
  22 O :   -0.415643
  23 H :    0.129468
  24 H :    0.127084
  25 H :    0.116136
  26 H :    0.103146
  27 H :    0.102048
  28 H :    0.280477

  Mayer bond orders larger than 0.100000
B(  0-C ,  1-C ) :   0.9172 B(  0-C ,  4-O ) :   0.9049 B(  0-C ,  5-H ) :   0.9358
B(  0-C , 15-O ) :   0.8785 B(  1-C ,  2-C ) :   0.9553 B(  1-C ,  6-H ) :   0.9344
B(  1-C ,  7-H ) :   0.9369 B(  2-C ,  3-C ) :   0.9485 B(  2-C ,  8-H ) :   0.9444
B(  2-C ,  9-H ) :   0.9390 B(  3-C ,  4-O ) :   0.8391 B(  3-C , 10-H ) :   0.9331
B(  3-C , 11-H ) :   0.9393 B( 12-C , 13-H ) :   0.9167 B( 12-C , 14-H ) :   0.9046
B( 12-C , 15-O ) :   0.8221 B( 12-C , 16-C ) :   0.9057 B( 16-C , 17-C ) :   0.9145
B( 16-C , 20-O ) :   0.8467 B( 16-C , 21-H ) :   0.9251 B( 17-C , 18-C ) :   0.9126
B( 17-C , 22-O ) :   0.8860 B( 17-C , 23-H ) :   0.9223 B( 18-C , 19-C ) :   0.9411
B( 18-C , 24-H ) :   0.9377 B( 18-C , 25-H ) :   0.9339 B( 19-C , 20-O ) :   0.8420
B( 19-C , 26-H ) :   0.9361 B( 19-C , 27-H ) :   0.9386 B( 22-O , 28-H ) :   0.7969

FINAL SINGLE POINT ENERGY      -652.861459604641

DIPOLE MOMENT
-------------
                                X             Y             Z
Electronic contribution:     -3.89538      -1.95911      -2.10087
Nuclear contribution   :      4.86362       2.66395       2.63984
                        -----------------------------------------
Total Dipole Moment    :      0.96824       0.70484       0.53896
                        -----------------------------------------
Magnitude (a.u.)       :      1.31330
Magnitude (Debye)      :      3.33814

Rotational constants in cm-1:     0.055630     0.013091     0.012473
Rotational constants in MHz :  1667.741475   392.454593   373.925402

                             ****ORCA TERMINATED NORMALLY****
TOTAL RUN TIME: 0 days 0 hours 39 minutes 36 seconds 863 msec
