                         Program Version 4.2.0 -  RELEASE  -
|  1> # Test redundant internal optimization
|  2> #
|  3> ! RKS B3LYP  Opt TightSCF SmallPrint
|  4>
|  5> %basis
|  6>         Basis "6-31G"
|  7> end
|  8>
|  9> %geom
| 10> Constraints
| 11> { D 4  0  15  12  285.0   C } # D for Dihedral angle
| 12> { D 0  15  12  16  75.0   C } # D for Dihedral angle
| 13> { D 0  4  3  2   C } # D for Dihedral angle
| 14> { D 4  3  2  1   C } # D for Dihedral angle
| 15> { D 3  2  1  0   C } # D for Dihedral angle
| 16> { D 2  1  0  4   C } # D for Dihedral angle
| 17> { D 1  0  4  3   C } # D for Dihedral angle
| 18> { D 16  20  19  18   C } # D for Dihedral angle
| 19> { D 20  19  18  17   C } # D for Dihedral angle
| 20> { D 19  18  17  16   C } # D for Dihedral angle
| 21> { D 18  17  16  20   C } # D for Dihedral angle
| 22> { D 17  16  20  19   C } # D for Dihedral angle
| 23> { D 15  12  16  20   C } # D for Dihedral angle
| 24> end
| 25> end
| 26>
| 27>
| 28> #%pal
| 29> #nprocs 8
| 30> #end
| 31>
| 32> * xyz 0 1
| 33> C  -21.048   26.222   46.251
| 34> C  -20.361   27.558   45.944
| 35> C  -20.329   28.222   47.341
| 36> C  -20.110   27.022   48.296
| 37> O  -20.473   25.807   47.535
| 38> H  -20.833   25.428   45.533
| 39> H  -19.344   27.382   45.576
| 40> H  -20.898   28.157   45.201
| 41> H  -19.543   28.978   47.434
| 42> H  -21.289   28.710   47.548
| 43> H  -20.733   27.082   49.195
| 44> H  -19.064   26.913   48.597
| 45> C  -23.396   25.070   46.435
| 46> H  -24.455   25.284   46.243
| 47> H  -23.043   24.369   45.668
| 48> O  -22.586   26.394   46.375
| 49> C  -23.283   24.359   47.812
| 50> C  -23.997   23.003   47.799
| 51> C  -22.959   22.109   47.079
| 52> C  -21.605   22.678   47.571
| 53> O  -21.885   24.028   48.105
| 54> H  -23.622   25.041   48.596
| 55> H  -24.163   22.654   48.824
| 56> O  -25.367   23.042   47.068
| 57> H  -23.077   21.047   47.316
| 58> H  -23.054   22.222   45.993
| 59> H  -20.866   22.757   46.766
| 60> H  -21.177   22.090   48.388
| 61> H  -25.227   23.388   46.038
| 62> *
| 63>
| 64>                          ****END OF INPUT****
 Total Charge           Charge          ....    0
 Multiplicity           Mult            ....    1
 Number of Electrons    NEL             ....  102
FINAL SINGLE POINT ENERGY      -652.813652191137
FINAL SINGLE POINT ENERGY      -652.839193125880
FINAL SINGLE POINT ENERGY      -652.851015987549
FINAL SINGLE POINT ENERGY      -652.852784535743
FINAL SINGLE POINT ENERGY      -652.853179148109
FINAL SINGLE POINT ENERGY      -652.853267755483
FINAL SINGLE POINT ENERGY      -652.853280081343
FINAL SINGLE POINT ENERGY      -652.853282892816
                    ***********************HURRAY********************

CARTESIAN COORDINATES (ANGSTROEM)
---------------------------------
  C    -20.934117   26.260597   46.241990
  C    -20.496287   27.693707   45.943635
  C    -20.442628   28.313545   47.360570
  C    -19.955104   27.136139   48.233289
  O    -20.201613   25.911011   47.430590
  H    -20.665898   25.507774   45.491427
  H    -19.500536   27.677637   45.485060
  H    -21.189629   28.205818   45.273735
  H    -19.776161   29.179696   47.416733
  H    -21.446652   28.627071   47.660010
  H    -20.493456   27.048307   49.179990
  H    -18.879208   27.168814   48.431295
  C    -23.180881   25.107449   46.468005
  H    -24.202411   25.460370   46.298951
  H    -22.901279   24.444822   45.628195
  O    -22.373567   26.309767   46.382372
  C    -23.179392   24.306296   47.777536
  C    -24.066666   23.052720   47.692308
  C    -23.087106   22.004761   47.076245
  C    -21.733970   22.401272   47.706761
  O    -21.889737   23.791393   48.207203
  H    -23.503631   24.976695   48.580519
  H    -24.356832   22.749946   48.700483
  O    -25.321393   23.212145   46.985053
  H    -23.383600   20.978494   47.308157
  H    -23.070687   22.115054   45.983283
  H    -20.902199   22.372052   46.996304
  H    -21.481683   21.778024   48.569685
  H    -25.170677   23.224621   46.017617

 Multiplicity           Mult            ....    1
 Number of Electrons    NEL             ....  102
 Basis Dimension        Dim             ....  149

ORBITAL ENERGIES
----------------

  NO   OCC          E(Eh)            E(eV)
   0   2.0000     -19.148840      -521.0664
   1   2.0000     -19.138474      -520.7843
   2   2.0000     -19.131489      -520.5943
   3   2.0000     -19.127168      -520.4767
   4   2.0000     -10.271428      -279.4998
   5   2.0000     -10.243604      -278.7426
   6   2.0000     -10.229829      -278.3678
   7   2.0000     -10.226392      -278.2743
   8   2.0000     -10.226350      -278.2731
   9   2.0000     -10.214665      -277.9552
  10   2.0000     -10.194281      -277.4005
  11   2.0000     -10.177098      -276.9329
  12   2.0000     -10.176849      -276.9261
  13   2.0000      -1.043467       -28.3942
  14   2.0000      -1.031211       -28.0607
  15   2.0000      -1.012082       -27.5401
  16   2.0000      -0.987606       -26.8741
  17   2.0000      -0.782773       -21.3003
  18   2.0000      -0.778230       -21.1767
  19   2.0000      -0.761883       -20.7319
  20   2.0000      -0.726234       -19.7618
  21   2.0000      -0.676170       -18.3995
  22   2.0000      -0.609719       -16.5913
  23   2.0000      -0.592497       -16.1227
  24   2.0000      -0.589098       -16.0302
  25   2.0000      -0.567829       -15.4514
  26   2.0000      -0.523941       -14.2572
  27   2.0000      -0.510185       -13.8828
  28   2.0000      -0.492832       -13.4106
  29   2.0000      -0.478965       -13.0333
  30   2.0000      -0.460921       -12.5423
  31   2.0000      -0.452972       -12.3260
  32   2.0000      -0.445416       -12.1204
  33   2.0000      -0.426975       -11.6186
  34   2.0000      -0.420998       -11.4559
  35   2.0000      -0.414742       -11.2857
  36   2.0000      -0.403976       -10.9927
  37   2.0000      -0.391090       -10.6421
  38   2.0000      -0.379439       -10.3251
  39   2.0000      -0.363334        -9.8868
  40   2.0000      -0.349737        -9.5168
  41   2.0000      -0.347789        -9.4638
  42   2.0000      -0.338605        -9.2139
  43   2.0000      -0.329313        -8.9611
  44   2.0000      -0.317616        -8.6428
  45   2.0000      -0.311204        -8.4683
  46   2.0000      -0.283973        -7.7273
  47   2.0000      -0.269270        -7.3272
  48   2.0000      -0.264512        -7.1977
  49   2.0000      -0.250509        -6.8167
  50   2.0000      -0.224883        -6.1194
  51   0.0000       0.052233         1.4213
  52   0.0000       0.076078         2.0702
  53   0.0000       0.091315         2.4848
  54   0.0000       0.099782         2.7152
  55   0.0000       0.110946         3.0190

MULLIKEN ATOMIC CHARGES
-----------------------
   0 C :    0.303895
   1 C :   -0.263539
   2 C :   -0.297563
   3 C :   -0.005557
   4 O :   -0.484586
   5 H :    0.128949
   6 H :    0.141539
   7 H :    0.153078
   8 H :    0.136445
   9 H :    0.159971
  10 H :    0.149786
  11 H :    0.139185
  12 C :   -0.006767
  13 H :    0.157707
  14 H :    0.099238
  15 O :   -0.528695
  16 C :    0.095742
  17 C :    0.079646
  18 C :   -0.324319
  19 C :   -0.014483
  20 O :   -0.487541
  21 H :    0.156206
  22 H :    0.167563
  23 O :   -0.598843
  24 H :    0.155677
  25 H :    0.134411
  26 H :    0.147633
  27 H :    0.149768
  28 H :    0.355453
Sum of atomic charges:   -0.0000000

LOEWDIN ATOMIC CHARGES
----------------------
   0 C :    0.177114
   1 C :   -0.216385
   2 C :   -0.216887
   3 C :   -0.028707
   4 O :   -0.307506
   5 H :    0.090287
   6 H :    0.111713
   7 H :    0.121584
   8 H :    0.111211
   9 H :    0.117980
  10 H :    0.106793
  11 H :    0.100811
  12 C :   -0.046718
  13 H :    0.119033
  14 H :    0.078261
  15 O :   -0.326654
  16 C :    0.009167
  17 C :    0.034266
  18 C :   -0.243142
  19 C :   -0.030739
  20 O :   -0.301616
  21 H :    0.114745
  22 H :    0.119334
  23 O :   -0.407479
  24 H :    0.121776
  25 H :    0.103487
  26 H :    0.104582
  27 H :    0.106024
  28 H :    0.277665

  Mayer bond orders larger than 0.100000
B(  0-C ,  1-C ) :   0.9454 B(  0-C ,  4-O ) :   0.9313 B(  0-C ,  5-H ) :   0.9230
B(  0-C , 15-O ) :   0.8441 B(  1-C ,  2-C ) :   0.9599 B(  1-C ,  6-H ) :   0.9412
B(  1-C ,  7-H ) :   0.9368 B(  2-C ,  3-C ) :   0.9532 B(  2-C ,  8-H ) :   0.9454
B(  2-C ,  9-H ) :   0.9447 B(  3-C ,  4-O ) :   0.8429 B(  3-C , 10-H ) :   0.9344
B(  3-C , 11-H ) :   0.9402 B( 12-C , 13-H ) :   0.9217 B( 12-C , 14-H ) :   0.9225
B( 12-C , 15-O ) :   0.8668 B( 12-C , 16-C ) :   0.8826 B( 16-C , 17-C ) :   0.8644
B( 16-C , 20-O ) :   0.8792 B( 16-C , 21-H ) :   0.9308 B( 17-C , 18-C ) :   0.9235
B( 17-C , 22-H ) :   0.9334 B( 17-C , 23-O ) :   0.8962 B( 18-C , 19-C ) :   0.9385
B( 18-C , 24-H ) :   0.9422 B( 18-C , 25-H ) :   0.9393 B( 19-C , 20-O ) :   0.8526
B( 19-C , 26-H ) :   0.9302 B( 19-C , 27-H ) :   0.9375 B( 23-O , 28-H ) :   0.7987

FINAL SINGLE POINT ENERGY      -652.853283472446

DIPOLE MOMENT
-------------
                                X             Y             Z
Electronic contribution:     -2.04023      -1.31878       1.10598
Nuclear contribution   :      2.29551       1.05384      -1.83972
                        -----------------------------------------
Total Dipole Moment    :      0.25529      -0.26494      -0.73373
                        -----------------------------------------
Magnitude (a.u.)       :      0.82081
Magnitude (Debye)      :      2.08633

Rotational constants in cm-1:     0.056202     0.014583     0.012995
Rotational constants in MHz :  1684.903284   437.191975   389.571713

                             ****ORCA TERMINATED NORMALLY****
TOTAL RUN TIME: 0 days 0 hours 45 minutes 12 seconds 738 msec
