                         Program Version 4.2.0 -  RELEASE  -
|  1> # Test redundant internal optimization
|  2> #
|  3> ! RKS B3LYP  Opt TightSCF SmallPrint
|  4>
|  5> %basis
|  6>         Basis "6-31G"
|  7> end
|  8>
|  9> %geom
| 10> Constraints
| 11> { D 4  0  15  12  195.0   C } # D for Dihedral angle
| 12> { D 0  15  12  16  195.0   C } # D for Dihedral angle
| 13> { D 0  4  3  2   C } # D for Dihedral angle
| 14> { D 4  3  2  1   C } # D for Dihedral angle
| 15> { D 3  2  1  0   C } # D for Dihedral angle
| 16> { D 2  1  0  4   C } # D for Dihedral angle
| 17> { D 1  0  4  3   C } # D for Dihedral angle
| 18> { D 16  20  19  18   C } # D for Dihedral angle
| 19> { D 20  19  18  17   C } # D for Dihedral angle
| 20> { D 19  18  17  16   C } # D for Dihedral angle
| 21> { D 18  17  16  20   C } # D for Dihedral angle
| 22> { D 17  16  20  19   C } # D for Dihedral angle
| 23> { D 15  12  16  20   C } # D for Dihedral angle
| 24> end
| 25> end
| 26>
| 27>
| 28> #%pal
| 29> #nprocs 8
| 30> #end
| 31>
| 32> * xyz 0 1
| 33> C  -21.048   26.222   46.251
| 34> C  -20.361   27.558   45.944
| 35> C  -20.329   28.222   47.341
| 36> C  -20.110   27.022   48.296
| 37> O  -20.473   25.807   47.535
| 38> H  -20.833   25.428   45.533
| 39> H  -19.344   27.382   45.576
| 40> H  -20.898   28.157   45.201
| 41> H  -19.543   28.978   47.434
| 42> H  -21.289   28.710   47.548
| 43> H  -20.733   27.082   49.195
| 44> H  -19.064   26.913   48.597
| 45> C  -23.353   26.472   45.026
| 46> H  -22.814   27.139   44.342
| 47> H  -23.414   25.480   44.561
| 48> O  -22.586   26.394   46.375
| 49> C  -24.802   27.008   45.190
| 50> C  -25.565   26.962   43.861
| 51> C  -25.962   25.469   43.778
| 52> C  -26.228   25.093   45.257
| 53> O  -25.574   26.134   46.079
| 54> H  -24.769   27.993   45.659
| 55> O  -26.829   27.862   43.941
| 56> H  -24.962   27.290   43.007
| 57> H  -26.834   25.296   43.140
| 58> H  -25.129   24.881   43.374
| 59> H  -25.813   24.114   45.522
| 60> H  -27.293   25.107   45.506
| 61> H  -27.449   27.551   44.790
| 62> *
| 63>
| 64>                          ****END OF INPUT****
 Total Charge           Charge          ....    0
 Multiplicity           Mult            ....    1
 Number of Electrons    NEL             ....  102
FINAL SINGLE POINT ENERGY      -652.829264213409
FINAL SINGLE POINT ENERGY      -652.852964249544
FINAL SINGLE POINT ENERGY      -652.856810068754
FINAL SINGLE POINT ENERGY      -652.857497049503
FINAL SINGLE POINT ENERGY      -652.857592224977
FINAL SINGLE POINT ENERGY      -652.857602718056
                    ***********************HURRAY********************

CARTESIAN COORDINATES (ANGSTROEM)
---------------------------------
  C    -21.088132   26.218723   46.165463
  C    -20.418204   27.566143   45.904539
  C    -20.504640   28.243037   47.294578
  C    -20.325770   27.056702   48.264430
  O    -20.608403   25.837331   47.461027
  H    -20.826023   25.417136   45.465853
  H    -19.374261   27.401070   45.612609
  H    -20.903812   28.149558   45.116933
  H    -19.743635   29.016683   47.432904
  H    -21.491295   28.697810   47.421580
  H    -21.016321   27.082067   49.110491
  H    -19.300290   26.956786   48.632143
  C    -23.223558   26.396237   44.971919
  H    -22.720673   27.086007   44.274852
  H    -23.227642   25.395441   44.514349
  O    -22.537605   26.350583   46.247435
  C    -24.643279   26.904288   45.211084
  C    -25.501932   26.960546   43.939138
  C    -25.998914   25.494830   43.826691
  C    -26.181226   25.075070   45.306565
  O    -25.403378   26.042269   46.116764
  H    -24.584516   27.882898   45.696107
  O    -26.605004   27.893113   44.103322
  H    -24.965731   27.304668   43.053161
  H    -26.925570   25.445745   43.249787
  H    -25.246633   24.875548   43.325102
  H    -25.814478   24.064680   45.509820
  H    -27.222813   25.140837   45.636400
  H    -26.997260   27.770192   44.993954

 Multiplicity           Mult            ....    1
 Number of Electrons    NEL             ....  102
 Basis Dimension        Dim             ....  149

ORBITAL ENERGIES
----------------

  NO   OCC          E(Eh)            E(eV)
   0   2.0000     -19.140672      -520.8442
   1   2.0000     -19.140377      -520.8361
   2   2.0000     -19.139717      -520.8182
   3   2.0000     -19.138619      -520.7883
   4   2.0000     -10.278881      -279.7026
   5   2.0000     -10.245286      -278.7884
   6   2.0000     -10.236392      -278.5464
   7   2.0000     -10.235986      -278.5353
   8   2.0000     -10.229795      -278.3669
   9   2.0000     -10.222964      -278.1810
  10   2.0000     -10.191063      -277.3129
  11   2.0000     -10.187625      -277.2194
  12   2.0000     -10.185642      -277.1654
  13   2.0000      -1.053444       -28.6657
  14   2.0000      -1.037329       -28.2272
  15   2.0000      -1.007698       -27.4209
  16   2.0000      -0.993637       -27.0382
  17   2.0000      -0.788357       -21.4523
  18   2.0000      -0.783951       -21.3324
  19   2.0000      -0.769042       -20.9267
  20   2.0000      -0.730862       -19.8878
  21   2.0000      -0.676308       -18.4033
  22   2.0000      -0.605964       -16.4891
  23   2.0000      -0.600461       -16.3394
  24   2.0000      -0.590904       -16.0793
  25   2.0000      -0.584878       -15.9153
  26   2.0000      -0.525285       -14.2937
  27   2.0000      -0.513520       -13.9736
  28   2.0000      -0.497225       -13.5302
  29   2.0000      -0.490555       -13.3487
  30   2.0000      -0.475195       -12.9307
  31   2.0000      -0.460840       -12.5401
  32   2.0000      -0.454238       -12.3604
  33   2.0000      -0.441679       -12.0187
  34   2.0000      -0.428524       -11.6607
  35   2.0000      -0.407210       -11.0807
  36   2.0000      -0.402834       -10.9617
  37   2.0000      -0.394824       -10.7437
  38   2.0000      -0.375358       -10.2140
  39   2.0000      -0.373224       -10.1559
  40   2.0000      -0.360766        -9.8169
  41   2.0000      -0.356873        -9.7110
  42   2.0000      -0.353445        -9.6177
  43   2.0000      -0.333571        -9.0769
  44   2.0000      -0.312838        -8.5127
  45   2.0000      -0.307771        -8.3749
  46   2.0000      -0.303400        -8.2559
  47   2.0000      -0.273147        -7.4327
  48   2.0000      -0.258072        -7.0225
  49   2.0000      -0.254471        -6.9245
  50   2.0000      -0.242252        -6.5920
  51   0.0000       0.063802         1.7361
  52   0.0000       0.080655         2.1947
  53   0.0000       0.086798         2.3619
  54   0.0000       0.095490         2.5984
  55   0.0000       0.102744         2.7958

MULLIKEN ATOMIC CHARGES
-----------------------
   0 C :    0.301592
   1 C :   -0.274269
   2 C :   -0.297249
   3 C :   -0.001029
   4 O :   -0.501755
   5 H :    0.136231
   6 H :    0.145905
   7 H :    0.140998
   8 H :    0.141733
   9 H :    0.160857
  10 H :    0.158209
  11 H :    0.140792
  12 C :   -0.001767
  13 H :    0.120748
  14 H :    0.127819
  15 O :   -0.495840
  16 C :    0.068649
  17 C :    0.076595
  18 C :   -0.297934
  19 C :   -0.025224
  20 O :   -0.505630
  21 H :    0.165214
  22 O :   -0.602881
  23 H :    0.148218
  24 H :    0.163473
  25 H :    0.144274
  26 H :    0.151248
  27 H :    0.144459
  28 H :    0.366561
Sum of atomic charges:   -0.0000000

LOEWDIN ATOMIC CHARGES
----------------------
   0 C :    0.178905
   1 C :   -0.231219
   2 C :   -0.216524
   3 C :   -0.024546
   4 O :   -0.302276
   5 H :    0.095126
   6 H :    0.114354
   7 H :    0.112199
   8 H :    0.114285
   9 H :    0.118382
  10 H :    0.111559
  11 H :    0.101986
  12 C :   -0.044353
  13 H :    0.089780
  14 H :    0.092789
  15 O :   -0.320641
  16 C :    0.019474
  17 C :    0.035138
  18 C :   -0.242292
  19 C :   -0.036615
  20 O :   -0.316707
  21 H :    0.119323
  22 O :   -0.414552
  23 H :    0.113497
  24 H :    0.126962
  25 H :    0.112549
  26 H :    0.107097
  27 H :    0.101903
  28 H :    0.284417

  Mayer bond orders larger than 0.100000
B(  0-C ,  1-C ) :   0.9294 B(  0-C ,  4-O ) :   0.9396 B(  0-C ,  5-H ) :   0.9197
B(  0-C , 15-O ) :   0.8320 B(  1-C ,  2-C ) :   0.9529 B(  1-C ,  6-H ) :   0.9337
B(  1-C ,  7-H ) :   0.9337 B(  2-C ,  3-C ) :   0.9558 B(  2-C ,  8-H ) :   0.9449
B(  2-C ,  9-H ) :   0.9438 B(  3-C ,  4-O ) :   0.8350 B(  3-C , 10-H ) :   0.9338
B(  3-C , 11-H ) :   0.9397 B( 12-C , 13-H ) :   0.9027 B( 12-C , 14-H ) :   0.9144
B( 12-C , 15-O ) :   0.8481 B( 12-C , 16-C ) :   0.9002 B( 16-C , 17-C ) :   0.8987
B( 16-C , 20-O ) :   0.8735 B( 16-C , 21-H ) :   0.9241 B( 17-C , 18-C ) :   0.9123
B( 17-C , 22-O ) :   0.8942 B( 17-C , 23-H ) :   0.9337 B( 18-C , 19-C ) :   0.9386
B( 18-C , 24-H ) :   0.9370 B( 18-C , 25-H ) :   0.9336 B( 19-C , 20-O ) :   0.8495
B( 19-C , 26-H ) :   0.9339 B( 19-C , 27-H ) :   0.9382 B( 22-O , 28-H ) :   0.7928

FINAL SINGLE POINT ENERGY      -652.857604988440

DIPOLE MOMENT
-------------
                                X             Y             Z
Electronic contribution:     -2.37476      -1.40258       2.00162
Nuclear contribution   :      2.82122       1.64420      -2.87622
                        -----------------------------------------
Total Dipole Moment    :      0.44646       0.24162      -0.87460
                        -----------------------------------------
Magnitude (a.u.)       :      1.01125
Magnitude (Debye)      :      2.57040

Rotational constants in cm-1:     0.063094     0.011491     0.010937
Rotational constants in MHz :  1891.508483   344.486464   327.876783

                             ****ORCA TERMINATED NORMALLY****
TOTAL RUN TIME: 0 days 0 hours 25 minutes 9 seconds 590 msec
