                         Program Version 4.2.0 -  RELEASE  -
|  1> # Test redundant internal optimization
|  2> #
|  3> ! RKS B3LYP  Opt TightSCF SmallPrint
|  4>
|  5> %basis
|  6>         Basis "6-31G"
|  7> end
|  8>
|  9> %geom
| 10> Constraints
| 11> { D 4  0  15  12  165.0   C } # D for Dihedral angle
| 12> { D 0  15  12  16  240.0   C } # D for Dihedral angle
| 13> { D 0  4  3  2   C } # D for Dihedral angle
| 14> { D 4  3  2  1   C } # D for Dihedral angle
| 15> { D 3  2  1  0   C } # D for Dihedral angle
| 16> { D 2  1  0  4   C } # D for Dihedral angle
| 17> { D 1  0  4  3   C } # D for Dihedral angle
| 18> { D 16  20  19  18   C } # D for Dihedral angle
| 19> { D 20  19  18  17   C } # D for Dihedral angle
| 20> { D 19  18  17  16   C } # D for Dihedral angle
| 21> { D 18  17  16  20   C } # D for Dihedral angle
| 22> { D 17  16  20  19   C } # D for Dihedral angle
| 23> { D 15  12  16  20   C } # D for Dihedral angle
| 24> end
| 25> end
| 26>
| 27>
| 28> #%pal
| 29> #nprocs 8
| 30> #end
| 31>
| 32> * xyz 0 1
| 33> C  -21.048   26.222   46.251
| 34> C  -20.361   27.558   45.944
| 35> C  -20.329   28.222   47.341
| 36> C  -20.110   27.022   48.296
| 37> O  -20.473   25.807   47.535
| 38> H  -20.833   25.428   45.533
| 39> H  -19.344   27.382   45.576
| 40> H  -20.898   28.157   45.201
| 41> H  -19.543   28.978   47.434
| 42> H  -21.289   28.710   47.548
| 43> H  -20.733   27.082   49.195
| 44> H  -19.064   26.913   48.597
| 45> C  -23.260   27.170   45.210
| 46> H  -22.495   27.460   44.478
| 47> H  -23.998   26.536   44.703
| 48> O  -22.586   26.394   46.375
| 49> C  -23.990   28.456   45.688
| 50> C  -25.016   28.139   46.783
| 51> C  -24.110   28.004   48.031
| 52> C  -23.003   29.057   47.778
| 53> O  -23.044   29.373   46.333
| 54> H  -24.401   28.977   44.822
| 55> H  -25.711   28.977   46.900
| 56> O  -25.839   26.854   46.496
| 57> H  -24.648   28.181   48.968
| 58> H  -23.681   26.996   48.077
| 59> H  -22.005   28.688   48.036
| 60> H  -23.184   29.992   48.316
| 61> H  -25.162   26.002   46.375
| 62> *
| 63>
| 64>                          ****END OF INPUT****
 Total Charge           Charge          ....    0
 Multiplicity           Mult            ....    1
 Number of Electrons    NEL             ....  102
FINAL SINGLE POINT ENERGY      -652.753308193864
FINAL SINGLE POINT ENERGY      -652.825483118881
FINAL SINGLE POINT ENERGY      -652.846048165023
FINAL SINGLE POINT ENERGY      -652.851673368342
FINAL SINGLE POINT ENERGY      -652.852706429599
FINAL SINGLE POINT ENERGY      -652.852988570310
FINAL SINGLE POINT ENERGY      -652.853077640487
FINAL SINGLE POINT ENERGY      -652.853124019987
FINAL SINGLE POINT ENERGY      -652.853145421036
FINAL SINGLE POINT ENERGY      -652.853153115589
                    ***********************HURRAY********************

CARTESIAN COORDINATES (ANGSTROEM)
---------------------------------
  C    -20.998712   26.264391   46.146481
  C    -20.149420   27.501148   45.857125
  C    -20.028443   28.145139   47.261583
  C    -19.964395   26.918649   48.195164
  O    -20.490481   25.779019   47.394179
  H    -20.825347   25.461134   45.420478
  H    -19.176982   27.155791   45.490583
  H    -20.571584   28.189674   45.121683
  H    -19.138955   28.776625   47.351815
  H    -20.903148   28.764393   47.443412
  H    -20.573319   27.022955   49.097471
  H    -18.942429   26.652773   48.478497
  C    -23.168150   27.182887   45.256213
  H    -22.474177   27.522335   44.478776
  H    -23.903383   26.523197   44.779221
  O    -22.456886   26.402109   46.263196
  C    -23.938374   28.391454   45.788823
  C    -25.106058   28.057463   46.734177
  C    -24.410090   28.112514   48.128142
  C    -23.379792   29.241986   47.956768
  O    -23.203311   29.440181   46.485181
  H    -24.331064   28.878578   44.884924
  H    -25.884334   28.818958   46.649420
  O    -25.772951   26.806759   46.450939
  H    -25.116353   28.300431   48.941020
  H    -23.907175   27.155156   48.301672
  H    -22.418495   29.012093   48.416179
  H    -23.737106   30.199235   48.348892
  H    -25.187086   26.059973   46.697986

 Multiplicity           Mult            ....    1
 Number of Electrons    NEL             ....  102
 Basis Dimension        Dim             ....  149

ORBITAL ENERGIES
----------------

  NO   OCC          E(Eh)            E(eV)
   0   2.0000     -19.146445      -521.0013
   1   2.0000     -19.145611      -520.9786
   2   2.0000     -19.144332      -520.9438
   3   2.0000     -19.141526      -520.8674
   4   2.0000     -10.282242      -279.7940
   5   2.0000     -10.239275      -278.6248
   6   2.0000     -10.233718      -278.4736
   7   2.0000     -10.233526      -278.4684
   8   2.0000     -10.229659      -278.3632
   9   2.0000     -10.228430      -278.3297
  10   2.0000     -10.190516      -277.2980
  11   2.0000     -10.185973      -277.1744
  12   2.0000     -10.184577      -277.1364
  13   2.0000      -1.053045       -28.6548
  14   2.0000      -1.031345       -28.0643
  15   2.0000      -1.013632       -27.5823
  16   2.0000      -0.995449       -27.0875
  17   2.0000      -0.789007       -21.4700
  18   2.0000      -0.777443       -21.1553
  19   2.0000      -0.770740       -20.9729
  20   2.0000      -0.736709       -20.0469
  21   2.0000      -0.683530       -18.5998
  22   2.0000      -0.609624       -16.5887
  23   2.0000      -0.603710       -16.4278
  24   2.0000      -0.596973       -16.2445
  25   2.0000      -0.566696       -15.4206
  26   2.0000      -0.528836       -14.3903
  27   2.0000      -0.509036       -13.8516
  28   2.0000      -0.496982       -13.5236
  29   2.0000      -0.496147       -13.5008
  30   2.0000      -0.471271       -12.8239
  31   2.0000      -0.462798       -12.5934
  32   2.0000      -0.446427       -12.1479
  33   2.0000      -0.438152       -11.9227
  34   2.0000      -0.427952       -11.6452
  35   2.0000      -0.413491       -11.2517
  36   2.0000      -0.407906       -11.0997
  37   2.0000      -0.402199       -10.9444
  38   2.0000      -0.379471       -10.3259
  39   2.0000      -0.372176       -10.1274
  40   2.0000      -0.357720        -9.7341
  41   2.0000      -0.356433        -9.6990
  42   2.0000      -0.348128        -9.4730
  43   2.0000      -0.331526        -9.0213
  44   2.0000      -0.318446        -8.6654
  45   2.0000      -0.312432        -8.5017
  46   2.0000      -0.301916        -8.2155
  47   2.0000      -0.272803        -7.4233
  48   2.0000      -0.262795        -7.1510
  49   2.0000      -0.262054        -7.1309
  50   2.0000      -0.241059        -6.5596
  51   0.0000       0.064613         1.7582
  52   0.0000       0.075273         2.0483
  53   0.0000       0.089749         2.4422
  54   0.0000       0.094304         2.5662
  55   0.0000       0.099511         2.7078

MULLIKEN ATOMIC CHARGES
-----------------------
   0 C :    0.319953
   1 C :   -0.291707
   2 C :   -0.318774
   3 C :   -0.007836
   4 O :   -0.503096
   5 H :    0.146251
   6 H :    0.151822
   7 H :    0.159368
   8 H :    0.142747
   9 H :    0.183725
  10 H :    0.145491
  11 H :    0.145395
  12 C :   -0.049531
  13 H :    0.138424
  14 H :    0.157278
  15 O :   -0.534540
  16 C :    0.108063
  17 C :    0.086707
  18 C :   -0.310679
  19 C :   -0.012377
  20 O :   -0.526047
  21 H :    0.145839
  22 H :    0.163266
  23 O :   -0.606766
  24 H :    0.149468
  25 H :    0.166670
  26 H :    0.132569
  27 H :    0.146684
  28 H :    0.371634
Sum of atomic charges:   -0.0000000

LOEWDIN ATOMIC CHARGES
----------------------
   0 C :    0.184269
   1 C :   -0.230011
   2 C :   -0.222894
   3 C :   -0.028178
   4 O :   -0.304078
   5 H :    0.095081
   6 H :    0.119506
   7 H :    0.121730
   8 H :    0.115517
   9 H :    0.125450
  10 H :    0.103723
  11 H :    0.104668
  12 C :   -0.053657
  13 H :    0.102575
  14 H :    0.113988
  15 O :   -0.350745
  16 C :    0.011343
  17 C :    0.036004
  18 C :   -0.240241
  19 C :   -0.028303
  20 O :   -0.326502
  21 H :    0.113014
  22 H :    0.116217
  23 O :   -0.408615
  24 H :    0.118819
  25 H :    0.123014
  26 H :    0.097615
  27 H :    0.103253
  28 H :    0.287436

  Mayer bond orders larger than 0.100000
B(  0-C ,  1-C ) :   0.9257 B(  0-C ,  4-O ) :   0.9373 B(  0-C ,  5-H ) :   0.9268
B(  0-C , 15-O ) :   0.8313 B(  1-C ,  2-C ) :   0.9526 B(  1-C ,  6-H ) :   0.9320
B(  1-C ,  7-H ) :   0.9252 B(  2-C ,  3-C ) :   0.9565 B(  2-C ,  8-H ) :   0.9455
B(  2-C ,  9-H ) :   0.9138 B(  3-C ,  4-O ) :   0.8353 B(  3-C , 10-H ) :   0.9330
B(  3-C , 11-H ) :   0.9385 B( 12-C , 13-H ) :   0.9221 B( 12-C , 14-H ) :   0.9083
B( 12-C , 15-O ) :   0.8490 B( 12-C , 16-C ) :   0.8979 B( 16-C , 17-C ) :   0.8863
B( 16-C , 20-O ) :   0.8753 B( 16-C , 21-H ) :   0.9222 B( 17-C , 18-C ) :   0.9326
B( 17-C , 22-H ) :   0.9361 B( 17-C , 23-O ) :   0.9061 B( 18-C , 19-C ) :   0.9463
B( 18-C , 24-H ) :   0.9400 B( 18-C , 25-H ) :   0.9290 B( 19-C , 20-O ) :   0.8345
B( 19-C , 26-H ) :   0.9146 B( 19-C , 27-H ) :   0.9403 B( 23-O , 28-H ) :   0.7885

FINAL SINGLE POINT ENERGY      -652.853144406510

DIPOLE MOMENT
-------------
                                X             Y             Z
Electronic contribution:     -2.91414      -2.98423      -1.54462
Nuclear contribution   :      3.62552       3.61636       1.59319
                        -----------------------------------------
Total Dipole Moment    :      0.71138       0.63213       0.04857
                        -----------------------------------------
Magnitude (a.u.)       :      0.95290
Magnitude (Debye)      :      2.42207

Rotational constants in cm-1:     0.044201     0.018354     0.016778
Rotational constants in MHz :  1325.122806   550.227299   502.989214

                             ****ORCA TERMINATED NORMALLY****
TOTAL RUN TIME: 0 days 0 hours 29 minutes 55 seconds 21 msec
