                         Program Version 4.2.0 -  RELEASE  -
|  1> # Test redundant internal optimization
|  2> #
|  3> ! RKS B3LYP  Opt TightSCF SmallPrint
|  4>
|  5> %basis
|  6>         Basis "6-31G"
|  7> end
|  8>
|  9> %geom
| 10> Constraints
| 11> { D 4  0  15  12  270.0   C } # D for Dihedral angle
| 12> { D 0  15  12  16  225.0   C } # D for Dihedral angle
| 13> { D 0  4  3  2   C } # D for Dihedral angle
| 14> { D 4  3  2  1   C } # D for Dihedral angle
| 15> { D 3  2  1  0   C } # D for Dihedral angle
| 16> { D 2  1  0  4   C } # D for Dihedral angle
| 17> { D 1  0  4  3   C } # D for Dihedral angle
| 18> { D 16  20  19  18   C } # D for Dihedral angle
| 19> { D 20  19  18  17   C } # D for Dihedral angle
| 20> { D 19  18  17  16   C } # D for Dihedral angle
| 21> { D 18  17  16  20   C } # D for Dihedral angle
| 22> { D 17  16  20  19   C } # D for Dihedral angle
| 23> { D 15  12  16  20   C } # D for Dihedral angle
| 24> end
| 25> end
| 26>
| 27>
| 28> #%pal
| 29> #nprocs 8
| 30> #end
| 31>
| 32> * xyz 0 1
| 33> C  -21.048   26.222   46.251
| 34> C  -20.361   27.558   45.944
| 35> C  -20.329   28.222   47.341
| 36> C  -20.110   27.022   48.296
| 37> O  -20.473   25.807   47.535
| 38> H  -20.833   25.428   45.533
| 39> H  -19.344   27.382   45.576
| 40> H  -20.898   28.157   45.201
| 41> H  -19.543   28.978   47.434
| 42> H  -21.289   28.710   47.548
| 43> H  -20.733   27.082   49.195
| 44> H  -19.064   26.913   48.597
| 45> C  -23.420   25.119   46.072
| 46> H  -22.782   24.380   45.571
| 47> H  -23.793   24.674   47.004
| 48> O  -22.586   26.394   46.375
| 49> C  -24.645   25.405   45.160
| 50> C  -25.539   26.499   45.756
| 51> C  -24.761   27.781   45.374
| 52> C  -24.160   27.429   43.991
| 53> O  -24.209   25.955   43.873
| 54> H  -25.160   24.466   44.949
| 55> H  -26.522   26.485   45.272
| 56> O  -25.744   26.353   47.288
| 57> H  -25.399   28.670   45.338
| 58> H  -23.965   27.970   46.104
| 59> H  -23.122   27.764   43.886
| 60> H  -24.748   27.837   43.163
| 61> H  -24.772   26.364   47.793
| 62> *
| 63>
| 64>                          ****END OF INPUT****
 Total Charge           Charge          ....    0
 Multiplicity           Mult            ....    1
 Number of Electrons    NEL             ....  102
FINAL SINGLE POINT ENERGY      -652.836844246333
FINAL SINGLE POINT ENERGY      -652.860327803856
FINAL SINGLE POINT ENERGY      -652.864820885686
FINAL SINGLE POINT ENERGY      -652.866429174366
FINAL SINGLE POINT ENERGY      -652.866540036452
FINAL SINGLE POINT ENERGY      -652.866560165063
FINAL SINGLE POINT ENERGY      -652.866560778803
                    ***********************HURRAY********************

CARTESIAN COORDINATES (ANGSTROEM)
---------------------------------
  C    -21.045166   26.147203   46.247055
  C    -20.431634   27.516802   45.952828
  C    -20.407960   28.164554   47.358604
  C    -20.114660   26.963739   48.286734
  O    -20.437145   25.750477   47.496299
  H    -20.819352   25.359429   45.522755
  H    -19.414079   27.377868   45.570313
  H    -21.010662   28.082892   45.220732
  H    -19.653503   28.952148   47.447309
  H    -21.386800   28.598767   47.583893
  H    -20.722175   26.965131   49.195356
  H    -19.058168   26.888122   48.560594
  C    -23.299971   25.131201   46.108296
  H    -22.693936   24.369096   45.601458
  H    -23.650822   24.712186   47.059197
  O    -22.474855   26.308489   46.368265
  C    -24.497528   25.463763   45.225199
  C    -25.470697   26.512451   45.792226
  C    -24.801561   27.847322   45.343044
  C    -24.199306   27.478213   43.970553
  O    -24.132149   25.994671   43.919090
  H    -25.016326   24.515448   45.036429
  H    -26.455370   26.390051   45.336419
  O    -25.702184   26.406751   47.217027
  H    -25.521206   28.669029   45.281985
  H    -24.016093   28.104117   46.057840
  H    -23.192735   27.881289   43.826448
  H    -24.833052   27.794282   43.136197
  H    -24.892904   26.680509   47.697855

 Multiplicity           Mult            ....    1
 Number of Electrons    NEL             ....  102
 Basis Dimension        Dim             ....  149

ORBITAL ENERGIES
----------------

  NO   OCC          E(Eh)            E(eV)
   0   2.0000     -19.151931      -521.1505
   1   2.0000     -19.142125      -520.8837
   2   2.0000     -19.139240      -520.8052
   3   2.0000     -19.135378      -520.7001
   4   2.0000     -10.284139      -279.8456
   5   2.0000     -10.236734      -278.5557
   6   2.0000     -10.231678      -278.4181
   7   2.0000     -10.230310      -278.3809
   8   2.0000     -10.228649      -278.3357
   9   2.0000     -10.224543      -278.2240
  10   2.0000     -10.190553      -277.2991
  11   2.0000     -10.190086      -277.2863
  12   2.0000     -10.180778      -277.0331
  13   2.0000      -1.058370       -28.7997
  14   2.0000      -1.027576       -27.9618
  15   2.0000      -1.010205       -27.4891
  16   2.0000      -0.997909       -27.1545
  17   2.0000      -0.792290       -21.5593
  18   2.0000      -0.773152       -21.0385
  19   2.0000      -0.766911       -20.8687
  20   2.0000      -0.733350       -19.9555
  21   2.0000      -0.678715       -18.4688
  22   2.0000      -0.603290       -16.4164
  23   2.0000      -0.602659       -16.3992
  24   2.0000      -0.597224       -16.2513
  25   2.0000      -0.575207       -15.6522
  26   2.0000      -0.527701       -14.3595
  27   2.0000      -0.509528       -13.8650
  28   2.0000      -0.497443       -13.5361
  29   2.0000      -0.491877       -13.3847
  30   2.0000      -0.467129       -12.7112
  31   2.0000      -0.463766       -12.6197
  32   2.0000      -0.444086       -12.0842
  33   2.0000      -0.430430       -11.7126
  34   2.0000      -0.421351       -11.4655
  35   2.0000      -0.418333       -11.3834
  36   2.0000      -0.405446       -11.0328
  37   2.0000      -0.396002       -10.7758
  38   2.0000      -0.385393       -10.4871
  39   2.0000      -0.364897        -9.9294
  40   2.0000      -0.361236        -9.8297
  41   2.0000      -0.353970        -9.6320
  42   2.0000      -0.348125        -9.4730
  43   2.0000      -0.331930        -9.0323
  44   2.0000      -0.321940        -8.7604
  45   2.0000      -0.310570        -8.4510
  46   2.0000      -0.304888        -8.2964
  47   2.0000      -0.277391        -7.5482
  48   2.0000      -0.262577        -7.1451
  49   2.0000      -0.256213        -6.9719
  50   2.0000      -0.238722        -6.4960
  51   0.0000       0.062629         1.7042
  52   0.0000       0.074122         2.0170
  53   0.0000       0.086084         2.3425
  54   0.0000       0.097750         2.6599
  55   0.0000       0.104077         2.8321

MULLIKEN ATOMIC CHARGES
-----------------------
   0 C :    0.290769
   1 C :   -0.264921
   2 C :   -0.301897
   3 C :   -0.001812
   4 O :   -0.506786
   5 H :    0.152115
   6 H :    0.149692
   7 H :    0.154458
   8 H :    0.144182
   9 H :    0.155781
  10 H :    0.146806
  11 H :    0.144598
  12 C :   -0.019774
  13 H :    0.147467
  14 H :    0.150372
  15 O :   -0.539123
  16 C :    0.095089
  17 C :    0.088852
  18 C :   -0.319159
  19 C :   -0.002694
  20 O :   -0.524567
  21 H :    0.148836
  22 H :    0.162230
  23 O :   -0.606328
  24 H :    0.145656
  25 H :    0.164832
  26 H :    0.138785
  27 H :    0.141686
  28 H :    0.364857
Sum of atomic charges:   -0.0000000

LOEWDIN ATOMIC CHARGES
----------------------
   0 C :    0.175924
   1 C :   -0.216513
   2 C :   -0.216824
   3 C :   -0.027562
   4 O :   -0.325601
   5 H :    0.102419
   6 H :    0.116644
   7 H :    0.120026
   8 H :    0.114824
   9 H :    0.114612
  10 H :    0.105241
  11 H :    0.103709
  12 C :   -0.043441
  13 H :    0.108408
  14 H :    0.108040
  15 O :   -0.337547
  16 C :    0.014827
  17 C :    0.037870
  18 C :   -0.244635
  19 C :   -0.024255
  20 O :   -0.325348
  21 H :    0.114537
  22 H :    0.116271
  23 O :   -0.410489
  24 H :    0.115622
  25 H :    0.120126
  26 H :    0.099043
  27 H :    0.101027
  28 H :    0.283044

  Mayer bond orders larger than 0.100000
B(  0-C ,  1-C ) :   0.9482 B(  0-C ,  4-O ) :   0.9182 B(  0-C ,  5-H ) :   0.9161
B(  0-C , 15-O ) :   0.8469 B(  1-C ,  2-C ) :   0.9563 B(  1-C ,  6-H ) :   0.9388
B(  1-C ,  7-H ) :   0.9340 B(  2-C ,  3-C ) :   0.9535 B(  2-C ,  8-H ) :   0.9450
B(  2-C ,  9-H ) :   0.9453 B(  3-C ,  4-O ) :   0.8395 B(  3-C , 10-H ) :   0.9356
B(  3-C , 11-H ) :   0.9399 B( 12-C , 13-H ) :   0.9222 B( 12-C , 14-H ) :   0.9115
B( 12-C , 15-O ) :   0.8303 B( 12-C , 16-C ) :   0.9045 B( 16-C , 17-C ) :   0.8884
B( 16-C , 20-O ) :   0.8742 B( 16-C , 21-H ) :   0.9259 B( 17-C , 18-C ) :   0.9303
B( 17-C , 22-H ) :   0.9361 B( 17-C , 23-O ) :   0.9033 B( 18-C , 19-C ) :   0.9468
B( 18-C , 24-H ) :   0.9411 B( 18-C , 25-H ) :   0.9267 B( 19-C , 20-O ) :   0.8393
B( 19-C , 26-H ) :   0.9299 B( 19-C , 27-H ) :   0.9376 B( 23-O , 28-H ) :   0.7921

FINAL SINGLE POINT ENERGY      -652.866559217270

DIPOLE MOMENT
-------------
                                X             Y             Z
Electronic contribution:     -2.47393      -4.67744      -0.29528
Nuclear contribution   :      3.17391       5.62281       0.28986
                        -----------------------------------------
Total Dipole Moment    :      0.69998       0.94537      -0.00543
                        -----------------------------------------
Magnitude (a.u.)       :      1.17632
Magnitude (Debye)      :      2.98996

Rotational constants in cm-1:     0.046139     0.015711     0.014979
Rotational constants in MHz :  1383.220528   471.006277   449.067533

                             ****ORCA TERMINATED NORMALLY****
TOTAL RUN TIME: 0 days 0 hours 30 minutes 27 seconds 517 msec
