                         Program Version 4.2.0 -  RELEASE  -
|  1> # Test redundant internal optimization
|  2> #
|  3> ! RKS B3LYP  Opt TightSCF SmallPrint
|  4>
|  5> %basis
|  6>         Basis "6-31G"
|  7> end
|  8>
|  9> %geom
| 10> Constraints
| 11> { D 4  0  15  12  0.0   C } # D for Dihedral angle
| 12> { D 0  15  12  16  60.0   C } # D for Dihedral angle
| 13> { D 0  4  3  2   C } # D for Dihedral angle
| 14> { D 4  3  2  1   C } # D for Dihedral angle
| 15> { D 3  2  1  0   C } # D for Dihedral angle
| 16> { D 2  1  0  4   C } # D for Dihedral angle
| 17> { D 1  0  4  3   C } # D for Dihedral angle
| 18> { D 16  20  19  18   C } # D for Dihedral angle
| 19> { D 20  19  18  17   C } # D for Dihedral angle
| 20> { D 19  18  17  16   C } # D for Dihedral angle
| 21> { D 18  17  16  20   C } # D for Dihedral angle
| 22> { D 17  16  20  19   C } # D for Dihedral angle
| 23> { D 15  12  16  20   C } # D for Dihedral angle
| 24> end
| 25> end
| 26>
| 27>
| 28> #%pal
| 29> #nprocs 8
| 30> #end
| 31>
| 32> * xyz 0 1
| 33> C  -21.048   26.222   46.251
| 34> C  -20.361   27.558   45.944
| 35> C  -20.329   28.222   47.341
| 36> C  -20.110   27.022   48.296
| 37> O  -20.473   25.807   47.535
| 38> H  -20.833   25.428   45.533
| 39> H  -19.344   27.382   45.576
| 40> H  -20.898   28.157   45.201
| 41> H  -19.543   28.978   47.434
| 42> H  -21.289   28.710   47.548
| 43> H  -20.733   27.082   49.195
| 44> H  -19.064   26.913   48.597
| 45> C  -23.172   26.101   47.783
| 46> H  -24.260   26.242   47.760
| 47> H  -22.968   25.063   48.076
| 48> O  -22.586   26.394   46.375
| 49> C  -22.583   27.026   48.884
| 50> C  -22.968   28.490   48.644
| 51> C  -24.421   28.523   49.177
| 52> C  -24.379   27.537   50.371
| 53> O  -23.169   26.707   50.190
| 54> H  -21.509   26.849   48.963
| 55> H  -22.324   29.150   49.237
| 56> O  -22.864   28.913   47.153
| 57> H  -24.741   29.527   49.475
| 58> H  -25.113   28.167   48.405
| 59> H  -25.259   26.886   50.408
| 60> H  -24.278   28.049   51.332
| 61> H  -23.501   28.265   46.542
| 62> *
| 63>
| 64>                          ****END OF INPUT****
 Total Charge           Charge          ....    0
 Multiplicity           Mult            ....    1
 Number of Electrons    NEL             ....  102
FINAL SINGLE POINT ENERGY      -652.705275688473
FINAL SINGLE POINT ENERGY      -652.818982434586
FINAL SINGLE POINT ENERGY      -652.843920096827
FINAL SINGLE POINT ENERGY      -652.851150697449
FINAL SINGLE POINT ENERGY      -652.852839824894
FINAL SINGLE POINT ENERGY      -652.853554327532
FINAL SINGLE POINT ENERGY      -652.853910026397
FINAL SINGLE POINT ENERGY      -652.854077731286
FINAL SINGLE POINT ENERGY      -652.854174862436
FINAL SINGLE POINT ENERGY      -652.854212313844
FINAL SINGLE POINT ENERGY      -652.854224959102
FINAL SINGLE POINT ENERGY      -652.854228006690
                    ***********************HURRAY********************

CARTESIAN COORDINATES (ANGSTROEM)
---------------------------------
  C    -21.078675   26.264000   46.395741
  C    -20.378977   27.481987   45.782336
  C    -19.907419   28.253409   47.047124
  C    -19.552541   27.116940   48.031544
  O    -20.236566   25.896556   47.500381
  H    -21.028992   25.401640   45.722110
  H    -19.530945   27.116231   45.194173
  H    -21.032196   28.072993   45.135468
  H    -19.041018   28.890343   46.841225
  H    -20.719503   28.879067   47.420715
  H    -19.883682   27.302037   49.056168
  H    -18.485531   26.876601   48.043028
  C    -23.203693   26.152654   47.913950
  H    -24.258140   26.294713   47.662929
  H    -23.064266   25.106248   48.210447
  O    -22.533340   26.383916   46.621887
  C    -22.804325   27.026349   49.108820
  C    -23.165580   28.511416   48.916472
  C    -24.701567   28.506553   49.202672
  C    -24.837367   27.436106   50.306720
  O    -23.593933   26.617161   50.266770
  H    -21.765273   26.855103   49.378346
  H    -22.641042   29.133896   49.645462
  O    -22.853119   29.063886   47.614059
  H    -25.057346   29.490671   49.516980
  H    -25.236619   28.231706   48.287818
  H    -25.698251   26.775355   50.166301
  H    -24.890238   27.873235   51.307876
  H    -22.939857   28.359227   46.928478

 Multiplicity           Mult            ....    1
 Number of Electrons    NEL             ....  102
 Basis Dimension        Dim             ....  149

ORBITAL ENERGIES
----------------

  NO   OCC          E(Eh)            E(eV)
   0   2.0000     -19.156130      -521.2648
   1   2.0000     -19.155324      -521.2429
   2   2.0000     -19.145369      -520.9720
   3   2.0000     -19.137513      -520.7582
   4   2.0000     -10.284676      -279.8603
   5   2.0000     -10.241898      -278.6962
   6   2.0000     -10.236123      -278.5391
   7   2.0000     -10.235703      -278.5276
   8   2.0000     -10.231949      -278.4255
   9   2.0000     -10.231204      -278.4052
  10   2.0000     -10.190075      -277.2860
  11   2.0000     -10.188247      -277.2363
  12   2.0000     -10.180390      -277.0225
  13   2.0000      -1.055346       -28.7174
  14   2.0000      -1.032876       -28.1060
  15   2.0000      -1.012818       -27.5602
  16   2.0000      -0.998690       -27.1757
  17   2.0000      -0.789786       -21.4912
  18   2.0000      -0.777998       -21.1704
  19   2.0000      -0.770683       -20.9713
  20   2.0000      -0.736680       -20.0461
  21   2.0000      -0.683641       -18.6028
  22   2.0000      -0.606490       -16.5034
  23   2.0000      -0.604494       -16.4491
  24   2.0000      -0.600776       -16.3479
  25   2.0000      -0.574758       -15.6400
  26   2.0000      -0.532066       -14.4782
  27   2.0000      -0.508803       -13.8452
  28   2.0000      -0.500418       -13.6171
  29   2.0000      -0.489562       -13.3217
  30   2.0000      -0.474433       -12.9100
  31   2.0000      -0.460230       -12.5235
  32   2.0000      -0.447573       -12.1791
  33   2.0000      -0.430446       -11.7130
  34   2.0000      -0.427431       -11.6310
  35   2.0000      -0.413487       -11.2516
  36   2.0000      -0.410906       -11.1813
  37   2.0000      -0.397988       -10.8298
  38   2.0000      -0.383243       -10.4286
  39   2.0000      -0.369012       -10.0413
  40   2.0000      -0.360893        -9.8204
  41   2.0000      -0.359633        -9.7861
  42   2.0000      -0.349311        -9.5052
  43   2.0000      -0.342691        -9.3251
  44   2.0000      -0.331655        -9.0248
  45   2.0000      -0.316271        -8.6062
  46   2.0000      -0.303306        -8.2534
  47   2.0000      -0.275621        -7.5000
  48   2.0000      -0.264853        -7.2070
  49   2.0000      -0.260571        -7.0905
  50   2.0000      -0.240993        -6.5577
  51   0.0000       0.055364         1.5065
  52   0.0000       0.075043         2.0420
  53   0.0000       0.083439         2.2705
  54   0.0000       0.091842         2.4992
  55   0.0000       0.104456         2.8424

MULLIKEN ATOMIC CHARGES
-----------------------
   0 C :    0.313935
   1 C :   -0.276682
   2 C :   -0.338864
   3 C :   -0.028616
   4 O :   -0.512828
   5 H :    0.163042
   6 H :    0.155021
   7 H :    0.154680
   8 H :    0.141180
   9 H :    0.205721
  10 H :    0.143382
  11 H :    0.154193
  12 C :   -0.034109
  13 H :    0.158279
  14 H :    0.168804
  15 O :   -0.562369
  16 C :    0.048600
  17 C :    0.102359
  18 C :   -0.307226
  19 C :   -0.014121
  20 O :   -0.518721
  21 H :    0.173841
  22 H :    0.153168
  23 O :   -0.622572
  24 H :    0.153834
  25 H :    0.148576
  26 H :    0.144621
  27 H :    0.148966
  28 H :    0.383904
Sum of atomic charges:   -0.0000000

LOEWDIN ATOMIC CHARGES
----------------------
   0 C :    0.179188
   1 C :   -0.219843
   2 C :   -0.239360
   3 C :   -0.034655
   4 O :   -0.316073
   5 H :    0.104199
   6 H :    0.120150
   7 H :    0.122511
   8 H :    0.115191
   9 H :    0.135845
  10 H :    0.099614
  11 H :    0.107419
  12 C :   -0.047917
  13 H :    0.113453
  14 H :    0.116840
  15 O :   -0.351228
  16 C :    0.004035
  17 C :    0.035868
  18 C :   -0.236328
  19 C :   -0.031902
  20 O :   -0.317789
  21 H :    0.120480
  22 H :    0.111086
  23 O :   -0.418299
  24 H :    0.122767
  25 H :    0.112191
  26 H :    0.103288
  27 H :    0.106329
  28 H :    0.282937

  Mayer bond orders larger than 0.100000
B(  0-C ,  1-C ) :   0.9275 B(  0-C ,  4-O ) :   0.9206 B(  0-C ,  5-H ) :   0.9338
B(  0-C , 15-O ) :   0.8157 B(  1-C ,  2-C ) :   0.9550 B(  1-C ,  6-H ) :   0.9360
B(  1-C ,  7-H ) :   0.9363 B(  2-C ,  3-C ) :   0.9523 B(  2-C ,  8-H ) :   0.9433
B(  2-C ,  9-H ) :   0.8959 B(  3-C ,  4-O ) :   0.8202 B(  3-C , 10-H ) :   0.9226
B(  3-C , 11-H ) :   0.9406 B( 12-C , 13-H ) :   0.9366 B( 12-C , 14-H ) :   0.9260
B( 12-C , 15-O ) :   0.8027 B( 12-C , 16-C ) :   0.8822 B( 16-C , 17-C ) :   0.9027
B( 16-C , 20-O ) :   0.8405 B( 16-C , 21-H ) :   0.9135 B( 17-C , 18-C ) :   0.9102
B( 17-C , 22-H ) :   0.9342 B( 17-C , 23-O ) :   0.8955 B( 18-C , 19-C ) :   0.9374
B( 18-C , 24-H ) :   0.9444 B( 18-C , 25-H ) :   0.9420 B( 19-C , 20-O ) :   0.8342
B( 19-C , 26-H ) :   0.9338 B( 19-C , 27-H ) :   0.9387 B( 23-O , 28-H ) :   0.7295

FINAL SINGLE POINT ENERGY      -652.854228729939

DIPOLE MOMENT
-------------
                                X             Y             Z
Electronic contribution:     -0.34382      -3.36916       0.13211
Nuclear contribution   :      0.30209       3.86798      -0.23849
                        -----------------------------------------
Total Dipole Moment    :     -0.04173       0.49882      -0.10638
                        -----------------------------------------
Magnitude (a.u.)       :      0.51174
Magnitude (Debye)      :      1.30075

Rotational constants in cm-1:     0.049600     0.017629     0.016668
Rotational constants in MHz :  1486.973492   528.489178   499.690448

                             ****ORCA TERMINATED NORMALLY****
TOTAL RUN TIME: 0 days 0 hours 27 minutes 37 seconds 326 msec
