                         Program Version 4.2.0 -  RELEASE  -
|  1> # Test redundant internal optimization
|  2> #
|  3> ! RKS B3LYP  Opt TightSCF SmallPrint
|  4>
|  5> %basis
|  6>         Basis "6-31G"
|  7> end
|  8>
|  9> %geom
| 10> Constraints
| 11> { D 4  0  15  12  315.0   C } # D for Dihedral angle
| 12> { D 0  15  12  16  165.0   C } # D for Dihedral angle
| 13> { D 0  4  3  2   C } # D for Dihedral angle
| 14> { D 4  3  2  1   C } # D for Dihedral angle
| 15> { D 3  2  1  0   C } # D for Dihedral angle
| 16> { D 2  1  0  4   C } # D for Dihedral angle
| 17> { D 1  0  4  3   C } # D for Dihedral angle
| 18> { D 16  20  19  18   C } # D for Dihedral angle
| 19> { D 20  19  18  17   C } # D for Dihedral angle
| 20> { D 19  18  17  16   C } # D for Dihedral angle
| 21> { D 18  17  16  20   C } # D for Dihedral angle
| 22> { D 17  16  20  19   C } # D for Dihedral angle
| 23> { D 15  12  16  20   C } # D for Dihedral angle
| 24> end
| 25> end
| 26>
| 27>
| 28> #%pal
| 29> #nprocs 8
| 30> #end
| 31>
| 32> * xyz 0 1
| 33> C  -21.048   26.222   46.251
| 34> C  -20.361   27.558   45.944
| 35> C  -20.329   28.222   47.341
| 36> C  -20.110   27.022   48.296
| 37> O  -20.473   25.807   47.535
| 38> H  -20.833   25.428   45.533
| 39> H  -19.344   27.382   45.576
| 40> H  -20.898   28.157   45.201
| 41> H  -19.543   28.978   47.434
| 42> H  -21.289   28.710   47.548
| 43> H  -20.733   27.082   49.195
| 44> H  -19.064   26.913   48.597
| 45> C  -23.319   25.255   47.135
| 46> H  -23.372   24.367   46.492
| 47> H  -22.769   24.986   48.046
| 48> O  -22.586   26.394   46.375
| 49> C  -24.764   25.644   47.552
| 50> C  -25.655   25.873   46.325
| 51> C  -25.999   24.422   45.913
| 52> C  -26.100   23.684   47.272
| 53> O  -25.408   24.535   48.264
| 54> H  -24.722   26.487   48.244
| 55> O  -26.938   26.646   46.736
| 56> H  -25.155   26.434   45.529
| 57> H  -26.924   24.354   45.332
| 58> H  -25.190   24.002   45.304
| 59> H  -25.624   22.699   47.250
| 60> H  -27.134   23.570   47.609
| 61> H  -27.457   26.101   47.534
| 62> *
| 63>
| 64>                          ****END OF INPUT****
 Total Charge           Charge          ....    0
 Multiplicity           Mult            ....    1
 Number of Electrons    NEL             ....  102
FINAL SINGLE POINT ENERGY      -652.841146259785
FINAL SINGLE POINT ENERGY      -652.865089170876
FINAL SINGLE POINT ENERGY      -652.868998657499
FINAL SINGLE POINT ENERGY      -652.869663019221
FINAL SINGLE POINT ENERGY      -652.869753512529
FINAL SINGLE POINT ENERGY      -652.869766580016
FINAL SINGLE POINT ENERGY      -652.869768844863
                    ***********************HURRAY********************

CARTESIAN COORDINATES (ANGSTROEM)
---------------------------------
  C    -21.115897   26.138192   46.285651
  C    -20.595147   27.539748   45.969391
  C    -20.570855   28.189316   47.370327
  C    -20.180077   27.019164   48.298737
  O    -20.451344   25.777802   47.519152
  H    -20.856220   25.353300   45.567120
  H    -19.586729   27.462624   45.547710
  H    -21.239046   28.066865   45.262136
  H    -19.864382   29.022422   47.435243
  H    -21.568688   28.562444   47.617678
  H    -20.761061   26.988259   49.223814
  H    -19.113791   27.003349   48.541468
  C    -23.197125   25.137156   47.154578
  H    -23.220192   24.225916   46.538265
  H    -22.643165   24.914904   48.070048
  O    -22.554302   26.223121   46.421288
  C    -24.606321   25.611692   47.496693
  C    -25.509740   25.895016   46.287501
  C    -25.972985   24.467326   45.901864
  C    -26.095003   23.752539   47.270665
  O    -25.313051   24.562019   48.238782
  H    -24.546054   26.487042   48.149631
  O    -26.631521   26.740404   46.667880
  H    -24.995536   26.423795   45.486810
  H    -26.917806   24.502845   45.354022
  H    -25.223985   23.983576   45.265080
  H    -25.696134   22.733740   47.256766
  H    -27.125539   23.719148   47.638100
  H    -26.989305   26.430277   47.526602

 Multiplicity           Mult            ....    1
 Number of Electrons    NEL             ....  102
 Basis Dimension        Dim             ....  149

ORBITAL ENERGIES
----------------

  NO   OCC          E(Eh)            E(eV)
   0   2.0000     -19.146930      -521.0144
   1   2.0000     -19.146799      -521.0109
   2   2.0000     -19.142318      -520.8889
   3   2.0000     -19.132988      -520.6351
   4   2.0000     -10.280985      -279.7598
   5   2.0000     -10.232931      -278.4522
   6   2.0000     -10.230443      -278.3845
   7   2.0000     -10.229713      -278.3646
   8   2.0000     -10.229229      -278.3515
   9   2.0000     -10.224883      -278.2332
  10   2.0000     -10.187583      -277.2182
  11   2.0000     -10.187369      -277.2124
  12   2.0000     -10.185462      -277.1605
  13   2.0000      -1.057692       -28.7813
  14   2.0000      -1.033600       -28.1257
  15   2.0000      -1.001940       -27.2642
  16   2.0000      -0.995906       -27.1000
  17   2.0000      -0.792644       -21.5690
  18   2.0000      -0.776898       -21.1405
  19   2.0000      -0.766102       -20.8467
  20   2.0000      -0.730411       -19.8755
  21   2.0000      -0.671247       -18.2656
  22   2.0000      -0.602040       -16.3824
  23   2.0000      -0.601437       -16.3659
  24   2.0000      -0.589252       -16.0344
  25   2.0000      -0.579361       -15.7652
  26   2.0000      -0.522158       -14.2086
  27   2.0000      -0.514216       -13.9925
  28   2.0000      -0.497113       -13.5271
  29   2.0000      -0.491014       -13.3612
  30   2.0000      -0.471627       -12.8336
  31   2.0000      -0.455443       -12.3932
  32   2.0000      -0.449927       -12.2431
  33   2.0000      -0.436565       -11.8795
  34   2.0000      -0.421789       -11.4775
  35   2.0000      -0.410646       -11.1743
  36   2.0000      -0.400861       -10.9080
  37   2.0000      -0.389675       -10.6036
  38   2.0000      -0.376132       -10.2351
  39   2.0000      -0.365045        -9.9334
  40   2.0000      -0.360106        -9.7990
  41   2.0000      -0.354956        -9.6588
  42   2.0000      -0.350629        -9.5411
  43   2.0000      -0.341569        -9.2946
  44   2.0000      -0.323209        -8.7950
  45   2.0000      -0.307062        -8.3556
  46   2.0000      -0.297545        -8.0966
  47   2.0000      -0.271514        -7.3883
  48   2.0000      -0.261526        -7.1165
  49   2.0000      -0.261027        -7.1029
  50   2.0000      -0.245729        -6.6866
  51   0.0000       0.067733         1.8431
  52   0.0000       0.079170         2.1543
  53   0.0000       0.094588         2.5739
  54   0.0000       0.102110         2.7785
  55   0.0000       0.105420         2.8686

MULLIKEN ATOMIC CHARGES
-----------------------
   0 C :    0.300267
   1 C :   -0.264249
   2 C :   -0.298232
   3 C :   -0.011505
   4 O :   -0.513709
   5 H :    0.145501
   6 H :    0.146129
   7 H :    0.161239
   8 H :    0.143702
   9 H :    0.161848
  10 H :    0.148742
  11 H :    0.147896
  12 C :   -0.004146
  13 H :    0.122246
  14 H :    0.174274
  15 O :   -0.538527
  16 C :    0.056513
  17 C :    0.091284
  18 C :   -0.302237
  19 C :   -0.031694
  20 O :   -0.527979
  21 H :    0.160607
  22 O :   -0.605456
  23 H :    0.172929
  24 H :    0.161827
  25 H :    0.146867
  26 H :    0.147767
  27 H :    0.145869
  28 H :    0.362227
Sum of atomic charges:   -0.0000000

LOEWDIN ATOMIC CHARGES
----------------------
   0 C :    0.176390
   1 C :   -0.214682
   2 C :   -0.216130
   3 C :   -0.029524
   4 O :   -0.325504
   5 H :    0.096415
   6 H :    0.114724
   7 H :    0.126264
   8 H :    0.115201
   9 H :    0.118940
  10 H :    0.105776
  11 H :    0.105444
  12 C :   -0.042684
  13 H :    0.090254
  14 H :    0.118674
  15 O :   -0.337581
  16 C :    0.017962
  17 C :    0.037879
  18 C :   -0.242523
  19 C :   -0.038351
  20 O :   -0.331006
  21 H :    0.115908
  22 O :   -0.416391
  23 H :    0.126315
  24 H :    0.126422
  25 H :    0.114181
  26 H :    0.104413
  27 H :    0.102106
  28 H :    0.281109

  Mayer bond orders larger than 0.100000
B(  0-C ,  1-C ) :   0.9489 B(  0-C ,  4-O ) :   0.9031 B(  0-C ,  5-H ) :   0.9216
B(  0-C , 15-O ) :   0.8458 B(  1-C ,  2-C ) :   0.9550 B(  1-C ,  6-H ) :   0.9390
B(  1-C ,  7-H ) :   0.9351 B(  2-C ,  3-C ) :   0.9556 B(  2-C ,  8-H ) :   0.9447
B(  2-C ,  9-H ) :   0.9442 B(  3-C ,  4-O ) :   0.8310 B(  3-C , 10-H ) :   0.9354
B(  3-C , 11-H ) :   0.9404 B( 12-C , 13-H ) :   0.9217 B( 12-C , 14-H ) :   0.9083
B( 12-C , 15-O ) :   0.8145 B( 12-C , 16-C ) :   0.9077 B( 16-C , 17-C ) :   0.9121
B( 16-C , 20-O ) :   0.8450 B( 16-C , 21-H ) :   0.9259 B( 17-C , 18-C ) :   0.9139
B( 17-C , 22-O ) :   0.8878 B( 17-C , 23-H ) :   0.9250 B( 18-C , 19-C ) :   0.9419
B( 18-C , 24-H ) :   0.9376 B( 18-C , 25-H ) :   0.9343 B( 19-C , 20-O ) :   0.8430
B( 19-C , 26-H ) :   0.9352 B( 19-C , 27-H ) :   0.9381 B( 22-O , 28-H ) :   0.7964

FINAL SINGLE POINT ENERGY      -652.869768981986

DIPOLE MOMENT
-------------
                                X             Y             Z
Electronic contribution:     -2.02314      -1.08419       1.17563
Nuclear contribution   :      2.53325       1.01989      -1.44790
                        -----------------------------------------
Total Dipole Moment    :      0.51011      -0.06430      -0.27227
                        -----------------------------------------
Magnitude (a.u.)       :      0.58179
Magnitude (Debye)      :      1.47878

Rotational constants in cm-1:     0.057721     0.012496     0.011846
Rotational constants in MHz :  1730.438437   374.628476   355.147646

                             ****ORCA TERMINATED NORMALLY****
TOTAL RUN TIME: 0 days 1 hours 15 minutes 13 seconds 890 msec
