                         Program Version 4.2.0 -  RELEASE  -
|  1> # Test redundant internal optimization
|  2> #
|  3> ! RKS B3LYP  Opt TightSCF SmallPrint
|  4>
|  5> %basis
|  6>         Basis "6-31G"
|  7> end
|  8>
|  9> %geom
| 10> Constraints
| 11> { D 4  0  15  12  135.0   C } # D for Dihedral angle
| 12> { D 0  15  12  16  150.0   C } # D for Dihedral angle
| 13> { D 0  4  3  2   C } # D for Dihedral angle
| 14> { D 4  3  2  1   C } # D for Dihedral angle
| 15> { D 3  2  1  0   C } # D for Dihedral angle
| 16> { D 2  1  0  4   C } # D for Dihedral angle
| 17> { D 1  0  4  3   C } # D for Dihedral angle
| 18> { D 16  20  19  18   C } # D for Dihedral angle
| 19> { D 20  19  18  17   C } # D for Dihedral angle
| 20> { D 19  18  17  16   C } # D for Dihedral angle
| 21> { D 18  17  16  20   C } # D for Dihedral angle
| 22> { D 17  16  20  19   C } # D for Dihedral angle
| 23> { D 15  12  16  20   C } # D for Dihedral angle
| 24> end
| 25> end
| 26>
| 27>
| 28> #%pal
| 29> #nprocs 8
| 30> #end
| 31>
| 32> * xyz 0 1
| 33> C  -21.048   26.222   46.251
| 34> C  -20.361   27.558   45.944
| 35> C  -20.329   28.222   47.341
| 36> C  -20.110   27.022   48.296
| 37> O  -20.473   25.807   47.535
| 38> H  -20.833   25.428   45.533
| 39> H  -19.344   27.382   45.576
| 40> H  -20.898   28.157   45.201
| 41> H  -19.543   28.978   47.434
| 42> H  -21.289   28.710   47.548
| 43> H  -20.733   27.082   49.195
| 44> H  -19.064   26.913   48.597
| 45> C  -23.162   27.680   45.721
| 46> H  -23.158   28.493   46.457
| 47> H  -22.543   27.987   44.868
| 48> O  -22.586   26.394   46.375
| 49> C  -24.616   27.492   45.206
| 50> C  -24.715   26.309   44.236
| 51> C  -24.741   25.107   45.211
| 52> C  -25.533   25.655   46.424
| 53> O  -25.508   27.130   46.312
| 54> H  -24.977   28.439   44.801
| 55> H  -25.650   26.366   43.669
| 56> O  -23.534   26.242   43.231
| 57> H  -25.208   24.217   44.776
| 58> H  -23.720   24.839   45.506
| 59> H  -25.091   25.360   47.382
| 60> H  -26.583   25.349   46.410
| 61> H  -22.587   26.185   43.778
| 62> *
| 63>
| 64>                          ****END OF INPUT****
 Total Charge           Charge          ....    0
 Multiplicity           Mult            ....    1
 Number of Electrons    NEL             ....  102
FINAL SINGLE POINT ENERGY      -652.819941177291
FINAL SINGLE POINT ENERGY      -652.844363995810
FINAL SINGLE POINT ENERGY      -652.850292158094
FINAL SINGLE POINT ENERGY      -652.852646640107
FINAL SINGLE POINT ENERGY      -652.853036870874
FINAL SINGLE POINT ENERGY      -652.853114989507
FINAL SINGLE POINT ENERGY      -652.853119627594
FINAL SINGLE POINT ENERGY      -652.853119243314
                    ***********************HURRAY********************

CARTESIAN COORDINATES (ANGSTROEM)
---------------------------------
  C    -21.098953   26.334963   46.282207
  C    -20.227187   27.551905   45.966559
  C    -20.175330   28.277786   47.337355
  C    -20.167541   27.102913   48.340239
  O    -20.655895   25.922484   47.585362
  H    -20.943508   25.475515   45.624875
  H    -19.231213   27.191908   45.685527
  H    -20.593979   28.184342   45.155455
  H    -19.292128   28.915814   47.435448
  H    -21.062828   28.904447   47.473492
  H    -20.823627   27.265845   49.198821
  H    -19.162692   26.854821   48.693422
  C    -23.166396   27.751704   45.745800
  H    -23.202950   28.563451   46.482497
  H    -22.616707   28.099214   44.862027
  O    -22.539382   26.577804   46.342405
  C    -24.591313   27.433646   45.298020
  C    -24.733815   26.320882   44.245663
  C    -24.761157   25.039215   45.134363
  C    -25.515483   25.519255   46.393142
  O    -25.460632   27.003508   46.381798
  H    -25.011370   28.377326   44.926736
  H    -25.674586   26.445928   43.705243
  O    -23.707259   26.330233   43.221139
  H    -25.260987   24.203497   44.635941
  H    -23.737726   24.753575   45.386788
  H    -25.055429   25.161564   47.317426
  H    -26.574049   25.242048   46.379909
  H    -22.892880   25.919407   43.576342

 Multiplicity           Mult            ....    1
 Number of Electrons    NEL             ....  102
 Basis Dimension        Dim             ....  149

ORBITAL ENERGIES
----------------

  NO   OCC          E(Eh)            E(eV)
   0   2.0000     -19.145887      -520.9861
   1   2.0000     -19.144358      -520.9445
   2   2.0000     -19.143348      -520.9170
   3   2.0000     -19.130145      -520.5577
   4   2.0000     -10.289099      -279.9806
   5   2.0000     -10.236575      -278.5514
   6   2.0000     -10.233192      -278.4593
   7   2.0000     -10.230636      -278.3898
   8   2.0000     -10.229156      -278.3495
   9   2.0000     -10.217493      -278.0321
  10   2.0000     -10.199434      -277.5407
  11   2.0000     -10.197077      -277.4766
  12   2.0000     -10.178241      -276.9640
  13   2.0000      -1.056423       -28.7467
  14   2.0000      -1.027500       -27.9597
  15   2.0000      -1.009682       -27.4749
  16   2.0000      -0.995136       -27.0790
  17   2.0000      -0.795434       -21.6449
  18   2.0000      -0.774367       -21.0716
  19   2.0000      -0.765515       -20.8307
  20   2.0000      -0.736768       -20.0485
  21   2.0000      -0.681442       -18.5430
  22   2.0000      -0.610065       -16.6007
  23   2.0000      -0.601890       -16.3783
  24   2.0000      -0.600402       -16.3378
  25   2.0000      -0.561342       -15.2749
  26   2.0000      -0.528119       -14.3709
  27   2.0000      -0.510675       -13.8962
  28   2.0000      -0.508898       -13.8478
  29   2.0000      -0.490401       -13.3445
  30   2.0000      -0.472804       -12.8656
  31   2.0000      -0.458747       -12.4831
  32   2.0000      -0.443957       -12.0807
  33   2.0000      -0.428765       -11.6673
  34   2.0000      -0.424555       -11.5527
  35   2.0000      -0.416875       -11.3437
  36   2.0000      -0.408050       -11.1036
  37   2.0000      -0.399423       -10.8688
  38   2.0000      -0.387947       -10.5566
  39   2.0000      -0.368132       -10.0174
  40   2.0000      -0.364923        -9.9301
  41   2.0000      -0.360075        -9.7982
  42   2.0000      -0.348987        -9.4964
  43   2.0000      -0.324569        -8.8320
  44   2.0000      -0.316470        -8.6116
  45   2.0000      -0.309473        -8.4212
  46   2.0000      -0.299771        -8.1572
  47   2.0000      -0.271603        -7.3907
  48   2.0000      -0.262387        -7.1399
  49   2.0000      -0.257676        -7.0117
  50   2.0000      -0.234591        -6.3836
  51   0.0000       0.051004         1.3879
  52   0.0000       0.077049         2.0966
  53   0.0000       0.087969         2.3938
  54   0.0000       0.095499         2.5987
  55   0.0000       0.101684         2.7670

MULLIKEN ATOMIC CHARGES
-----------------------
   0 C :    0.314628
   1 C :   -0.299832
   2 C :   -0.305866
   3 C :   -0.002070
   4 O :   -0.495025
   5 H :    0.141842
   6 H :    0.156461
   7 H :    0.149879
   8 H :    0.148330
   9 H :    0.157764
  10 H :    0.156210
  11 H :    0.145342
  12 C :   -0.017221
  13 H :    0.149054
  14 H :    0.132338
  15 O :   -0.535812
  16 C :    0.098809
  17 C :    0.086464
  18 C :   -0.314864
  19 C :    0.003166
  20 O :   -0.521898
  21 H :    0.143167
  22 H :    0.161347
  23 O :   -0.609802
  24 H :    0.141418
  25 H :    0.164937
  26 H :    0.155114
  27 H :    0.138561
  28 H :    0.357560
Sum of atomic charges:   -0.0000000

LOEWDIN ATOMIC CHARGES
----------------------
   0 C :    0.179456
   1 C :   -0.233360
   2 C :   -0.217641
   3 C :   -0.027199
   4 O :   -0.307860
   5 H :    0.096531
   6 H :    0.122260
   7 H :    0.116659
   8 H :    0.117617
   9 H :    0.113982
  10 H :    0.110295
  11 H :    0.104528
  12 C :   -0.046321
  13 H :    0.104536
  14 H :    0.098354
  15 O :   -0.340223
  16 C :    0.019672
  17 C :    0.037444
  18 C :   -0.241338
  19 C :   -0.021868
  20 O :   -0.322409
  21 H :    0.111687
  22 H :    0.115859
  23 O :   -0.413321
  24 H :    0.113440
  25 H :    0.121329
  26 H :    0.110460
  27 H :    0.099721
  28 H :    0.277709

  Mayer bond orders larger than 0.100000
B(  0-C ,  1-C ) :   0.9356 B(  0-C ,  4-O ) :   0.9327 B(  0-C ,  5-H ) :   0.9276
B(  0-C , 15-O ) :   0.8476 B(  1-C ,  2-C ) :   0.9494 B(  1-C ,  6-H ) :   0.9330
B(  1-C ,  7-H ) :   0.9259 B(  2-C ,  3-C ) :   0.9524 B(  2-C ,  8-H ) :   0.9451
B(  2-C ,  9-H ) :   0.9422 B(  3-C ,  4-O ) :   0.8373 B(  3-C , 10-H ) :   0.9338
B(  3-C , 11-H ) :   0.9395 B( 12-C , 13-H ) :   0.9182 B( 12-C , 14-H ) :   0.8958
B( 12-C , 15-O ) :   0.8381 B( 12-C , 16-C ) :   0.9074 B( 16-C , 17-C ) :   0.8846
B( 16-C , 20-O ) :   0.8853 B( 16-C , 21-H ) :   0.9274 B( 17-C , 18-C ) :   0.9377
B( 17-C , 22-H ) :   0.9354 B( 17-C , 23-O ) :   0.8922 B( 18-C , 19-C ) :   0.9466
B( 18-C , 24-H ) :   0.9410 B( 18-C , 25-H ) :   0.9268 B( 19-C , 20-O ) :   0.8352
B( 19-C , 26-H ) :   0.9317 B( 19-C , 27-H ) :   0.9381 B( 23-O , 28-H ) :   0.7975

FINAL SINGLE POINT ENERGY      -652.853117702904

DIPOLE MOMENT
-------------
                                X             Y             Z
Electronic contribution:     -2.85142      -1.80638      -0.49006
Nuclear contribution   :      3.88040       2.25291       0.34235
                        -----------------------------------------
Total Dipole Moment    :      1.02898       0.44653      -0.14771
                        -----------------------------------------
Magnitude (a.u.)       :      1.13137
Magnitude (Debye)      :      2.87572

Rotational constants in cm-1:     0.049352     0.015286     0.014307
Rotational constants in MHz :  1479.528615   458.270940   428.906140

                             ****ORCA TERMINATED NORMALLY****
TOTAL RUN TIME: 0 days 0 hours 45 minutes 10 seconds 333 msec
