                         Program Version 4.2.0 -  RELEASE  -
|  1> # Test redundant internal optimization
|  2> #
|  3> ! RKS B3LYP  Opt TightSCF SmallPrint
|  4>
|  5> %basis
|  6>         Basis "6-31G"
|  7> end
|  8>
|  9> %geom
| 10> Constraints
| 11> { D 4  0  15  12  15.0   C } # D for Dihedral angle
| 12> { D 0  15  12  16  135.0   C } # D for Dihedral angle
| 13> { D 0  4  3  2   C } # D for Dihedral angle
| 14> { D 4  3  2  1   C } # D for Dihedral angle
| 15> { D 3  2  1  0   C } # D for Dihedral angle
| 16> { D 2  1  0  4   C } # D for Dihedral angle
| 17> { D 1  0  4  3   C } # D for Dihedral angle
| 18> { D 16  20  19  18   C } # D for Dihedral angle
| 19> { D 20  19  18  17   C } # D for Dihedral angle
| 20> { D 19  18  17  16   C } # D for Dihedral angle
| 21> { D 18  17  16  20   C } # D for Dihedral angle
| 22> { D 17  16  20  19   C } # D for Dihedral angle
| 23> { D 15  12  16  20   C } # D for Dihedral angle
| 24> end
| 25> end
| 26>
| 27>
| 28> #%pal
| 29> #nprocs 8
| 30> #end
| 31>
| 32> * xyz 0 1
| 33> C  -21.048   26.222   46.251
| 34> C  -20.361   27.558   45.944
| 35> C  -20.329   28.222   47.341
| 36> C  -20.110   27.022   48.296
| 37> O  -20.473   25.807   47.535
| 38> H  -20.833   25.428   45.533
| 39> H  -19.344   27.382   45.576
| 40> H  -20.898   28.157   45.201
| 41> H  -19.543   28.978   47.434
| 42> H  -21.289   28.710   47.548
| 43> H  -20.733   27.082   49.195
| 44> H  -19.064   26.913   48.597
| 45> C  -23.128   26.462   47.829
| 46> H  -23.606   25.508   48.082
| 47> H  -22.307   26.632   48.537
| 48> O  -22.586   26.394   46.375
| 49> C  -24.168   27.599   48.030
| 50> C  -23.596   28.958   47.608
| 51> C  -23.736   28.892   46.068
| 52> C  -25.051   28.098   45.868
| 53> O  -25.320   27.401   47.145
| 54> H  -24.542   27.564   49.054
| 55> O  -24.467   30.105   48.189
| 56> H  -22.562   29.110   47.935
| 57> H  -23.772   29.882   45.603
| 58> H  -22.887   28.349   45.636
| 59> H  -24.976   27.358   45.064
| 60> H  -25.907   28.750   45.670
| 61> H  -25.508   29.973   47.874
| 62> *
| 63>
| 64>                          ****END OF INPUT****
 Total Charge           Charge          ....    0
 Multiplicity           Mult            ....    1
 Number of Electrons    NEL             ....  102
FINAL SINGLE POINT ENERGY      -652.813445191799
FINAL SINGLE POINT ENERGY      -652.839289661858
FINAL SINGLE POINT ENERGY      -652.852191384815
FINAL SINGLE POINT ENERGY      -652.854459321961
FINAL SINGLE POINT ENERGY      -652.854842669543
FINAL SINGLE POINT ENERGY      -652.854902102682
FINAL SINGLE POINT ENERGY      -652.854904945461
                    ***********************HURRAY********************

CARTESIAN COORDINATES (ANGSTROEM)
---------------------------------
  C    -21.084183   26.183642   46.436622
  C    -20.328363   27.421134   45.942523
  C    -20.078439   28.194957   47.264733
  C    -19.852863   27.058690   48.288994
  O    -20.411589   25.830158   47.661799
  H    -20.967295   25.325701   45.770280
  H    -19.381278   27.093343   45.500149
  H    -20.884770   27.992371   45.197216
  H    -19.217763   28.867559   47.201849
  H    -20.952301   28.797399   47.525086
  H    -20.352604   27.229411   49.247335
  H    -18.793258   26.859606   48.471249
  C    -23.184626   26.466061   47.846917
  H    -23.701732   25.519165   48.041715
  H    -22.448673   26.609967   48.644345
  O    -22.532832   26.338835   46.547051
  C    -24.237967   27.574657   47.901505
  C    -23.809610   29.026714   47.641638
  C    -23.855583   29.099505   46.091813
  C    -25.055401   28.183347   45.740422
  O    -25.305098   27.340453   46.928661
  H    -24.701462   27.505310   48.894147
  O    -24.753557   29.948456   48.257458
  H    -22.842974   29.289633   48.068806
  H    -23.991369   30.130942   45.755833
  H    -22.935166   28.695177   45.670034
  H    -24.844057   27.532587   44.888282
  H    -25.973643   28.746831   45.543160
  H    -25.665542   29.654392   48.048379

 Multiplicity           Mult            ....    1
 Number of Electrons    NEL             ....  102
 Basis Dimension        Dim             ....  149

ORBITAL ENERGIES
----------------

  NO   OCC          E(Eh)            E(eV)
   0   2.0000     -19.156439      -521.2732
   1   2.0000     -19.142315      -520.8889
   2   2.0000     -19.137044      -520.7454
   3   2.0000     -19.136869      -520.7407
   4   2.0000     -10.284882      -279.8659
   5   2.0000     -10.240221      -278.6506
   6   2.0000     -10.239326      -278.6262
   7   2.0000     -10.233587      -278.4701
   8   2.0000     -10.230021      -278.3730
   9   2.0000     -10.223240      -278.1885
  10   2.0000     -10.199563      -277.5442
  11   2.0000     -10.194537      -277.4075
  12   2.0000     -10.181039      -277.0401
  13   2.0000      -1.058861       -28.8131
  14   2.0000      -1.034518       -28.1507
  15   2.0000      -1.004893       -27.3445
  16   2.0000      -0.993985       -27.0477
  17   2.0000      -0.797316       -21.6961
  18   2.0000      -0.779373       -21.2078
  19   2.0000      -0.768055       -20.8998
  20   2.0000      -0.739214       -20.1150
  21   2.0000      -0.676371       -18.4050
  22   2.0000      -0.613371       -16.6907
  23   2.0000      -0.603887       -16.4326
  24   2.0000      -0.599352       -16.3092
  25   2.0000      -0.570375       -15.5207
  26   2.0000      -0.523218       -14.2375
  27   2.0000      -0.516946       -14.0668
  28   2.0000      -0.503645       -13.7049
  29   2.0000      -0.495932       -13.4950
  30   2.0000      -0.471636       -12.8339
  31   2.0000      -0.459683       -12.5086
  32   2.0000      -0.453333       -12.3358
  33   2.0000      -0.433486       -11.7957
  34   2.0000      -0.423385       -11.5209
  35   2.0000      -0.421811       -11.4781
  36   2.0000      -0.407488       -11.0883
  37   2.0000      -0.388375       -10.5682
  38   2.0000      -0.380080       -10.3425
  39   2.0000      -0.372149       -10.1267
  40   2.0000      -0.368077       -10.0159
  41   2.0000      -0.363255        -9.8847
  42   2.0000      -0.349232        -9.5031
  43   2.0000      -0.337730        -9.1901
  44   2.0000      -0.325385        -8.8542
  45   2.0000      -0.312384        -8.5004
  46   2.0000      -0.303786        -8.2664
  47   2.0000      -0.271641        -7.3917
  48   2.0000      -0.267391        -7.2761
  49   2.0000      -0.256939        -6.9917
  50   2.0000      -0.236083        -6.4242
  51   0.0000       0.058312         1.5868
  52   0.0000       0.074286         2.0214
  53   0.0000       0.086234         2.3466
  54   0.0000       0.093031         2.5315
  55   0.0000       0.102531         2.7900

MULLIKEN ATOMIC CHARGES
-----------------------
   0 C :    0.309165
   1 C :   -0.267197
   2 C :   -0.324075
   3 C :   -0.021721
   4 O :   -0.508537
   5 H :    0.163109
   6 H :    0.151479
   7 H :    0.156607
   8 H :    0.152609
   9 H :    0.159863
  10 H :    0.145900
  11 H :    0.155418
  12 C :    0.006006
  13 H :    0.157839
  14 H :    0.138750
  15 O :   -0.542310
  16 C :    0.068616
  17 C :    0.074026
  18 C :   -0.293143
  19 C :   -0.015430
  20 O :   -0.524418
  21 H :    0.151828
  22 O :   -0.608953
  23 H :    0.145641
  24 H :    0.149335
  25 H :    0.164229
  26 H :    0.155661
  27 H :    0.134753
  28 H :    0.364950
Sum of atomic charges:   -0.0000000

LOEWDIN ATOMIC CHARGES
----------------------
   0 C :    0.185037
   1 C :   -0.224380
   2 C :   -0.223783
   3 C :   -0.034198
   4 O :   -0.315163
   5 H :    0.107864
   6 H :    0.118638
   7 H :    0.120159
   8 H :    0.120353
   9 H :    0.111032
  10 H :    0.101560
  11 H :    0.109021
  12 C :   -0.033722
  13 H :    0.113207
  14 H :    0.104983
  15 O :   -0.341962
  16 C :    0.010447
  17 C :    0.036706
  18 C :   -0.239958
  19 C :   -0.031754
  20 O :   -0.328545
  21 H :    0.114511
  22 O :   -0.417839
  23 H :    0.108435
  24 H :    0.119197
  25 H :    0.120764
  26 H :    0.110456
  27 H :    0.095849
  28 H :    0.283087

  Mayer bond orders larger than 0.100000
B(  0-C ,  1-C ) :   0.9183 B(  0-C ,  4-O ) :   0.9094 B(  0-C ,  5-H ) :   0.9325
B(  0-C , 15-O ) :   0.8578 B(  1-C ,  2-C ) :   0.9544 B(  1-C ,  6-H ) :   0.9333
B(  1-C ,  7-H ) :   0.9308 B(  2-C ,  3-C ) :   0.9511 B(  2-C ,  8-H ) :   0.9444
B(  2-C ,  9-H ) :   0.9269 B(  3-C ,  4-O ) :   0.8318 B(  3-C , 10-H ) :   0.9300
B(  3-C , 11-H ) :   0.9396 B( 12-C , 13-H ) :   0.9255 B( 12-C , 14-H ) :   0.9043
B( 12-C , 15-O ) :   0.8408 B( 12-C , 16-C ) :   0.9020 B( 16-C , 17-C ) :   0.9087
B( 16-C , 20-O ) :   0.8648 B( 16-C , 21-H ) :   0.9192 B( 17-C , 18-C ) :   0.9232
B( 17-C , 22-O ) :   0.8796 B( 17-C , 23-H ) :   0.9229 B( 18-C , 19-C ) :   0.9442
B( 18-C , 24-H ) :   0.9376 B( 18-C , 25-H ) :   0.9147 B( 19-C , 20-O ) :   0.8424
B( 19-C , 26-H ) :   0.9333 B( 19-C , 27-H ) :   0.9375 B( 22-O , 28-H ) :   0.7941

FINAL SINGLE POINT ENERGY      -652.854902812149

DIPOLE MOMENT
-------------
                                X             Y             Z
Electronic contribution:     -3.88461      -3.47275       1.22134
Nuclear contribution   :      4.83998       4.05889      -1.51430
                        -----------------------------------------
Total Dipole Moment    :      0.95538       0.58614      -0.29296
                        -----------------------------------------
Magnitude (a.u.)       :      1.15850
Magnitude (Debye)      :      2.94467

Rotational constants in cm-1:     0.046859     0.016882     0.015919
Rotational constants in MHz :  1404.803047   506.102108   477.226172

                             ****ORCA TERMINATED NORMALLY****
TOTAL RUN TIME: 0 days 0 hours 21 minutes 14 seconds 705 msec
