                         Program Version 4.2.0 -  RELEASE  -
|  1> # Test redundant internal optimization
|  2> #
|  3> ! RKS B3LYP  Opt TightSCF SmallPrint
|  4>
|  5> %basis
|  6>         Basis "6-31G"
|  7> end
|  8>
|  9> %geom
| 10> Constraints
| 11> { D 4  0  15  12  120.0   C } # D for Dihedral angle
| 12> { D 0  15  12  16  180.0   C } # D for Dihedral angle
| 13> { D 0  4  3  2   C } # D for Dihedral angle
| 14> { D 4  3  2  1   C } # D for Dihedral angle
| 15> { D 3  2  1  0   C } # D for Dihedral angle
| 16> { D 2  1  0  4   C } # D for Dihedral angle
| 17> { D 1  0  4  3   C } # D for Dihedral angle
| 18> { D 16  20  19  18   C } # D for Dihedral angle
| 19> { D 20  19  18  17   C } # D for Dihedral angle
| 20> { D 19  18  17  16   C } # D for Dihedral angle
| 21> { D 18  17  16  20   C } # D for Dihedral angle
| 22> { D 17  16  20  19   C } # D for Dihedral angle
| 23> { D 15  12  16  20   C } # D for Dihedral angle
| 24> end
| 25> end
| 26>
| 27>
| 28> #%pal
| 29> #nprocs 8
| 30> #end
| 31>
| 32> * xyz 0 1
| 33> C  -21.048   26.222   46.251
| 34> C  -20.361   27.558   45.944
| 35> C  -20.329   28.222   47.341
| 36> C  -20.110   27.022   48.296
| 37> O  -20.473   25.807   47.535
| 38> H  -20.833   25.428   45.533
| 39> H  -19.344   27.382   45.576
| 40> H  -20.898   28.157   45.201
| 41> H  -19.543   28.978   47.434
| 42> H  -21.289   28.710   47.548
| 43> H  -20.733   27.082   49.195
| 44> H  -19.064   26.913   48.597
| 45> C  -23.119   27.818   46.058
| 46> H  -22.658   28.538   46.745
| 47> H  -22.856   28.107   45.032
| 48> O  -22.586   26.394   46.375
| 49> C  -24.663   27.927   46.199
| 50> C  -25.106   27.705   47.650
| 51> C  -24.796   29.080   48.286
| 52> C  -25.106   30.076   47.140
| 53> O  -25.111   29.289   45.889
| 54> H  -25.136   27.262   45.475
| 55> H  -26.181   27.495   47.686
| 56> O  -24.355   26.536   48.345
| 57> H  -25.392   29.277   49.183
| 58> H  -23.738   29.134   48.569
| 59> H  -24.357   30.871   47.062
| 60> H  -26.095   30.531   47.239
| 61> H  -23.276   26.725   48.320
| 62> *
| 63>
| 64>                          ****END OF INPUT****
 Total Charge           Charge          ....    0
 Multiplicity           Mult            ....    1
 Number of Electrons    NEL             ....  102
FINAL SINGLE POINT ENERGY      -652.814776536678
FINAL SINGLE POINT ENERGY      -652.841675121059
FINAL SINGLE POINT ENERGY      -652.851852161782
FINAL SINGLE POINT ENERGY      -652.855720676456
FINAL SINGLE POINT ENERGY      -652.857735912041
FINAL SINGLE POINT ENERGY      -652.858980949680
FINAL SINGLE POINT ENERGY      -652.859709913923
FINAL SINGLE POINT ENERGY      -652.859938366334
FINAL SINGLE POINT ENERGY      -652.859978531068
FINAL SINGLE POINT ENERGY      -652.859985962460
FINAL SINGLE POINT ENERGY      -652.859988018193
                    ***********************HURRAY********************

CARTESIAN COORDINATES (ANGSTROEM)
---------------------------------
  C    -21.161965   26.337573   46.324138
  C    -20.185255   27.446361   45.921424
  C    -19.989846   28.209306   47.260996
  C    -20.053060   27.072943   48.308290
  O    -20.699029   25.924486   47.620593
  H    -21.124642   25.447577   45.694740
  H    -19.248412   26.977108   45.604669
  H    -20.540791   28.081980   45.106160
  H    -19.036012   28.744400   47.293190
  H    -20.785332   28.942601   47.419657
  H    -20.643421   27.329843   49.191387
  H    -19.062932   26.731840   48.621225
  C    -23.103265   28.017522   46.048727
  H    -22.674967   28.792320   46.693802
  H    -22.890765   28.272081   45.004941
  O    -22.577179   26.692972   46.383639
  C    -24.620938   27.938854   46.250204
  C    -25.075888   27.666522   47.695962
  C    -24.933637   29.076432   48.343088
  C    -25.319850   30.028511   47.192596
  O    -25.205461   29.239257   45.929365
  H    -25.039307   27.216113   45.545012
  H    -26.136340   27.387858   47.671921
  O    -24.370367   26.641997   48.416833
  H    -25.575575   29.185502   49.220820
  H    -23.896077   29.213690   48.667317
  H    -24.670617   30.906426   47.116342
  H    -26.358632   30.364341   47.254180
  H    -23.576438   26.359585   47.902784

 Multiplicity           Mult            ....    1
 Number of Electrons    NEL             ....  102
 Basis Dimension        Dim             ....  149

ORBITAL ENERGIES
----------------

  NO   OCC          E(Eh)            E(eV)
   0   2.0000     -19.162932      -521.4499
   1   2.0000     -19.152241      -521.1590
   2   2.0000     -19.141129      -520.8566
   3   2.0000     -19.107199      -519.9333
   4   2.0000     -10.294046      -280.1152
   5   2.0000     -10.242335      -278.7081
   6   2.0000     -10.236652      -278.5535
   7   2.0000     -10.234568      -278.4968
   8   2.0000     -10.228539      -278.3327
   9   2.0000     -10.227003      -278.2909
  10   2.0000     -10.205696      -277.7111
  11   2.0000     -10.203656      -277.6556
  12   2.0000     -10.179163      -276.9891
  13   2.0000      -1.065564       -28.9955
  14   2.0000      -1.026032       -27.9198
  15   2.0000      -1.008595       -27.4453
  16   2.0000      -0.988033       -26.8858
  17   2.0000      -0.801479       -21.8093
  18   2.0000      -0.778773       -21.1915
  19   2.0000      -0.768103       -20.9011
  20   2.0000      -0.739174       -20.1139
  21   2.0000      -0.684452       -18.6249
  22   2.0000      -0.616077       -16.7643
  23   2.0000      -0.600322       -16.3356
  24   2.0000      -0.596289       -16.2258
  25   2.0000      -0.577655       -15.7188
  26   2.0000      -0.526531       -14.3276
  27   2.0000      -0.522540       -14.2190
  28   2.0000      -0.513179       -13.9643
  29   2.0000      -0.487245       -13.2586
  30   2.0000      -0.478084       -13.0093
  31   2.0000      -0.461106       -12.5473
  32   2.0000      -0.443614       -12.0714
  33   2.0000      -0.437706       -11.9106
  34   2.0000      -0.430713       -11.7203
  35   2.0000      -0.423691       -11.5292
  36   2.0000      -0.411877       -11.2077
  37   2.0000      -0.393214       -10.6999
  38   2.0000      -0.386262       -10.5107
  39   2.0000      -0.373812       -10.1719
  40   2.0000      -0.368434       -10.0256
  41   2.0000      -0.362551        -9.8655
  42   2.0000      -0.349584        -9.5127
  43   2.0000      -0.340000        -9.2519
  44   2.0000      -0.323984        -8.8160
  45   2.0000      -0.311238        -8.4692
  46   2.0000      -0.292971        -7.9721
  47   2.0000      -0.275893        -7.5074
  48   2.0000      -0.265895        -7.2354
  49   2.0000      -0.248400        -6.7593
  50   2.0000      -0.239027        -6.5042
  51   0.0000       0.052612         1.4317
  52   0.0000       0.065408         1.7798
  53   0.0000       0.086779         2.3614
  54   0.0000       0.095208         2.5907
  55   0.0000       0.103498         2.8163

MULLIKEN ATOMIC CHARGES
-----------------------
   0 C :    0.323732
   1 C :   -0.297534
   2 C :   -0.313802
   3 C :   -0.010450
   4 O :   -0.495826
   5 H :    0.168959
   6 H :    0.163058
   7 H :    0.152446
   8 H :    0.151588
   9 H :    0.154793
  10 H :    0.160200
  11 H :    0.152015
  12 C :   -0.008137
  13 H :    0.138112
  14 H :    0.152169
  15 O :   -0.569126
  16 C :    0.048938
  17 C :    0.123334
  18 C :   -0.298309
  19 C :   -0.019896
  20 O :   -0.522292
  21 H :    0.165165
  22 H :    0.146480
  23 O :   -0.642273
  24 H :    0.153198
  25 H :    0.135084
  26 H :    0.138838
  27 H :    0.149400
  28 H :    0.400138
Sum of atomic charges:   -0.0000000

LOEWDIN ATOMIC CHARGES
----------------------
   0 C :    0.182707
   1 C :   -0.229005
   2 C :   -0.220620
   3 C :   -0.030434
   4 O :   -0.310207
   5 H :    0.112481
   6 H :    0.126787
   7 H :    0.119110
   8 H :    0.119472
   9 H :    0.110673
  10 H :    0.111521
  11 H :    0.108012
  12 C :   -0.041844
  13 H :    0.094446
  14 H :    0.106826
  15 O :   -0.340697
  16 C :    0.020647
  17 C :    0.042724
  18 C :   -0.236011
  19 C :   -0.033432
  20 O :   -0.324710
  21 H :    0.117806
  22 H :    0.104164
  23 O :   -0.436067
  24 H :    0.122294
  25 H :    0.106219
  26 H :    0.100048
  27 H :    0.106461
  28 H :    0.290627

  Mayer bond orders larger than 0.100000
B(  0-C ,  1-C ) :   0.9370 B(  0-C ,  4-O ) :   0.9301 B(  0-C ,  5-H ) :   0.9300
B(  0-C , 15-O ) :   0.8181 B(  1-C ,  2-C ) :   0.9487 B(  1-C ,  6-H ) :   0.9330
B(  1-C ,  7-H ) :   0.9295 B(  2-C ,  3-C ) :   0.9483 B(  2-C ,  8-H ) :   0.9446
B(  2-C ,  9-H ) :   0.9381 B(  3-C ,  4-O ) :   0.8342 B(  3-C , 10-H ) :   0.9329
B(  3-C , 11-H ) :   0.9390 B( 12-C , 13-H ) :   0.9061 B( 12-C , 14-H ) :   0.9225
B( 12-C , 15-O ) :   0.7915 B( 12-C , 16-C ) :   0.9024 B( 16-C , 17-C ) :   0.9143
B( 16-C , 20-O ) :   0.8557 B( 16-C , 21-H ) :   0.9278 B( 17-C , 18-C ) :   0.9003
B( 17-C , 22-H ) :   0.9281 B( 17-C , 23-O ) :   0.9414 B( 18-C , 19-C ) :   0.9395
B( 18-C , 24-H ) :   0.9444 B( 18-C , 25-H ) :   0.9447 B( 19-C , 20-O ) :   0.8324
B( 19-C , 26-H ) :   0.9345 B( 19-C , 27-H ) :   0.9385 B( 23-O , 28-H ) :   0.7157

FINAL SINGLE POINT ENERGY      -652.859988236190

DIPOLE MOMENT
-------------
                                X             Y             Z
Electronic contribution:     -3.06436      -5.10104      -1.38602
Nuclear contribution   :      4.39968       6.30615       0.94605
                        -----------------------------------------
Total Dipole Moment    :      1.33532       1.20511      -0.43997
                        -----------------------------------------
Magnitude (a.u.)       :      1.85174
Magnitude (Debye)      :      4.70675

Rotational constants in cm-1:     0.048177     0.015469     0.014692
Rotational constants in MHz :  1444.316073   463.749067   440.452275

                             ****ORCA TERMINATED NORMALLY****
TOTAL RUN TIME: 0 days 1 hours 5 minutes 47 seconds 590 msec
