                         Program Version 4.2.0 -  RELEASE  -
|  1> # Test redundant internal optimization
|  2> #
|  3> ! RKS B3LYP  Opt TightSCF SmallPrint
|  4>
|  5> %basis
|  6>         Basis "6-31G"
|  7> end
|  8>
|  9> %geom
| 10> Constraints
| 11> { D 4  0  15  12  15.0   C } # D for Dihedral angle
| 12> { D 0  15  12  16  210.0   C } # D for Dihedral angle
| 13> { D 0  4  3  2   C } # D for Dihedral angle
| 14> { D 4  3  2  1   C } # D for Dihedral angle
| 15> { D 3  2  1  0   C } # D for Dihedral angle
| 16> { D 2  1  0  4   C } # D for Dihedral angle
| 17> { D 1  0  4  3   C } # D for Dihedral angle
| 18> { D 16  20  19  18   C } # D for Dihedral angle
| 19> { D 20  19  18  17   C } # D for Dihedral angle
| 20> { D 19  18  17  16   C } # D for Dihedral angle
| 21> { D 18  17  16  20   C } # D for Dihedral angle
| 22> { D 17  16  20  19   C } # D for Dihedral angle
| 23> { D 15  12  16  20   C } # D for Dihedral angle
| 24> end
| 25> end
| 26>
| 27>
| 28> #%pal
| 29> #nprocs 8
| 30> #end
| 31>
| 32> * xyz 0 1
| 33> C  -21.048   26.222   46.251
| 34> C  -20.361   27.558   45.944
| 35> C  -20.329   28.222   47.341
| 36> C  -20.110   27.022   48.296
| 37> O  -20.473   25.807   47.535
| 38> H  -20.833   25.428   45.533
| 39> H  -19.344   27.382   45.576
| 40> H  -20.898   28.157   45.201
| 41> H  -19.543   28.978   47.434
| 42> H  -21.289   28.710   47.548
| 43> H  -20.733   27.082   49.195
| 44> H  -19.064   26.913   48.597
| 45> C  -23.128   26.462   47.829
| 46> H  -22.472   25.879   48.488
| 47> H  -23.138   27.500   48.187
| 48> O  -22.586   26.394   46.375
| 49> C  -24.572   25.903   47.959
| 50> C  -25.116   26.091   49.379
| 51> C  -25.530   27.582   49.361
| 52> C  -26.036   27.789   47.911
| 53> O  -25.495   26.667   47.114
| 54> H  -24.589   24.871   47.601
| 55> H  -25.990   25.449   49.536
| 56> O  -24.069   25.771   50.481
| 57> H  -26.295   27.820   50.108
| 58> H  -24.659   28.217   49.560
| 59> H  -25.692   28.735   47.478
| 60> H  -27.126   27.741   47.838
| 61> H  -23.185   26.402   50.346
| 62> *
| 63>
| 64>                          ****END OF INPUT****
 Total Charge           Charge          ....    0
 Multiplicity           Mult            ....    1
 Number of Electrons    NEL             ....  102
FINAL SINGLE POINT ENERGY      -652.823455941314
FINAL SINGLE POINT ENERGY      -652.847116848274
FINAL SINGLE POINT ENERGY      -652.852197487650
FINAL SINGLE POINT ENERGY      -652.852923396680
FINAL SINGLE POINT ENERGY      -652.853051040240
FINAL SINGLE POINT ENERGY      -652.853094952470
FINAL SINGLE POINT ENERGY      -652.853100271278
FINAL SINGLE POINT ENERGY      -652.853102319017
                    ***********************HURRAY********************

CARTESIAN COORDINATES (ANGSTROEM)
---------------------------------
  C    -21.130048   26.250163   46.362029
  C    -20.441885   27.543886   45.919741
  C    -20.147306   28.228062   47.278030
  C    -19.831185   27.034493   48.207748
  O    -20.382023   25.831500   47.525821
  H    -21.064554   25.435880   45.638479
  H    -19.511662   27.298452   45.394055
  H    -21.078980   28.139590   45.262900
  H    -19.315996   28.937535   47.222564
  H    -21.032435   28.773390   47.623042
  H    -20.290572   27.120692   49.197111
  H    -18.757947   26.860494   48.326111
  C    -23.057875   26.536516   47.948802
  H    -22.440931   25.928581   48.619782
  H    -23.034094   27.584689   48.286416
  O    -22.556441   26.443315   46.590846
  C    -24.484265   25.992393   47.960004
  C    -25.165253   26.067824   49.337220
  C    -25.691563   27.536099   49.354644
  C    -26.079501   27.772644   47.878340
  O    -25.385551   26.731593   47.081134
  H    -24.455021   24.972861   47.566445
  H    -26.000581   25.365141   49.366177
  O    -24.340675   25.695600   50.467873
  H    -26.530136   27.666503   50.043920
  H    -24.885217   28.211682   49.670736
  H    -25.782749   28.760655   47.512533
  H    -27.153228   27.643979   47.707956
  H    -23.675326   26.389786   50.651539

 Multiplicity           Mult            ....    1
 Number of Electrons    NEL             ....  102
 Basis Dimension        Dim             ....  149

ORBITAL ENERGIES
----------------

  NO   OCC          E(Eh)            E(eV)
   0   2.0000     -19.151874      -521.1490
   1   2.0000     -19.148308      -521.0520
   2   2.0000     -19.135034      -520.6907
   3   2.0000     -19.132447      -520.6203
   4   2.0000     -10.277818      -279.6736
   5   2.0000     -10.242815      -278.7212
   6   2.0000     -10.235863      -278.5320
   7   2.0000     -10.227556      -278.3059
   8   2.0000     -10.226554      -278.2787
   9   2.0000     -10.226184      -278.2686
  10   2.0000     -10.194468      -277.4056
  11   2.0000     -10.193980      -277.3923
  12   2.0000     -10.185688      -277.1667
  13   2.0000      -1.055139       -28.7118
  14   2.0000      -1.031582       -28.0708
  15   2.0000      -1.013019       -27.5657
  16   2.0000      -0.991192       -26.9717
  17   2.0000      -0.791820       -21.5465
  18   2.0000      -0.780284       -21.2326
  19   2.0000      -0.768624       -20.9153
  20   2.0000      -0.733631       -19.9631
  21   2.0000      -0.678290       -18.4572
  22   2.0000      -0.609117       -16.5749
  23   2.0000      -0.606044       -16.4913
  24   2.0000      -0.595319       -16.1995
  25   2.0000      -0.568984       -15.4828
  26   2.0000      -0.526968       -14.3395
  27   2.0000      -0.508387       -13.8339
  28   2.0000      -0.500304       -13.6140
  29   2.0000      -0.498124       -13.5546
  30   2.0000      -0.470652       -12.8071
  31   2.0000      -0.460209       -12.5229
  32   2.0000      -0.446424       -12.1478
  33   2.0000      -0.428939       -11.6720
  34   2.0000      -0.423929       -11.5357
  35   2.0000      -0.415865       -11.3163
  36   2.0000      -0.412852       -11.2343
  37   2.0000      -0.397884       -10.8270
  38   2.0000      -0.377529       -10.2731
  39   2.0000      -0.372754       -10.1432
  40   2.0000      -0.362219        -9.8565
  41   2.0000      -0.354056        -9.6343
  42   2.0000      -0.347871        -9.4661
  43   2.0000      -0.337176        -9.1750
  44   2.0000      -0.325100        -8.8464
  45   2.0000      -0.312130        -8.4935
  46   2.0000      -0.303854        -8.2683
  47   2.0000      -0.269469        -7.3326
  48   2.0000      -0.264965        -7.2101
  49   2.0000      -0.250189        -6.8080
  50   2.0000      -0.234331        -6.3765
  51   0.0000       0.046537         1.2663
  52   0.0000       0.072148         1.9633
  53   0.0000       0.087238         2.3739
  54   0.0000       0.092673         2.5218
  55   0.0000       0.105257         2.8642

MULLIKEN ATOMIC CHARGES
-----------------------
   0 C :    0.293727
   1 C :   -0.254842
   2 C :   -0.313889
   3 C :   -0.015656
   4 O :   -0.509235
   5 H :    0.163699
   6 H :    0.144806
   7 H :    0.163254
   8 H :    0.148783
   9 H :    0.152623
  10 H :    0.134789
  11 H :    0.154461
  12 C :   -0.017005
  13 H :    0.163576
  14 H :    0.105045
  15 O :   -0.521953
  16 C :    0.093866
  17 C :    0.077626
  18 C :   -0.325324
  19 C :   -0.006226
  20 O :   -0.503737
  21 H :    0.165207
  22 H :    0.171556
  23 O :   -0.596106
  24 H :    0.157763
  25 H :    0.130669
  26 H :    0.140654
  27 H :    0.149065
  28 H :    0.352804
Sum of atomic charges:   -0.0000000

LOEWDIN ATOMIC CHARGES
----------------------
   0 C :    0.181189
   1 C :   -0.223155
   2 C :   -0.221391
   3 C :   -0.033552
   4 O :   -0.317292
   5 H :    0.110647
   6 H :    0.114242
   7 H :    0.126766
   8 H :    0.117897
   9 H :    0.111656
  10 H :    0.097574
  11 H :    0.108717
  12 C :   -0.054337
  13 H :    0.113999
  14 H :    0.079154
  15 O :   -0.324400
  16 C :    0.021205
  17 C :    0.033162
  18 C :   -0.243109
  19 C :   -0.029808
  20 O :   -0.312711
  21 H :    0.121030
  22 H :    0.121155
  23 O :   -0.405803
  24 H :    0.122175
  25 H :    0.102275
  26 H :    0.101492
  27 H :    0.105323
  28 H :    0.275900

  Mayer bond orders larger than 0.100000
B(  0-C ,  1-C ) :   0.9214 B(  0-C ,  4-O ) :   0.9055 B(  0-C ,  5-H ) :   0.9316
B(  0-C , 15-O ) :   0.8631 B(  1-C ,  2-C ) :   0.9529 B(  1-C ,  6-H ) :   0.9348
B(  1-C ,  7-H ) :   0.9359 B(  2-C ,  3-C ) :   0.9514 B(  2-C ,  8-H ) :   0.9446
B(  2-C ,  9-H ) :   0.9441 B(  3-C ,  4-O ) :   0.8340 B(  3-C , 10-H ) :   0.9338
B(  3-C , 11-H ) :   0.9401 B( 12-C , 13-H ) :   0.8911 B( 12-C , 14-H ) :   0.9142
B( 12-C , 15-O ) :   0.8444 B( 12-C , 16-C ) :   0.9077 B( 16-C , 17-C ) :   0.8720
B( 16-C , 20-O ) :   0.8704 B( 16-C , 21-H ) :   0.9288 B( 17-C , 18-C ) :   0.9232
B( 17-C , 22-H ) :   0.9325 B( 17-C , 23-O ) :   0.8977 B( 18-C , 19-C ) :   0.9388
B( 18-C , 24-H ) :   0.9415 B( 18-C , 25-H ) :   0.9410 B( 19-C , 20-O ) :   0.8522
B( 19-C , 26-H ) :   0.9323 B( 19-C , 27-H ) :   0.9375 B( 23-O , 28-H ) :   0.7990

FINAL SINGLE POINT ENERGY      -652.853102513875

DIPOLE MOMENT
-------------
                                X             Y             Z
Electronic contribution:     -1.90579      -5.37988      -1.57842
Nuclear contribution   :      2.47206       6.86177       2.18649
                        -----------------------------------------
Total Dipole Moment    :      0.56627       1.48189       0.60807
                        -----------------------------------------
Magnitude (a.u.)       :      1.69894
Magnitude (Debye)      :      4.31836

Rotational constants in cm-1:     0.048293     0.014229     0.012922
Rotational constants in MHz :  1447.799999   426.566829   387.382839

                             ****ORCA TERMINATED NORMALLY****
TOTAL RUN TIME: 0 days 1 hours 46 minutes 56 seconds 535 msec
