                         Program Version 4.2.0 -  RELEASE  -
|  1> # Test redundant internal optimization
|  2> #
|  3> ! RKS B3LYP  Opt TightSCF SmallPrint
|  4>
|  5> %basis
|  6>         Basis "6-31G"
|  7> end
|  8>
|  9> %geom
| 10> Constraints
| 11> { D 4  0  15  12  210.0   C } # D for Dihedral angle
| 12> { D 0  15  12  16  120.0   C } # D for Dihedral angle
| 13> { D 0  4  3  2   C } # D for Dihedral angle
| 14> { D 4  3  2  1   C } # D for Dihedral angle
| 15> { D 3  2  1  0   C } # D for Dihedral angle
| 16> { D 2  1  0  4   C } # D for Dihedral angle
| 17> { D 1  0  4  3   C } # D for Dihedral angle
| 18> { D 16  20  19  18   C } # D for Dihedral angle
| 19> { D 20  19  18  17   C } # D for Dihedral angle
| 20> { D 19  18  17  16   C } # D for Dihedral angle
| 21> { D 18  17  16  20   C } # D for Dihedral angle
| 22> { D 17  16  20  19   C } # D for Dihedral angle
| 23> { D 15  12  16  20   C } # D for Dihedral angle
| 24> end
| 25> end
| 26>
| 27>
| 28> #%pal
| 29> #nprocs 8
| 30> #end
| 31>
| 32> * xyz 0 1
| 33> C  -21.048   26.222   46.251
| 34> C  -20.361   27.558   45.944
| 35> C  -20.329   28.222   47.341
| 36> C  -20.110   27.022   48.296
| 37> O  -20.473   25.807   47.535
| 38> H  -20.833   25.428   45.533
| 39> H  -19.344   27.382   45.576
| 40> H  -20.898   28.157   45.201
| 41> H  -19.543   28.978   47.434
| 42> H  -21.289   28.710   47.548
| 43> H  -20.733   27.082   49.195
| 44> H  -19.064   26.913   48.597
| 45> C  -23.389   26.110   45.076
| 46> H  -23.933   27.017   44.782
| 47> H  -22.711   25.836   44.258
| 48> O  -22.586   26.394   46.375
| 49> C  -24.417   24.957   45.245
| 50> C  -25.107   24.628   43.917
| 51> C  -24.031   23.772   43.208
| 52> C  -23.378   22.991   44.376
| 53> O  -23.735   23.713   45.616
| 54> H  -25.100   25.203   46.061
| 55> H  -26.013   24.038   44.099
| 56> O  -25.502   25.892   43.105
| 57> H  -24.451   23.108   42.445
| 58> H  -23.296   24.421   42.718
| 59> H  -22.286   22.944   44.290
| 60> H  -23.770   21.974   44.470
| 61> H  -24.611   26.498   42.909
| 62> *
| 63>
| 64>                          ****END OF INPUT****
 Total Charge           Charge          ....    0
 Multiplicity           Mult            ....    1
 Number of Electrons    NEL             ....  102
FINAL SINGLE POINT ENERGY      -652.825014101348
FINAL SINGLE POINT ENERGY      -652.848394671313
FINAL SINGLE POINT ENERGY      -652.852444766633
FINAL SINGLE POINT ENERGY      -652.853149464642
FINAL SINGLE POINT ENERGY      -652.853278858721
FINAL SINGLE POINT ENERGY      -652.853307600806
FINAL SINGLE POINT ENERGY      -652.853314164091
FINAL SINGLE POINT ENERGY      -652.853314925959
                    ***********************HURRAY********************

CARTESIAN COORDINATES (ANGSTROEM)
---------------------------------
  C    -21.032460   26.234689   46.173689
  C    -20.343050   27.581251   45.964677
  C    -20.408268   28.199366   47.382525
  C    -20.241124   26.969854   48.300092
  O    -20.548980   25.790634   47.448739
  H    -20.787612   25.458096   45.442159
  H    -19.302532   27.416084   45.658990
  H    -20.835135   28.196377   45.205892
  H    -19.635315   28.955462   47.548862
  H    -21.387624   28.662528   47.535763
  H    -20.924433   26.970721   49.152540
  H    -19.214663   26.839434   48.655800
  C    -23.227748   26.182996   45.027440
  H    -23.768899   27.105091   44.782029
  H    -22.545290   25.950016   44.195701
  O    -22.474845   26.399831   46.248994
  C    -24.226797   25.045782   45.241095
  C    -25.063537   24.688110   44.001456
  C    -24.096162   23.746857   43.223762
  C    -23.366012   22.995083   44.358902
  O    -23.566984   23.792724   45.596708
  H    -24.850886   25.305025   46.100609
  H    -25.956915   24.143265   44.313053
  O    -25.568455   25.813404   43.241215
  H    -24.628374   23.077830   42.542250
  H    -23.398230   24.350036   42.626529
  H    -22.292864   22.880991   44.176447
  H    -23.796326   22.006472   44.543039
  H    -24.851479   26.218990   42.712043

 Multiplicity           Mult            ....    1
 Number of Electrons    NEL             ....  102
 Basis Dimension        Dim             ....  149

ORBITAL ENERGIES
----------------

  NO   OCC          E(Eh)            E(eV)
   0   2.0000     -19.151141      -521.1290
   1   2.0000     -19.136703      -520.7362
   2   2.0000     -19.135039      -520.6909
   3   2.0000     -19.134621      -520.6795
   4   2.0000     -10.275817      -279.6192
   5   2.0000     -10.245532      -278.7951
   6   2.0000     -10.232692      -278.4457
   7   2.0000     -10.230613      -278.3891
   8   2.0000     -10.227889      -278.3150
   9   2.0000     -10.220065      -278.1021
  10   2.0000     -10.197515      -277.4885
  11   2.0000     -10.183224      -277.0996
  12   2.0000     -10.182649      -277.0840
  13   2.0000      -1.048723       -28.5372
  14   2.0000      -1.033886       -28.1335
  15   2.0000      -1.015578       -27.6353
  16   2.0000      -0.989695       -26.9310
  17   2.0000      -0.784698       -21.3527
  18   2.0000      -0.782059       -21.2809
  19   2.0000      -0.766318       -20.8526
  20   2.0000      -0.728290       -19.8178
  21   2.0000      -0.680851       -18.5269
  22   2.0000      -0.612446       -16.6655
  23   2.0000      -0.596753       -16.2385
  24   2.0000      -0.588938       -16.0258
  25   2.0000      -0.577299       -15.7091
  26   2.0000      -0.529376       -14.4050
  27   2.0000      -0.508484       -13.8365
  28   2.0000      -0.500613       -13.6224
  29   2.0000      -0.487030       -13.2527
  30   2.0000      -0.466324       -12.6893
  31   2.0000      -0.457310       -12.4440
  32   2.0000      -0.447812       -12.1856
  33   2.0000      -0.434832       -11.8324
  34   2.0000      -0.429933       -11.6991
  35   2.0000      -0.414493       -11.2789
  36   2.0000      -0.408341       -11.1115
  37   2.0000      -0.393020       -10.6946
  38   2.0000      -0.380677       -10.3588
  39   2.0000      -0.367602       -10.0030
  40   2.0000      -0.358235        -9.7481
  41   2.0000      -0.352488        -9.5917
  42   2.0000      -0.348218        -9.4755
  43   2.0000      -0.331163        -9.0114
  44   2.0000      -0.315009        -8.5718
  45   2.0000      -0.307998        -8.3811
  46   2.0000      -0.303652        -8.2628
  47   2.0000      -0.271465        -7.3869
  48   2.0000      -0.260628        -7.0921
  49   2.0000      -0.249984        -6.8024
  50   2.0000      -0.233120        -6.3435
  51   0.0000       0.047545         1.2938
  52   0.0000       0.067186         1.8282
  53   0.0000       0.089400         2.4327
  54   0.0000       0.093962         2.5568
  55   0.0000       0.108145         2.9428

MULLIKEN ATOMIC CHARGES
-----------------------
   0 C :    0.300374
   1 C :   -0.262250
   2 C :   -0.299904
   3 C :   -0.000748
   4 O :   -0.496922
   5 H :    0.136905
   6 H :    0.140425
   7 H :    0.138537
   8 H :    0.139990
   9 H :    0.161874
  10 H :    0.155476
  11 H :    0.139135
  12 C :   -0.023123
  13 H :    0.143001
  14 H :    0.108851
  15 O :   -0.503417
  16 C :    0.101368
  17 C :    0.082988
  18 C :   -0.322141
  19 C :   -0.015592
  20 O :   -0.500583
  21 H :    0.168857
  22 H :    0.170087
  23 O :   -0.599393
  24 H :    0.158177
  25 H :    0.127767
  26 H :    0.144385
  27 H :    0.152177
  28 H :    0.353698
Sum of atomic charges:   -0.0000000

LOEWDIN ATOMIC CHARGES
----------------------
   0 C :    0.182721
   1 C :   -0.229688
   2 C :   -0.217139
   3 C :   -0.025259
   4 O :   -0.301264
   5 H :    0.095964
   6 H :    0.111287
   7 H :    0.112619
   8 H :    0.113263
   9 H :    0.119106
  10 H :    0.109965
  11 H :    0.101048
  12 C :   -0.048782
  13 H :    0.105423
  14 H :    0.085275
  15 O :   -0.325350
  16 C :    0.016295
  17 C :    0.033690
  18 C :   -0.241516
  19 C :   -0.032124
  20 O :   -0.311385
  21 H :    0.122426
  22 H :    0.120751
  23 O :   -0.407434
  24 H :    0.122980
  25 H :    0.100963
  26 H :    0.102235
  27 H :    0.107506
  28 H :    0.276426

  Mayer bond orders larger than 0.100000
B(  0-C ,  1-C ) :   0.9297 B(  0-C ,  4-O ) :   0.9410 B(  0-C ,  5-H ) :   0.9188
B(  0-C , 15-O ) :   0.8323 B(  1-C ,  2-C ) :   0.9552 B(  1-C ,  6-H ) :   0.9345
B(  1-C ,  7-H ) :   0.9391 B(  2-C ,  3-C ) :   0.9550 B(  2-C ,  8-H ) :   0.9453
B(  2-C ,  9-H ) :   0.9436 B(  3-C ,  4-O ) :   0.8383 B(  3-C , 10-H ) :   0.9341
B(  3-C , 11-H ) :   0.9398 B( 12-C , 13-H ) :   0.9151 B( 12-C , 14-H ) :   0.9193
B( 12-C , 15-O ) :   0.8601 B( 12-C , 16-C ) :   0.8953 B( 16-C , 17-C ) :   0.8703
B( 16-C , 20-O ) :   0.8715 B( 16-C , 21-H ) :   0.9293 B( 17-C , 18-C ) :   0.9208
B( 17-C , 22-H ) :   0.9321 B( 17-C , 23-O ) :   0.8944 B( 18-C , 19-C ) :   0.9404
B( 18-C , 24-H ) :   0.9422 B( 18-C , 25-H ) :   0.9414 B( 19-C , 20-O ) :   0.8530
B( 19-C , 26-H ) :   0.9307 B( 19-C , 27-H ) :   0.9369 B( 23-O , 28-H ) :   0.7999

FINAL SINGLE POINT ENERGY      -652.853314872343

DIPOLE MOMENT
-------------
                                X             Y             Z
Electronic contribution:     -3.13184      -2.40965       1.92620
Nuclear contribution   :      3.82165       2.94309      -3.25324
                        -----------------------------------------
Total Dipole Moment    :      0.68980       0.53344      -1.32704
                        -----------------------------------------
Magnitude (a.u.)       :      1.58790
Magnitude (Debye)      :      4.03611

Rotational constants in cm-1:     0.058592     0.012601     0.011455
Rotational constants in MHz :  1756.535884   377.777439   343.422973

                             ****ORCA TERMINATED NORMALLY****
TOTAL RUN TIME: 0 days 0 hours 23 minutes 52 seconds 542 msec
