                         Program Version 4.2.0 -  RELEASE  -
|  1> # Test redundant internal optimization
|  2> #
|  3> ! RKS B3LYP  Opt TightSCF SmallPrint
|  4>
|  5> %basis
|  6>         Basis "6-31G"
|  7> end
|  8>
|  9> %geom
| 10> Constraints
| 11> { D 4  0  15  12  75.0   C } # D for Dihedral angle
| 12> { D 0  15  12  16  210.0   C } # D for Dihedral angle
| 13> { D 0  4  3  2   C } # D for Dihedral angle
| 14> { D 4  3  2  1   C } # D for Dihedral angle
| 15> { D 3  2  1  0   C } # D for Dihedral angle
| 16> { D 2  1  0  4   C } # D for Dihedral angle
| 17> { D 1  0  4  3   C } # D for Dihedral angle
| 18> { D 16  20  19  18   C } # D for Dihedral angle
| 19> { D 20  19  18  17   C } # D for Dihedral angle
| 20> { D 19  18  17  16   C } # D for Dihedral angle
| 21> { D 18  17  16  20   C } # D for Dihedral angle
| 22> { D 17  16  20  19   C } # D for Dihedral angle
| 23> { D 15  12  16  20   C } # D for Dihedral angle
| 24> end
| 25> end
| 26>
| 27>
| 28> #%pal
| 29> #nprocs 8
| 30> #end
| 31>
| 32> * xyz 0 1
| 33> C  -21.048   26.222   46.251
| 34> C  -20.361   27.558   45.944
| 35> C  -20.329   28.222   47.341
| 36> C  -20.110   27.022   48.296
| 37> O  -20.473   25.807   47.535
| 38> H  -20.833   25.428   45.533
| 39> H  -19.344   27.382   45.576
| 40> H  -20.898   28.157   45.201
| 41> H  -19.543   28.978   47.434
| 42> H  -21.289   28.710   47.548
| 43> H  -20.733   27.082   49.195
| 44> H  -19.064   26.913   48.597
| 45> C  -23.049   27.675   47.122
| 46> H  -22.290   27.957   47.862
| 47> H  -23.168   28.508   46.418
| 48> O  -22.586   26.394   46.375
| 49> C  -24.403   27.483   47.860
| 50> C  -25.497   26.999   46.901
| 51> C  -25.169   25.491   46.788
| 52> C  -24.658   25.134   48.206
| 53> O  -24.296   26.412   48.857
| 54> H  -24.649   28.399   48.400
| 55> H  -26.484   27.147   47.352
| 56> O  -25.471   27.725   45.529
| 57> H  -26.034   24.889   46.493
| 58> H  -24.380   25.332   46.042
| 59> H  -23.779   24.481   48.184
| 60> H  -25.431   24.667   48.823
| 61> H  -24.490   27.590   45.059
| 62> *
| 63>
| 64>                          ****END OF INPUT****
 Total Charge           Charge          ....    0
 Multiplicity           Mult            ....    1
 Number of Electrons    NEL             ....  102
FINAL SINGLE POINT ENERGY      -652.801553519307
FINAL SINGLE POINT ENERGY      -652.835451860136
FINAL SINGLE POINT ENERGY      -652.852999470609
FINAL SINGLE POINT ENERGY      -652.856579507410
FINAL SINGLE POINT ENERGY      -652.857076410512
FINAL SINGLE POINT ENERGY      -652.857165812649
FINAL SINGLE POINT ENERGY      -652.857181915636
FINAL SINGLE POINT ENERGY      -652.857183417163
                    ***********************HURRAY********************

CARTESIAN COORDINATES (ANGSTROEM)
---------------------------------
  C    -21.159044   26.397966   46.429240
  C    -20.282626   27.569668   45.963995
  C    -19.956150   28.286682   47.307222
  C    -19.844902   27.101724   48.300540
  O    -20.521040   25.953434   47.644761
  H    -21.120647   25.543955   45.750855
  H    -19.372279   27.164361   45.511200
  H    -20.780519   28.214546   45.234278
  H    -19.022260   28.855124   47.252065
  H    -20.747805   28.985075   47.587280
  H    -20.328449   27.293614   49.262545
  H    -18.807821   26.800993   48.474134
  C    -23.159599   27.765479   47.217112
  H    -22.519455   28.081844   48.045361
  H    -23.279697   28.600127   46.513865
  O    -22.582845   26.608791   46.539283
  C    -24.515800   27.404007   47.822133
  C    -25.577616   26.921053   46.819379
  C    -25.241686   25.402233   46.700909
  C    -24.781788   25.046318   48.130799
  O    -24.445694   26.331484   48.799631
  H    -24.863444   28.294303   48.360821
  H    -26.577242   27.076283   47.230973
  O    -25.573519   27.635742   45.558102
  H    -26.106494   24.815377   46.377045
  H    -24.424385   25.272777   45.988130
  H    -23.894141   24.409194   48.143065
  H    -25.575221   24.581802   48.724750
  H    -24.796830   27.350045   45.032528

 Multiplicity           Mult            ....    1
 Number of Electrons    NEL             ....  102
 Basis Dimension        Dim             ....  149

ORBITAL ENERGIES
----------------

  NO   OCC          E(Eh)            E(eV)
   0   2.0000     -19.151804      -521.1471
   1   2.0000     -19.144456      -520.9471
   2   2.0000     -19.137160      -520.7486
   3   2.0000     -19.129351      -520.5361
   4   2.0000     -10.284486      -279.8551
   5   2.0000     -10.233194      -278.4594
   6   2.0000     -10.232874      -278.4507
   7   2.0000     -10.231601      -278.4160
   8   2.0000     -10.228279      -278.3256
   9   2.0000     -10.215837      -277.9870
  10   2.0000     -10.196919      -277.4723
  11   2.0000     -10.196777      -277.4684
  12   2.0000     -10.174869      -276.8723
  13   2.0000      -1.056355       -28.7449
  14   2.0000      -1.024105       -27.8673
  15   2.0000      -1.006762       -27.3954
  16   2.0000      -0.998134       -27.1606
  17   2.0000      -0.792868       -21.5750
  18   2.0000      -0.775566       -21.1042
  19   2.0000      -0.763238       -20.7688
  20   2.0000      -0.734029       -19.9739
  21   2.0000      -0.680122       -18.5071
  22   2.0000      -0.608813       -16.5666
  23   2.0000      -0.602558       -16.3964
  24   2.0000      -0.597396       -16.2560
  25   2.0000      -0.562322       -15.3016
  26   2.0000      -0.526356       -14.3229
  27   2.0000      -0.509626       -13.8676
  28   2.0000      -0.500703       -13.6248
  29   2.0000      -0.487356       -13.2616
  30   2.0000      -0.472730       -12.8636
  31   2.0000      -0.458631       -12.4800
  32   2.0000      -0.439976       -11.9723
  33   2.0000      -0.430760       -11.7216
  34   2.0000      -0.423840       -11.5333
  35   2.0000      -0.416486       -11.3332
  36   2.0000      -0.403019       -10.9667
  37   2.0000      -0.396287       -10.7835
  38   2.0000      -0.387625       -10.5478
  39   2.0000      -0.369421       -10.0524
  40   2.0000      -0.364384        -9.9154
  41   2.0000      -0.356118        -9.6905
  42   2.0000      -0.344301        -9.3689
  43   2.0000      -0.322849        -8.7852
  44   2.0000      -0.316798        -8.6205
  45   2.0000      -0.307914        -8.3788
  46   2.0000      -0.301243        -8.1972
  47   2.0000      -0.274653        -7.4737
  48   2.0000      -0.259175        -7.0525
  49   2.0000      -0.257568        -7.0088
  50   2.0000      -0.234735        -6.3875
  51   0.0000       0.061677         1.6783
  52   0.0000       0.085487         2.3262
  53   0.0000       0.091092         2.4787
  54   0.0000       0.095088         2.5875
  55   0.0000       0.103693         2.8216

MULLIKEN ATOMIC CHARGES
-----------------------
   0 C :    0.307269
   1 C :   -0.280512
   2 C :   -0.318722
   3 C :   -0.012120
   4 O :   -0.498683
   5 H :    0.161998
   6 H :    0.158095
   7 H :    0.147058
   8 H :    0.147689
   9 H :    0.151158
  10 H :    0.155696
  11 H :    0.148317
  12 C :   -0.023424
  13 H :    0.151715
  14 H :    0.136308
  15 O :   -0.537713
  16 C :    0.096843
  17 C :    0.086670
  18 C :   -0.313155
  19 C :   -0.004837
  20 O :   -0.520996
  21 H :    0.144717
  22 H :    0.158026
  23 O :   -0.609632
  24 H :    0.141043
  25 H :    0.167618
  26 H :    0.158305
  27 H :    0.138933
  28 H :    0.362335
Sum of atomic charges:   -0.0000000

LOEWDIN ATOMIC CHARGES
----------------------
   0 C :    0.174956
   1 C :   -0.229070
   2 C :   -0.225029
   3 C :   -0.033241
   4 O :   -0.316512
   5 H :    0.110871
   6 H :    0.123296
   7 H :    0.117303
   8 H :    0.116771
   9 H :    0.110563
  10 H :    0.107934
  11 H :    0.105674
  12 C :   -0.051083
  13 H :    0.107966
  14 H :    0.099639
  15 O :   -0.329195
  16 C :    0.019769
  17 C :    0.037800
  18 C :   -0.243157
  19 C :   -0.024606
  20 O :   -0.321659
  21 H :    0.112094
  22 H :    0.114544
  23 O :   -0.414188
  24 H :    0.113608
  25 H :    0.122780
  26 H :    0.111305
  27 H :    0.099588
  28 H :    0.281280

  Mayer bond orders larger than 0.100000
B(  0-C ,  1-C ) :   0.9209 B(  0-C ,  4-O ) :   0.9144 B(  0-C ,  5-H ) :   0.9369
B(  0-C , 15-O ) :   0.8866 B(  1-C ,  2-C ) :   0.9545 B(  1-C ,  6-H ) :   0.9351
B(  1-C ,  7-H ) :   0.9371 B(  2-C ,  3-C ) :   0.9470 B(  2-C ,  8-H ) :   0.9448
B(  2-C ,  9-H ) :   0.9397 B(  3-C ,  4-O ) :   0.8422 B(  3-C , 10-H ) :   0.9318
B(  3-C , 11-H ) :   0.9385 B( 12-C , 13-H ) :   0.9121 B( 12-C , 14-H ) :   0.9083
B( 12-C , 15-O ) :   0.8292 B( 12-C , 16-C ) :   0.9020 B( 16-C , 17-C ) :   0.8873
B( 16-C , 20-O ) :   0.8891 B( 16-C , 21-H ) :   0.9281 B( 17-C , 18-C ) :   0.9349
B( 17-C , 22-H ) :   0.9376 B( 17-C , 23-O ) :   0.8969 B( 18-C , 19-C ) :   0.9467
B( 18-C , 24-H ) :   0.9412 B( 18-C , 25-H ) :   0.9260 B( 19-C , 20-O ) :   0.8318
B( 19-C , 26-H ) :   0.9307 B( 19-C , 27-H ) :   0.9376 B( 23-O , 28-H ) :   0.7937

FINAL SINGLE POINT ENERGY      -652.857182256821

DIPOLE MOMENT
-------------
                                X             Y             Z
Electronic contribution:     -3.01453      -1.83247       0.52766
Nuclear contribution   :      3.99539       2.35803      -1.03577
                        -----------------------------------------
Total Dipole Moment    :      0.98086       0.52556      -0.50811
                        -----------------------------------------
Magnitude (a.u.)       :      1.22330
Magnitude (Debye)      :      3.10939

Rotational constants in cm-1:     0.049284     0.016093     0.014625
Rotational constants in MHz :  1477.499686   482.459572   438.461448

                             ****ORCA TERMINATED NORMALLY****
TOTAL RUN TIME: 0 days 0 hours 52 minutes 22 seconds 197 msec
