                         Program Version 4.2.0 -  RELEASE  -
|  1> # Test redundant internal optimization
|  2> #
|  3> ! RKS B3LYP  Opt TightSCF SmallPrint
|  4>
|  5> %basis
|  6>         Basis "6-31G"
|  7> end
|  8>
|  9> %geom
| 10> Constraints
| 11> { D 4  0  15  12  105.0   C } # D for Dihedral angle
| 12> { D 0  15  12  16  75.0   C } # D for Dihedral angle
| 13> { D 0  4  3  2   C } # D for Dihedral angle
| 14> { D 4  3  2  1   C } # D for Dihedral angle
| 15> { D 3  2  1  0   C } # D for Dihedral angle
| 16> { D 2  1  0  4   C } # D for Dihedral angle
| 17> { D 1  0  4  3   C } # D for Dihedral angle
| 18> { D 16  20  19  18   C } # D for Dihedral angle
| 19> { D 20  19  18  17   C } # D for Dihedral angle
| 20> { D 19  18  17  16   C } # D for Dihedral angle
| 21> { D 18  17  16  20   C } # D for Dihedral angle
| 22> { D 17  16  20  19   C } # D for Dihedral angle
| 23> { D 15  12  16  20   C } # D for Dihedral angle
| 24> end
| 25> end
| 26>
| 27>
| 28> #%pal
| 29> #nprocs 8
| 30> #end
| 31>
| 32> * xyz 0 1
| 33> C  -21.048   26.222   46.251
| 34> C  -20.361   27.558   45.944
| 35> C  -20.329   28.222   47.341
| 36> C  -20.110   27.022   48.296
| 37> O  -20.473   25.807   47.535
| 38> H  -20.833   25.428   45.533
| 39> H  -19.344   27.382   45.576
| 40> H  -20.898   28.157   45.201
| 41> H  -19.543   28.978   47.434
| 42> H  -21.289   28.710   47.548
| 43> H  -20.733   27.082   49.195
| 44> H  -19.064   26.913   48.597
| 45> C  -23.085   27.864   46.420
| 46> H  -24.121   27.884   46.781
| 47> H  -22.470   28.457   47.110
| 48> O  -22.586   26.394   46.375
| 49> C  -23.038   28.557   45.030
| 50> C  -24.005   27.892   44.044
| 51> C  -25.360   28.502   44.475
| 52> C  -24.979   29.942   44.899
| 53> O  -23.519   29.940   45.130
| 54> H  -22.003   28.603   44.688
| 55> H  -23.757   28.187   43.018
| 56> O  -23.989   26.341   44.126
| 57> H  -26.106   28.487   43.673
| 58> H  -25.771   27.944   45.325
| 59> H  -25.487   30.257   45.817
| 60> H  -25.180   30.676   44.114
| 61> H  -24.234   26.024   45.145
| 62> *
| 63>
| 64>                          ****END OF INPUT****
 Total Charge           Charge          ....    0
 Multiplicity           Mult            ....    1
 Number of Electrons    NEL             ....  102
FINAL SINGLE POINT ENERGY      -652.788756751296
FINAL SINGLE POINT ENERGY      -652.828693673347
FINAL SINGLE POINT ENERGY      -652.848062214863
FINAL SINGLE POINT ENERGY      -652.852693052954
FINAL SINGLE POINT ENERGY      -652.853946333645
FINAL SINGLE POINT ENERGY      -652.854412317976
FINAL SINGLE POINT ENERGY      -652.854539059920
FINAL SINGLE POINT ENERGY      -652.854572565574
                    ***********************HURRAY********************

CARTESIAN COORDINATES (ANGSTROEM)
---------------------------------
  C    -21.190126   26.319899   46.393309
  C    -20.175423   27.390513   45.975774
  C    -19.929265   28.148085   47.313504
  C    -20.022966   27.010688   48.358818
  O    -20.721674   25.891595   47.683927
  H    -21.179509   25.431987   45.761009
  H    -19.262737   26.871752   45.662838
  H    -20.494373   28.031334   45.155248
  H    -18.953671   28.642930   47.332029
  H    -20.690727   28.915568   47.480130
  H    -20.585445   27.291667   49.253512
  H    -19.040116   26.635282   48.656683
  C    -23.215916   27.993013   46.451797
  H    -24.241605   27.810831   46.781474
  H    -22.741375   28.648505   47.189513
  O    -22.613259   26.653647   46.451130
  C    -23.202591   28.684308   45.080230
  C    -24.044102   27.968620   44.009299
  C    -25.484183   28.420620   44.388254
  C    -25.281507   29.864919   44.890662
  O    -23.825795   30.001738   45.209529
  H    -22.183627   28.870804   44.741364
  H    -23.784309   28.361491   43.021437
  O    -23.861508   26.539961   43.938538
  H    -26.163992   28.360935   43.534137
  H    -25.875170   27.762028   45.171699
  H    -25.860469   30.098798   45.789327
  H    -25.501588   30.613185   44.123869
  H    -23.587971   26.197296   44.821960

 Multiplicity           Mult            ....    1
 Number of Electrons    NEL             ....  102
 Basis Dimension        Dim             ....  149

ORBITAL ENERGIES
----------------

  NO   OCC          E(Eh)            E(eV)
   0   2.0000     -19.158666      -521.3338
   1   2.0000     -19.146680      -521.0076
   2   2.0000     -19.145746      -520.9822
   3   2.0000     -19.122462      -520.3486
   4   2.0000     -10.290998      -280.0323
   5   2.0000     -10.241850      -278.6949
   6   2.0000     -10.238013      -278.5905
   7   2.0000     -10.236381      -278.5461
   8   2.0000     -10.233638      -278.4715
   9   2.0000     -10.231607      -278.4162
  10   2.0000     -10.201385      -277.5938
  11   2.0000     -10.199802      -277.5507
  12   2.0000     -10.184625      -277.1377
  13   2.0000      -1.059097       -28.8195
  14   2.0000      -1.029780       -28.0217
  15   2.0000      -1.006676       -27.3930
  16   2.0000      -0.997234       -27.1361
  17   2.0000      -0.796814       -21.6824
  18   2.0000      -0.779413       -21.2089
  19   2.0000      -0.772565       -21.0226
  20   2.0000      -0.742113       -20.1939
  21   2.0000      -0.686770       -18.6880
  22   2.0000      -0.612392       -16.6640
  23   2.0000      -0.606744       -16.5104
  24   2.0000      -0.601344       -16.3634
  25   2.0000      -0.576641       -15.6912
  26   2.0000      -0.538774       -14.6608
  27   2.0000      -0.511786       -13.9264
  28   2.0000      -0.506949       -13.7948
  29   2.0000      -0.490942       -13.3592
  30   2.0000      -0.474746       -12.9185
  31   2.0000      -0.462001       -12.5717
  32   2.0000      -0.445305       -12.1174
  33   2.0000      -0.441726       -12.0200
  34   2.0000      -0.428260       -11.6535
  35   2.0000      -0.421097       -11.4586
  36   2.0000      -0.413075       -11.2404
  37   2.0000      -0.398026       -10.8308
  38   2.0000      -0.391880       -10.6636
  39   2.0000      -0.378227       -10.2921
  40   2.0000      -0.365664        -9.9502
  41   2.0000      -0.357587        -9.7304
  42   2.0000      -0.353482        -9.6187
  43   2.0000      -0.339286        -9.2324
  44   2.0000      -0.322933        -8.7874
  45   2.0000      -0.311646        -8.4803
  46   2.0000      -0.295590        -8.0434
  47   2.0000      -0.283175        -7.7056
  48   2.0000      -0.264578        -7.1995
  49   2.0000      -0.254813        -6.9338
  50   2.0000      -0.242199        -6.5906
  51   0.0000       0.053107         1.4451
  52   0.0000       0.065901         1.7933
  53   0.0000       0.084159         2.2901
  54   0.0000       0.091326         2.4851
  55   0.0000       0.101534         2.7629

MULLIKEN ATOMIC CHARGES
-----------------------
   0 C :    0.314710
   1 C :   -0.302012
   2 C :   -0.312539
   3 C :   -0.007939
   4 O :   -0.492741
   5 H :    0.170623
   6 H :    0.163713
   7 H :    0.154744
   8 H :    0.150259
   9 H :    0.156089
  10 H :    0.150627
  11 H :    0.149948
  12 C :   -0.038894
  13 H :    0.167287
  14 H :    0.156343
  15 O :   -0.550859
  16 C :    0.043120
  17 C :    0.119755
  18 C :   -0.313716
  19 C :   -0.022514
  20 O :   -0.520817
  21 H :    0.158604
  22 H :    0.148788
  23 O :   -0.635070
  24 H :    0.157052
  25 H :    0.149688
  26 H :    0.144871
  27 H :    0.152555
  28 H :    0.388324
Sum of atomic charges:    0.0000000

LOEWDIN ATOMIC CHARGES
----------------------
   0 C :    0.180978
   1 C :   -0.230398
   2 C :   -0.221065
   3 C :   -0.030792
   4 O :   -0.309264
   5 H :    0.114551
   6 H :    0.126908
   7 H :    0.118042
   8 H :    0.118855
   9 H :    0.111898
  10 H :    0.106723
  11 H :    0.106408
  12 C :   -0.049212
  13 H :    0.118706
  14 H :    0.107574
  15 O :   -0.336099
  16 C :    0.002907
  17 C :    0.041820
  18 C :   -0.241233
  19 C :   -0.032587
  20 O :   -0.324925
  21 H :    0.109060
  22 H :    0.108082
  23 O :   -0.429915
  24 H :    0.123612
  25 H :    0.112906
  26 H :    0.103332
  27 H :    0.107556
  28 H :    0.285574

  Mayer bond orders larger than 0.100000
B(  0-C ,  1-C ) :   0.9300 B(  0-C ,  4-O ) :   0.9259 B(  0-C ,  5-H ) :   0.9317
B(  0-C , 15-O ) :   0.8378 B(  1-C ,  2-C ) :   0.9518 B(  1-C ,  6-H ) :   0.9313
B(  1-C ,  7-H ) :   0.9198 B(  2-C ,  3-C ) :   0.9475 B(  2-C ,  8-H ) :   0.9446
B(  2-C ,  9-H ) :   0.9381 B(  3-C ,  4-O ) :   0.8412 B(  3-C , 10-H ) :   0.9345
B(  3-C , 11-H ) :   0.9385 B( 12-C , 13-H ) :   0.9350 B( 12-C , 14-H ) :   0.9160
B( 12-C , 15-O ) :   0.8023 B( 12-C , 16-C ) :   0.8802 B( 16-C , 17-C ) :   0.9062
B( 16-C , 20-O ) :   0.8479 B( 16-C , 21-H ) :   0.9189 B( 17-C , 18-C ) :   0.9013
B( 17-C , 22-H ) :   0.9344 B( 17-C , 23-O ) :   0.9329 B( 18-C , 19-C ) :   0.9402
B( 18-C , 24-H ) :   0.9431 B( 18-C , 25-H ) :   0.9418 B( 19-C , 20-O ) :   0.8296
B( 19-C , 26-H ) :   0.9338 B( 19-C , 27-H ) :   0.9380 B( 23-O , 28-H ) :   0.7288

FINAL SINGLE POINT ENERGY      -652.854575824367

DIPOLE MOMENT
-------------
                                X             Y             Z
Electronic contribution:     -0.75658      -3.36325      -0.42028
Nuclear contribution   :      1.21285       4.34690       0.69579
                        -----------------------------------------
Total Dipole Moment    :      0.45627       0.98365       0.27551
                        -----------------------------------------
Magnitude (a.u.)       :      1.11877
Magnitude (Debye)      :      2.84370

Rotational constants in cm-1:     0.055245     0.014671     0.013215
Rotational constants in MHz :  1656.209384   439.831613   396.177612

                             ****ORCA TERMINATED NORMALLY****
TOTAL RUN TIME: 0 days 0 hours 59 minutes 0 seconds 790 msec
