                         Program Version 4.2.0 -  RELEASE  -
|  1> # Test redundant internal optimization
|  2> #
|  3> ! RKS B3LYP  Opt TightSCF SmallPrint
|  4>
|  5> %basis
|  6>         Basis "6-31G"
|  7> end
|  8>
|  9> %geom
| 10> Constraints
| 11> { D 4  0  15  12  195.0   C } # D for Dihedral angle
| 12> { D 0  15  12  16  90.0   C } # D for Dihedral angle
| 13> { D 0  4  3  2   C } # D for Dihedral angle
| 14> { D 4  3  2  1   C } # D for Dihedral angle
| 15> { D 3  2  1  0   C } # D for Dihedral angle
| 16> { D 2  1  0  4   C } # D for Dihedral angle
| 17> { D 1  0  4  3   C } # D for Dihedral angle
| 18> { D 16  20  19  18   C } # D for Dihedral angle
| 19> { D 20  19  18  17   C } # D for Dihedral angle
| 20> { D 19  18  17  16   C } # D for Dihedral angle
| 21> { D 18  17  16  20   C } # D for Dihedral angle
| 22> { D 17  16  20  19   C } # D for Dihedral angle
| 23> { D 15  12  16  20   C } # D for Dihedral angle
| 24> end
| 25> end
| 26>
| 27>
| 28> #%pal
| 29> #nprocs 8
| 30> #end
| 31>
| 32> * xyz 0 1
| 33> C  -21.048   26.222   46.251
| 34> C  -20.361   27.558   45.944
| 35> C  -20.329   28.222   47.341
| 36> C  -20.110   27.022   48.296
| 37> O  -20.473   25.807   47.535
| 38> H  -20.833   25.428   45.533
| 39> H  -19.344   27.382   45.576
| 40> H  -20.898   28.157   45.201
| 41> H  -19.543   28.978   47.434
| 42> H  -21.289   28.710   47.548
| 43> H  -20.733   27.082   49.195
| 44> H  -19.064   26.913   48.597
| 45> C  -23.353   26.472   45.026
| 46> H  -24.243   27.101   45.152
| 47> H  -22.721   26.924   44.251
| 48> O  -22.586   26.394   46.375
| 49> C  -23.808   25.078   44.513
| 50> C  -24.833   24.444   45.459
| 51> C  -26.130   25.186   45.060
| 52> C  -25.963   25.389   43.533
| 53> O  -24.525   25.210   43.240
| 54> H  -22.927   24.462   44.321
| 55> H  -24.922   23.371   45.253
| 56> O  -24.472   24.625   46.959
| 57> H  -27.035   24.623   45.309
| 58> H  -26.184   26.152   45.575
| 59> H  -26.275   26.386   43.206
| 60> H  -26.506   24.640   42.950
| 61> H  -24.378   25.692   47.189
| 62> *
| 63>
| 64>                          ****END OF INPUT****
 Total Charge           Charge          ....    0
 Multiplicity           Mult            ....    1
 Number of Electrons    NEL             ....  102
FINAL SINGLE POINT ENERGY      -652.828597652442
FINAL SINGLE POINT ENERGY      -652.853515004383
FINAL SINGLE POINT ENERGY      -652.859818955949
FINAL SINGLE POINT ENERGY      -652.862343834269
FINAL SINGLE POINT ENERGY      -652.863809371156
FINAL SINGLE POINT ENERGY      -652.864686655521
FINAL SINGLE POINT ENERGY      -652.865066211654
FINAL SINGLE POINT ENERGY      -652.865176847680
FINAL SINGLE POINT ENERGY      -652.865186157738
FINAL SINGLE POINT ENERGY      -652.865188307040
                    ***********************HURRAY********************

CARTESIAN COORDINATES (ANGSTROEM)
---------------------------------
  C    -21.109590   26.211483   46.188723
  C    -20.355855   27.509334   45.913870
  C    -20.408053   28.208372   47.292675
  C    -20.309706   27.030675   48.282105
  O    -20.664883   25.817897   47.489038
  H    -20.906990   25.387200   45.499828
  H    -19.324344   27.270440   45.630094
  H    -20.801055   28.108563   45.114595
  H    -19.598856   28.932692   47.424478
  H    -21.362304   28.730597   47.406665
  H    -21.002845   27.107801   49.122561
  H    -19.295787   26.866729   48.656762
  C    -23.284053   26.532983   44.996240
  H    -24.117225   27.215912   45.178687
  H    -22.653692   26.961883   44.208028
  O    -22.556350   26.450262   46.271985
  C    -23.781193   25.146223   44.570824
  C    -24.800452   24.512203   45.532382
  C    -26.113994   25.240243   45.124622
  C    -25.955796   25.424016   43.601592
  O    -24.500236   25.253707   43.302146
  H    -22.927597   24.484953   44.388430
  H    -24.888046   23.445693   45.293154
  O    -24.499864   24.618709   46.936405
  H    -26.999297   24.657539   45.392817
  H    -26.168070   26.196318   45.655696
  H    -26.272155   26.409638   43.246390
  H    -26.481304   24.656627   43.026095
  H    -23.746411   25.241306   47.075110

 Multiplicity           Mult            ....    1
 Number of Electrons    NEL             ....  102
 Basis Dimension        Dim             ....  149

ORBITAL ENERGIES
----------------

  NO   OCC          E(Eh)            E(eV)
   0   2.0000     -19.163319      -521.4604
   1   2.0000     -19.152721      -521.1720
   2   2.0000     -19.141336      -520.8622
   3   2.0000     -19.109778      -520.0035
   4   2.0000     -10.293360      -280.0966
   5   2.0000     -10.240723      -278.6642
   6   2.0000     -10.235225      -278.5146
   7   2.0000     -10.233576      -278.4698
   8   2.0000     -10.229479      -278.3583
   9   2.0000     -10.226997      -278.2907
  10   2.0000     -10.197214      -277.4803
  11   2.0000     -10.194525      -277.4071
  12   2.0000     -10.178564      -276.9728
  13   2.0000      -1.067098       -29.0372
  14   2.0000      -1.025760       -27.9124
  15   2.0000      -1.007855       -27.4251
  16   2.0000      -0.989396       -26.9228
  17   2.0000      -0.796430       -21.6720
  18   2.0000      -0.773093       -21.0369
  19   2.0000      -0.767114       -20.8742
  20   2.0000      -0.739785       -20.1306
  21   2.0000      -0.681736       -18.5510
  22   2.0000      -0.610143       -16.6028
  23   2.0000      -0.604567       -16.4511
  24   2.0000      -0.595311       -16.1992
  25   2.0000      -0.576139       -15.6775
  26   2.0000      -0.531320       -14.4579
  27   2.0000      -0.522817       -14.2266
  28   2.0000      -0.500363       -13.6156
  29   2.0000      -0.488735       -13.2992
  30   2.0000      -0.472608       -12.8603
  31   2.0000      -0.463202       -12.6044
  32   2.0000      -0.450024       -12.2458
  33   2.0000      -0.430244       -11.7075
  34   2.0000      -0.427060       -11.6209
  35   2.0000      -0.416745       -11.3402
  36   2.0000      -0.410556       -11.1718
  37   2.0000      -0.386882       -10.5276
  38   2.0000      -0.384372       -10.4593
  39   2.0000      -0.372027       -10.1234
  40   2.0000      -0.365749        -9.9525
  41   2.0000      -0.363783        -9.8990
  42   2.0000      -0.347381        -9.4527
  43   2.0000      -0.342235        -9.3127
  44   2.0000      -0.324699        -8.8355
  45   2.0000      -0.320867        -8.7312
  46   2.0000      -0.289089        -7.8665
  47   2.0000      -0.277275        -7.5450
  48   2.0000      -0.269101        -7.3226
  49   2.0000      -0.244520        -6.6537
  50   2.0000      -0.239508        -6.5174
  51   0.0000       0.057529         1.5655
  52   0.0000       0.077844         2.1182
  53   0.0000       0.091329         2.4852
  54   0.0000       0.093829         2.5532
  55   0.0000       0.102930         2.8009

MULLIKEN ATOMIC CHARGES
-----------------------
   0 C :    0.298157
   1 C :   -0.269794
   2 C :   -0.298752
   3 C :   -0.006286
   4 O :   -0.501736
   5 H :    0.152698
   6 H :    0.152163
   7 H :    0.148616
   8 H :    0.146743
   9 H :    0.163026
  10 H :    0.160414
  11 H :    0.148224
  12 C :   -0.048657
  13 H :    0.163666
  14 H :    0.151654
  15 O :   -0.536874
  16 C :    0.047902
  17 C :    0.121797
  18 C :   -0.299594
  19 C :   -0.020403
  20 O :   -0.521260
  21 H :    0.153888
  22 H :    0.148343
  23 O :   -0.640432
  24 H :    0.151180
  25 H :    0.146504
  26 H :    0.139035
  27 H :    0.151693
  28 H :    0.398087
Sum of atomic charges:    0.0000000

LOEWDIN ATOMIC CHARGES
----------------------
   0 C :    0.179564
   1 C :   -0.226955
   2 C :   -0.216061
   3 C :   -0.024218
   4 O :   -0.300998
   5 H :    0.102210
   6 H :    0.117823
   7 H :    0.116851
   8 H :    0.116964
   9 H :    0.119601
  10 H :    0.112735
  11 H :    0.106175
  12 C :   -0.052726
  13 H :    0.116671
  14 H :    0.107693
  15 O :   -0.340107
  16 C :    0.006415
  17 C :    0.041821
  18 C :   -0.236060
  19 C :   -0.032175
  20 O :   -0.326136
  21 H :    0.109794
  22 H :    0.104677
  23 O :   -0.434643
  24 H :    0.121644
  25 H :    0.111736
  26 H :    0.100864
  27 H :    0.107009
  28 H :    0.289831

  Mayer bond orders larger than 0.100000
B(  0-C ,  1-C ) :   0.9345 B(  0-C ,  4-O ) :   0.9487 B(  0-C ,  5-H ) :   0.9183
B(  0-C , 15-O ) :   0.7883 B(  1-C ,  2-C ) :   0.9502 B(  1-C ,  6-H ) :   0.9336
B(  1-C ,  7-H ) :   0.9333 B(  2-C ,  3-C ) :   0.9558 B(  2-C ,  8-H ) :   0.9443
B(  2-C ,  9-H ) :   0.9439 B(  3-C ,  4-O ) :   0.8261 B(  3-C , 10-H ) :   0.9341
B(  3-C , 11-H ) :   0.9395 B( 12-C , 13-H ) :   0.9356 B( 12-C , 14-H ) :   0.9229
B( 12-C , 15-O ) :   0.8050 B( 12-C , 16-C ) :   0.8835 B( 16-C , 17-C ) :   0.9134
B( 16-C , 20-O ) :   0.8552 B( 16-C , 21-H ) :   0.9297 B( 17-C , 18-C ) :   0.9016
B( 17-C , 22-H ) :   0.9287 B( 17-C , 23-O ) :   0.9397 B( 18-C , 19-C ) :   0.9391
B( 18-C , 24-H ) :   0.9447 B( 18-C , 25-H ) :   0.9427 B( 19-C , 20-O ) :   0.8299
B( 19-C , 26-H ) :   0.9351 B( 19-C , 27-H ) :   0.9382 B( 23-O , 28-H ) :   0.7199

FINAL SINGLE POINT ENERGY      -652.865188701245

DIPOLE MOMENT
-------------
                                X             Y             Z
Electronic contribution:     -0.08122      -4.12054       0.27927
Nuclear contribution   :      0.67951       5.47362      -0.75426
                        -----------------------------------------
Total Dipole Moment    :      0.59829       1.35308      -0.47499
                        -----------------------------------------
Magnitude (a.u.)       :      1.55383
Magnitude (Debye)      :      3.94953

Rotational constants in cm-1:     0.061965     0.013208     0.011996
Rotational constants in MHz :  1857.664527   395.972335   359.645967

                             ****ORCA TERMINATED NORMALLY****
TOTAL RUN TIME: 0 days 0 hours 45 minutes 33 seconds 691 msec
