                         Program Version 4.2.0 -  RELEASE  -
|  1> # Test redundant internal optimization
|  2> #
|  3> ! RKS B3LYP  Opt TightSCF SmallPrint
|  4>
|  5> %basis
|  6>         Basis "6-31G"
|  7> end
|  8>
|  9> %geom
| 10> Constraints
| 11> { D 4  0  15  12  150.0   C } # D for Dihedral angle
| 12> { D 0  15  12  16  60.0   C } # D for Dihedral angle
| 13> { D 0  4  3  2   C } # D for Dihedral angle
| 14> { D 4  3  2  1   C } # D for Dihedral angle
| 15> { D 3  2  1  0   C } # D for Dihedral angle
| 16> { D 2  1  0  4   C } # D for Dihedral angle
| 17> { D 1  0  4  3   C } # D for Dihedral angle
| 18> { D 16  20  19  18   C } # D for Dihedral angle
| 19> { D 20  19  18  17   C } # D for Dihedral angle
| 20> { D 19  18  17  16   C } # D for Dihedral angle
| 21> { D 18  17  16  20   C } # D for Dihedral angle
| 22> { D 17  16  20  19   C } # D for Dihedral angle
| 23> { D 15  12  16  20   C } # D for Dihedral angle
| 24> end
| 25> end
| 26>
| 27>
| 28> #%pal
| 29> #nprocs 8
| 30> #end
| 31>
| 32> * xyz 0 1
| 33> C  -21.048   26.222   46.251
| 34> C  -20.361   27.558   45.944
| 35> C  -20.329   28.222   47.341
| 36> C  -20.110   27.022   48.296
| 37> O  -20.473   25.807   47.535
| 38> H  -20.833   25.428   45.533
| 39> H  -19.344   27.382   45.576
| 40> H  -20.898   28.157   45.201
| 41> H  -19.543   28.978   47.434
| 42> H  -21.289   28.710   47.548
| 43> H  -20.733   27.082   49.195
| 44> H  -19.064   26.913   48.597
| 45> C  -23.210   27.459   45.431
| 46> H  -24.292   27.506   45.605
| 47> H  -22.785   28.450   45.637
| 48> O  -22.586   26.394   46.375
| 49> C  -22.969   27.144   43.929
| 50> C  -23.495   28.271   43.033
| 51> C  -22.365   29.321   43.153
| 52> C  -21.087   28.451   43.256
| 53> O  -21.532   27.094   43.639
| 54> H  -23.376   26.157   43.700
| 55> H  -23.588   27.919   42.000
| 56> O  -24.876   28.818   43.489
| 57> H  -22.333   30.010   42.303
| 58> H  -22.501   29.918   44.063
| 59> H  -20.385   28.825   44.011
| 60> H  -20.565   28.362   42.300
| 61> H  -24.808   29.178   44.521
| 62> *
| 63>
| 64>                          ****END OF INPUT****
 Total Charge           Charge          ....    0
 Multiplicity           Mult            ....    1
 Number of Electrons    NEL             ....  102
FINAL SINGLE POINT ENERGY      -652.798159633678
FINAL SINGLE POINT ENERGY      -652.829918934916
FINAL SINGLE POINT ENERGY      -652.845970355647
FINAL SINGLE POINT ENERGY      -652.848370411349
FINAL SINGLE POINT ENERGY      -652.848787204858
FINAL SINGLE POINT ENERGY      -652.848898761921
FINAL SINGLE POINT ENERGY      -652.848907837713
FINAL SINGLE POINT ENERGY      -652.848908236632
                    ***********************HURRAY********************

CARTESIAN COORDINATES (ANGSTROEM)
---------------------------------
  C    -20.956782   26.204860   46.316741
  C    -20.083234   27.445227   46.124669
  C    -20.208552   28.150351   47.502838
  C    -20.290440   26.954561   48.477237
  O    -20.657874   25.783428   47.655281
  H    -20.747567   25.370681   45.647996
  H    -19.051568   27.117499   45.951437
  H    -20.382019   28.065459   45.286185
  H    -19.359587   28.806658   47.717433
  H    -21.124319   28.750062   47.544684
  H    -21.044024   27.086859   49.258473
  H    -19.326877   26.723788   48.942347
  C    -23.050953   27.454667   45.455669
  H    -24.112252   27.349956   45.696810
  H    -22.731650   28.473622   45.737127
  O    -22.397973   26.478782   46.300733
  C    -22.890767   27.242991   43.941216
  C    -23.625338   28.281032   43.072893
  C    -22.555063   29.407997   42.947355
  C    -21.230213   28.617714   42.895356
  O    -21.523872   27.256912   43.427700
  H    -23.253042   26.231049   43.727464
  H    -23.837805   27.847867   42.093687
  O    -24.914365   28.711048   43.567876
  H    -22.712849   30.032216   42.064040
  H    -22.599690   30.056012   43.833356
  H    -20.435785   29.076008   43.492679
  H    -20.865596   28.480523   41.873891
  H    -24.807946   29.300173   44.342827

 Multiplicity           Mult            ....    1
 Number of Electrons    NEL             ....  102
 Basis Dimension        Dim             ....  149

ORBITAL ENERGIES
----------------

  NO   OCC          E(Eh)            E(eV)
   0   2.0000     -19.156481      -521.2744
   1   2.0000     -19.153287      -521.1874
   2   2.0000     -19.131607      -520.5975
   3   2.0000     -19.131124      -520.5844
   4   2.0000     -10.271497      -279.5016
   5   2.0000     -10.252680      -278.9896
   6   2.0000     -10.242025      -278.6997
   7   2.0000     -10.236688      -278.5544
   8   2.0000     -10.235369      -278.5186
   9   2.0000     -10.220208      -278.1060
  10   2.0000     -10.204327      -277.6739
  11   2.0000     -10.185453      -277.1603
  12   2.0000     -10.179396      -276.9955
  13   2.0000      -1.047121       -28.4936
  14   2.0000      -1.040463       -28.3124
  15   2.0000      -1.025931       -27.9170
  16   2.0000      -0.984520       -26.7902
  17   2.0000      -0.791559       -21.5394
  18   2.0000      -0.781034       -21.2530
  19   2.0000      -0.772536       -21.0218
  20   2.0000      -0.731618       -19.9083
  21   2.0000      -0.686354       -18.6766
  22   2.0000      -0.621212       -16.9040
  23   2.0000      -0.603339       -16.4177
  24   2.0000      -0.595076       -16.1929
  25   2.0000      -0.564045       -15.3484
  26   2.0000      -0.534058       -14.5324
  27   2.0000      -0.518151       -14.0996
  28   2.0000      -0.501459       -13.6454
  29   2.0000      -0.484094       -13.1729
  30   2.0000      -0.471613       -12.8332
  31   2.0000      -0.460425       -12.5288
  32   2.0000      -0.449639       -12.2353
  33   2.0000      -0.439419       -11.9572
  34   2.0000      -0.428882       -11.6705
  35   2.0000      -0.428479       -11.6595
  36   2.0000      -0.407232       -11.0813
  37   2.0000      -0.400657       -10.9024
  38   2.0000      -0.388682       -10.5766
  39   2.0000      -0.371715       -10.1149
  40   2.0000      -0.359874        -9.7927
  41   2.0000      -0.353725        -9.6253
  42   2.0000      -0.348203        -9.4751
  43   2.0000      -0.340539        -9.2665
  44   2.0000      -0.324021        -8.8171
  45   2.0000      -0.306014        -8.3271
  46   2.0000      -0.290990        -7.9183
  47   2.0000      -0.279430        -7.6037
  48   2.0000      -0.265657        -7.2289
  49   2.0000      -0.249873        -6.7994
  50   2.0000      -0.238767        -6.4972
  51   0.0000       0.043360         1.1799
  52   0.0000       0.062382         1.6975
  53   0.0000       0.081834         2.2268
  54   0.0000       0.095031         2.5859
  55   0.0000       0.097992         2.6665

MULLIKEN ATOMIC CHARGES
-----------------------
   0 C :    0.321783
   1 C :   -0.286237
   2 C :   -0.307010
   3 C :    0.004030
   4 O :   -0.497856
   5 H :    0.160014
   6 H :    0.146756
   7 H :    0.154909
   8 H :    0.139153
   9 H :    0.145127
  10 H :    0.149049
  11 H :    0.140475
  12 C :   -0.013790
  13 H :    0.167995
  14 H :    0.099672
  15 O :   -0.529279
  16 C :    0.085054
  17 C :    0.084037
  18 C :   -0.315635
  19 C :   -0.021465
  20 O :   -0.518107
  21 H :    0.164914
  22 H :    0.171294
  23 O :   -0.596377
  24 H :    0.162098
  25 H :    0.134075
  26 H :    0.140835
  27 H :    0.156803
  28 H :    0.357680
Sum of atomic charges:   -0.0000000

LOEWDIN ATOMIC CHARGES
----------------------
   0 C :    0.192298
   1 C :   -0.230565
   2 C :   -0.221263
   3 C :   -0.026788
   4 O :   -0.304550
   5 H :    0.109030
   6 H :    0.118539
   7 H :    0.119136
   8 H :    0.112589
   9 H :    0.107554
  10 H :    0.106140
  11 H :    0.101530
  12 C :   -0.048186
  13 H :    0.125211
  14 H :    0.075745
  15 O :   -0.335795
  16 C :    0.004156
  17 C :    0.036749
  18 C :   -0.239916
  19 C :   -0.033423
  20 O :   -0.321781
  21 H :    0.118116
  22 H :    0.121264
  23 O :   -0.403531
  24 H :    0.125109
  25 H :    0.104535
  26 H :    0.098820
  27 H :    0.109974
  28 H :    0.279303

  Mayer bond orders larger than 0.100000
B(  0-C ,  1-C ) :   0.9373 B(  0-C ,  4-O ) :   0.9249 B(  0-C ,  5-H ) :   0.9257
B(  0-C , 15-O ) :   0.8203 B(  1-C ,  2-C ) :   0.9441 B(  1-C ,  6-H ) :   0.9375
B(  1-C ,  7-H ) :   0.9138 B(  2-C ,  3-C ) :   0.9527 B(  2-C ,  8-H ) :   0.9456
B(  2-C ,  9-H ) :   0.9455 B(  3-C ,  4-O ) :   0.8408 B(  3-C , 10-H ) :   0.9352
B(  3-C , 11-H ) :   0.9398 B( 12-C , 13-H ) :   0.9185 B( 12-C , 14-H ) :   0.9126
B( 12-C , 15-O ) :   0.8727 B( 12-C , 16-C ) :   0.8887 B( 16-C , 17-C ) :   0.8668
B( 16-C , 20-O ) :   0.8527 B( 16-C , 21-H ) :   0.9285 B( 17-C , 18-C ) :   0.9224
B( 17-C , 22-H ) :   0.9325 B( 17-C , 23-O ) :   0.9039 B( 18-C , 19-C ) :   0.9406
B( 18-C , 24-H ) :   0.9410 B( 18-C , 25-H ) :   0.9412 B( 19-C , 20-O ) :   0.8400
B( 19-C , 26-H ) :   0.9214 B( 19-C , 27-H ) :   0.9389 B( 23-O , 28-H ) :   0.7974

FINAL SINGLE POINT ENERGY      -652.848907107594

DIPOLE MOMENT
-------------
                                X             Y             Z
Electronic contribution:     -3.13220      -5.68071      -0.36657
Nuclear contribution   :      3.71050       7.58681      -0.11949
                        -----------------------------------------
Total Dipole Moment    :      0.57830       1.90610      -0.48607
                        -----------------------------------------
Magnitude (a.u.)       :      2.05034
Magnitude (Debye)      :      5.21155

Rotational constants in cm-1:     0.053172     0.014876     0.013709
Rotational constants in MHz :  1594.062378   445.961339   410.997889

                             ****ORCA TERMINATED NORMALLY****
TOTAL RUN TIME: 0 days 0 hours 29 minutes 55 seconds 686 msec
