                         Program Version 4.2.1 -  RELEASE  -
|  1> # Test redundant internal optimization
|  2> #
|  3> ! RKS B3LYP  Opt TightSCF SmallPrint
|  4>
|  5> %basis
|  6>         Basis "6-31G"
|  7> end
|  8>
|  9> %geom
| 10> Constraints
| 11> { D 4  0  19  14  240.0   C } # D for Dihedral angle
| 12> { D 0  19  14  12  30.0   C } # D for Dihedral angle
| 13> { D 0  4  3  2   C } # D for Dihedral angle
| 14> { D 4  3  2  1   C } # D for Dihedral angle
| 15> { D 3  2  1  0   C } # D for Dihedral angle
| 16> { D 2  1  0  4   C } # D for Dihedral angle
| 17> { D 1  0  4  3   C } # D for Dihedral angle
| 18> { D 14  15  16  17   C } # D for Dihedral angle
| 19> { D 15  16  17  12   C } # D for Dihedral angle
| 20> { D 16  17  12  14   C } # D for Dihedral angle
| 21> { D 17  12  14  15   C } # D for Dihedral angle
| 22> { D 12  14  15  16   C } # D for Dihedral angle
| 23> end
| 24> end
| 25>
| 26>
| 27> #%pal
| 28> #nprocs 8
| 29> #end
| 30>
| 31> * xyz 0 1
| 32> C  -21.048   26.222   46.251
| 33> C  -20.361   27.558   45.944
| 34> C  -20.329   28.222   47.341
| 35> C  -20.110   27.022   48.296
| 36> O  -20.473   25.807   47.535
| 37> H  -20.833   25.428   45.533
| 38> H  -19.344   27.382   45.576
| 39> H  -20.898   28.157   45.201
| 40> H  -19.543   28.978   47.434
| 41> H  -21.289   28.710   47.548
| 42> H  -20.733   27.082   49.195
| 43> H  -19.064   26.913   48.597
| 44> C  -22.474   24.225   45.236
| 45> H  -22.881   23.690   44.365
| 46> C  -23.235   25.530   45.496
| 47> C  -24.506   25.015   46.211
| 48> C  -23.981   23.819   47.044
| 49> O  -22.676   23.440   46.459
| 50> H  -21.397   24.347   45.110
| 51> O  -22.472   26.381   46.366
| 52> H  -23.460   26.086   44.579
| 53> H  -24.983   25.779   46.833
| 54> H  -25.244   24.677   45.473
| 55> H  -24.653   22.955   47.010
| 56> H  -23.800   24.085   48.090
| 57> *
| 58>
| 59>                          ****END OF INPUT****
 Total Charge           Charge          ....    0
 Multiplicity           Mult            ....    1
 Number of Electrons    NEL             ....   86
FINAL SINGLE POINT ENERGY      -538.404325108994
FINAL SINGLE POINT ENERGY      -538.425807624244
FINAL SINGLE POINT ENERGY      -538.427453359160
FINAL SINGLE POINT ENERGY      -538.427696194212
FINAL SINGLE POINT ENERGY      -538.427747338201
FINAL SINGLE POINT ENERGY      -538.427756342786
                    ***********************HURRAY********************

CARTESIAN COORDINATES (ANGSTROEM)
---------------------------------
  C    -20.859324   26.197361   46.240916
  C    -20.292732   27.594930   45.986857
  C    -20.451003   28.261692   47.375644
  C    -20.192397   27.090831   48.349868
  O    -20.365071   25.852080   47.552433
  H    -20.506307   25.424817   45.558422
  H    -19.234033   27.516018   45.712152
  H    -20.827213   28.120754   45.192323
  H    -19.756572   29.093388   47.526599
  H    -21.472929   28.636170   47.486438
  H    -20.892061   27.069512   49.189672
  H    -19.167664   27.077245   48.733900
  C    -22.650539   24.051166   45.070887
  H    -23.273301   23.636326   44.263430
  C    -23.172476   25.441669   45.427461
  C    -24.389977   25.100149   46.304724
  C    -23.942343   23.828914   47.063606
  O    -22.794103   23.279801   46.304934
  H    -21.605401   23.987232   44.766590
  O    -22.302386   26.279539   46.258583
  H    -23.445151   26.015542   44.532543
  H    -24.626071   25.934664   46.968241
  H    -25.260359   24.898488   45.669169
  H    -24.730592   23.069982   47.118827
  H    -23.576995   24.051730   48.068782

 Multiplicity           Mult            ....    1
 Number of Electrons    NEL             ....   86
 Basis Dimension        Dim             ....  127

ORBITAL ENERGIES
----------------

  NO   OCC          E(Eh)            E(eV)
   0   2.0000     -19.136878      -520.7409
   1   2.0000     -19.131322      -520.5897
   2   2.0000     -19.128256      -520.5063
   3   2.0000     -10.275098      -279.5996
   4   2.0000     -10.242762      -278.7197
   5   2.0000     -10.227291      -278.2987
   6   2.0000     -10.218860      -278.0693
   7   2.0000     -10.217540      -278.0334
   8   2.0000     -10.182908      -277.0910
   9   2.0000     -10.181079      -277.0412
  10   2.0000     -10.180902      -277.0364
  11   2.0000      -1.046517       -28.4772
  12   2.0000      -1.012715       -27.5574
  13   2.0000      -0.984455       -26.7884
  14   2.0000      -0.789383       -21.4802
  15   2.0000      -0.774248       -21.0684
  16   2.0000      -0.736946       -20.0533
  17   2.0000      -0.721981       -19.6461
  18   2.0000      -0.617768       -16.8103
  19   2.0000      -0.594740       -16.1837
  20   2.0000      -0.592165       -16.1136
  21   2.0000      -0.564873       -15.3710
  22   2.0000      -0.526363       -14.3231
  23   2.0000      -0.498226       -13.5574
  24   2.0000      -0.484835       -13.1930
  25   2.0000      -0.474517       -12.9123
  26   2.0000      -0.448871       -12.2144
  27   2.0000      -0.444286       -12.0896
  28   2.0000      -0.428244       -11.6531
  29   2.0000      -0.414100       -11.2682
  30   2.0000      -0.398408       -10.8412
  31   2.0000      -0.375179       -10.2091
  32   2.0000      -0.371919       -10.1204
  33   2.0000      -0.363600        -9.8941
  34   2.0000      -0.359889        -9.7931
  35   2.0000      -0.351655        -9.5690
  36   2.0000      -0.343718        -9.3530
  37   2.0000      -0.315108        -8.5745
  38   2.0000      -0.305006        -8.2996
  39   2.0000      -0.292125        -7.9491
  40   2.0000      -0.259694        -7.0666
  41   2.0000      -0.241601        -6.5743
  42   2.0000      -0.235326        -6.4035
  43   0.0000       0.080464         2.1895
  44   0.0000       0.099833         2.7166
  45   0.0000       0.104410         2.8411
  46   0.0000       0.107540         2.9263
  47   0.0000       0.118708         3.2302

MULLIKEN ATOMIC CHARGES
-----------------------
   0 C :    0.291179
   1 C :   -0.251058
   2 C :   -0.297475
   3 C :   -0.000854
   4 O :   -0.496209
   5 H :    0.139930
   6 H :    0.141057
   7 H :    0.141734
   8 H :    0.137976
   9 H :    0.159911
  10 H :    0.147756
  11 H :    0.139221
  12 C :   -0.023394
  13 H :    0.130207
  14 C :    0.091645
  15 C :   -0.285341
  16 C :   -0.007000
  17 O :   -0.515393
  18 H :    0.156010
  19 O :   -0.532987
  20 H :    0.130625
  21 H :    0.165903
  22 H :    0.135342
  23 H :    0.137437
  24 H :    0.163778
Sum of atomic charges:   -0.0000000

LOEWDIN ATOMIC CHARGES
----------------------
   0 C :    0.177251
   1 C :   -0.220624
   2 C :   -0.216536
   3 C :   -0.027646
   4 O :   -0.313595
   5 H :    0.098961
   6 H :    0.111121
   7 H :    0.116014
   8 H :    0.112198
   9 H :    0.117944
  10 H :    0.105584
  11 H :    0.100862
  12 C :   -0.049906
  13 H :    0.096457
  14 C :    0.044927
  15 C :   -0.224160
  16 C :   -0.029292
  17 O :   -0.327088
  18 H :    0.112551
  19 O :   -0.332801
  20 H :    0.096798
  21 H :    0.129563
  22 H :    0.108644
  23 H :    0.099070
  24 H :    0.113705

  Mayer bond orders larger than 0.100000
B(  0-C ,  1-C ) :   0.9386 B(  0-C ,  4-O ) :   0.9303 B(  0-C ,  5-H ) :   0.9136
B(  0-C , 19-O ) :   0.8414 B(  1-C ,  2-C ) :   0.9583 B(  1-C ,  6-H ) :   0.9377
B(  1-C ,  7-H ) :   0.9395 B(  2-C ,  3-C ) :   0.9532 B(  2-C ,  8-H ) :   0.9458
B(  2-C ,  9-H ) :   0.9442 B(  3-C ,  4-O ) :   0.8429 B(  3-C , 10-H ) :   0.9350
B(  3-C , 11-H ) :   0.9398 B( 12-C , 13-H ) :   0.9073 B( 12-C , 14-C ) :   0.9214
B( 12-C , 17-O ) :   0.8733 B( 12-C , 18-H ) :   0.9230 B( 14-C , 15-C ) :   0.9486
B( 14-C , 19-O ) :   0.8415 B( 14-C , 20-H ) :   0.9242 B( 15-C , 16-C ) :   0.9480
B( 15-C , 21-H ) :   0.9355 B( 15-C , 22-H ) :   0.9403 B( 16-C , 17-O ) :   0.8490
B( 16-C , 23-H ) :   0.9332 B( 16-C , 24-H ) :   0.9343

FINAL SINGLE POINT ENERGY      -538.427757361849

DIPOLE MOMENT
-------------
                                X             Y             Z
Electronic contribution:      0.71141      -3.28712       0.13739
Nuclear contribution   :     -1.07894       4.29970      -0.81357
                        -----------------------------------------
Total Dipole Moment    :     -0.36753       1.01258      -0.67618
                        -----------------------------------------
Magnitude (a.u.)       :      1.27185
Magnitude (Debye)      :      3.23279

Rotational constants in cm-1:     0.076708     0.021906     0.021137
Rotational constants in MHz :  2299.652995   656.728531   633.674992

                             ****ORCA TERMINATED NORMALLY****
TOTAL RUN TIME: 0 days 0 hours 7 minutes 0 seconds 437 msec
