                         Program Version 4.2.0 -  RELEASE  -
|  1> # Test redundant internal optimization
|  2> #
|  3> ! RKS B3LYP  Opt TightSCF SmallPrint
|  4>
|  5> %basis
|  6>         Basis "6-31G"
|  7> end
|  8>
|  9> %geom
| 10> Constraints
| 11> { D 4  0  15  12  225.0   C } # D for Dihedral angle
| 12> { D 0  15  12  16  105.0   C } # D for Dihedral angle
| 13> { D 0  4  3  2   C } # D for Dihedral angle
| 14> { D 4  3  2  1   C } # D for Dihedral angle
| 15> { D 3  2  1  0   C } # D for Dihedral angle
| 16> { D 2  1  0  4   C } # D for Dihedral angle
| 17> { D 1  0  4  3   C } # D for Dihedral angle
| 18> { D 16  20  19  18   C } # D for Dihedral angle
| 19> { D 20  19  18  17   C } # D for Dihedral angle
| 20> { D 19  18  17  16   C } # D for Dihedral angle
| 21> { D 18  17  16  20   C } # D for Dihedral angle
| 22> { D 17  16  20  19   C } # D for Dihedral angle
| 23> { D 15  12  16  20   C } # D for Dihedral angle
| 24> end
| 25> end
| 26>
| 27>
| 28> #%pal
| 29> #nprocs 8
| 30> #end
| 31>
| 32> * xyz 0 1
| 33> C  -21.048   26.222   46.251
| 34> C  -20.361   27.558   45.944
| 35> C  -20.329   28.222   47.341
| 36> C  -20.110   27.022   48.296
| 37> O  -20.473   25.807   47.535
| 38> H  -20.833   25.428   45.533
| 39> H  -19.344   27.382   45.576
| 40> H  -20.898   28.157   45.201
| 41> H  -19.543   28.978   47.434
| 42> H  -21.289   28.710   47.548
| 43> H  -20.733   27.082   49.195
| 44> H  -19.064   26.913   48.597
| 45> C  -23.415   25.773   45.218
| 46> H  -24.180   26.490   44.895
| 47> H  -22.769   25.550   44.359
| 48> O  -22.586   26.394   46.375
| 49> C  -24.126   24.454   45.629
| 50> C  -23.126   23.430   46.179
| 51> C  -22.912   23.945   47.622
| 52> C  -24.307   24.497   48.010
| 53> O  -25.047   24.694   46.745
| 54> H  -24.726   24.094   44.791
| 55> O  -23.765   22.015   46.192
| 56> H  -22.196   23.384   45.602
| 57> H  -22.568   23.163   48.306
| 58> H  -22.164   24.748   47.629
| 59> H  -24.248   25.451   48.545
| 60> H  -24.883   23.788   48.613
| 61> H  -24.699   22.037   46.765
| 62> *
| 63>
| 64>                          ****END OF INPUT****
 Total Charge           Charge          ....    0
 Multiplicity           Mult            ....    1
 Number of Electrons    NEL             ....  102
FINAL SINGLE POINT ENERGY      -652.830358616186
FINAL SINGLE POINT ENERGY      -652.853363570960
FINAL SINGLE POINT ENERGY      -652.859387137096
FINAL SINGLE POINT ENERGY      -652.862216197193
FINAL SINGLE POINT ENERGY      -652.862499973974
FINAL SINGLE POINT ENERGY      -652.862539496327
FINAL SINGLE POINT ENERGY      -652.862542011279
                    ***********************HURRAY********************

CARTESIAN COORDINATES (ANGSTROEM)
---------------------------------
  C    -21.009339   26.248752   46.229759
  C    -20.344471   27.581900   45.886985
  C    -20.377360   28.314981   47.250102
  C    -20.166444   27.169937   48.264344
  O    -20.481521   25.916097   47.527389
  H    -20.768448   25.420389   45.556543
  H    -19.311775   27.403577   45.563912
  H    -20.873917   28.118689   45.096333
  H    -19.609217   29.089736   47.330684
  H    -21.357549   28.778912   47.392790
  H    -20.825208   27.236255   49.133205
  H    -19.129013   27.080774   48.598968
  C    -23.272039   25.800122   45.291115
  H    -24.018131   26.551122   45.016816
  H    -22.667450   25.573690   44.399210
  O    -22.450102   26.423182   46.322810
  C    -24.020133   24.538637   45.731489
  C    -23.197910   23.333459   46.214086
  C    -22.962287   23.686740   47.708133
  C    -24.277055   24.402143   48.105815
  O    -24.932145   24.812274   46.840656
  H    -24.645161   24.236946   44.880505
  O    -23.955958   22.101593   46.043879
  H    -22.274669   23.173539   45.655231
  H    -22.786786   22.775960   48.288196
  H    -22.104417   24.351987   47.820085
  H    -24.096283   25.295705   48.709295
  H    -24.979991   23.748306   48.633610
  H    -24.847219   22.222592   46.434056

 Multiplicity           Mult            ....    1
 Number of Electrons    NEL             ....  102
 Basis Dimension        Dim             ....  149

ORBITAL ENERGIES
----------------

  NO   OCC          E(Eh)            E(eV)
   0   2.0000     -19.150783      -521.1193
   1   2.0000     -19.146612      -521.0058
   2   2.0000     -19.132537      -520.6228
   3   2.0000     -19.131005      -520.5811
   4   2.0000     -10.287724      -279.9432
   5   2.0000     -10.235100      -278.5112
   6   2.0000     -10.232960      -278.4530
   7   2.0000     -10.231766      -278.4205
   8   2.0000     -10.229231      -278.3515
   9   2.0000     -10.216548      -278.0064
  10   2.0000     -10.190984      -277.3108
  11   2.0000     -10.190616      -277.3008
  12   2.0000     -10.166454      -276.6433
  13   2.0000      -1.059646       -28.8344
  14   2.0000      -1.028171       -27.9780
  15   2.0000      -1.002739       -27.2859
  16   2.0000      -0.994388       -27.0587
  17   2.0000      -0.792447       -21.5636
  18   2.0000      -0.771955       -21.0060
  19   2.0000      -0.759713       -20.6728
  20   2.0000      -0.735908       -20.0251
  21   2.0000      -0.674129       -18.3440
  22   2.0000      -0.605423       -16.4744
  23   2.0000      -0.600568       -16.3423
  24   2.0000      -0.590955       -16.0807
  25   2.0000      -0.576222       -15.6798
  26   2.0000      -0.525648       -14.3036
  27   2.0000      -0.502323       -13.6689
  28   2.0000      -0.501193       -13.6382
  29   2.0000      -0.488424       -13.2907
  30   2.0000      -0.472943       -12.8694
  31   2.0000      -0.451400       -12.2832
  32   2.0000      -0.447555       -12.1786
  33   2.0000      -0.435250       -11.8437
  34   2.0000      -0.432093       -11.7578
  35   2.0000      -0.408337       -11.1114
  36   2.0000      -0.401811       -10.9338
  37   2.0000      -0.381677       -10.3860
  38   2.0000      -0.376508       -10.2453
  39   2.0000      -0.363523        -9.8920
  40   2.0000      -0.362013        -9.8509
  41   2.0000      -0.352136        -9.5821
  42   2.0000      -0.351073        -9.5532
  43   2.0000      -0.328420        -8.9368
  44   2.0000      -0.318855        -8.6765
  45   2.0000      -0.313138        -8.5209
  46   2.0000      -0.298330        -8.1180
  47   2.0000      -0.273037        -7.4297
  48   2.0000      -0.261493        -7.1156
  49   2.0000      -0.259814        -7.0699
  50   2.0000      -0.232096        -6.3156
  51   0.0000       0.066359         1.8057
  52   0.0000       0.080520         2.1911
  53   0.0000       0.088819         2.4169
  54   0.0000       0.106764         2.9052
  55   0.0000       0.112049         3.0490

MULLIKEN ATOMIC CHARGES
-----------------------
   0 C :    0.286461
   1 C :   -0.251846
   2 C :   -0.301768
   3 C :   -0.001926
   4 O :   -0.507309
   5 H :    0.141899
   6 H :    0.143897
   7 H :    0.149447
   8 H :    0.144525
   9 H :    0.167787
  10 H :    0.154376
  11 H :    0.145281
  12 C :   -0.022276
  13 H :    0.165923
  14 H :    0.120907
  15 O :   -0.512843
  16 C :    0.084005
  17 C :    0.065359
  18 C :   -0.313293
  19 C :   -0.026918
  20 O :   -0.526112
  21 H :    0.149465
  22 O :   -0.603094
  23 H :    0.142782
  24 H :    0.145439
  25 H :    0.208627
  26 H :    0.154604
  27 H :    0.133921
  28 H :    0.362681
Sum of atomic charges:    0.0000000

LOEWDIN ATOMIC CHARGES
----------------------
   0 C :    0.173834
   1 C :   -0.220990
   2 C :   -0.216092
   3 C :   -0.025202
   4 O :   -0.312092
   5 H :    0.096913
   6 H :    0.113063
   7 H :    0.119473
   8 H :    0.115781
   9 H :    0.122183
  10 H :    0.109467
  11 H :    0.104215
  12 C :   -0.038810
  13 H :    0.119672
  14 H :    0.094409
  15 O :   -0.332510
  16 C :    0.006833
  17 C :    0.035064
  18 C :   -0.250761
  19 C :   -0.034396
  20 O :   -0.331325
  21 H :    0.113602
  22 O :   -0.417702
  23 H :    0.110431
  24 H :    0.118002
  25 H :    0.141695
  26 H :    0.108866
  27 H :    0.094562
  28 H :    0.281815

  Mayer bond orders larger than 0.100000
B(  0-C ,  1-C ) :   0.9414 B(  0-C ,  4-O ) :   0.9050 B(  0-C ,  5-H ) :   0.9159
B(  0-C , 15-O ) :   0.8357 B(  1-C ,  2-C ) :   0.9550 B(  1-C ,  6-H ) :   0.9347
B(  1-C ,  7-H ) :   0.9390 B(  2-C ,  3-C ) :   0.9547 B(  2-C ,  8-H ) :   0.9448
B(  2-C ,  9-H ) :   0.9424 B(  3-C ,  4-O ) :   0.8266 B(  3-C , 10-H ) :   0.9350
B(  3-C , 11-H ) :   0.9397 B( 12-C , 13-H ) :   0.9299 B( 12-C , 14-H ) :   0.9134
B( 12-C , 15-O ) :   0.8646 B( 12-C , 16-C ) :   0.8888 B( 16-C , 17-C ) :   0.9074
B( 16-C , 20-O ) :   0.8747 B( 16-C , 21-H ) :   0.9160 B( 17-C , 18-C ) :   0.9231
B( 17-C , 22-O ) :   0.8901 B( 17-C , 23-H ) :   0.9360 B( 18-C , 19-C ) :   0.9428
B( 18-C , 24-H ) :   0.9389 B( 18-C , 25-H ) :   0.8897 B( 19-C , 20-O ) :   0.8362
B( 19-C , 26-H ) :   0.9339 B( 19-C , 27-H ) :   0.9378 B( 22-O , 28-H ) :   0.7958

FINAL SINGLE POINT ENERGY      -652.862540115513

DIPOLE MOMENT
-------------
                                X             Y             Z
Electronic contribution:     -3.59945      -3.54197      -1.00894
Nuclear contribution   :      4.43294       4.58405       0.83826
                        -----------------------------------------
Total Dipole Moment    :      0.83350       1.04209      -0.17068
                        -----------------------------------------
Magnitude (a.u.)       :      1.34529
Magnitude (Debye)      :      3.41944

Rotational constants in cm-1:     0.053857     0.015063     0.014363
Rotational constants in MHz :  1614.582805   451.581011   430.591454

                             ****ORCA TERMINATED NORMALLY****
TOTAL RUN TIME: 0 days 0 hours 42 minutes 41 seconds 791 msec
