                         Program Version 4.2.0 -  RELEASE  -
|  1> # Test redundant internal optimization
|  2> #
|  3> ! RKS B3LYP  Opt TightSCF SmallPrint
|  4>
|  5> %basis
|  6>         Basis "6-31G"
|  7> end
|  8>
|  9> %geom
| 10> Constraints
| 11> { D 4  0  15  12  285.0   C } # D for Dihedral angle
| 12> { D 0  15  12  16  285.0   C } # D for Dihedral angle
| 13> { D 0  4  3  2   C } # D for Dihedral angle
| 14> { D 4  3  2  1   C } # D for Dihedral angle
| 15> { D 3  2  1  0   C } # D for Dihedral angle
| 16> { D 2  1  0  4   C } # D for Dihedral angle
| 17> { D 1  0  4  3   C } # D for Dihedral angle
| 18> { D 16  20  19  18   C } # D for Dihedral angle
| 19> { D 20  19  18  17   C } # D for Dihedral angle
| 20> { D 19  18  17  16   C } # D for Dihedral angle
| 21> { D 18  17  16  20   C } # D for Dihedral angle
| 22> { D 17  16  20  19   C } # D for Dihedral angle
| 23> { D 15  12  16  20   C } # D for Dihedral angle
| 24> end
| 25> end
| 26>
| 27>
| 28> #%pal
| 29> #nprocs 8
| 30> #end
| 31>
| 32> * xyz 0 1
| 33> C  -21.048   26.222   46.251
| 34> C  -20.361   27.558   45.944
| 35> C  -20.329   28.222   47.341
| 36> C  -20.110   27.022   48.296
| 37> O  -20.473   25.807   47.535
| 38> H  -20.833   25.428   45.533
| 39> H  -19.344   27.382   45.576
| 40> H  -20.898   28.157   45.201
| 41> H  -19.543   28.978   47.434
| 42> H  -21.289   28.710   47.548
| 43> H  -20.733   27.082   49.195
| 44> H  -19.064   26.913   48.597
| 45> C  -23.396   25.070   46.435
| 46> H  -22.909   24.379   47.135
| 47> H  -24.416   25.259   46.795
| 48> O  -22.586   26.394   46.375
| 49> C  -23.505   24.369   45.053
| 50> C  -24.405   23.131   45.126
| 51> C  -25.815   23.765   45.088
| 52> C  -25.628   24.982   44.148
| 53> O  -24.174   25.245   44.085
| 54> H  -22.501   24.176   44.669
| 55> H  -24.243   22.495   44.248
| 56> O  -24.164   22.276   46.400
| 57> H  -26.583   23.073   44.726
| 58> H  -26.107   24.095   46.092
| 59> H  -26.138   25.879   44.516
| 60> H  -25.963   24.777   43.127
| 61> H  -24.321   22.891   47.293
| 62> *
| 63>
| 64>                          ****END OF INPUT****
 Total Charge           Charge          ....    0
 Multiplicity           Mult            ....    1
 Number of Electrons    NEL             ....  102
FINAL SINGLE POINT ENERGY      -652.830532935209
FINAL SINGLE POINT ENERGY      -652.855034955141
FINAL SINGLE POINT ENERGY      -652.859944246019
FINAL SINGLE POINT ENERGY      -652.860827409062
FINAL SINGLE POINT ENERGY      -652.860991061965
FINAL SINGLE POINT ENERGY      -652.861014731339
FINAL SINGLE POINT ENERGY      -652.861018813611
                    ***********************HURRAY********************

CARTESIAN COORDINATES (ANGSTROEM)
---------------------------------
  C    -21.066125   26.162039   46.224867
  C    -20.451029   27.530160   45.928109
  C    -20.425086   28.175171   47.332125
  C    -20.132602   26.977887   48.264136
  O    -20.456330   25.760068   47.478172
  H    -20.836015   25.371673   45.507148
  H    -19.436413   27.393209   45.537260
  H    -21.042013   28.092851   45.203030
  H    -19.670259   28.962856   47.420241
  H    -21.405274   28.606555   47.554325
  H    -20.739646   26.984485   49.173134
  H    -19.075847   26.900448   48.537341
  C    -23.296226   25.150176   46.457663
  H    -22.848170   24.469137   47.194007
  H    -24.260268   25.502988   46.835836
  O    -22.488081   26.360131   46.362090
  C    -23.466123   24.424195   45.121355
  C    -24.369102   23.181131   45.210459
  C    -25.792717   23.810878   45.118566
  C    -25.577261   24.993337   44.148449
  O    -24.116246   25.259534   44.114466
  H    -22.485313   24.169867   44.709215
  H    -24.183213   22.539728   44.346207
  O    -24.148055   22.320266   46.351587
  H    -26.537280   23.094646   44.761621
  H    -26.105508   24.156503   46.112639
  H    -26.097154   25.903842   44.462387
  H    -25.880693   24.749942   43.125779
  H    -24.490949   22.733298   47.169786

 Multiplicity           Mult            ....    1
 Number of Electrons    NEL             ....  102
 Basis Dimension        Dim             ....  149

ORBITAL ENERGIES
----------------

  NO   OCC          E(Eh)            E(eV)
   0   2.0000     -19.150431      -521.1097
   1   2.0000     -19.140234      -520.8323
   2   2.0000     -19.137386      -520.7547
   3   2.0000     -19.134783      -520.6839
   4   2.0000     -10.272583      -279.5312
   5   2.0000     -10.246490      -278.8212
   6   2.0000     -10.231672      -278.4180
   7   2.0000     -10.230936      -278.3979
   8   2.0000     -10.227156      -278.2951
   9   2.0000     -10.220725      -278.1201
  10   2.0000     -10.196333      -277.4563
  11   2.0000     -10.180016      -277.0123
  12   2.0000     -10.179135      -276.9883
  13   2.0000      -1.049838       -28.5676
  14   2.0000      -1.033908       -28.1341
  15   2.0000      -1.015853       -27.6428
  16   2.0000      -0.988443       -26.8969
  17   2.0000      -0.785613       -21.3776
  18   2.0000      -0.781155       -21.2563
  19   2.0000      -0.763778       -20.7834
  20   2.0000      -0.729547       -19.8520
  21   2.0000      -0.678104       -18.4521
  22   2.0000      -0.612248       -16.6601
  23   2.0000      -0.601087       -16.3564
  24   2.0000      -0.592453       -16.1215
  25   2.0000      -0.564602       -15.3636
  26   2.0000      -0.532157       -14.4807
  27   2.0000      -0.510191       -13.8830
  28   2.0000      -0.495813       -13.4918
  29   2.0000      -0.487301       -13.2601
  30   2.0000      -0.466697       -12.6995
  31   2.0000      -0.451406       -12.2834
  32   2.0000      -0.441425       -12.0118
  33   2.0000      -0.432412       -11.7665
  34   2.0000      -0.428562       -11.6618
  35   2.0000      -0.421443       -11.4681
  36   2.0000      -0.404028       -10.9942
  37   2.0000      -0.397382       -10.8133
  38   2.0000      -0.377976       -10.2852
  39   2.0000      -0.366818        -9.9816
  40   2.0000      -0.354908        -9.6575
  41   2.0000      -0.351258        -9.5582
  42   2.0000      -0.341788        -9.3005
  43   2.0000      -0.333487        -9.0746
  44   2.0000      -0.323146        -8.7932
  45   2.0000      -0.314338        -8.5536
  46   2.0000      -0.294324        -8.0090
  47   2.0000      -0.273358        -7.4384
  48   2.0000      -0.269814        -7.3420
  49   2.0000      -0.248492        -6.7618
  50   2.0000      -0.236005        -6.4220
  51   0.0000       0.052173         1.4197
  52   0.0000       0.078582         2.1383
  53   0.0000       0.087562         2.3827
  54   0.0000       0.093759         2.5513
  55   0.0000       0.106622         2.9013

MULLIKEN ATOMIC CHARGES
-----------------------
   0 C :    0.278962
   1 C :   -0.258947
   2 C :   -0.299277
   3 C :   -0.001647
   4 O :   -0.514985
   5 H :    0.146354
   6 H :    0.143048
   7 H :    0.163444
   8 H :    0.139133
   9 H :    0.162776
  10 H :    0.143820
  11 H :    0.140857
  12 C :   -0.028976
  13 H :    0.153030
  14 H :    0.140947
  15 O :   -0.505113
  16 C :    0.077663
  17 C :    0.085548
  18 C :   -0.322537
  19 C :   -0.009902
  20 O :   -0.506821
  21 H :    0.156909
  22 H :    0.167811
  23 O :   -0.598374
  24 H :    0.159764
  25 H :    0.132303
  26 H :    0.147028
  27 H :    0.149501
  28 H :    0.357681
Sum of atomic charges:   -0.0000000

LOEWDIN ATOMIC CHARGES
----------------------
   0 C :    0.170557
   1 C :   -0.213514
   2 C :   -0.216443
   3 C :   -0.027765
   4 O :   -0.332566
   5 H :    0.097044
   6 H :    0.113041
   7 H :    0.127420
   8 H :    0.112380
   9 H :    0.119331
  10 H :    0.103735
  11 H :    0.101720
  12 C :   -0.055594
  13 H :    0.108489
  14 H :    0.107735
  15 O :   -0.312774
  16 C :    0.008242
  17 C :    0.035424
  18 C :   -0.241113
  19 C :   -0.029653
  20 O :   -0.317971
  21 H :    0.112125
  22 H :    0.119478
  23 O :   -0.405848
  24 H :    0.123543
  25 H :    0.103789
  26 H :    0.104310
  27 H :    0.106062
  28 H :    0.278815

  Mayer bond orders larger than 0.100000
B(  0-C ,  1-C ) :   0.9503 B(  0-C ,  4-O ) :   0.8972 B(  0-C ,  5-H ) :   0.9135
B(  0-C , 15-O ) :   0.8668 B(  1-C ,  2-C ) :   0.9564 B(  1-C ,  6-H ) :   0.9411
B(  1-C ,  7-H ) :   0.9349 B(  2-C ,  3-C ) :   0.9554 B(  2-C ,  8-H ) :   0.9455
B(  2-C ,  9-H ) :   0.9443 B(  3-C ,  4-O ) :   0.8393 B(  3-C , 10-H ) :   0.9362
B(  3-C , 11-H ) :   0.9405 B( 12-C , 13-H ) :   0.9013 B( 12-C , 14-H ) :   0.9412
B( 12-C , 15-O ) :   0.8617 B( 12-C , 16-C ) :   0.8855 B( 16-C , 17-C ) :   0.8716
B( 16-C , 20-O ) :   0.8690 B( 16-C , 21-H ) :   0.9267 B( 17-C , 18-C ) :   0.9224
B( 17-C , 22-H ) :   0.9325 B( 17-C , 23-O ) :   0.9020 B( 18-C , 19-C ) :   0.9384
B( 18-C , 24-H ) :   0.9415 B( 18-C , 25-H ) :   0.9417 B( 19-C , 20-O ) :   0.8475
B( 19-C , 26-H ) :   0.9315 B( 19-C , 27-H ) :   0.9376 B( 23-O , 28-H ) :   0.7968

FINAL SINGLE POINT ENERGY      -652.861019212948

DIPOLE MOMENT
-------------
                                X             Y             Z
Electronic contribution:      0.20232      -3.04790      -0.97012
Nuclear contribution   :     -0.84089       3.44132       1.21377
                        -----------------------------------------
Total Dipole Moment    :     -0.63857       0.39342       0.24365
                        -----------------------------------------
Magnitude (a.u.)       :      0.78862
Magnitude (Debye)      :      2.00450

Rotational constants in cm-1:     0.058325     0.012703     0.011309
Rotational constants in MHz :  1748.553873   380.829272   339.041428

                             ****ORCA TERMINATED NORMALLY****
TOTAL RUN TIME: 0 days 0 hours 24 minutes 0 seconds 153 msec
