                         Program Version 4.2.0 -  RELEASE  -
|  1> # Test redundant internal optimization
|  2> #
|  3> ! RKS B3LYP  Opt TightSCF SmallPrint
|  4>
|  5> %basis
|  6>         Basis "6-31G"
|  7> end
|  8>
|  9> %geom
| 10> Constraints
| 11> { D 4  0  15  12  330.0   C } # D for Dihedral angle
| 12> { D 0  15  12  16  105.0   C } # D for Dihedral angle
| 13> { D 0  4  3  2   C } # D for Dihedral angle
| 14> { D 4  3  2  1   C } # D for Dihedral angle
| 15> { D 3  2  1  0   C } # D for Dihedral angle
| 16> { D 2  1  0  4   C } # D for Dihedral angle
| 17> { D 1  0  4  3   C } # D for Dihedral angle
| 18> { D 16  20  19  18   C } # D for Dihedral angle
| 19> { D 20  19  18  17   C } # D for Dihedral angle
| 20> { D 19  18  17  16   C } # D for Dihedral angle
| 21> { D 18  17  16  20   C } # D for Dihedral angle
| 22> { D 17  16  20  19   C } # D for Dihedral angle
| 23> { D 15  12  16  20   C } # D for Dihedral angle
| 24> end
| 25> end
| 26>
| 27>
| 28> #%pal
| 29> #nprocs 8
| 30> #end
| 31>
| 32> * xyz 0 1
| 33> C  -21.048   26.222   46.251
| 34> C  -20.361   27.558   45.944
| 35> C  -20.329   28.222   47.341
| 36> C  -20.110   27.022   48.296
| 37> O  -20.473   25.807   47.535
| 38> H  -20.833   25.428   45.533
| 39> H  -19.344   27.382   45.576
| 40> H  -20.898   28.157   45.201
| 41> H  -19.543   28.978   47.434
| 42> H  -21.289   28.710   47.548
| 43> H  -20.733   27.082   49.195
| 44> H  -19.064   26.913   48.597
| 45> C  -23.271   25.476   47.424
| 46> H  -24.174   25.035   46.984
| 47> H  -22.598   24.659   47.717
| 48> O  -22.586   26.394   46.375
| 49> C  -23.678   26.238   48.715
| 50> C  -24.244   25.282   49.771
| 51> C  -22.953   24.664   50.359
| 52> C  -21.946   25.841   50.311
| 53> O  -22.498   26.827   49.357
| 54> H  -24.343   27.063   48.449
| 55> O  -25.012   26.083   50.858
| 56> H  -24.922   24.531   49.352
| 57> H  -23.091   24.275   51.372
| 58> H  -22.609   23.837   49.726
| 59> H  -20.952   25.530   49.970
| 60> H  -21.848   26.347   51.276
| 61> H  -24.352   26.842   51.292
| 62> *
| 63>
| 64>                          ****END OF INPUT****
 Total Charge           Charge          ....    0
 Multiplicity           Mult            ....    1
 Number of Electrons    NEL             ....  102
FINAL SINGLE POINT ENERGY      -652.820755175907
FINAL SINGLE POINT ENERGY      -652.841396314518
FINAL SINGLE POINT ENERGY      -652.858955449275
FINAL SINGLE POINT ENERGY      -652.862385810064
FINAL SINGLE POINT ENERGY      -652.862956722243
FINAL SINGLE POINT ENERGY      -652.863014472937
FINAL SINGLE POINT ENERGY      -652.863022723272
FINAL SINGLE POINT ENERGY      -652.863016998382
                    ***********************HURRAY********************

CARTESIAN COORDINATES (ANGSTROEM)
---------------------------------
  C    -21.066018   26.255040   46.295056
  C    -20.514189   27.624121   45.901534
  C    -20.246969   28.261520   47.282009
  C    -19.796145   27.070847   48.149496
  O    -20.255731   25.846292   47.415975
  H    -20.900364   25.475978   45.541070
  H    -19.584132   27.481640   45.339568
  H    -21.219508   28.192340   45.291049
  H    -19.494525   29.055709   47.240963
  H    -21.175582   28.679251   47.681160
  H    -20.245556   27.084807   49.137067
  H    -18.707314   26.981608   48.220438
  C    -23.175272   25.490648   47.461045
  H    -24.087987   25.143812   46.961638
  H    -22.547217   24.617807   47.683666
  O    -22.500106   26.345011   46.503798
  C    -23.586633   26.194718   48.756491
  C    -24.285110   25.259403   49.753493
  C    -23.075320   24.624576   50.487656
  C    -22.048126   25.778173   50.541744
  O    -22.475397   26.770232   49.516576
  H    -24.232568   27.040573   48.497330
  O    -25.138810   26.005210   50.663924
  H    -24.938942   24.522838   49.284318
  H    -23.370652   24.266952   51.476559
  H    -22.685778   23.776413   49.914305
  H    -21.033937   25.443493   50.309441
  H    -22.043155   26.296615   51.505349
  H    -24.670956   26.819374   50.946281

 Multiplicity           Mult            ....    1
 Number of Electrons    NEL             ....  102
 Basis Dimension        Dim             ....  149

ORBITAL ENERGIES
----------------

  NO   OCC          E(Eh)            E(eV)
   0   2.0000     -19.148041      -521.0447
   1   2.0000     -19.141722      -520.8727
   2   2.0000     -19.140770      -520.8468
   3   2.0000     -19.136536      -520.7316
   4   2.0000     -10.273083      -279.5448
   5   2.0000     -10.244776      -278.7745
   6   2.0000     -10.233942      -278.4797
   7   2.0000     -10.232739      -278.4470
   8   2.0000     -10.230680      -278.3910
   9   2.0000     -10.215082      -277.9665
  10   2.0000     -10.190740      -277.3041
  11   2.0000     -10.178367      -276.9674
  12   2.0000     -10.176051      -276.9044
  13   2.0000      -1.047115       -28.4935
  14   2.0000      -1.037117       -28.2214
  15   2.0000      -1.008371       -27.4392
  16   2.0000      -0.989395       -26.9228
  17   2.0000      -0.789548       -21.4847
  18   2.0000      -0.779829       -21.2202
  19   2.0000      -0.766527       -20.8582
  20   2.0000      -0.729399       -19.8480
  21   2.0000      -0.671995       -18.2859
  22   2.0000      -0.607151       -16.5214
  23   2.0000      -0.596945       -16.2437
  24   2.0000      -0.589339       -16.0367
  25   2.0000      -0.573847       -15.6152
  26   2.0000      -0.523540       -14.2463
  27   2.0000      -0.513890       -13.9837
  28   2.0000      -0.490954       -13.3595
  29   2.0000      -0.480682       -13.0800
  30   2.0000      -0.478739       -13.0272
  31   2.0000      -0.457111       -12.4386
  32   2.0000      -0.450292       -12.2531
  33   2.0000      -0.438314       -11.9271
  34   2.0000      -0.421616       -11.4728
  35   2.0000      -0.404357       -11.0031
  36   2.0000      -0.396860       -10.7991
  37   2.0000      -0.392868       -10.6905
  38   2.0000      -0.374189       -10.1822
  39   2.0000      -0.370930       -10.0935
  40   2.0000      -0.357069        -9.7163
  41   2.0000      -0.348106        -9.4724
  42   2.0000      -0.340288        -9.2597
  43   2.0000      -0.335659        -9.1337
  44   2.0000      -0.323898        -8.8137
  45   2.0000      -0.312444        -8.5020
  46   2.0000      -0.293536        -7.9875
  47   2.0000      -0.274819        -7.4782
  48   2.0000      -0.265131        -7.2146
  49   2.0000      -0.255688        -6.9576
  50   2.0000      -0.238131        -6.4799
  51   0.0000       0.064031         1.7424
  52   0.0000       0.088289         2.4025
  53   0.0000       0.090799         2.4708
  54   0.0000       0.097998         2.6667
  55   0.0000       0.103998         2.8299

MULLIKEN ATOMIC CHARGES
-----------------------
   0 C :    0.314492
   1 C :   -0.266752
   2 C :   -0.306849
   3 C :   -0.011523
   4 O :   -0.524628
   5 H :    0.143156
   6 H :    0.142935
   7 H :    0.157686
   8 H :    0.137219
   9 H :    0.170707
  10 H :    0.167836
  11 H :    0.135965
  12 C :   -0.007429
  13 H :    0.143514
  14 H :    0.143892
  15 O :   -0.535611
  16 C :    0.075521
  17 C :    0.073026
  18 C :   -0.293785
  19 C :   -0.030782
  20 O :   -0.525086
  21 H :    0.165340
  22 O :   -0.602436
  23 H :    0.153728
  24 H :    0.162399
  25 H :    0.150107
  26 H :    0.157689
  27 H :    0.144417
  28 H :    0.365253
Sum of atomic charges:   -0.0000000

LOEWDIN ATOMIC CHARGES
----------------------
   0 C :    0.181755
   1 C :   -0.216007
   2 C :   -0.216834
   3 C :   -0.033288
   4 O :   -0.328721
   5 H :    0.092476
   6 H :    0.112855
   7 H :    0.124717
   8 H :    0.112177
   9 H :    0.123016
  10 H :    0.115080
  11 H :    0.097924
  12 C :   -0.039441
  13 H :    0.109769
  14 H :    0.103918
  15 O :   -0.335529
  16 C :    0.008675
  17 C :    0.035539
  18 C :   -0.238290
  19 C :   -0.039872
  20 O :   -0.327052
  21 H :    0.116933
  22 O :   -0.414233
  23 H :    0.116244
  24 H :    0.127101
  25 H :    0.116239
  26 H :    0.109809
  27 H :    0.101588
  28 H :    0.283452

  Mayer bond orders larger than 0.100000
B(  0-C ,  1-C ) :   0.9416 B(  0-C ,  4-O ) :   0.9140 B(  0-C ,  5-H ) :   0.9281
B(  0-C , 15-O ) :   0.8439 B(  1-C ,  2-C ) :   0.9587 B(  1-C ,  6-H ) :   0.9385
B(  1-C ,  7-H ) :   0.9365 B(  2-C ,  3-C ) :   0.9643 B(  2-C ,  8-H ) :   0.9446
B(  2-C ,  9-H ) :   0.9387 B(  3-C ,  4-O ) :   0.8225 B(  3-C , 10-H ) :   0.9141
B(  3-C , 11-H ) :   0.9395 B( 12-C , 13-H ) :   0.9249 B( 12-C , 14-H ) :   0.9210
B( 12-C , 15-O ) :   0.8520 B( 12-C , 16-C ) :   0.8869 B( 16-C , 17-C ) :   0.8933
B( 16-C , 20-O ) :   0.8547 B( 16-C , 21-H ) :   0.9260 B( 17-C , 18-C ) :   0.9116
B( 17-C , 22-O ) :   0.8920 B( 17-C , 23-H ) :   0.9333 B( 18-C , 19-C ) :   0.9445
B( 18-C , 24-H ) :   0.9374 B( 18-C , 25-H ) :   0.9325 B( 19-C , 20-O ) :   0.8352
B( 19-C , 26-H ) :   0.9250 B( 19-C , 27-H ) :   0.9379 B( 22-O , 28-H ) :   0.7943

FINAL SINGLE POINT ENERGY      -652.863015198243

DIPOLE MOMENT
-------------
                                X             Y             Z
Electronic contribution:     -3.13891      -0.57472      -0.60709
Nuclear contribution   :      3.71304       0.49881       0.84118
                        -----------------------------------------
Total Dipole Moment    :      0.57412      -0.07591       0.23408
                        -----------------------------------------
Magnitude (a.u.)       :      0.62464
Magnitude (Debye)      :      1.58771

Rotational constants in cm-1:     0.053419     0.016546     0.015064
Rotational constants in MHz :  1601.455168   496.046201   451.592736

                             ****ORCA TERMINATED NORMALLY****
TOTAL RUN TIME: 0 days 2 hours 1 minutes 35 seconds 162 msec
