                         Program Version 4.2.0 -  RELEASE  -
|  1> # Test redundant internal optimization
|  2> #
|  3> ! RKS B3LYP  Opt TightSCF SmallPrint
|  4>
|  5> %basis
|  6>         Basis "6-31G"
|  7> end
|  8>
|  9> %geom
| 10> Constraints
| 11> { D 4  0  15  12  75.0   C } # D for Dihedral angle
| 12> { D 0  15  12  16  225.0   C } # D for Dihedral angle
| 13> { D 0  4  3  2   C } # D for Dihedral angle
| 14> { D 4  3  2  1   C } # D for Dihedral angle
| 15> { D 3  2  1  0   C } # D for Dihedral angle
| 16> { D 2  1  0  4   C } # D for Dihedral angle
| 17> { D 1  0  4  3   C } # D for Dihedral angle
| 18> { D 16  20  19  18   C } # D for Dihedral angle
| 19> { D 20  19  18  17   C } # D for Dihedral angle
| 20> { D 19  18  17  16   C } # D for Dihedral angle
| 21> { D 18  17  16  20   C } # D for Dihedral angle
| 22> { D 17  16  20  19   C } # D for Dihedral angle
| 23> { D 15  12  16  20   C } # D for Dihedral angle
| 24> end
| 25> end
| 26>
| 27>
| 28> #%pal
| 29> #nprocs 8
| 30> #end
| 31>
| 32> * xyz 0 1
| 33> C  -21.048   26.222   46.251
| 34> C  -20.361   27.558   45.944
| 35> C  -20.329   28.222   47.341
| 36> C  -20.110   27.022   48.296
| 37> O  -20.473   25.807   47.535
| 38> H  -20.833   25.428   45.533
| 39> H  -19.344   27.382   45.576
| 40> H  -20.898   28.157   45.201
| 41> H  -19.543   28.978   47.434
| 42> H  -21.289   28.710   47.548
| 43> H  -20.733   27.082   49.195
| 44> H  -19.064   26.913   48.597
| 45> C  -23.049   27.675   47.122
| 46> H  -22.197   28.109   47.659
| 47> H  -23.422   28.421   46.409
| 48> O  -22.586   26.394   46.375
| 49> C  -24.181   27.395   48.149
| 50> C  -25.377   26.702   47.484
| 51> C  -24.882   25.238   47.399
| 52> C  -24.044   25.073   48.691
| 53> O  -23.728   26.439   49.164
| 54> H  -24.429   28.321   48.670
| 55> O  -26.628   26.805   48.399
| 56> H  -25.629   27.123   46.505
| 57> H  -25.703   24.515   47.338
| 58> H  -24.253   25.105   46.511
| 59> H  -23.111   24.527   48.519
| 60> H  -24.603   24.577   49.490
| 61> H  -26.398   26.388   49.386
| 62> *
| 63>
| 64>                          ****END OF INPUT****
 Total Charge           Charge          ....    0
 Multiplicity           Mult            ....    1
 Number of Electrons    NEL             ....  102
FINAL SINGLE POINT ENERGY      -652.792258670270
FINAL SINGLE POINT ENERGY      -652.833675041011
FINAL SINGLE POINT ENERGY      -652.852903976579
FINAL SINGLE POINT ENERGY      -652.856730695670
FINAL SINGLE POINT ENERGY      -652.857293783554
FINAL SINGLE POINT ENERGY      -652.857414042159
FINAL SINGLE POINT ENERGY      -652.857439218969
FINAL SINGLE POINT ENERGY      -652.857442374576
FINAL SINGLE POINT ENERGY      -652.857441390538
                    ***********************HURRAY********************

CARTESIAN COORDINATES (ANGSTROEM)
---------------------------------
  C    -21.175286   26.403503   46.419556
  C    -20.290859   27.564563   45.940121
  C    -19.944590   28.286292   47.277322
  C    -19.836578   27.103577   48.275143
  O    -20.529468   25.959581   47.632427
  H    -21.147392   25.546978   45.743799
  H    -19.388220   27.147179   45.482991
  H    -20.789663   28.208444   45.210374
  H    -19.003340   28.841599   47.210149
  H    -20.721196   28.999211   47.562048
  H    -20.312377   27.304148   49.239029
  H    -18.800554   26.794885   48.440822
  C    -23.197426   27.758857   47.214348
  H    -22.472588   28.265288   47.854590
  H    -23.562070   28.469685   46.459916
  O    -22.595683   26.615363   46.541508
  C    -24.344705   27.309382   48.122505
  C    -25.510608   26.566254   47.452824
  C    -24.962207   25.115437   47.382738
  C    -24.130175   24.993815   48.683749
  O    -23.869460   26.380680   49.144218
  H    -24.720771   28.198543   48.642809
  O    -26.713901   26.668480   48.267114
  H    -25.789183   26.970725   46.479184
  H    -25.783884   24.395105   47.332054
  H    -24.321881   25.010863   46.506181
  H    -23.168075   24.502787   48.523552
  H    -24.670468   24.486037   49.490213
  H    -26.492392   26.420741   49.189716

 Multiplicity           Mult            ....    1
 Number of Electrons    NEL             ....  102
 Basis Dimension        Dim             ....  149

ORBITAL ENERGIES
----------------

  NO   OCC          E(Eh)            E(eV)
   0   2.0000     -19.147537      -521.0310
   1   2.0000     -19.142737      -520.9004
   2   2.0000     -19.132329      -520.6171
   3   2.0000     -19.130651      -520.5715
   4   2.0000     -10.282738      -279.8075
   5   2.0000     -10.234886      -278.5054
   6   2.0000     -10.231733      -278.4196
   7   2.0000     -10.230236      -278.3789
   8   2.0000     -10.229589      -278.3613
   9   2.0000     -10.214819      -277.9594
  10   2.0000     -10.196116      -277.4504
  11   2.0000     -10.195324      -277.4289
  12   2.0000     -10.169861      -276.7360
  13   2.0000      -1.054230       -28.6871
  14   2.0000      -1.027584       -27.9620
  15   2.0000      -1.001606       -27.2551
  16   2.0000      -0.993052       -27.0223
  17   2.0000      -0.791354       -21.5338
  18   2.0000      -0.778372       -21.1806
  19   2.0000      -0.760078       -20.6828
  20   2.0000      -0.733037       -19.9470
  21   2.0000      -0.676432       -18.4066
  22   2.0000      -0.608045       -16.5457
  23   2.0000      -0.602592       -16.3974
  24   2.0000      -0.591002       -16.0820
  25   2.0000      -0.566667       -15.4198
  26   2.0000      -0.523739       -14.2517
  27   2.0000      -0.509035       -13.8515
  28   2.0000      -0.497138       -13.5278
  29   2.0000      -0.484315       -13.1789
  30   2.0000      -0.472407       -12.8548
  31   2.0000      -0.458292       -12.4708
  32   2.0000      -0.445698       -12.1281
  33   2.0000      -0.432662       -11.7733
  34   2.0000      -0.425463       -11.5774
  35   2.0000      -0.415366       -11.3027
  36   2.0000      -0.401122       -10.9151
  37   2.0000      -0.386372       -10.5137
  38   2.0000      -0.381305       -10.3758
  39   2.0000      -0.363397        -9.8885
  40   2.0000      -0.361954        -9.8493
  41   2.0000      -0.356291        -9.6952
  42   2.0000      -0.348197        -9.4749
  43   2.0000      -0.324068        -8.8183
  44   2.0000      -0.314774        -8.5654
  45   2.0000      -0.304799        -8.2940
  46   2.0000      -0.294097        -8.0028
  47   2.0000      -0.273612        -7.4454
  48   2.0000      -0.261281        -7.1098
  49   2.0000      -0.255041        -6.9400
  50   2.0000      -0.236082        -6.4241
  51   0.0000       0.067888         1.8473
  52   0.0000       0.079232         2.1560
  53   0.0000       0.092288         2.5113
  54   0.0000       0.105731         2.8771
  55   0.0000       0.108006         2.9390

MULLIKEN ATOMIC CHARGES
-----------------------
   0 C :    0.307167
   1 C :   -0.278904
   2 C :   -0.320148
   3 C :   -0.010753
   4 O :   -0.500792
   5 H :    0.163590
   6 H :    0.157759
   7 H :    0.148339
   8 H :    0.146590
   9 H :    0.150599
  10 H :    0.159194
  11 H :    0.147117
  12 C :   -0.007477
  13 H :    0.146602
  14 H :    0.132397
  15 O :   -0.529757
  16 C :    0.075042
  17 C :    0.076581
  18 C :   -0.284683
  19 C :   -0.028173
  20 O :   -0.527607
  21 H :    0.149921
  22 O :   -0.602911
  23 H :    0.147319
  24 H :    0.145439
  25 H :    0.174887
  26 H :    0.169748
  27 H :    0.131567
  28 H :    0.361348
Sum of atomic charges:   -0.0000000

LOEWDIN ATOMIC CHARGES
----------------------
   0 C :    0.175559
   1 C :   -0.228353
   2 C :   -0.225087
   3 C :   -0.033044
   4 O :   -0.318724
   5 H :    0.111464
   6 H :    0.123235
   7 H :    0.118125
   8 H :    0.116139
   9 H :    0.109013
  10 H :    0.110277
  11 H :    0.105099
  12 C :   -0.040182
  13 H :    0.106168
  14 H :    0.099537
  15 O :   -0.322321
  16 C :    0.013023
  17 C :    0.038717
  18 C :   -0.241640
  19 C :   -0.035330
  20 O :   -0.330634
  21 H :    0.113255
  22 O :   -0.418082
  23 H :    0.114005
  24 H :    0.116894
  25 H :    0.130894
  26 H :    0.116877
  27 H :    0.094040
  28 H :    0.281076

  Mayer bond orders larger than 0.100000
B(  0-C ,  1-C ) :   0.9212 B(  0-C ,  4-O ) :   0.9068 B(  0-C ,  5-H ) :   0.9364
B(  0-C , 15-O ) :   0.8909 B(  1-C ,  2-C ) :   0.9549 B(  1-C ,  6-H ) :   0.9350
B(  1-C ,  7-H ) :   0.9373 B(  2-C ,  3-C ) :   0.9462 B(  2-C ,  8-H ) :   0.9445
B(  2-C ,  9-H ) :   0.9377 B(  3-C ,  4-O ) :   0.8418 B(  3-C , 10-H ) :   0.9314
B(  3-C , 11-H ) :   0.9387 B( 12-C , 13-H ) :   0.9067 B( 12-C , 14-H ) :   0.9206
B( 12-C , 15-O ) :   0.8408 B( 12-C , 16-C ) :   0.8916 B( 16-C , 17-C ) :   0.9111
B( 16-C , 20-O ) :   0.8793 B( 16-C , 21-H ) :   0.9205 B( 17-C , 18-C ) :   0.9251
B( 17-C , 22-O ) :   0.8913 B( 17-C , 23-H ) :   0.9364 B( 18-C , 19-C ) :   0.9469
B( 18-C , 24-H ) :   0.9372 B( 18-C , 25-H ) :   0.9189 B( 19-C , 20-O ) :   0.8301
B( 19-C , 26-H ) :   0.9285 B( 19-C , 27-H ) :   0.9371 B( 22-O , 28-H ) :   0.7966

FINAL SINGLE POINT ENERGY      -652.857439941738

DIPOLE MOMENT
-------------
                                X             Y             Z
Electronic contribution:     -3.51338      -2.01527       1.37169
Nuclear contribution   :      4.57280       2.74347      -1.84598
                        -----------------------------------------
Total Dipole Moment    :      1.05942       0.72820      -0.47429
                        -----------------------------------------
Magnitude (a.u.)       :      1.37026
Magnitude (Debye)      :      3.48292

Rotational constants in cm-1:     0.059528     0.014798     0.014331
Rotational constants in MHz :  1784.597674   443.645626   429.619092

                             ****ORCA TERMINATED NORMALLY****
TOTAL RUN TIME: 0 days 1 hours 1 minutes 12 seconds 885 msec
