                         Program Version 4.2.0 -  RELEASE  -
|  1> # Test redundant internal optimization
|  2> #
|  3> ! RKS B3LYP  Opt TightSCF SmallPrint
|  4>
|  5> %basis
|  6>         Basis "6-31G"
|  7> end
|  8>
|  9> %geom
| 10> Constraints
| 11> { D 4  0  15  12  195.0   C } # D for Dihedral angle
| 12> { D 0  15  12  16  120.0   C } # D for Dihedral angle
| 13> { D 0  4  3  2   C } # D for Dihedral angle
| 14> { D 4  3  2  1   C } # D for Dihedral angle
| 15> { D 3  2  1  0   C } # D for Dihedral angle
| 16> { D 2  1  0  4   C } # D for Dihedral angle
| 17> { D 1  0  4  3   C } # D for Dihedral angle
| 18> { D 16  20  19  18   C } # D for Dihedral angle
| 19> { D 20  19  18  17   C } # D for Dihedral angle
| 20> { D 19  18  17  16   C } # D for Dihedral angle
| 21> { D 18  17  16  20   C } # D for Dihedral angle
| 22> { D 17  16  20  19   C } # D for Dihedral angle
| 23> { D 15  12  16  20   C } # D for Dihedral angle
| 24> end
| 25> end
| 26>
| 27>
| 28> #%pal
| 29> #nprocs 8
| 30> #end
| 31>
| 32> * xyz 0 1
| 33> C  -21.048   26.222   46.251
| 34> C  -20.361   27.558   45.944
| 35> C  -20.329   28.222   47.341
| 36> C  -20.110   27.022   48.296
| 37> O  -20.473   25.807   47.535
| 38> H  -20.833   25.428   45.533
| 39> H  -19.344   27.382   45.576
| 40> H  -20.898   28.157   45.201
| 41> H  -19.543   28.978   47.434
| 42> H  -21.289   28.710   47.548
| 43> H  -20.733   27.082   49.195
| 44> H  -19.064   26.913   48.597
| 45> C  -23.353   26.472   45.026
| 46> H  -23.872   27.437   44.960
| 47> H  -22.654   26.400   44.183
| 48> O  -22.586   26.394   46.375
| 49> C  -24.405   25.340   44.867
| 50> C  -25.058   25.378   43.481
| 51> C  -23.975   24.706   42.605
| 52> C  -23.372   23.637   43.549
| 53> O  -23.756   24.026   44.923
| 54> H  -25.109   25.385   45.701
| 55> H  -25.979   24.784   43.482
| 56> O  -25.406   26.817   43.011
| 57> H  -24.382   24.270   41.686
| 58> H  -23.214   25.441   42.317
| 59> H  -22.279   23.587   43.483
| 60> H  -23.784   22.640   43.369
| 61> H  -24.500   27.432   43.001
| 62> *
| 63>
| 64>                          ****END OF INPUT****
 Total Charge           Charge          ....    0
 Multiplicity           Mult            ....    1
 Number of Electrons    NEL             ....  102
FINAL SINGLE POINT ENERGY      -652.824738714445
FINAL SINGLE POINT ENERGY      -652.848394152689
FINAL SINGLE POINT ENERGY      -652.852534249461
FINAL SINGLE POINT ENERGY      -652.853245864615
FINAL SINGLE POINT ENERGY      -652.853366613400
FINAL SINGLE POINT ENERGY      -652.853391311848
FINAL SINGLE POINT ENERGY      -652.853397813987
FINAL SINGLE POINT ENERGY      -652.853399150976
                    ***********************HURRAY********************

CARTESIAN COORDINATES (ANGSTROEM)
---------------------------------
  C    -21.041977   26.248216   46.170905
  C    -20.324201   27.580230   45.965250
  C    -20.384919   28.201005   47.382549
  C    -20.248136   26.969194   48.301124
  O    -20.575388   25.796173   47.447511
  H    -20.814831   25.465821   45.440460
  H    -19.286208   27.390907   45.665618
  H    -20.793010   28.209389   45.202694
  H    -19.596434   28.940264   47.551875
  H    -21.354426   28.685808   47.531018
  H    -20.936260   26.983953   49.149534
  H    -19.226709   26.817074   48.662294
  C    -23.193366   26.555070   44.997066
  H    -23.708388   27.523403   44.981478
  H    -22.485264   26.526788   44.153863
  O    -22.484394   26.428442   46.258955
  C    -24.218197   25.427238   44.883757
  C    -25.022196   25.412040   43.572497
  C    -24.046693   24.674895   42.608362
  C    -23.363017   23.645056   43.533592
  O    -23.589041   24.109030   44.927718
  H    -24.864817   25.473930   45.764067
  H    -25.933680   24.827528   43.713370
  O    -25.484744   26.704198   43.108647
  H    -24.567399   24.212654   41.765551
  H    -23.321428   25.393137   42.201180
  H    -22.286488   23.558142   43.355047
  H    -23.813176   22.651852   43.451383
  H    -24.744213   27.215564   42.722635

 Multiplicity           Mult            ....    1
 Number of Electrons    NEL             ....  102
 Basis Dimension        Dim             ....  149

ORBITAL ENERGIES
----------------

  NO   OCC          E(Eh)            E(eV)
   0   2.0000     -19.151565      -521.1406
   1   2.0000     -19.138356      -520.7811
   2   2.0000     -19.136197      -520.7224
   3   2.0000     -19.134974      -520.6891
   4   2.0000     -10.275618      -279.6138
   5   2.0000     -10.246335      -278.8169
   6   2.0000     -10.233074      -278.4561
   7   2.0000     -10.231784      -278.4210
   8   2.0000     -10.228840      -278.3409
   9   2.0000     -10.221400      -278.1384
  10   2.0000     -10.198168      -277.5063
  11   2.0000     -10.185424      -277.1595
  12   2.0000     -10.184402      -277.1317
  13   2.0000      -1.049835       -28.5675
  14   2.0000      -1.034584       -28.1525
  15   2.0000      -1.016464       -27.6594
  16   2.0000      -0.989824       -26.9345
  17   2.0000      -0.785387       -21.3715
  18   2.0000      -0.783409       -21.3177
  19   2.0000      -0.767337       -20.8803
  20   2.0000      -0.729206       -19.8427
  21   2.0000      -0.682181       -18.5631
  22   2.0000      -0.613259       -16.6876
  23   2.0000      -0.599073       -16.3016
  24   2.0000      -0.589446       -16.0396
  25   2.0000      -0.576221       -15.6798
  26   2.0000      -0.529952       -14.4207
  27   2.0000      -0.507667       -13.8143
  28   2.0000      -0.502237       -13.6666
  29   2.0000      -0.489196       -13.3117
  30   2.0000      -0.468420       -12.7464
  31   2.0000      -0.458514       -12.4768
  32   2.0000      -0.447121       -12.1668
  33   2.0000      -0.437264       -11.8985
  34   2.0000      -0.430420       -11.7123
  35   2.0000      -0.413757       -11.2589
  36   2.0000      -0.409992       -11.1564
  37   2.0000      -0.394177       -10.7261
  38   2.0000      -0.381372       -10.3777
  39   2.0000      -0.370364       -10.0781
  40   2.0000      -0.360598        -9.8124
  41   2.0000      -0.353497        -9.6191
  42   2.0000      -0.349598        -9.5131
  43   2.0000      -0.331893        -9.0313
  44   2.0000      -0.315865        -8.5951
  45   2.0000      -0.309559        -8.4235
  46   2.0000      -0.302081        -8.2201
  47   2.0000      -0.272125        -7.4049
  48   2.0000      -0.260102        -7.0777
  49   2.0000      -0.252333        -6.8663
  50   2.0000      -0.234385        -6.3779
  51   0.0000       0.046788         1.2732
  52   0.0000       0.067272         1.8306
  53   0.0000       0.088145         2.3986
  54   0.0000       0.093350         2.5402
  55   0.0000       0.107067         2.9134

MULLIKEN ATOMIC CHARGES
-----------------------
   0 C :    0.300889
   1 C :   -0.270347
   2 C :   -0.298568
   3 C :   -0.000603
   4 O :   -0.499095
   5 H :    0.144569
   6 H :    0.142779
   7 H :    0.137304
   8 H :    0.140616
   9 H :    0.160114
  10 H :    0.155888
  11 H :    0.140037
  12 C :   -0.031083
  13 H :    0.144071
  14 H :    0.109352
  15 O :   -0.499684
  16 C :    0.106631
  17 C :    0.079265
  18 C :   -0.322908
  19 C :   -0.012805
  20 O :   -0.504266
  21 H :    0.170471
  22 H :    0.171700
  23 O :   -0.598865
  24 H :    0.157888
  25 H :    0.128535
  26 H :    0.142219
  27 H :    0.152142
  28 H :    0.353755
Sum of atomic charges:   -0.0000000

LOEWDIN ATOMIC CHARGES
----------------------
   0 C :    0.182502
   1 C :   -0.232614
   2 C :   -0.217043
   3 C :   -0.024809
   4 O :   -0.299275
   5 H :    0.099146
   6 H :    0.112688
   7 H :    0.111012
   8 H :    0.113556
   9 H :    0.118204
  10 H :    0.110286
  11 H :    0.101577
  12 C :   -0.052101
  13 H :    0.106323
  14 H :    0.085262
  15 O :   -0.325843
  16 C :    0.017778
  17 C :    0.033504
  18 C :   -0.241652
  19 C :   -0.031471
  20 O :   -0.313654
  21 H :    0.123114
  22 H :    0.121185
  23 O :   -0.407156
  24 H :    0.122973
  25 H :    0.101296
  26 H :    0.101150
  27 H :    0.107606
  28 H :    0.276457

  Mayer bond orders larger than 0.100000
B(  0-C ,  1-C ) :   0.9259 B(  0-C ,  4-O ) :   0.9412 B(  0-C ,  5-H ) :   0.9184
B(  0-C , 15-O ) :   0.8305 B(  1-C ,  2-C ) :   0.9527 B(  1-C ,  6-H ) :   0.9341
B(  1-C ,  7-H ) :   0.9368 B(  2-C ,  3-C ) :   0.9559 B(  2-C ,  8-H ) :   0.9452
B(  2-C ,  9-H ) :   0.9441 B(  3-C ,  4-O ) :   0.8370 B(  3-C , 10-H ) :   0.9341
B(  3-C , 11-H ) :   0.9398 B( 12-C , 13-H ) :   0.9150 B( 12-C , 14-H ) :   0.9195
B( 12-C , 15-O ) :   0.8588 B( 12-C , 16-C ) :   0.8950 B( 16-C , 17-C ) :   0.8698
B( 16-C , 20-O ) :   0.8689 B( 16-C , 21-H ) :   0.9292 B( 17-C , 18-C ) :   0.9234
B( 17-C , 22-H ) :   0.9312 B( 17-C , 23-O ) :   0.8950 B( 18-C , 19-C ) :   0.9379
B( 18-C , 24-H ) :   0.9422 B( 18-C , 25-H ) :   0.9415 B( 19-C , 20-O ) :   0.8527
B( 19-C , 26-H ) :   0.9313 B( 19-C , 27-H ) :   0.9374 B( 23-O , 28-H ) :   0.7997

FINAL SINGLE POINT ENERGY      -652.853399446778

DIPOLE MOMENT
-------------
                                X             Y             Z
Electronic contribution:     -3.26056      -3.00749       2.06442
Nuclear contribution   :      4.01347       3.85638      -3.40414
                        -----------------------------------------
Total Dipole Moment    :      0.75291       0.84889      -1.33972
                        -----------------------------------------
Magnitude (a.u.)       :      1.75566
Magnitude (Debye)      :      4.46254

Rotational constants in cm-1:     0.057968     0.012627     0.011548
Rotational constants in MHz :  1737.842394   378.534660   346.196006

                             ****ORCA TERMINATED NORMALLY****
TOTAL RUN TIME: 0 days 1 hours 22 minutes 8 seconds 955 msec
