                         Program Version 4.2.0 -  RELEASE  -
|  1> # Test redundant internal optimization
|  2> #
|  3> ! RKS B3LYP  Opt TightSCF SmallPrint
|  4>
|  5> %basis
|  6>         Basis "6-31G"
|  7> end
|  8>
|  9> %geom
| 10> Constraints
| 11> { D 4  0  15  12  180.0   C } # D for Dihedral angle
| 12> { D 0  15  12  16  165.0   C } # D for Dihedral angle
| 13> { D 0  4  3  2   C } # D for Dihedral angle
| 14> { D 4  3  2  1   C } # D for Dihedral angle
| 15> { D 3  2  1  0   C } # D for Dihedral angle
| 16> { D 2  1  0  4   C } # D for Dihedral angle
| 17> { D 1  0  4  3   C } # D for Dihedral angle
| 18> { D 16  20  19  18   C } # D for Dihedral angle
| 19> { D 20  19  18  17   C } # D for Dihedral angle
| 20> { D 19  18  17  16   C } # D for Dihedral angle
| 21> { D 18  17  16  20   C } # D for Dihedral angle
| 22> { D 17  16  20  19   C } # D for Dihedral angle
| 23> { D 15  12  16  20   C } # D for Dihedral angle
| 24> end
| 25> end
| 26>
| 27>
| 28> #%pal
| 29> #nprocs 8
| 30> #end
| 31>
| 32> * xyz 0 1
| 33> C  -21.048   26.222   46.251
| 34> C  -20.361   27.558   45.944
| 35> C  -20.329   28.222   47.341
| 36> C  -20.110   27.022   48.296
| 37> O  -20.473   25.807   47.535
| 38> H  -20.833   25.428   45.533
| 39> H  -19.344   27.382   45.576
| 40> H  -20.898   28.157   45.201
| 41> H  -19.543   28.978   47.434
| 42> H  -21.289   28.710   47.548
| 43> H  -20.733   27.082   49.195
| 44> H  -19.064   26.913   48.597
| 45> C  -23.309   26.834   45.072
| 46> H  -23.107   27.896   44.887
| 47> H  -22.936   26.260   44.214
| 48> O  -22.586   26.394   46.375
| 49> C  -24.848   26.633   45.142
| 50> C  -25.205   25.183   45.488
| 51> C  -24.978   25.161   47.019
| 52> C  -25.418   26.579   47.460
| 53> O  -25.417   27.418   46.242
| 54> H  -25.299   27.002   44.219
| 55> H  -26.257   24.989   45.251
| 56> O  -24.332   24.143   44.735
| 57> H  -25.547   24.372   47.521
| 58> H  -23.916   25.000   47.239
| 59> H  -24.740   27.018   48.200
| 60> H  -26.436   26.595   47.861
| 61> H  -23.275   24.319   44.958
| 62> *
| 63>
| 64>                          ****END OF INPUT****
 Total Charge           Charge          ....    0
 Multiplicity           Mult            ....    1
 Number of Electrons    NEL             ....  102
FINAL SINGLE POINT ENERGY      -652.831479342370
FINAL SINGLE POINT ENERGY      -652.854947520800
FINAL SINGLE POINT ENERGY      -652.859823671857
FINAL SINGLE POINT ENERGY      -652.861500643531
FINAL SINGLE POINT ENERGY      -652.861697327325
FINAL SINGLE POINT ENERGY      -652.861734717032
FINAL SINGLE POINT ENERGY      -652.861735706464
                    ***********************HURRAY********************

CARTESIAN COORDINATES (ANGSTROEM)
---------------------------------
  C    -21.060973   26.268664   46.170391
  C    -20.327674   27.581776   45.905254
  C    -20.360214   28.255690   47.299268
  C    -20.227841   27.058112   48.261509
  O    -20.583320   25.857625   47.456463
  H    -20.848561   25.464211   45.456843
  H    -19.298078   27.356624   45.603457
  H    -20.783290   28.194173   45.123058
  H    -19.556276   28.986252   47.428892
  H    -21.317767   28.764782   47.443558
  H    -20.903877   27.113263   49.117793
  H    -19.204169   26.902867   48.613596
  C    -23.202021   26.868108   45.082107
  H    -23.013865   27.931426   44.890674
  H    -22.854895   26.286633   44.213932
  O    -22.505552   26.445864   46.291072
  C    -24.705683   26.658603   45.234640
  C    -25.147351   25.207610   45.492461
  C    -24.997590   25.095845   47.041970
  C    -25.393730   26.508982   47.521049
  O    -25.290381   27.404221   46.339394
  H    -25.168788   27.053069   44.322039
  H    -26.186848   25.078166   45.183438
  O    -24.402062   24.215224   44.744673
  H    -25.637739   24.314038   47.460849
  H    -23.954426   24.885979   47.286416
  H    -24.730642   26.887294   48.303382
  H    -26.431007   26.561829   47.865970
  H    -23.536381   24.070071   45.179852

 Multiplicity           Mult            ....    1
 Number of Electrons    NEL             ....  102
 Basis Dimension        Dim             ....  149

ORBITAL ENERGIES
----------------

  NO   OCC          E(Eh)            E(eV)
   0   2.0000     -19.149952      -521.0967
   1   2.0000     -19.147906      -521.0410
   2   2.0000     -19.138135      -520.7751
   3   2.0000     -19.131370      -520.5911
   4   2.0000     -10.287938      -279.9490
   5   2.0000     -10.233902      -278.4786
   6   2.0000     -10.232569      -278.4424
   7   2.0000     -10.230689      -278.3912
   8   2.0000     -10.229349      -278.3547
   9   2.0000     -10.218148      -278.0499
  10   2.0000     -10.193300      -277.3738
  11   2.0000     -10.191456      -277.3236
  12   2.0000     -10.174727      -276.8684
  13   2.0000      -1.061419       -28.8827
  14   2.0000      -1.025644       -27.9092
  15   2.0000      -1.008088       -27.4315
  16   2.0000      -0.998544       -27.1718
  17   2.0000      -0.792149       -21.5555
  18   2.0000      -0.772157       -21.0115
  19   2.0000      -0.763112       -20.7653
  20   2.0000      -0.735358       -20.0101
  21   2.0000      -0.678412       -18.4605
  22   2.0000      -0.606939       -16.5157
  23   2.0000      -0.599919       -16.3246
  24   2.0000      -0.596840       -16.2408
  25   2.0000      -0.566137       -15.4054
  26   2.0000      -0.531036       -14.4502
  27   2.0000      -0.505314       -13.7503
  28   2.0000      -0.502798       -13.6818
  29   2.0000      -0.488952       -13.3051
  30   2.0000      -0.473721       -12.8906
  31   2.0000      -0.456990       -12.4353
  32   2.0000      -0.450425       -12.2567
  33   2.0000      -0.426867       -11.6156
  34   2.0000      -0.422193       -11.4885
  35   2.0000      -0.412564       -11.2264
  36   2.0000      -0.403842       -10.9891
  37   2.0000      -0.398984       -10.8569
  38   2.0000      -0.382443       -10.4068
  39   2.0000      -0.368329       -10.0227
  40   2.0000      -0.361314        -9.8318
  41   2.0000      -0.357332        -9.7235
  42   2.0000      -0.350468        -9.5367
  43   2.0000      -0.325216        -8.8496
  44   2.0000      -0.316020        -8.5994
  45   2.0000      -0.308707        -8.4004
  46   2.0000      -0.306763        -8.3474
  47   2.0000      -0.266702        -7.2573
  48   2.0000      -0.262980        -7.1561
  49   2.0000      -0.259539        -7.0624
  50   2.0000      -0.237004        -6.4492
  51   0.0000       0.059160         1.6098
  52   0.0000       0.082795         2.2530
  53   0.0000       0.091133         2.4799
  54   0.0000       0.098332         2.6757
  55   0.0000       0.108068         2.9407

MULLIKEN ATOMIC CHARGES
-----------------------
   0 C :    0.304786
   1 C :   -0.281633
   2 C :   -0.299407
   3 C :   -0.002328
   4 O :   -0.506233
   5 H :    0.138258
   6 H :    0.150046
   7 H :    0.147839
   8 H :    0.145273
   9 H :    0.166916
  10 H :    0.155109
  11 H :    0.144805
  12 C :   -0.021444
  13 H :    0.144780
  14 H :    0.132487
  15 O :   -0.522349
  16 C :    0.095423
  17 C :    0.089427
  18 C :   -0.314341
  19 C :   -0.001033
  20 O :   -0.525129
  21 H :    0.144511
  22 H :    0.158794
  23 O :   -0.610409
  24 H :    0.141296
  25 H :    0.175449
  26 H :    0.148726
  27 H :    0.137831
  28 H :    0.362551
Sum of atomic charges:   -0.0000000

LOEWDIN ATOMIC CHARGES
----------------------
   0 C :    0.178064
   1 C :   -0.231089
   2 C :   -0.216425
   3 C :   -0.024124
   4 O :   -0.305784
   5 H :    0.094177
   6 H :    0.117233
   7 H :    0.116216
   8 H :    0.116141
   9 H :    0.121052
  10 H :    0.109974
  11 H :    0.104142
  12 C :   -0.051368
  13 H :    0.101660
  14 H :    0.098161
  15 O :   -0.338214
  16 C :    0.021493
  17 C :    0.038244
  18 C :   -0.242771
  19 C :   -0.023449
  20 O :   -0.324741
  21 H :    0.112488
  22 H :    0.114535
  23 O :   -0.413252
  24 H :    0.113745
  25 H :    0.126960
  26 H :    0.106213
  27 H :    0.099432
  28 H :    0.281285

  Mayer bond orders larger than 0.100000
B(  0-C ,  1-C ) :   0.9295 B(  0-C ,  4-O ) :   0.9413 B(  0-C ,  5-H ) :   0.9195
B(  0-C , 15-O ) :   0.8271 B(  1-C ,  2-C ) :   0.9512 B(  1-C ,  6-H ) :   0.9338
B(  1-C ,  7-H ) :   0.9309 B(  2-C ,  3-C ) :   0.9563 B(  2-C ,  8-H ) :   0.9448
B(  2-C ,  9-H ) :   0.9431 B(  3-C ,  4-O ) :   0.8298 B(  3-C , 10-H ) :   0.9348
B(  3-C , 11-H ) :   0.9397 B( 12-C , 13-H ) :   0.9158 B( 12-C , 14-H ) :   0.9012
B( 12-C , 15-O ) :   0.8312 B( 12-C , 16-C ) :   0.9147 B( 16-C , 17-C ) :   0.8844
B( 16-C , 20-O ) :   0.8826 B( 16-C , 21-H ) :   0.9291 B( 17-C , 18-C ) :   0.9354
B( 17-C , 22-H ) :   0.9368 B( 17-C , 23-O ) :   0.8953 B( 18-C , 19-C ) :   0.9473
B( 18-C , 24-H ) :   0.9412 B( 18-C , 25-H ) :   0.9226 B( 19-C , 20-O ) :   0.8343
B( 19-C , 26-H ) :   0.9327 B( 19-C , 27-H ) :   0.9385 B( 23-O , 28-H ) :   0.7948

FINAL SINGLE POINT ENERGY      -652.861722292338

DIPOLE MOMENT
-------------
                                X             Y             Z
Electronic contribution:     -2.48465      -2.66251      -1.42435
Nuclear contribution   :      3.39437       3.25189       1.51779
                        -----------------------------------------
Total Dipole Moment    :      0.90972       0.58938       0.09344
                        -----------------------------------------
Magnitude (a.u.)       :      1.08798
Magnitude (Debye)      :      2.76542

Rotational constants in cm-1:     0.046824     0.015632     0.014960
Rotational constants in MHz :  1403.744187   468.622890   448.503104

                             ****ORCA TERMINATED NORMALLY****
TOTAL RUN TIME: 0 days 0 hours 37 minutes 42 seconds 111 msec
