                         Program Version 4.2.0 -  RELEASE  -
|  1> # Test redundant internal optimization
|  2> #
|  3> ! RKS B3LYP  Opt TightSCF SmallPrint
|  4>
|  5> %basis
|  6>         Basis "6-31G"
|  7> end
|  8>
|  9> %geom
| 10> Constraints
| 11> { D 4  0  15  12  15.0   C } # D for Dihedral angle
| 12> { D 0  15  12  16  255.0   C } # D for Dihedral angle
| 13> { D 0  4  3  2   C } # D for Dihedral angle
| 14> { D 4  3  2  1   C } # D for Dihedral angle
| 15> { D 3  2  1  0   C } # D for Dihedral angle
| 16> { D 2  1  0  4   C } # D for Dihedral angle
| 17> { D 1  0  4  3   C } # D for Dihedral angle
| 18> { D 16  20  19  18   C } # D for Dihedral angle
| 19> { D 20  19  18  17   C } # D for Dihedral angle
| 20> { D 19  18  17  16   C } # D for Dihedral angle
| 21> { D 18  17  16  20   C } # D for Dihedral angle
| 22> { D 17  16  20  19   C } # D for Dihedral angle
| 23> { D 15  12  16  20   C } # D for Dihedral angle
| 24> end
| 25> end
| 26>
| 27>
| 28> #%pal
| 29> #nprocs 8
| 30> #end
| 31>
| 32> * xyz 0 1
| 33> C  -21.048   26.222   46.251
| 34> C  -20.361   27.558   45.944
| 35> C  -20.329   28.222   47.341
| 36> C  -20.110   27.022   48.296
| 37> O  -20.473   25.807   47.535
| 38> H  -20.833   25.428   45.533
| 39> H  -19.344   27.382   45.576
| 40> H  -20.898   28.157   45.201
| 41> H  -19.543   28.978   47.434
| 42> H  -21.289   28.710   47.548
| 43> H  -20.733   27.082   49.195
| 44> H  -19.064   26.913   48.597
| 45> C  -23.128   26.462   47.829
| 46> H  -22.295   26.652   48.517
| 47> H  -23.850   27.282   47.932
| 48> O  -22.586   26.394   46.375
| 49> C  -23.836   25.151   48.268
| 50> C  -22.851   23.977   48.319
| 51> C  -22.136   24.225   49.668
| 52> C  -23.261   24.807   50.560
| 53> O  -24.326   25.270   49.646
| 54> H  -24.707   24.984   47.632
| 55> H  -23.399   23.028   48.340
| 56> O  -21.872   23.950   47.113
| 57> H  -21.698   23.315   50.090
| 58> H  -21.329   24.956   49.537
| 59> H  -22.920   25.650   51.169
| 60> H  -23.705   24.053   51.217
| 61> H  -21.313   24.891   47.073
| 62> *
| 63>
| 64>                          ****END OF INPUT****
 Total Charge           Charge          ....    0
 Multiplicity           Mult            ....    1
 Number of Electrons    NEL             ....  102
FINAL SINGLE POINT ENERGY      -652.773579470595
FINAL SINGLE POINT ENERGY      -652.809102292938
FINAL SINGLE POINT ENERGY      -652.831671495473
FINAL SINGLE POINT ENERGY      -652.843766842270
FINAL SINGLE POINT ENERGY      -652.850479323264
FINAL SINGLE POINT ENERGY      -652.854597828319
FINAL SINGLE POINT ENERGY      -652.856781138275
FINAL SINGLE POINT ENERGY      -652.857453097375
FINAL SINGLE POINT ENERGY      -652.857754003586
FINAL SINGLE POINT ENERGY      -652.859157052628
FINAL SINGLE POINT ENERGY      -652.860982321797
FINAL SINGLE POINT ENERGY      -652.860982895420
FINAL SINGLE POINT ENERGY      -652.860983419816
FINAL SINGLE POINT ENERGY      -652.860983991465
FINAL SINGLE POINT ENERGY      -652.860984693218
FINAL SINGLE POINT ENERGY      -652.860985623598
FINAL SINGLE POINT ENERGY      -652.860986908181
FINAL SINGLE POINT ENERGY      -652.860988708586
FINAL SINGLE POINT ENERGY      -652.860991045192
                    ***********************HURRAY********************

CARTESIAN COORDINATES (ANGSTROEM)
---------------------------------
  C    -21.067916   26.362707   46.301149
  C    -20.463354   27.715700   45.903706
  C    -20.220451   28.374442   47.287389
  C    -19.829842   27.172785   48.181333
  O    -20.295853   25.956703   47.459908
  H    -20.934392   25.578867   45.553412
  H    -19.519249   27.550933   45.372470
  H    -21.140918   28.285672   45.265585
  H    -19.434750   29.135193   47.263100
  H    -21.140602   28.846603   47.646531
  H    -20.293684   27.196619   49.171155
  H    -18.747250   27.067187   48.294425
  C    -23.117105   26.455154   47.835776
  H    -22.399400   26.727301   48.616796
  H    -23.889204   27.228518   47.797840
  O    -22.486528   26.441013   46.521672
  C    -23.787704   25.119280   48.201222
  C    -22.881330   23.876422   48.346784
  C    -22.254788   24.094904   49.764909
  C    -23.416781   24.757312   50.539445
  O    -24.372545   25.277407   49.533638
  H    -24.611860   24.929092   47.509071
  H    -23.527512   22.993525   48.356065
  O    -21.898687   23.621615   47.328490
  H    -21.924194   23.155487   50.214076
  H    -21.388997   24.759631   49.674766
  H    -23.092623   25.584433   51.180779
  H    -23.965977   24.037119   51.154203
  H    -21.133504   24.226375   47.460306

 Multiplicity           Mult            ....    1
 Number of Electrons    NEL             ....  102
 Basis Dimension        Dim             ....  149

ORBITAL ENERGIES
----------------

  NO   OCC          E(Eh)            E(eV)
   0   2.0000     -19.172008      -521.6969
   1   2.0000     -19.139607      -520.8152
   2   2.0000     -19.135860      -520.7132
   3   2.0000     -19.117516      -520.2141
   4   2.0000     -10.288989      -279.9776
   5   2.0000     -10.248540      -278.8770
   6   2.0000     -10.230142      -278.3763
   7   2.0000     -10.228963      -278.3442
   8   2.0000     -10.225591      -278.2525
   9   2.0000     -10.222373      -278.1649
  10   2.0000     -10.202445      -277.6226
  11   2.0000     -10.194103      -277.3956
  12   2.0000     -10.181889      -277.0633
  13   2.0000      -1.069156       -29.0932
  14   2.0000      -1.022198       -27.8154
  15   2.0000      -1.001303       -27.2469
  16   2.0000      -0.997095       -27.1323
  17   2.0000      -0.800352       -21.7787
  18   2.0000      -0.773179       -21.0393
  19   2.0000      -0.765701       -20.8358
  20   2.0000      -0.735831       -20.0230
  21   2.0000      -0.678306       -18.4576
  22   2.0000      -0.615835       -16.7577
  23   2.0000      -0.604861       -16.4591
  24   2.0000      -0.596930       -16.2433
  25   2.0000      -0.565735       -15.3944
  26   2.0000      -0.527926       -14.3656
  27   2.0000      -0.518867       -14.1191
  28   2.0000      -0.503240       -13.6938
  29   2.0000      -0.489255       -13.3133
  30   2.0000      -0.476095       -12.9552
  31   2.0000      -0.459377       -12.5003
  32   2.0000      -0.443218       -12.0606
  33   2.0000      -0.431269       -11.7354
  34   2.0000      -0.422285       -11.4909
  35   2.0000      -0.415783       -11.3140
  36   2.0000      -0.407106       -11.0779
  37   2.0000      -0.401251       -10.9186
  38   2.0000      -0.383228       -10.4282
  39   2.0000      -0.371595       -10.1116
  40   2.0000      -0.362899        -9.8750
  41   2.0000      -0.360575        -9.8117
  42   2.0000      -0.349603        -9.5132
  43   2.0000      -0.342891        -9.3305
  44   2.0000      -0.324119        -8.8197
  45   2.0000      -0.313569        -8.5326
  46   2.0000      -0.294718        -8.0197
  47   2.0000      -0.279150        -7.5960
  48   2.0000      -0.263302        -7.1648
  49   2.0000      -0.249592        -6.7917
  50   2.0000      -0.227540        -6.1917
  51   0.0000       0.055732         1.5165
  52   0.0000       0.075700         2.0599
  53   0.0000       0.085620         2.3298
  54   0.0000       0.096361         2.6221
  55   0.0000       0.100358         2.7309

MULLIKEN ATOMIC CHARGES
-----------------------
   0 C :    0.298346
   1 C :   -0.255706
   2 C :   -0.313859
   3 C :   -0.015874
   4 O :   -0.553353
   5 H :    0.177335
   6 H :    0.148416
   7 H :    0.167077
   8 H :    0.154082
   9 H :    0.159801
  10 H :    0.149529
  11 H :    0.159874
  12 C :   -0.020556
  13 H :    0.126595
  14 H :    0.164240
  15 O :   -0.532703
  16 C :    0.084561
  17 C :    0.110734
  18 C :   -0.336595
  19 C :   -0.012173
  20 O :   -0.524703
  21 H :    0.158604
  22 H :    0.153873
  23 O :   -0.627425
  24 H :    0.151353
  25 H :    0.149104
  26 H :    0.134311
  27 H :    0.148247
  28 H :    0.396865
Sum of atomic charges:   -0.0000000

LOEWDIN ATOMIC CHARGES
----------------------
   0 C :    0.179596
   1 C :   -0.220031
   2 C :   -0.219361
   3 C :   -0.032072
   4 O :   -0.334144
   5 H :    0.114975
   6 H :    0.115989
   7 H :    0.129117
   8 H :    0.120980
   9 H :    0.116711
  10 H :    0.102409
  11 H :    0.110946
  12 C :   -0.039868
  13 H :    0.094192
  14 H :    0.117379
  15 O :   -0.332911
  16 C :    0.016142
  17 C :    0.041737
  18 C :   -0.246298
  19 C :   -0.033082
  20 O :   -0.325177
  21 H :    0.115139
  22 H :    0.111238
  23 O :   -0.419660
  24 H :    0.120719
  25 H :    0.110529
  26 H :    0.096904
  27 H :    0.104810
  28 H :    0.283090

  Mayer bond orders larger than 0.100000
B(  0-C ,  1-C ) :   0.9265 B(  0-C ,  4-O ) :   0.8489 B(  0-C ,  5-H ) :   0.9239
B(  0-C , 15-O ) :   0.8718 B(  1-C ,  2-C ) :   0.9495 B(  1-C ,  6-H ) :   0.9342
B(  1-C ,  7-H ) :   0.9369 B(  2-C ,  3-C ) :   0.9542 B(  2-C ,  8-H ) :   0.9437
B(  2-C ,  9-H ) :   0.9437 B(  3-C ,  4-O ) :   0.8059 B(  3-C , 10-H ) :   0.9285
B(  3-C , 11-H ) :   0.9395 B( 12-C , 13-H ) :   0.9197 B( 12-C , 14-H ) :   0.9347
B( 12-C , 15-O ) :   0.8231 B( 12-C , 16-C ) :   0.8923 B( 16-C , 17-C ) :   0.8815
B( 16-C , 20-O ) :   0.8321 B( 16-C , 21-H ) :   0.9330 B( 17-C , 18-C ) :   0.9206
B( 17-C , 22-H ) :   0.9353 B( 17-C , 23-O ) :   0.9364 B( 18-C , 19-C ) :   0.9413
B( 18-C , 24-H ) :   0.9428 B( 18-C , 25-H ) :   0.9353 B( 19-C , 20-O ) :   0.8386
B( 19-C , 26-H ) :   0.9340 B( 19-C , 27-H ) :   0.9388 B( 23-O , 28-H ) :   0.7281

FINAL SINGLE POINT ENERGY      -652.860993433016

DIPOLE MOMENT
-------------
                                X             Y             Z
Electronic contribution:     -3.34217      -3.41982      -2.67535
Nuclear contribution   :      4.57394       4.60823       3.28611
                        -----------------------------------------
Total Dipole Moment    :      1.23177       1.18842       0.61077
                        -----------------------------------------
Magnitude (a.u.)       :      1.81731
Magnitude (Debye)      :      4.61924

Rotational constants in cm-1:     0.047607     0.017332     0.017121
Rotational constants in MHz :  1427.233972   519.597997   513.260895

                             ****ORCA TERMINATED NORMALLY****
TOTAL RUN TIME: 0 days 2 hours 0 minutes 7 seconds 626 msec
