                         Program Version 4.2.0 -  RELEASE  -
|  1> # Test redundant internal optimization
|  2> #
|  3> ! RKS B3LYP  Opt TightSCF SmallPrint
|  4>
|  5> %basis
|  6>         Basis "6-31G"
|  7> end
|  8>
|  9> %geom
| 10> Constraints
| 11> { D 4  0  15  12  180.0   C } # D for Dihedral angle
| 12> { D 0  15  12  16  255.0   C } # D for Dihedral angle
| 13> { D 0  4  3  2   C } # D for Dihedral angle
| 14> { D 4  3  2  1   C } # D for Dihedral angle
| 15> { D 3  2  1  0   C } # D for Dihedral angle
| 16> { D 2  1  0  4   C } # D for Dihedral angle
| 17> { D 1  0  4  3   C } # D for Dihedral angle
| 18> { D 16  20  19  18   C } # D for Dihedral angle
| 19> { D 20  19  18  17   C } # D for Dihedral angle
| 20> { D 19  18  17  16   C } # D for Dihedral angle
| 21> { D 18  17  16  20   C } # D for Dihedral angle
| 22> { D 17  16  20  19   C } # D for Dihedral angle
| 23> { D 15  12  16  20   C } # D for Dihedral angle
| 24> end
| 25> end
| 26>
| 27>
| 28> #%pal
| 29> #nprocs 8
| 30> #end
| 31>
| 32> * xyz 0 1
| 33> C  -21.048   26.222   46.251
| 34> C  -20.361   27.558   45.944
| 35> C  -20.329   28.222   47.341
| 36> C  -20.110   27.022   48.296
| 37> O  -20.473   25.807   47.535
| 38> H  -20.833   25.428   45.533
| 39> H  -19.344   27.382   45.576
| 40> H  -20.898   28.157   45.201
| 41> H  -19.543   28.978   47.434
| 42> H  -21.289   28.710   47.548
| 43> H  -20.733   27.082   49.195
| 44> H  -19.064   26.913   48.597
| 45> C  -23.309   26.834   45.072
| 46> H  -22.638   26.681   44.217
| 47> H  -24.212   26.230   44.912
| 48> O  -22.586   26.394   46.375
| 49> C  -23.736   28.327   45.097
| 50> C  -22.517   29.254   45.149
| 51> C  -22.058   29.251   43.671
| 52> C  -23.392   29.167   42.888
| 53> O  -24.412   28.688   43.846
| 54> H  -24.455   28.480   45.904
| 55> O  -22.950   30.681   45.585
| 56> H  -21.739   28.906   45.836
| 57> H  -21.474   30.138   43.406
| 58> H  -21.436   28.369   43.472
| 59> H  -23.340   28.472   42.043
| 60> H  -23.725   30.142   42.524
| 61> H  -23.730   31.052   44.909
| 62> *
| 63>
| 64>                          ****END OF INPUT****
 Total Charge           Charge          ....    0
 Multiplicity           Mult            ....    1
 Number of Electrons    NEL             ....  102
FINAL SINGLE POINT ENERGY      -652.791998421201
FINAL SINGLE POINT ENERGY      -652.828614991230
FINAL SINGLE POINT ENERGY      -652.845792915127
FINAL SINGLE POINT ENERGY      -652.848647047486
FINAL SINGLE POINT ENERGY      -652.849225885798
FINAL SINGLE POINT ENERGY      -652.849305009577
FINAL SINGLE POINT ENERGY      -652.849311496518
                    ***********************HURRAY********************

CARTESIAN COORDINATES (ANGSTROEM)
---------------------------------
  C    -21.031856   26.189257   46.260252
  C    -20.127713   27.394875   46.004260
  C    -20.134597   28.108971   47.383735
  C    -20.196123   26.921259   48.367976
  O    -20.662172   25.762316   47.573786
  H    -20.854669   25.349941   45.578470
  H    -19.122495   27.021010   45.776571
  H    -20.441670   28.026519   45.174483
  H    -19.249622   28.733794   47.535203
  H    -21.022023   28.738403   47.492883
  H    -20.894259   27.082527   49.192996
  H    -19.214889   26.652254   48.769857
  C    -23.221508   26.908060   45.147759
  H    -22.674029   26.668302   44.221962
  H    -24.139805   26.315618   45.138426
  O    -22.468565   26.449835   46.307788
  C    -23.659640   28.388594   45.091029
  C    -22.620283   29.520726   45.056167
  C    -22.162863   29.488247   43.569021
  C    -23.466835   29.110590   42.820104
  O    -24.384455   28.534000   43.823518
  H    -24.376332   28.581536   45.895429
  O    -23.256128   30.788042   45.384681
  H    -21.813719   29.417990   45.772062
  H    -21.763955   30.459135   43.265892
  H    -21.385575   28.731671   43.414906
  H    -23.301532   28.377459   42.024524
  H    -23.966589   29.983592   42.388994
  H    -24.120101   30.842476   44.924263

 Multiplicity           Mult            ....    1
 Number of Electrons    NEL             ....  102
 Basis Dimension        Dim             ....  149

ORBITAL ENERGIES
----------------

  NO   OCC          E(Eh)            E(eV)
   0   2.0000     -19.152101      -521.1552
   1   2.0000     -19.143246      -520.9142
   2   2.0000     -19.142611      -520.8969
   3   2.0000     -19.139549      -520.8136
   4   2.0000     -10.284153      -279.8460
   5   2.0000     -10.246199      -278.8133
   6   2.0000     -10.239122      -278.6207
   7   2.0000     -10.238809      -278.6122
   8   2.0000     -10.234670      -278.4995
   9   2.0000     -10.227611      -278.3075
  10   2.0000     -10.197242      -277.4811
  11   2.0000     -10.194027      -277.3936
  12   2.0000     -10.192337      -277.3476
  13   2.0000      -1.054591       -28.6969
  14   2.0000      -1.045319       -28.4446
  15   2.0000      -1.012468       -27.5507
  16   2.0000      -0.992953       -27.0196
  17   2.0000      -0.792589       -21.5674
  18   2.0000      -0.784339       -21.3429
  19   2.0000      -0.772882       -21.0312
  20   2.0000      -0.738748       -20.1024
  21   2.0000      -0.681043       -18.5321
  22   2.0000      -0.612053       -16.6548
  23   2.0000      -0.608418       -16.5559
  24   2.0000      -0.600822       -16.3492
  25   2.0000      -0.580529       -15.7970
  26   2.0000      -0.526882       -14.3372
  27   2.0000      -0.522989       -14.2313
  28   2.0000      -0.505636       -13.7591
  29   2.0000      -0.488689       -13.2979
  30   2.0000      -0.482099       -13.1186
  31   2.0000      -0.460518       -12.5313
  32   2.0000      -0.457761       -12.4563
  33   2.0000      -0.437213       -11.8972
  34   2.0000      -0.426183       -11.5970
  35   2.0000      -0.422285       -11.4909
  36   2.0000      -0.413836       -11.2610
  37   2.0000      -0.399040       -10.8584
  38   2.0000      -0.381711       -10.3869
  39   2.0000      -0.377368       -10.2687
  40   2.0000      -0.365221        -9.9382
  41   2.0000      -0.361150        -9.8274
  42   2.0000      -0.357792        -9.7360
  43   2.0000      -0.337511        -9.1842
  44   2.0000      -0.314981        -8.5711
  45   2.0000      -0.312207        -8.4956
  46   2.0000      -0.296368        -8.0646
  47   2.0000      -0.278857        -7.5881
  48   2.0000      -0.270020        -7.3476
  49   2.0000      -0.260367        -7.0850
  50   2.0000      -0.241818        -6.5802
  51   0.0000       0.060590         1.6487
  52   0.0000       0.067742         1.8434
  53   0.0000       0.089374         2.4320
  54   0.0000       0.094675         2.5762
  55   0.0000       0.096185         2.6173

MULLIKEN ATOMIC CHARGES
-----------------------
   0 C :    0.316479
   1 C :   -0.298007
   2 C :   -0.310630
   3 C :   -0.001152
   4 O :   -0.496925
   5 H :    0.142186
   6 H :    0.150900
   7 H :    0.144930
   8 H :    0.146498
   9 H :    0.171822
  10 H :    0.157744
  11 H :    0.143757
  12 C :   -0.005591
  13 H :    0.114520
  14 H :    0.173007
  15 O :   -0.520603
  16 C :    0.049488
  17 C :    0.075737
  18 C :   -0.304956
  19 C :   -0.030331
  20 O :   -0.523108
  21 H :    0.167858
  22 O :   -0.605496
  23 H :    0.162892
  24 H :    0.164254
  25 H :    0.147975
  26 H :    0.149719
  27 H :    0.150408
  28 H :    0.366630
Sum of atomic charges:   -0.0000000

LOEWDIN ATOMIC CHARGES
----------------------
   0 C :    0.187908
   1 C :   -0.238851
   2 C :   -0.220083
   3 C :   -0.024222
   4 O :   -0.298088
   5 H :    0.096029
   6 H :    0.119446
   7 H :    0.112270
   8 H :    0.116893
   9 H :    0.117060
  10 H :    0.110809
  11 H :    0.103155
  12 C :   -0.040156
  13 H :    0.089371
  14 H :    0.123952
  15 O :   -0.342750
  16 C :    0.008835
  17 C :    0.030963
  18 C :   -0.242941
  19 C :   -0.038629
  20 O :   -0.326716
  21 H :    0.117768
  22 O :   -0.413688
  23 H :    0.120850
  24 H :    0.127735
  25 H :    0.110219
  26 H :    0.105036
  27 H :    0.104186
  28 H :    0.283639

  Mayer bond orders larger than 0.100000
B(  0-C ,  1-C ) :   0.9229 B(  0-C ,  4-O ) :   0.9410 B(  0-C ,  5-H ) :   0.9220
B(  0-C , 15-O ) :   0.8397 B(  1-C ,  2-C ) :   0.9492 B(  1-C ,  6-H ) :   0.9312
B(  1-C ,  7-H ) :   0.9157 B(  2-C ,  3-C ) :   0.9471 B(  2-C ,  8-H ) :   0.9447
B(  2-C ,  9-H ) :   0.9294 B(  3-C ,  4-O ) :   0.8346 B(  3-C , 10-H ) :   0.9342
B(  3-C , 11-H ) :   0.9391 B( 12-C , 13-H ) :   0.9274 B( 12-C , 14-H ) :   0.9272
B( 12-C , 15-O ) :   0.8509 B( 12-C , 16-C ) :   0.8782 B( 16-C , 17-C ) :   0.9119
B( 16-C , 20-O ) :   0.8270 B( 16-C , 21-H ) :   0.9248 B( 17-C , 18-C ) :   0.9099
B( 17-C , 22-O ) :   0.8832 B( 17-C , 23-H ) :   0.9093 B( 18-C , 19-C ) :   0.9369
B( 18-C , 24-H ) :   0.9377 B( 18-C , 25-H ) :   0.9243 B( 19-C , 20-O ) :   0.8419
B( 19-C , 26-H ) :   0.9348 B( 19-C , 27-H ) :   0.9371 B( 22-O , 28-H ) :   0.7924

FINAL SINGLE POINT ENERGY      -652.849310432648

DIPOLE MOMENT
-------------
                                X             Y             Z
Electronic contribution:     -4.43267      -2.50363       1.80100
Nuclear contribution   :      5.32048       3.11756      -2.80128
                        -----------------------------------------
Total Dipole Moment    :      0.88781       0.61393      -1.00028
                        -----------------------------------------
Magnitude (a.u.)       :      1.47162
Magnitude (Debye)      :      3.74057

Rotational constants in cm-1:     0.049915     0.015473     0.013939
Rotational constants in MHz :  1496.422664   463.864209   417.880460

                             ****ORCA TERMINATED NORMALLY****
TOTAL RUN TIME: 0 days 1 hours 24 minutes 18 seconds 661 msec
