                         Program Version 4.2.0 -  RELEASE  -
|  1> # Test redundant internal optimization
|  2> #
|  3> ! RKS B3LYP  Opt TightSCF SmallPrint
|  4>
|  5> %basis
|  6>         Basis "6-31G"
|  7> end
|  8>
|  9> %geom
| 10> Constraints
| 11> { D 4  0  15  12  135.0   C } # D for Dihedral angle
| 12> { D 0  15  12  16  180.0   C } # D for Dihedral angle
| 13> { D 0  4  3  2   C } # D for Dihedral angle
| 14> { D 4  3  2  1   C } # D for Dihedral angle
| 15> { D 3  2  1  0   C } # D for Dihedral angle
| 16> { D 2  1  0  4   C } # D for Dihedral angle
| 17> { D 1  0  4  3   C } # D for Dihedral angle
| 18> { D 16  20  19  18   C } # D for Dihedral angle
| 19> { D 20  19  18  17   C } # D for Dihedral angle
| 20> { D 19  18  17  16   C } # D for Dihedral angle
| 21> { D 18  17  16  20   C } # D for Dihedral angle
| 22> { D 17  16  20  19   C } # D for Dihedral angle
| 23> { D 15  12  16  20   C } # D for Dihedral angle
| 24> end
| 25> end
| 26>
| 27>
| 28> #%pal
| 29> #nprocs 8
| 30> #end
| 31>
| 32> * xyz 0 1
| 33> C  -21.048   26.222   46.251
| 34> C  -20.361   27.558   45.944
| 35> C  -20.329   28.222   47.341
| 36> C  -20.110   27.022   48.296
| 37> O  -20.473   25.807   47.535
| 38> H  -20.833   25.428   45.533
| 39> H  -19.344   27.382   45.576
| 40> H  -20.898   28.157   45.201
| 41> H  -19.543   28.978   47.434
| 42> H  -21.289   28.710   47.548
| 43> H  -20.733   27.082   49.195
| 44> H  -19.064   26.913   48.597
| 45> C  -23.162   27.680   45.721
| 46> H  -22.701   28.560   46.186
| 47> H  -22.933   27.700   44.647
| 48> O  -22.586   26.394   46.375
| 49> C  -24.703   27.795   45.878
| 50> C  -25.250   29.012   45.123
| 51> C  -25.283   28.489   43.667
| 52> C  -25.654   26.995   43.838
| 53> O  -25.370   26.650   45.248
| 54> H  -24.958   27.770   46.939
| 55> O  -26.684   29.346   45.618
| 56> H  -24.627   29.905   45.239
| 57> H  -26.000   29.027   43.038
| 58> H  -24.292   28.591   43.208
| 59> H  -25.067   26.339   43.184
| 60> H  -26.717   26.806   43.668
| 61> H  -27.325   28.464   45.510
| 62> *
| 63>
| 64>                          ****END OF INPUT****
 Total Charge           Charge          ....    0
 Multiplicity           Mult            ....    1
 Number of Electrons    NEL             ....  102
FINAL SINGLE POINT ENERGY      -652.821675500405
FINAL SINGLE POINT ENERGY      -652.845482254719
FINAL SINGLE POINT ENERGY      -652.850025134708
FINAL SINGLE POINT ENERGY      -652.851409887098
FINAL SINGLE POINT ENERGY      -652.851556621550
FINAL SINGLE POINT ENERGY      -652.851582849009
                    ***********************HURRAY********************

CARTESIAN COORDINATES (ANGSTROEM)
---------------------------------
  C    -21.141860   26.318759   46.250418
  C    -20.212088   27.504501   45.980818
  C    -20.193641   28.222931   47.357805
  C    -20.273712   27.041717   48.351736
  O    -20.770923   25.885075   47.570536
  H    -20.986970   25.458788   45.594983
  H    -19.217716   27.113743   45.739460
  H    -20.527830   28.150081   45.157155
  H    -19.291830   28.826122   47.499710
  H    -21.060522   28.883593   47.463497
  H    -20.957422   27.226691   49.184417
  H    -19.293941   26.757140   48.746171
  C    -23.088763   27.804594   45.602396
  H    -22.701789   28.718976   46.075742
  H    -22.823271   27.832107   44.535270
  O    -22.570746   26.608457   46.230677
  C    -24.606302   27.774384   45.773771
  C    -25.332494   28.961573   45.125305
  C    -25.451176   28.492820   43.650802
  C    -25.664012   26.964938   43.787009
  O    -25.218403   26.598641   45.153122
  H    -24.828848   27.705050   46.842658
  O    -26.637551   29.161683   45.733597
  H    -24.814831   29.916043   45.234014
  H    -26.280839   28.999190   43.151257
  H    -24.528722   28.720797   43.104361
  H    -25.087113   26.389249   43.057212
  H    -26.716710   26.678653   43.702388
  H    -27.056973   28.287706   45.881712

 Multiplicity           Mult            ....    1
 Number of Electrons    NEL             ....  102
 Basis Dimension        Dim             ....  149

ORBITAL ENERGIES
----------------

  NO   OCC          E(Eh)            E(eV)
   0   2.0000     -19.139967      -520.8250
   1   2.0000     -19.139704      -520.8178
   2   2.0000     -19.138451      -520.7837
   3   2.0000     -19.137557      -520.7594
   4   2.0000     -10.279116      -279.7090
   5   2.0000     -10.244810      -278.7755
   6   2.0000     -10.237192      -278.5682
   7   2.0000     -10.234905      -278.5059
   8   2.0000     -10.229753      -278.3657
   9   2.0000     -10.227001      -278.2908
  10   2.0000     -10.195147      -277.4241
  11   2.0000     -10.194833      -277.4155
  12   2.0000     -10.191209      -277.3169
  13   2.0000      -1.051154       -28.6034
  14   2.0000      -1.036535       -28.2056
  15   2.0000      -1.006966       -27.4009
  16   2.0000      -0.992120       -26.9970
  17   2.0000      -0.791453       -21.5365
  18   2.0000      -0.786606       -21.4046
  19   2.0000      -0.770697       -20.9717
  20   2.0000      -0.733664       -19.9640
  21   2.0000      -0.679848       -18.4996
  22   2.0000      -0.607411       -16.5285
  23   2.0000      -0.604904       -16.4603
  24   2.0000      -0.595539       -16.2054
  25   2.0000      -0.578360       -15.7380
  26   2.0000      -0.526526       -14.3275
  27   2.0000      -0.513105       -13.9623
  28   2.0000      -0.499686       -13.5972
  29   2.0000      -0.493785       -13.4366
  30   2.0000      -0.477785       -13.0012
  31   2.0000      -0.462635       -12.5889
  32   2.0000      -0.448816       -12.2129
  33   2.0000      -0.446898       -12.1607
  34   2.0000      -0.425875       -11.5887
  35   2.0000      -0.416216       -11.3258
  36   2.0000      -0.402169       -10.9436
  37   2.0000      -0.394379       -10.7316
  38   2.0000      -0.382816       -10.4170
  39   2.0000      -0.373702       -10.1689
  40   2.0000      -0.367533       -10.0011
  41   2.0000      -0.360375        -9.8063
  42   2.0000      -0.353393        -9.6163
  43   2.0000      -0.333212        -9.0672
  44   2.0000      -0.313602        -8.5335
  45   2.0000      -0.306776        -8.3478
  46   2.0000      -0.293457        -7.9854
  47   2.0000      -0.272714        -7.4209
  48   2.0000      -0.264298        -7.1919
  49   2.0000      -0.248665        -6.7665
  50   2.0000      -0.244371        -6.6497
  51   0.0000       0.062298         1.6952
  52   0.0000       0.076526         2.0824
  53   0.0000       0.082177         2.2362
  54   0.0000       0.097616         2.6563
  55   0.0000       0.102414         2.7868

MULLIKEN ATOMIC CHARGES
-----------------------
   0 C :    0.319568
   1 C :   -0.299300
   2 C :   -0.307161
   3 C :   -0.000958
   4 O :   -0.493917
   5 H :    0.156079
   6 H :    0.154993
   7 H :    0.142834
   8 H :    0.146207
   9 H :    0.152627
  10 H :    0.152244
  11 H :    0.144341
  12 C :    0.006481
  13 H :    0.117483
  14 H :    0.123580
  15 O :   -0.513596
  16 C :    0.065846
  17 C :    0.075483
  18 C :   -0.295322
  19 C :   -0.028285
  20 O :   -0.503886
  21 H :    0.173363
  22 O :   -0.602504
  23 H :    0.148254
  24 H :    0.164622
  25 H :    0.139127
  26 H :    0.148599
  27 H :    0.145639
  28 H :    0.367559
Sum of atomic charges:   -0.0000000

LOEWDIN ATOMIC CHARGES
----------------------
   0 C :    0.184095
   1 C :   -0.233366
   2 C :   -0.219393
   3 C :   -0.028302
   4 O :   -0.306825
   5 H :    0.105222
   6 H :    0.121935
   7 H :    0.113637
   8 H :    0.116335
   9 H :    0.109731
  10 H :    0.107846
  11 H :    0.103816
  12 C :   -0.040339
  13 H :    0.089103
  14 H :    0.088470
  15 O :   -0.322885
  16 C :    0.019406
  17 C :    0.034911
  18 C :   -0.241722
  19 C :   -0.038249
  20 O :   -0.315770
  21 H :    0.123151
  22 O :   -0.414269
  23 H :    0.113169
  24 H :    0.127211
  25 H :    0.110220
  26 H :    0.105344
  27 H :    0.102645
  28 H :    0.284871

  Mayer bond orders larger than 0.100000
B(  0-C ,  1-C ) :   0.9300 B(  0-C ,  4-O ) :   0.9260 B(  0-C ,  5-H ) :   0.9275
B(  0-C , 15-O ) :   0.8547 B(  1-C ,  2-C ) :   0.9507 B(  1-C ,  6-H ) :   0.9343
B(  1-C ,  7-H ) :   0.9290 B(  2-C ,  3-C ) :   0.9508 B(  2-C ,  8-H ) :   0.9454
B(  2-C ,  9-H ) :   0.9402 B(  3-C ,  4-O ) :   0.8433 B(  3-C , 10-H ) :   0.9340
B(  3-C , 11-H ) :   0.9393 B( 12-C , 13-H ) :   0.8962 B( 12-C , 14-H ) :   0.9140
B( 12-C , 15-O ) :   0.8543 B( 12-C , 16-C ) :   0.8946 B( 16-C , 17-C ) :   0.8997
B( 16-C , 20-O ) :   0.8710 B( 16-C , 21-H ) :   0.9223 B( 17-C , 18-C ) :   0.9110
B( 17-C , 22-O ) :   0.8943 B( 17-C , 23-H ) :   0.9334 B( 18-C , 19-C ) :   0.9396
B( 18-C , 24-H ) :   0.9369 B( 18-C , 25-H ) :   0.9346 B( 19-C , 20-O ) :   0.8540
B( 19-C , 26-H ) :   0.9338 B( 19-C , 27-H ) :   0.9381 B( 22-O , 28-H ) :   0.7924

FINAL SINGLE POINT ENERGY      -652.851585435724

DIPOLE MOMENT
-------------
                                X             Y             Z
Electronic contribution:     -3.69772      -4.39310       2.20287
Nuclear contribution   :      4.61709       5.54217      -3.14546
                        -----------------------------------------
Total Dipole Moment    :      0.91936       1.14907      -0.94259
                        -----------------------------------------
Magnitude (a.u.)       :      1.74759
Magnitude (Debye)      :      4.44202

Rotational constants in cm-1:     0.060720     0.011834     0.011392
Rotational constants in MHz :  1820.328184   354.781174   341.534124

                             ****ORCA TERMINATED NORMALLY****
TOTAL RUN TIME: 0 days 0 hours 22 minutes 10 seconds 839 msec
