                         Program Version 4.2.0 -  RELEASE  -
|  1> # Test redundant internal optimization
|  2> #
|  3> ! RKS B3LYP  Opt TightSCF SmallPrint
|  4>
|  5> %basis
|  6>         Basis "6-31G"
|  7> end
|  8>
|  9> %geom
| 10> Constraints
| 11> { D 4  0  15  12  195.0   C } # D for Dihedral angle
| 12> { D 0  15  12  16  150.0   C } # D for Dihedral angle
| 13> { D 0  4  3  2   C } # D for Dihedral angle
| 14> { D 4  3  2  1   C } # D for Dihedral angle
| 15> { D 3  2  1  0   C } # D for Dihedral angle
| 16> { D 2  1  0  4   C } # D for Dihedral angle
| 17> { D 1  0  4  3   C } # D for Dihedral angle
| 18> { D 16  20  19  18   C } # D for Dihedral angle
| 19> { D 20  19  18  17   C } # D for Dihedral angle
| 20> { D 19  18  17  16   C } # D for Dihedral angle
| 21> { D 18  17  16  20   C } # D for Dihedral angle
| 22> { D 17  16  20  19   C } # D for Dihedral angle
| 23> { D 15  12  16  20   C } # D for Dihedral angle
| 24> end
| 25> end
| 26>
| 27>
| 28> #%pal
| 29> #nprocs 8
| 30> #end
| 31>
| 32> * xyz 0 1
| 33> C  -21.048   26.222   46.251
| 34> C  -20.361   27.558   45.944
| 35> C  -20.329   28.222   47.341
| 36> C  -20.110   27.022   48.296
| 37> O  -20.473   25.807   47.535
| 38> H  -20.833   25.428   45.533
| 39> H  -19.344   27.382   45.576
| 40> H  -20.898   28.157   45.201
| 41> H  -19.543   28.978   47.434
| 42> H  -21.289   28.710   47.548
| 43> H  -20.733   27.082   49.195
| 44> H  -19.064   26.913   48.597
| 45> C  -23.353   26.472   45.026
| 46> H  -23.409   27.519   44.702
| 47> H  -22.826   25.901   44.251
| 48> O  -22.586   26.394   46.375
| 49> C  -24.799   25.913   45.124
| 50> C  -24.805   24.476   45.660
| 51> C  -24.627   24.708   47.180
| 52> C  -25.411   26.020   47.430
| 53> O  -25.576   26.670   46.111
| 54> H  -25.297   26.038   44.161
| 55> O  -26.174   23.804   45.365
| 56> H  -24.014   23.852   45.230
| 57> H  -25.003   23.876   47.783
| 58> H  -23.565   24.841   47.418
| 59> H  -24.883   26.703   48.104
| 60> H  -26.414   25.838   47.826
| 61> H  -26.982   24.412   45.788
| 62> *
| 63>
| 64>                          ****END OF INPUT****
 Total Charge           Charge          ....    0
 Multiplicity           Mult            ....    1
 Number of Electrons    NEL             ....  102
FINAL SINGLE POINT ENERGY      -652.834990967766
FINAL SINGLE POINT ENERGY      -652.857872453936
FINAL SINGLE POINT ENERGY      -652.861845951649
FINAL SINGLE POINT ENERGY      -652.863011780463
FINAL SINGLE POINT ENERGY      -652.863145390063
FINAL SINGLE POINT ENERGY      -652.863165785178
                    ***********************HURRAY********************

CARTESIAN COORDINATES (ANGSTROEM)
---------------------------------
  C    -21.086734   26.232354   46.184988
  C    -20.368960   27.549106   45.897762
  C    -20.394729   28.237162   47.283666
  C    -20.241414   27.052710   48.259773
  O    -20.592898   25.838817   47.471999
  H    -20.876530   25.418919   45.481108
  H    -19.340230   27.338774   45.582086
  H    -20.853708   28.142540   45.117240
  H    -19.598642   28.978752   47.398626
  H    -21.357370   28.735734   47.430126
  H    -20.909868   27.112102   49.121714
  H    -19.212975   26.912107   48.604192
  C    -23.265557   26.482980   45.052563
  H    -23.325418   27.525347   44.714751
  H    -22.756422   25.893398   44.272911
  O    -22.526247   26.414634   46.303876
  C    -24.682761   25.942575   45.237343
  C    -24.808391   24.484222   45.704140
  C    -24.660591   24.629938   47.242672
  C    -25.356663   25.982737   47.532419
  O    -25.431788   26.702654   46.237154
  H    -25.209488   26.074682   44.283937
  O    -26.099387   23.934587   45.315682
  H    -24.070325   23.815189   45.260624
  H    -25.135720   23.789444   47.756577
  H    -23.604102   24.678048   47.509235
  H    -24.791605   26.595737   48.239007
  H    -26.384033   25.868621   47.894530
  H    -26.806447   24.554130   45.594298

 Multiplicity           Mult            ....    1
 Number of Electrons    NEL             ....  102
 Basis Dimension        Dim             ....  149

ORBITAL ENERGIES
----------------

  NO   OCC          E(Eh)            E(eV)
   0   2.0000     -19.147653      -521.0341
   1   2.0000     -19.147061      -521.0180
   2   2.0000     -19.134865      -520.6861
   3   2.0000     -19.132136      -520.6119
   4   2.0000     -10.286281      -279.9039
   5   2.0000     -10.236521      -278.5499
   6   2.0000     -10.233253      -278.4610
   7   2.0000     -10.232489      -278.4402
   8   2.0000     -10.229737      -278.3653
   9   2.0000     -10.218433      -278.0577
  10   2.0000     -10.191473      -277.3241
  11   2.0000     -10.190206      -277.2896
  12   2.0000     -10.169881      -276.7365
  13   2.0000      -1.060424       -28.8556
  14   2.0000      -1.029708       -28.0198
  15   2.0000      -1.003628       -27.3101
  16   2.0000      -0.995131       -27.0789
  17   2.0000      -0.791430       -21.5359
  18   2.0000      -0.775463       -21.1014
  19   2.0000      -0.760526       -20.6950
  20   2.0000      -0.734662       -19.9912
  21   2.0000      -0.674890       -18.3647
  22   2.0000      -0.605319       -16.4716
  23   2.0000      -0.598751       -16.2928
  24   2.0000      -0.592435       -16.1210
  25   2.0000      -0.575362       -15.6564
  26   2.0000      -0.528020       -14.3682
  27   2.0000      -0.502863       -13.6836
  28   2.0000      -0.502111       -13.6631
  29   2.0000      -0.487495       -13.2654
  30   2.0000      -0.474891       -12.9224
  31   2.0000      -0.455140       -12.3850
  32   2.0000      -0.449839       -12.2407
  33   2.0000      -0.438285       -11.9264
  34   2.0000      -0.424280       -11.5452
  35   2.0000      -0.410515       -11.1707
  36   2.0000      -0.403593       -10.9823
  37   2.0000      -0.383355       -10.4316
  38   2.0000      -0.378062       -10.2876
  39   2.0000      -0.364889        -9.9291
  40   2.0000      -0.360823        -9.8185
  41   2.0000      -0.355229        -9.6663
  42   2.0000      -0.354327        -9.6417
  43   2.0000      -0.327489        -8.9114
  44   2.0000      -0.316340        -8.6080
  45   2.0000      -0.311615        -8.4795
  46   2.0000      -0.299844        -8.1592
  47   2.0000      -0.266936        -7.2637
  48   2.0000      -0.263476        -7.1695
  49   2.0000      -0.258807        -7.0425
  50   2.0000      -0.238056        -6.4778
  51   0.0000       0.068383         1.8608
  52   0.0000       0.078960         2.1486
  53   0.0000       0.091075         2.4783
  54   0.0000       0.103410         2.8139
  55   0.0000       0.111893         3.0448

MULLIKEN ATOMIC CHARGES
-----------------------
   0 C :    0.300118
   1 C :   -0.270220
   2 C :   -0.299003
   3 C :   -0.003079
   4 O :   -0.506923
   5 H :    0.140110
   6 H :    0.146753
   7 H :    0.146751
   8 H :    0.144330
   9 H :    0.165007
  10 H :    0.154384
  11 H :    0.144352
  12 C :   -0.001096
  13 H :    0.146816
  14 H :    0.121550
  15 O :   -0.513799
  16 C :    0.069068
  17 C :    0.075816
  18 C :   -0.285765
  19 C :   -0.023664
  20 O :   -0.527436
  21 H :    0.152358
  22 O :   -0.604369
  23 H :    0.147073
  24 H :    0.143868
  25 H :    0.186975
  26 H :    0.152806
  27 H :    0.134776
  28 H :    0.362442
Sum of atomic charges:   -0.0000000

LOEWDIN ATOMIC CHARGES
----------------------
   0 C :    0.178536
   1 C :   -0.229318
   2 C :   -0.216410
   3 C :   -0.024575
   4 O :   -0.306377
   5 H :    0.095745
   6 H :    0.115124
   7 H :    0.116040
   8 H :    0.115666
   9 H :    0.120598
  10 H :    0.109540
  11 H :    0.103826
  12 C :   -0.040431
  13 H :    0.103591
  14 H :    0.094288
  15 O :   -0.331354
  16 C :    0.013996
  17 C :    0.039331
  18 C :   -0.241825
  19 C :   -0.033609
  20 O :   -0.331301
  21 H :    0.114200
  22 O :   -0.417846
  23 H :    0.113815
  24 H :    0.116578
  25 H :    0.136120
  26 H :    0.108868
  27 H :    0.095372
  28 H :    0.281813

  Mayer bond orders larger than 0.100000
B(  0-C ,  1-C ) :   0.9294 B(  0-C ,  4-O ) :   0.9357 B(  0-C ,  5-H ) :   0.9180
B(  0-C , 15-O ) :   0.8269 B(  1-C ,  2-C ) :   0.9525 B(  1-C ,  6-H ) :   0.9340
B(  1-C ,  7-H ) :   0.9355 B(  2-C ,  3-C ) :   0.9560 B(  2-C ,  8-H ) :   0.9449
B(  2-C ,  9-H ) :   0.9434 B(  3-C ,  4-O ) :   0.8314 B(  3-C , 10-H ) :   0.9348
B(  3-C , 11-H ) :   0.9396 B( 12-C , 13-H ) :   0.9167 B( 12-C , 14-H ) :   0.9069
B( 12-C , 15-O ) :   0.8423 B( 12-C , 16-C ) :   0.9074 B( 16-C , 17-C ) :   0.9067
B( 16-C , 20-O ) :   0.8758 B( 16-C , 21-H ) :   0.9217 B( 17-C , 18-C ) :   0.9229
B( 17-C , 22-O ) :   0.8911 B( 17-C , 23-H ) :   0.9365 B( 18-C , 19-C ) :   0.9475
B( 18-C , 24-H ) :   0.9376 B( 18-C , 25-H ) :   0.9139 B( 19-C , 20-O ) :   0.8362
B( 19-C , 26-H ) :   0.9343 B( 19-C , 27-H ) :   0.9372 B( 22-O , 28-H ) :   0.7961

FINAL SINGLE POINT ENERGY      -652.863165689225

DIPOLE MOMENT
-------------
                                X             Y             Z
Electronic contribution:     -3.58617      -2.71182      -1.27953
Nuclear contribution   :      4.53356       3.56933       1.17439
                        -----------------------------------------
Total Dipole Moment    :      0.94740       0.85751      -0.10514
                        -----------------------------------------
Magnitude (a.u.)       :      1.28216
Magnitude (Debye)      :      3.25899

Rotational constants in cm-1:     0.057178     0.013767     0.013387
Rotational constants in MHz :  1714.147853   412.714000   401.336534

                             ****ORCA TERMINATED NORMALLY****
TOTAL RUN TIME: 0 days 0 hours 41 minutes 54 seconds 483 msec
