                         Program Version 4.2.0 -  RELEASE  -
|  1> # Test redundant internal optimization
|  2> #
|  3> ! RKS B3LYP  Opt TightSCF SmallPrint
|  4>
|  5> %basis
|  6>         Basis "6-31G"
|  7> end
|  8>
|  9> %geom
| 10> Constraints
| 11> { D 4  0  15  12  240.0   C } # D for Dihedral angle
| 12> { D 0  15  12  16  255.0   C } # D for Dihedral angle
| 13> { D 0  4  3  2   C } # D for Dihedral angle
| 14> { D 4  3  2  1   C } # D for Dihedral angle
| 15> { D 3  2  1  0   C } # D for Dihedral angle
| 16> { D 2  1  0  4   C } # D for Dihedral angle
| 17> { D 1  0  4  3   C } # D for Dihedral angle
| 18> { D 16  20  19  18   C } # D for Dihedral angle
| 19> { D 20  19  18  17   C } # D for Dihedral angle
| 20> { D 19  18  17  16   C } # D for Dihedral angle
| 21> { D 18  17  16  20   C } # D for Dihedral angle
| 22> { D 17  16  20  19   C } # D for Dihedral angle
| 23> { D 15  12  16  20   C } # D for Dihedral angle
| 24> end
| 25> end
| 26>
| 27>
| 28> #%pal
| 29> #nprocs 8
| 30> #end
| 31>
| 32> * xyz 0 1
| 33> C  -21.048   26.222   46.251
| 34> C  -20.361   27.558   45.944
| 35> C  -20.329   28.222   47.341
| 36> C  -20.110   27.022   48.296
| 37> O  -20.473   25.807   47.535
| 38> H  -20.833   25.428   45.533
| 39> H  -19.344   27.382   45.576
| 40> H  -20.898   28.157   45.201
| 41> H  -19.543   28.978   47.434
| 42> H  -21.289   28.710   47.548
| 43> H  -20.733   27.082   49.195
| 44> H  -19.064   26.913   48.597
| 45> C  -23.430   25.483   45.442
| 46> H  -22.795   24.678   45.051
| 47> H  -24.259   25.026   45.998
| 48> O  -22.586   26.394   46.375
| 49> C  -24.037   26.254   44.238
| 50> C  -22.941   26.785   43.307
| 51> C  -22.569   25.516   42.504
| 52> C  -23.925   24.779   42.363
| 53> O  -24.822   25.348   43.392
| 54> H  -24.723   27.017   44.611
| 55> O  -23.523   27.877   42.368
| 56> H  -22.089   27.213   43.845
| 57> H  -22.116   25.744   41.535
| 58> H  -21.856   24.907   43.073
| 59> H  -23.835   23.700   42.524
| 60> H  -24.396   24.954   41.392
| 61> H  -24.380   27.471   41.817
| 62> *
| 63>
| 64>                          ****END OF INPUT****
 Total Charge           Charge          ....    0
 Multiplicity           Mult            ....    1
 Number of Electrons    NEL             ....  102
FINAL SINGLE POINT ENERGY      -652.833982828792
FINAL SINGLE POINT ENERGY      -652.856057329805
FINAL SINGLE POINT ENERGY      -652.860058082034
FINAL SINGLE POINT ENERGY      -652.860708462737
FINAL SINGLE POINT ENERGY      -652.860787812673
FINAL SINGLE POINT ENERGY      -652.860798918997
                    ***********************HURRAY********************

CARTESIAN COORDINATES (ANGSTROEM)
---------------------------------
  C    -21.027385   26.177523   46.225534
  C    -20.356144   27.522347   45.943256
  C    -20.410379   28.207816   47.332786
  C    -20.216021   27.021848   48.303435
  O    -20.518973   25.800917   47.518320
  H    -20.779634   25.366182   45.533465
  H    -19.317469   27.351648   45.635194
  H    -20.863174   28.100322   45.169402
  H    -19.642872   28.977908   47.452959
  H    -21.392730   28.667599   47.475273
  H    -20.886813   27.057965   49.165362
  H    -19.183410   26.923015   48.651599
  C    -23.325307   25.530283   45.457227
  H    -22.776220   24.641267   45.112940
  H    -24.152015   25.187151   46.084574
  O    -22.466152   26.354181   46.293053
  C    -23.911661   26.283492   44.254606
  C    -22.909366   26.806600   43.214296
  C    -22.585616   25.518282   42.410705
  C    -23.937272   24.759817   42.411246
  O    -24.750870   25.343674   43.502929
  H    -24.559256   27.092661   44.603966
  O    -23.522489   27.824335   42.375139
  H    -22.031838   27.282288   43.644179
  H    -22.236634   25.766301   41.405718
  H    -21.802162   24.939606   42.913204
  H    -23.822700   23.685686   42.588276
  H    -24.497016   24.901428   41.481367
  H    -24.425423   27.534857   42.125992

 Multiplicity           Mult            ....    1
 Number of Electrons    NEL             ....  102
 Basis Dimension        Dim             ....  149

ORBITAL ENERGIES
----------------

  NO   OCC          E(Eh)            E(eV)
   0   2.0000     -19.149646      -521.0884
   1   2.0000     -19.144175      -520.9395
   2   2.0000     -19.141608      -520.8696
   3   2.0000     -19.139311      -520.8071
   4   2.0000     -10.283787      -279.8361
   5   2.0000     -10.244070      -278.7553
   6   2.0000     -10.236801      -278.5575
   7   2.0000     -10.236064      -278.5375
   8   2.0000     -10.233874      -278.4779
   9   2.0000     -10.224322      -278.2179
  10   2.0000     -10.194443      -277.4049
  11   2.0000     -10.187526      -277.2167
  12   2.0000     -10.185776      -277.1691
  13   2.0000      -1.053928       -28.6788
  14   2.0000      -1.041627       -28.3441
  15   2.0000      -1.010339       -27.4927
  16   2.0000      -0.996175       -27.1073
  17   2.0000      -0.788218       -21.4485
  18   2.0000      -0.783563       -21.3218
  19   2.0000      -0.770085       -20.9551
  20   2.0000      -0.734533       -19.9877
  21   2.0000      -0.677712       -18.4415
  22   2.0000      -0.609491       -16.5851
  23   2.0000      -0.599351       -16.3092
  24   2.0000      -0.597678       -16.2636
  25   2.0000      -0.587015       -15.9735
  26   2.0000      -0.526177       -14.3180
  27   2.0000      -0.521172       -14.1818
  28   2.0000      -0.500121       -13.6090
  29   2.0000      -0.490011       -13.3339
  30   2.0000      -0.474871       -12.9219
  31   2.0000      -0.459643       -12.5075
  32   2.0000      -0.450578       -12.2608
  33   2.0000      -0.441786       -12.0216
  34   2.0000      -0.426305       -11.6003
  35   2.0000      -0.420206       -11.4344
  36   2.0000      -0.405293       -11.0286
  37   2.0000      -0.396803       -10.7976
  38   2.0000      -0.378478       -10.2989
  39   2.0000      -0.374432       -10.1888
  40   2.0000      -0.360306        -9.8044
  41   2.0000      -0.355181        -9.6650
  42   2.0000      -0.352095        -9.5810
  43   2.0000      -0.336021        -9.1436
  44   2.0000      -0.317499        -8.6396
  45   2.0000      -0.311631        -8.4799
  46   2.0000      -0.306697        -8.3456
  47   2.0000      -0.276673        -7.5286
  48   2.0000      -0.271273        -7.3817
  49   2.0000      -0.258680        -7.0390
  50   2.0000      -0.240035        -6.5317
  51   0.0000       0.060791         1.6542
  52   0.0000       0.063142         1.7182
  53   0.0000       0.087665         2.3855
  54   0.0000       0.092166         2.5080
  55   0.0000       0.100117         2.7243

MULLIKEN ATOMIC CHARGES
-----------------------
   0 C :    0.286912
   1 C :   -0.267674
   2 C :   -0.301657
   3 C :   -0.000196
   4 O :   -0.502096
   5 H :    0.137830
   6 H :    0.144071
   7 H :    0.159507
   8 H :    0.142620
   9 H :    0.166030
  10 H :    0.153251
  11 H :    0.140567
  12 C :   -0.011549
  13 H :    0.124681
  14 H :    0.169517
  15 O :   -0.519217
  16 C :    0.058814
  17 C :    0.080514
  18 C :   -0.299754
  19 C :   -0.032858
  20 O :   -0.523948
  21 H :    0.167266
  22 O :   -0.603116
  23 H :    0.157986
  24 H :    0.164591
  25 H :    0.140965
  26 H :    0.151826
  27 H :    0.149224
  28 H :    0.365893
Sum of atomic charges:   -0.0000000

LOEWDIN ATOMIC CHARGES
----------------------
   0 C :    0.175167
   1 C :   -0.224363
   2 C :   -0.215908
   3 C :   -0.026031
   4 O :   -0.314454
   5 H :    0.095274
   6 H :    0.113374
   7 H :    0.118217
   8 H :    0.114596
   9 H :    0.120972
  10 H :    0.108675
  11 H :    0.101754
  12 C :   -0.035398
  13 H :    0.094214
  14 H :    0.120965
  15 O :   -0.332724
  16 C :    0.008248
  17 C :    0.034737
  18 C :   -0.241661
  19 C :   -0.039493
  20 O :   -0.328667
  21 H :    0.118677
  22 O :   -0.414547
  23 H :    0.116624
  24 H :    0.127839
  25 H :    0.110451
  26 H :    0.105979
  27 H :    0.103965
  28 H :    0.283517

  Mayer bond orders larger than 0.100000
B(  0-C ,  1-C ) :   0.9396 B(  0-C ,  4-O ) :   0.9327 B(  0-C ,  5-H ) :   0.9169
B(  0-C , 15-O ) :   0.8393 B(  1-C ,  2-C ) :   0.9537 B(  1-C ,  6-H ) :   0.9363
B(  1-C ,  7-H ) :   0.9255 B(  2-C ,  3-C ) :   0.9541 B(  2-C ,  8-H ) :   0.9449
B(  2-C ,  9-H ) :   0.9432 B(  3-C ,  4-O ) :   0.8359 B(  3-C , 10-H ) :   0.9347
B(  3-C , 11-H ) :   0.9398 B( 12-C , 13-H ) :   0.9234 B( 12-C , 14-H ) :   0.9300
B( 12-C , 15-O ) :   0.8452 B( 12-C , 16-C ) :   0.8842 B( 16-C , 17-C ) :   0.9111
B( 16-C , 20-O ) :   0.8339 B( 16-C , 21-H ) :   0.9256 B( 17-C , 18-C ) :   0.9110
B( 17-C , 22-O ) :   0.8955 B( 17-C , 23-H ) :   0.9179 B( 18-C , 19-C ) :   0.9411
B( 18-C , 24-H ) :   0.9375 B( 18-C , 25-H ) :   0.9341 B( 19-C , 20-O ) :   0.8422
B( 19-C , 26-H ) :   0.9341 B( 19-C , 27-H ) :   0.9375 B( 22-O , 28-H ) :   0.7937

FINAL SINGLE POINT ENERGY      -652.860800163721

DIPOLE MOMENT
-------------
                                X             Y             Z
Electronic contribution:     -3.86371      -1.11498       0.45018
Nuclear contribution   :      4.46216       1.05387      -0.95886
                        -----------------------------------------
Total Dipole Moment    :      0.59845      -0.06111      -0.50869
                        -----------------------------------------
Magnitude (a.u.)       :      0.78780
Magnitude (Debye)      :      2.00244

Rotational constants in cm-1:     0.056865     0.013265     0.012260
Rotational constants in MHz :  1704.755637   397.667831   367.550291

                             ****ORCA TERMINATED NORMALLY****
TOTAL RUN TIME: 0 days 0 hours 28 minutes 52 seconds 840 msec
