                         Program Version 4.2.0 -  RELEASE  -
|  1> # Test redundant internal optimization
|  2> #
|  3> ! RKS B3LYP  Opt TightSCF SmallPrint
|  4>
|  5> %basis
|  6>         Basis "6-31G"
|  7> end
|  8>
|  9> %geom
| 10> Constraints
| 11> { D 4  0  15  12  270.0   C } # D for Dihedral angle
| 12> { D 0  15  12  16  195.0   C } # D for Dihedral angle
| 13> { D 0  4  3  2   C } # D for Dihedral angle
| 14> { D 4  3  2  1   C } # D for Dihedral angle
| 15> { D 3  2  1  0   C } # D for Dihedral angle
| 16> { D 2  1  0  4   C } # D for Dihedral angle
| 17> { D 1  0  4  3   C } # D for Dihedral angle
| 18> { D 16  20  19  18   C } # D for Dihedral angle
| 19> { D 20  19  18  17   C } # D for Dihedral angle
| 20> { D 19  18  17  16   C } # D for Dihedral angle
| 21> { D 18  17  16  20   C } # D for Dihedral angle
| 22> { D 17  16  20  19   C } # D for Dihedral angle
| 23> { D 15  12  16  20   C } # D for Dihedral angle
| 24> end
| 25> end
| 26>
| 27>
| 28> #%pal
| 29> #nprocs 8
| 30> #end
| 31>
| 32> * xyz 0 1
| 33> C  -21.048   26.222   46.251
| 34> C  -20.361   27.558   45.944
| 35> C  -20.329   28.222   47.341
| 36> C  -20.110   27.022   48.296
| 37> O  -20.473   25.807   47.535
| 38> H  -20.833   25.428   45.533
| 39> H  -19.344   27.382   45.576
| 40> H  -20.898   28.157   45.201
| 41> H  -19.543   28.978   47.434
| 42> H  -21.289   28.710   47.548
| 43> H  -20.733   27.082   49.195
| 44> H  -19.064   26.913   48.597
| 45> C  -23.420   25.119   46.072
| 46> H  -23.027   24.636   45.169
| 47> H  -23.345   24.405   46.903
| 48> O  -22.586   26.394   46.375
| 49> C  -24.926   25.426   45.846
| 50> C  -25.736   24.137   45.666
| 51> C  -25.894   23.658   47.129
| 52> C  -26.025   24.984   47.920
| 53> O  -25.506   26.052   47.039
| 54> H  -25.027   26.141   45.028
| 55> H  -26.713   24.364   45.226
| 56> O  -25.024   23.091   44.764
| 57> H  -26.758   23.001   47.269
| 58> H  -25.000   23.108   47.444
| 59> H  -25.449   24.975   48.852
| 60> H  -27.066   25.232   48.149
| 61> H  -24.043   22.846   45.185
| 62> *
| 63>
| 64>                          ****END OF INPUT****
 Total Charge           Charge          ....    0
 Multiplicity           Mult            ....    1
 Number of Electrons    NEL             ....  102
FINAL SINGLE POINT ENERGY      -652.829456091309
FINAL SINGLE POINT ENERGY      -652.854352264707
FINAL SINGLE POINT ENERGY      -652.859262811205
FINAL SINGLE POINT ENERGY      -652.860157245387
FINAL SINGLE POINT ENERGY      -652.860316097563
FINAL SINGLE POINT ENERGY      -652.860346043292
FINAL SINGLE POINT ENERGY      -652.860351469023
FINAL SINGLE POINT ENERGY      -652.860352038459
                    ***********************HURRAY********************

CARTESIAN COORDINATES (ANGSTROEM)
---------------------------------
  C    -21.050508   26.153608   46.224406
  C    -20.516896   27.558739   45.942236
  C    -20.532492   28.193287   47.352924
  C    -20.171551   27.005294   48.272540
  O    -20.421254   25.779995   47.473663
  H    -20.781780   25.383280   45.494361
  H    -19.493955   27.487150   45.554569
  H    -21.136922   28.094204   45.220761
  H    -19.826698   29.023856   47.449736
  H    -21.537867   28.560962   47.576543
  H    -20.782380   26.965743   49.177861
  H    -19.112826   26.987764   48.549221
  C    -23.232750   25.043717   46.094794
  H    -22.871162   24.562639   45.173200
  H    -23.096768   24.343009   46.931712
  O    -22.482407   26.257367   46.353986
  C    -24.698634   25.421734   45.909259
  C    -25.619990   24.214096   45.669616
  C    -25.893664   23.725916   47.123619
  C    -25.934782   25.046914   47.923060
  O    -25.273072   26.075334   47.080200
  H    -24.758172   26.156604   45.100867
  H    -26.545650   24.553085   45.199678
  O    -25.100245   23.203386   44.770693
  H    -26.820968   23.151834   47.199565
  H    -25.067691   23.082507   47.455577
  H    -25.412437   24.981906   48.882264
  H    -26.957923   25.390462   48.101688
  H    -24.438558   22.645607   45.228400

 Multiplicity           Mult            ....    1
 Number of Electrons    NEL             ....  102
 Basis Dimension        Dim             ....  149

ORBITAL ENERGIES
----------------

  NO   OCC          E(Eh)            E(eV)
   0   2.0000     -19.150561      -521.1133
   1   2.0000     -19.140152      -520.8300
   2   2.0000     -19.135342      -520.6991
   3   2.0000     -19.133703      -520.6545
   4   2.0000     -10.274750      -279.5902
   5   2.0000     -10.245211      -278.7864
   6   2.0000     -10.229870      -278.3689
   7   2.0000     -10.229360      -278.3550
   8   2.0000     -10.228903      -278.3426
   9   2.0000     -10.219420      -278.0846
  10   2.0000     -10.195817      -277.4423
  11   2.0000     -10.179864      -277.0082
  12   2.0000     -10.178780      -276.9787
  13   2.0000      -1.050528       -28.5863
  14   2.0000      -1.033373       -28.1195
  15   2.0000      -1.014726       -27.6121
  16   2.0000      -0.990774       -26.9603
  17   2.0000      -0.785375       -21.3711
  18   2.0000      -0.780456       -21.2373
  19   2.0000      -0.765353       -20.8263
  20   2.0000      -0.726439       -19.7674
  21   2.0000      -0.677869       -18.4458
  22   2.0000      -0.611647       -16.6438
  23   2.0000      -0.593193       -16.1416
  24   2.0000      -0.586460       -15.9584
  25   2.0000      -0.577841       -15.7239
  26   2.0000      -0.530590       -14.4381
  27   2.0000      -0.510194       -13.8831
  28   2.0000      -0.494934       -13.4678
  29   2.0000      -0.485799       -13.2193
  30   2.0000      -0.468010       -12.7352
  31   2.0000      -0.456081       -12.4106
  32   2.0000      -0.440818       -11.9953
  33   2.0000      -0.436148       -11.8682
  34   2.0000      -0.426775       -11.6131
  35   2.0000      -0.414924       -11.2907
  36   2.0000      -0.402462       -10.9515
  37   2.0000      -0.396173       -10.7804
  38   2.0000      -0.376453       -10.2438
  39   2.0000      -0.370032       -10.0691
  40   2.0000      -0.354069        -9.6347
  41   2.0000      -0.350288        -9.5318
  42   2.0000      -0.342301        -9.3145
  43   2.0000      -0.329523        -8.9668
  44   2.0000      -0.318600        -8.6695
  45   2.0000      -0.315763        -8.5923
  46   2.0000      -0.297969        -8.1082
  47   2.0000      -0.271900        -7.3988
  48   2.0000      -0.263146        -7.1606
  49   2.0000      -0.248139        -6.7522
  50   2.0000      -0.238534        -6.4909
  51   0.0000       0.050491         1.3739
  52   0.0000       0.078947         2.1482
  53   0.0000       0.089665         2.4399
  54   0.0000       0.096766         2.6331
  55   0.0000       0.102720         2.7951

MULLIKEN ATOMIC CHARGES
-----------------------
   0 C :    0.284040
   1 C :   -0.256654
   2 C :   -0.299492
   3 C :   -0.000311
   4 O :   -0.512152
   5 H :    0.135391
   6 H :    0.141494
   7 H :    0.154496
   8 H :    0.137738
   9 H :    0.171173
  10 H :    0.148430
  11 H :    0.138711
  12 C :   -0.003237
  13 H :    0.127641
  14 H :    0.134047
  15 O :   -0.510334
  16 C :    0.091197
  17 C :    0.083002
  18 C :   -0.326918
  19 C :   -0.010293
  20 O :   -0.503839
  21 H :    0.161577
  22 H :    0.167170
  23 O :   -0.599949
  24 H :    0.157715
  25 H :    0.136259
  26 H :    0.148338
  27 H :    0.148270
  28 H :    0.356491
Sum of atomic charges:   -0.0000000

LOEWDIN ATOMIC CHARGES
----------------------
   0 C :    0.171519
   1 C :   -0.216246
   2 C :   -0.216079
   3 C :   -0.026846
   4 O :   -0.330425
   5 H :    0.094650
   6 H :    0.112015
   7 H :    0.122863
   8 H :    0.112002
   9 H :    0.123570
  10 H :    0.106197
  11 H :    0.100491
  12 C :   -0.048841
  13 H :    0.095894
  14 H :    0.094571
  15 O :   -0.313951
  16 C :    0.021466
  17 C :    0.035068
  18 C :   -0.242043
  19 C :   -0.029581
  20 O :   -0.312589
  21 H :    0.118842
  22 H :    0.119346
  23 O :   -0.407931
  24 H :    0.122343
  25 H :    0.104909
  26 H :    0.105019
  27 H :    0.105468
  28 H :    0.278299

  Mayer bond orders larger than 0.100000
B(  0-C ,  1-C ) :   0.9476 B(  0-C ,  4-O ) :   0.9145 B(  0-C ,  5-H ) :   0.9179
B(  0-C , 15-O ) :   0.8635 B(  1-C ,  2-C ) :   0.9582 B(  1-C ,  6-H ) :   0.9402
B(  1-C ,  7-H ) :   0.9367 B(  2-C ,  3-C ) :   0.9553 B(  2-C ,  8-H ) :   0.9454
B(  2-C ,  9-H ) :   0.9422 B(  3-C ,  4-O ) :   0.8378 B(  3-C , 10-H ) :   0.9356
B(  3-C , 11-H ) :   0.9404 B( 12-C , 13-H ) :   0.9030 B( 12-C , 14-H ) :   0.9171
B( 12-C , 15-O ) :   0.8412 B( 12-C , 16-C ) :   0.9066 B( 16-C , 17-C ) :   0.8735
B( 16-C , 20-O ) :   0.8738 B( 16-C , 21-H ) :   0.9297 B( 17-C , 18-C ) :   0.9252
B( 17-C , 22-H ) :   0.9339 B( 17-C , 23-O ) :   0.8959 B( 18-C , 19-C ) :   0.9401
B( 18-C , 24-H ) :   0.9418 B( 18-C , 25-H ) :   0.9398 B( 19-C , 20-O ) :   0.8508
B( 19-C , 26-H ) :   0.9307 B( 19-C , 27-H ) :   0.9377 B( 23-O , 28-H ) :   0.7986

FINAL SINGLE POINT ENERGY      -652.860352049200

DIPOLE MOMENT
-------------
                                X             Y             Z
Electronic contribution:     -1.54241      -1.35350      -1.88397
Nuclear contribution   :      1.69287       1.00264       2.15543
                        -----------------------------------------
Total Dipole Moment    :      0.15046      -0.35086       0.27146
                        -----------------------------------------
Magnitude (a.u.)       :      0.46844
Magnitude (Debye)      :      1.19067

Rotational constants in cm-1:     0.054937     0.012363     0.011524
Rotational constants in MHz :  1646.962050   370.630311   345.479253

                             ****ORCA TERMINATED NORMALLY****
TOTAL RUN TIME: 0 days 2 hours 19 minutes 14 seconds 743 msec
