                         Program Version 4.2.0 -  RELEASE  -
|  1> # Test redundant internal optimization
|  2> #
|  3> ! RKS B3LYP  Opt TightSCF SmallPrint
|  4>
|  5> %basis
|  6>         Basis "6-31G"
|  7> end
|  8>
|  9> %geom
| 10> Constraints
| 11> { D 4  0  15  12  30.0   C } # D for Dihedral angle
| 12> { D 0  15  12  16  225.0   C } # D for Dihedral angle
| 13> { D 0  4  3  2   C } # D for Dihedral angle
| 14> { D 4  3  2  1   C } # D for Dihedral angle
| 15> { D 3  2  1  0   C } # D for Dihedral angle
| 16> { D 2  1  0  4   C } # D for Dihedral angle
| 17> { D 1  0  4  3   C } # D for Dihedral angle
| 18> { D 16  20  19  18   C } # D for Dihedral angle
| 19> { D 20  19  18  17   C } # D for Dihedral angle
| 20> { D 19  18  17  16   C } # D for Dihedral angle
| 21> { D 18  17  16  20   C } # D for Dihedral angle
| 22> { D 17  16  20  19   C } # D for Dihedral angle
| 23> { D 15  12  16  20   C } # D for Dihedral angle
| 24> end
| 25> end
| 26>
| 27>
| 28> #%pal
| 29> #nprocs 8
| 30> #end
| 31>
| 32> * xyz 0 1
| 33> C  -21.048   26.222   46.251
| 34> C  -20.361   27.558   45.944
| 35> C  -20.329   28.222   47.341
| 36> C  -20.110   27.022   48.296
| 37> O  -20.473   25.807   47.535
| 38> H  -20.833   25.428   45.533
| 39> H  -19.344   27.382   45.576
| 40> H  -20.898   28.157   45.201
| 41> H  -19.543   28.978   47.434
| 42> H  -21.289   28.710   47.548
| 43> H  -20.733   27.082   49.195
| 44> H  -19.064   26.913   48.597
| 45> C  -23.091   26.824   47.779
| 46> H  -22.287   26.683   48.512
| 47> H  -23.372   27.885   47.778
| 48> O  -22.586   26.394   46.375
| 49> C  -24.328   26.009   48.248
| 50> C  -23.979   24.529   48.442
| 51> C  -23.277   24.551   49.821
| 52> C  -24.053   25.649   50.592
| 53> O  -24.762   26.455   49.576
| 54> H  -25.158   26.191   47.563
| 55> H  -24.895   23.929   48.484
| 56> O  -23.073   23.963   47.314
| 57> H  -23.310   23.582   50.329
| 58> H  -22.224   24.832   49.703
| 59> H  -23.391   26.302   51.170
| 60> H  -24.810   25.232   51.261
| 61> H  -22.150   24.549   47.255
| 62> *
| 63>
| 64>                          ****END OF INPUT****
 Total Charge           Charge          ....    0
 Multiplicity           Mult            ....    1
 Number of Electrons    NEL             ....  102
FINAL SINGLE POINT ENERGY      -652.819922553221
FINAL SINGLE POINT ENERGY      -652.846728822328
FINAL SINGLE POINT ENERGY      -652.855368151631
FINAL SINGLE POINT ENERGY      -652.857486168905
FINAL SINGLE POINT ENERGY      -652.857824729069
FINAL SINGLE POINT ENERGY      -652.857935476812
FINAL SINGLE POINT ENERGY      -652.857994250447
FINAL SINGLE POINT ENERGY      -652.858161064293
FINAL SINGLE POINT ENERGY      -652.858365636173
FINAL SINGLE POINT ENERGY      -652.857943574468
FINAL SINGLE POINT ENERGY      -652.858593553248
FINAL SINGLE POINT ENERGY      -652.858508285861
FINAL SINGLE POINT ENERGY      -652.858831994246
FINAL SINGLE POINT ENERGY      -652.859003307126
FINAL SINGLE POINT ENERGY      -652.859161028671
FINAL SINGLE POINT ENERGY      -652.859232622769
FINAL SINGLE POINT ENERGY      -652.859236459412
                    ***********************HURRAY********************

CARTESIAN COORDINATES (ANGSTROEM)
---------------------------------
  C    -21.052188   26.292195   46.416459
  C    -20.384378   27.582393   45.933623
  C    -20.151794   28.340365   47.266506
  C    -19.834525   27.202445   48.262655
  O    -20.334407   25.952344   47.617219
  H    -20.931014   25.453484   45.729133
  H    -19.431631   27.330821   45.454604
  H    -21.007444   28.130177   45.223522
  H    -19.335413   29.065805   47.200091
  H    -21.056539   28.883074   47.559904
  H    -20.321692   27.320858   49.234109
  H    -18.761384   27.059389   48.415274
  C    -23.091220   26.819345   47.849311
  H    -22.336959   26.759202   48.636569
  H    -23.445685   27.851220   47.764612
  O    -22.508217   26.398257   46.565943
  C    -24.275834   25.912174   48.213440
  C    -23.959266   24.427479   48.455627
  C    -23.363914   24.465007   49.890971
  C    -24.178740   25.576578   50.582456
  O    -24.805413   26.384019   49.492780
  H    -25.072795   26.039600   47.474729
  H    -24.908131   23.877557   48.474498
  O    -23.109580   23.798448   47.477035
  H    -23.455212   23.499310   50.396218
  H    -22.298002   24.706427   49.817858
  H    -23.568571   26.239424   51.204448
  H    -25.000629   25.183401   51.187700
  H    -22.790421   24.489203   46.855705

 Multiplicity           Mult            ....    1
 Number of Electrons    NEL             ....  102
 Basis Dimension        Dim             ....  149

ORBITAL ENERGIES
----------------

  NO   OCC          E(Eh)            E(eV)
   0   2.0000     -19.163048      -521.4531
   1   2.0000     -19.161042      -521.3984
   2   2.0000     -19.139154      -520.8029
   3   2.0000     -19.114425      -520.1299
   4   2.0000     -10.293236      -280.0932
   5   2.0000     -10.243362      -278.7361
   6   2.0000     -10.235456      -278.5209
   7   2.0000     -10.231412      -278.4109
   8   2.0000     -10.227994      -278.3179
   9   2.0000     -10.225323      -278.2452
  10   2.0000     -10.202302      -277.6187
  11   2.0000     -10.197342      -277.4838
  12   2.0000     -10.175493      -276.8892
  13   2.0000      -1.067565       -29.0499
  14   2.0000      -1.024776       -27.8856
  15   2.0000      -1.007450       -27.4141
  16   2.0000      -0.993628       -27.0380
  17   2.0000      -0.800478       -21.7821
  18   2.0000      -0.776591       -21.1321
  19   2.0000      -0.766615       -20.8607
  20   2.0000      -0.738638       -20.0994
  21   2.0000      -0.679293       -18.4845
  22   2.0000      -0.614844       -16.7308
  23   2.0000      -0.604081       -16.4379
  24   2.0000      -0.593844       -16.1593
  25   2.0000      -0.574626       -15.6364
  26   2.0000      -0.525613       -14.3027
  27   2.0000      -0.520591       -14.1660
  28   2.0000      -0.508645       -13.8409
  29   2.0000      -0.487962       -13.2781
  30   2.0000      -0.475719       -12.9450
  31   2.0000      -0.462952       -12.5976
  32   2.0000      -0.443736       -12.0747
  33   2.0000      -0.432402       -11.7662
  34   2.0000      -0.427046       -11.6205
  35   2.0000      -0.415812       -11.3148
  36   2.0000      -0.412314       -11.2196
  37   2.0000      -0.389038       -10.5863
  38   2.0000      -0.384004       -10.4493
  39   2.0000      -0.372070       -10.1245
  40   2.0000      -0.367595       -10.0028
  41   2.0000      -0.360521        -9.8103
  42   2.0000      -0.347696        -9.4613
  43   2.0000      -0.339769        -9.2456
  44   2.0000      -0.329234        -8.9589
  45   2.0000      -0.323290        -8.7972
  46   2.0000      -0.292683        -7.9643
  47   2.0000      -0.278860        -7.5882
  48   2.0000      -0.268663        -7.3107
  49   2.0000      -0.244061        -6.6412
  50   2.0000      -0.241841        -6.5808
  51   0.0000       0.056836         1.5466
  52   0.0000       0.066933         1.8213
  53   0.0000       0.086918         2.3651
  54   0.0000       0.097566         2.6549
  55   0.0000       0.101521         2.7625

MULLIKEN ATOMIC CHARGES
-----------------------
   0 C :    0.284751
   1 C :   -0.260861
   2 C :   -0.313937
   3 C :   -0.027595
   4 O :   -0.500497
   5 H :    0.171056
   6 H :    0.154223
   7 H :    0.161876
   8 H :    0.153709
   9 H :    0.157200
  10 H :    0.149567
  11 H :    0.158658
  12 C :   -0.020230
  13 H :    0.154643
  14 H :    0.156164
  15 O :   -0.554172
  16 C :    0.040341
  17 C :    0.123203
  18 C :   -0.314088
  19 C :   -0.019243
  20 O :   -0.521539
  21 H :    0.160878
  22 H :    0.145263
  23 O :   -0.634226
  24 H :    0.150551
  25 H :    0.163849
  26 H :    0.137224
  27 H :    0.149812
  28 H :    0.393418
Sum of atomic charges:   -0.0000000

LOEWDIN ATOMIC CHARGES
----------------------
   0 C :    0.173872
   1 C :   -0.221541
   2 C :   -0.221975
   3 C :   -0.035028
   4 O :   -0.312471
   5 H :    0.112938
   6 H :    0.119586
   7 H :    0.126035
   8 H :    0.120807
   9 H :    0.114845
  10 H :    0.103308
  11 H :    0.110802
  12 C :   -0.049612
  13 H :    0.108314
  14 H :    0.109749
  15 O :   -0.343304
  16 C :    0.015883
  17 C :    0.042630
  18 C :   -0.239375
  19 C :   -0.032543
  20 O :   -0.324777
  21 H :    0.114289
  22 H :    0.102948
  23 O :   -0.426274
  24 H :    0.120704
  25 H :    0.119556
  26 H :    0.099340
  27 H :    0.106220
  28 H :    0.285075

  Mayer bond orders larger than 0.100000
B(  0-C ,  1-C ) :   0.9267 B(  0-C ,  4-O ) :   0.9199 B(  0-C ,  5-H ) :   0.9310
B(  0-C , 15-O ) :   0.8295 B(  1-C ,  2-C ) :   0.9543 B(  1-C ,  6-H ) :   0.9346
B(  1-C ,  7-H ) :   0.9358 B(  2-C ,  3-C ) :   0.9502 B(  2-C ,  8-H ) :   0.9439
B(  2-C ,  9-H ) :   0.9428 B(  3-C ,  4-O ) :   0.8276 B(  3-C , 10-H ) :   0.9294
B(  3-C , 11-H ) :   0.9391 B( 12-C , 13-H ) :   0.9092 B( 12-C , 14-H ) :   0.9272
B( 12-C , 15-O ) :   0.7946 B( 12-C , 16-C ) :   0.9036 B( 16-C , 17-C ) :   0.9157
B( 16-C , 20-O ) :   0.8529 B( 16-C , 21-H ) :   0.9299 B( 17-C , 18-C ) :   0.9047
B( 17-C , 22-H ) :   0.9271 B( 17-C , 23-O ) :   0.9324 B( 18-C , 19-C ) :   0.9374
B( 18-C , 24-H ) :   0.9443 B( 18-C , 25-H ) :   0.9367 B( 19-C , 20-O ) :   0.8332
B( 19-C , 26-H ) :   0.9349 B( 19-C , 27-H ) :   0.9384 B( 23-O , 28-H ) :   0.7309

FINAL SINGLE POINT ENERGY      -652.859236732207

DIPOLE MOMENT
-------------
                                X             Y             Z
Electronic contribution:     -3.21097      -3.10835      -2.34003
Nuclear contribution   :      4.21941       4.38939       2.48909
                        -----------------------------------------
Total Dipole Moment    :      1.00844       1.28104       0.14907
                        -----------------------------------------
Magnitude (a.u.)       :      1.63714
Magnitude (Debye)      :      4.16129

Rotational constants in cm-1:     0.047424     0.016509     0.015637
Rotational constants in MHz :  1421.721058   494.916506   468.793887

                             ****ORCA TERMINATED NORMALLY****
TOTAL RUN TIME: 0 days 0 hours 58 minutes 23 seconds 15 msec
