                         Program Version 4.2.1 -  RELEASE  -
|  1> # Test redundant internal optimization
|  2> #
|  3> ! RKS B3LYP  Opt TightSCF SmallPrint
|  4>
|  5> %basis
|  6>         Basis "6-31G"
|  7> end
|  8>
|  9> %geom
| 10> Constraints
| 11> { D 4  0  19  14  135.0   C } # D for Dihedral angle
| 12> { D 0  19  14  12  75.0   C } # D for Dihedral angle
| 13> { D 0  4  3  2   C } # D for Dihedral angle
| 14> { D 4  3  2  1   C } # D for Dihedral angle
| 15> { D 3  2  1  0   C } # D for Dihedral angle
| 16> { D 2  1  0  4   C } # D for Dihedral angle
| 17> { D 1  0  4  3   C } # D for Dihedral angle
| 18> { D 14  15  16  17   C } # D for Dihedral angle
| 19> { D 15  16  17  12   C } # D for Dihedral angle
| 20> { D 16  17  12  14   C } # D for Dihedral angle
| 21> { D 17  12  14  15   C } # D for Dihedral angle
| 22> { D 12  14  15  16   C } # D for Dihedral angle
| 23> end
| 24> end
| 25>
| 26>
| 27> #%pal
| 28> #nprocs 8
| 29> #end
| 30>
| 31> * xyz 0 1
| 32> C  -21.048   26.222   46.251
| 33> C  -20.361   27.558   45.944
| 34> C  -20.329   28.222   47.341
| 35> C  -20.110   27.022   48.296
| 36> O  -20.473   25.807   47.535
| 37> H  -20.833   25.428   45.533
| 38> H  -19.344   27.382   45.576
| 39> H  -20.898   28.157   45.201
| 40> H  -19.543   28.978   47.434
| 41> H  -21.289   28.710   47.548
| 42> H  -20.733   27.082   49.195
| 43> H  -19.064   26.913   48.597
| 44> C  -23.002   27.420   44.230
| 45> H  -23.109   28.395   43.729
| 46> C  -22.986   27.575   45.755
| 47> C  -24.490   27.746   46.070
| 48> C  -25.175   26.828   45.026
| 49> O  -24.174   26.578   43.965
| 50> H  -22.136   26.900   43.818
| 51> O  -22.472   26.381   46.366
| 52> H  -22.382   28.424   46.094
| 53> H  -24.743   27.471   47.098
| 54> H  -24.791   28.791   45.920
| 55> H  -26.063   27.288   44.580
| 56> H  -25.451   25.855   45.444
| 57> *
| 58>
| 59>                          ****END OF INPUT****
 Total Charge           Charge          ....    0
 Multiplicity           Mult            ....    1
 Number of Electrons    NEL             ....   86
FINAL SINGLE POINT ENERGY      -538.410560585110
FINAL SINGLE POINT ENERGY      -538.423001242010
FINAL SINGLE POINT ENERGY      -538.424735083616
FINAL SINGLE POINT ENERGY      -538.425125939978
FINAL SINGLE POINT ENERGY      -538.425150779999
FINAL SINGLE POINT ENERGY      -538.425160640500
                    ***********************HURRAY********************

CARTESIAN COORDINATES (ANGSTROEM)
---------------------------------
  C    -21.059684   26.269833   46.288952
  C    -20.159010   27.466615   45.970926
  C    -20.118549   28.214559   47.332424
  C    -20.151250   27.052252   48.351504
  O    -20.646352   25.871061   47.608467
  H    -20.906889   25.399369   45.648297
  H    -19.163979   27.087822   45.714006
  H    -20.503472   28.090536   45.142964
  H    -19.224404   28.836166   47.438228
  H    -20.994913   28.860934   47.446931
  H    -20.816254   27.242750   49.198144
  H    -19.156364   26.794640   48.726226
  C    -23.148165   27.597066   44.161983
  H    -23.399049   28.573836   43.718929
  C    -23.087513   27.707332   45.685168
  C    -24.580611   27.662827   46.061070
  C    -25.183777   26.694249   45.017031
  O    -24.202273   26.615403   43.909997
  H    -22.235360   27.217808   43.698885
  O    -22.493615   26.535960   46.313336
  H    -22.603899   28.631897   46.022527
  H    -24.707307   27.316262   47.088692
  H    -25.013325   28.666174   45.969840
  H    -26.142234   27.045496   44.620417
  H    -25.300751   25.682153   45.411057

 Multiplicity           Mult            ....    1
 Number of Electrons    NEL             ....   86
 Basis Dimension        Dim             ....  127

ORBITAL ENERGIES
----------------

  NO   OCC          E(Eh)            E(eV)
   0   2.0000     -19.139166      -520.8032
   1   2.0000     -19.137435      -520.7561
   2   2.0000     -19.127943      -520.4978
   3   2.0000     -10.279635      -279.7231
   4   2.0000     -10.242945      -278.7247
   5   2.0000     -10.227901      -278.3153
   6   2.0000     -10.224504      -278.2229
   7   2.0000     -10.217908      -278.0434
   8   2.0000     -10.195858      -277.4434
   9   2.0000     -10.195536      -277.4346
  10   2.0000     -10.184751      -277.1412
  11   2.0000      -1.051503       -28.6128
  12   2.0000      -1.014809       -27.6144
  13   2.0000      -0.987957       -26.8837
  14   2.0000      -0.792315       -21.5600
  15   2.0000      -0.784509       -21.3476
  16   2.0000      -0.738206       -20.0876
  17   2.0000      -0.728417       -19.8212
  18   2.0000      -0.621003       -16.8983
  19   2.0000      -0.606738       -16.5102
  20   2.0000      -0.595274       -16.1982
  21   2.0000      -0.564308       -15.3556
  22   2.0000      -0.526335       -14.3223
  23   2.0000      -0.502972       -13.6866
  24   2.0000      -0.491246       -13.3675
  25   2.0000      -0.483581       -13.1589
  26   2.0000      -0.453693       -12.3456
  27   2.0000      -0.449006       -12.2181
  28   2.0000      -0.429967       -11.7000
  29   2.0000      -0.419042       -11.4027
  30   2.0000      -0.409222       -11.1355
  31   2.0000      -0.386977       -10.5302
  32   2.0000      -0.370372       -10.0783
  33   2.0000      -0.367322        -9.9953
  34   2.0000      -0.366174        -9.9641
  35   2.0000      -0.361443        -9.8354
  36   2.0000      -0.351994        -9.5783
  37   2.0000      -0.314217        -8.5503
  38   2.0000      -0.305812        -8.3216
  39   2.0000      -0.292401        -7.9566
  40   2.0000      -0.264010        -7.1841
  41   2.0000      -0.250447        -6.8150
  42   2.0000      -0.234381        -6.3778
  43   0.0000       0.069661         1.8956
  44   0.0000       0.093748         2.5510
  45   0.0000       0.096663         2.6303
  46   0.0000       0.100808         2.7431
  47   0.0000       0.109088         2.9684

MULLIKEN ATOMIC CHARGES
-----------------------
   0 C :    0.320541
   1 C :   -0.303083
   2 C :   -0.305889
   3 C :   -0.000812
   4 O :   -0.496256
   5 H :    0.160126
   6 H :    0.156794
   7 H :    0.142824
   8 H :    0.146302
   9 H :    0.152500
  10 H :    0.150182
  11 H :    0.144490
  12 C :    0.003722
  13 H :    0.120816
  14 C :    0.063455
  15 C :   -0.287842
  16 C :    0.006362
  17 O :   -0.520613
  18 H :    0.151078
  19 O :   -0.521565
  20 H :    0.119706
  21 H :    0.168799
  22 H :    0.136978
  23 H :    0.132313
  24 H :    0.159071
Sum of atomic charges:   -0.0000000

LOEWDIN ATOMIC CHARGES
----------------------
   0 C :    0.183768
   1 C :   -0.233999
   2 C :   -0.219060
   3 C :   -0.028141
   4 O :   -0.307564
   5 H :    0.106785
   6 H :    0.122881
   7 H :    0.113151
   8 H :    0.116372
   9 H :    0.109625
  10 H :    0.106740
  11 H :    0.103840
  12 C :   -0.049138
  13 H :    0.090221
  14 C :    0.035652
  15 C :   -0.220803
  16 C :   -0.025013
  17 O :   -0.329944
  18 H :    0.111196
  19 O :   -0.327093
  20 H :    0.090912
  21 H :    0.131402
  22 H :    0.109647
  23 H :    0.097025
  24 H :    0.111538

  Mayer bond orders larger than 0.100000
B(  0-C ,  1-C ) :   0.9293 B(  0-C ,  4-O ) :   0.9221 B(  0-C ,  5-H ) :   0.9273
B(  0-C , 19-O ) :   0.8526 B(  1-C ,  2-C ) :   0.9497 B(  1-C ,  6-H ) :   0.9342
B(  1-C ,  7-H ) :   0.9278 B(  2-C ,  3-C ) :   0.9508 B(  2-C ,  8-H ) :   0.9453
B(  2-C ,  9-H ) :   0.9397 B(  3-C ,  4-O ) :   0.8434 B(  3-C , 10-H ) :   0.9343
B(  3-C , 11-H ) :   0.9393 B( 12-C , 13-H ) :   0.9096 B( 12-C , 14-C ) :   0.9056
B( 12-C , 17-O ) :   0.8771 B( 12-C , 18-H ) :   0.9326 B( 14-C , 15-C ) :   0.9540
B( 14-C , 19-O ) :   0.8418 B( 14-C , 20-H ) :   0.9071 B( 15-C , 16-C ) :   0.9472
B( 15-C , 21-H ) :   0.9358 B( 15-C , 22-H ) :   0.9425 B( 16-C , 17-O ) :   0.8494
B( 16-C , 23-H ) :   0.9339 B( 16-C , 24-H ) :   0.9359

FINAL SINGLE POINT ENERGY      -538.425161324582

DIPOLE MOMENT
-------------
                                X             Y             Z
Electronic contribution:     -0.85796      -4.71332      -0.68638
Nuclear contribution   :      1.40647       6.30046       0.92824
                        -----------------------------------------
Total Dipole Moment    :      0.54851       1.58713       0.24186
                        -----------------------------------------
Magnitude (a.u.)       :      1.69657
Magnitude (Debye)      :      4.31234

Rotational constants in cm-1:     0.084846     0.020749     0.020093
Rotational constants in MHz :  2543.614447   622.037438   602.368857

                             ****ORCA TERMINATED NORMALLY****
TOTAL RUN TIME: 0 days 0 hours 7 minutes 19 seconds 977 msec
