                         Program Version 4.2.1 -  RELEASE  -
|  1> # Test redundant internal optimization
|  2> #
|  3> ! RKS B3LYP  Opt TightSCF SmallPrint
|  4>
|  5> %basis
|  6>         Basis "6-31G"
|  7> end
|  8>
|  9> %geom
| 10> Constraints
| 11> { D 4  0  19  14  30.0   C } # D for Dihedral angle
| 12> { D 0  19  14  12  90.0   C } # D for Dihedral angle
| 13> { D 0  4  3  2   C } # D for Dihedral angle
| 14> { D 4  3  2  1   C } # D for Dihedral angle
| 15> { D 3  2  1  0   C } # D for Dihedral angle
| 16> { D 2  1  0  4   C } # D for Dihedral angle
| 17> { D 1  0  4  3   C } # D for Dihedral angle
| 18> { D 14  15  16  17   C } # D for Dihedral angle
| 19> { D 15  16  17  12   C } # D for Dihedral angle
| 20> { D 16  17  12  14   C } # D for Dihedral angle
| 21> { D 17  12  14  15   C } # D for Dihedral angle
| 22> { D 12  14  15  16   C } # D for Dihedral angle
| 23> end
| 24> end
| 25>
| 26>
| 27> #%pal
| 28> #nprocs 8
| 29> #end
| 30>
| 31> * xyz 0 1
| 32> C  -21.048   26.222   46.251
| 33> C  -20.361   27.558   45.944
| 34> C  -20.329   28.222   47.341
| 35> C  -20.110   27.022   48.296
| 36> O  -20.473   25.807   47.535
| 37> H  -20.833   25.428   45.533
| 38> H  -19.344   27.382   45.576
| 39> H  -20.898   28.157   45.201
| 40> H  -19.543   28.978   47.434
| 41> H  -21.289   28.710   47.548
| 42> H  -20.733   27.082   49.195
| 43> H  -19.064   26.913   48.597
| 44> C  -22.960   28.308   47.771
| 45> H  -23.014   28.641   48.819
| 46> C  -22.920   26.779   47.672
| 47> C  -24.409   26.412   47.874
| 48> C  -25.156   27.578   47.180
| 49> O  -24.182   28.684   47.051
| 50> H  -22.130   28.815   47.276
| 51> O  -22.472   26.381   46.366
| 52> H  -22.264   26.317   48.418
| 53> H  -24.668   25.437   47.448
| 54> H  -24.648   26.383   48.945
| 55> H  -26.020   27.926   47.757
| 56> H  -25.486   27.320   46.169
| 57> *
| 58>
| 59>                          ****END OF INPUT****
 Total Charge           Charge          ....    0
 Multiplicity           Mult            ....    1
 Number of Electrons    NEL             ....   86
FINAL SINGLE POINT ENERGY      -538.338631604118
FINAL SINGLE POINT ENERGY      -538.418325650819
FINAL SINGLE POINT ENERGY      -538.423794045573
FINAL SINGLE POINT ENERGY      -538.424743873959
FINAL SINGLE POINT ENERGY      -538.424955404196
FINAL SINGLE POINT ENERGY      -538.425071349864
FINAL SINGLE POINT ENERGY      -538.425103618703
FINAL SINGLE POINT ENERGY      -538.425119667662
FINAL SINGLE POINT ENERGY      -538.425123857166
                    ***********************HURRAY********************

CARTESIAN COORDINATES (ANGSTROEM)
---------------------------------
  C    -21.075860   26.309969   46.420893
  C    -20.268721   27.506007   45.896904
  C    -19.892274   28.245106   47.214002
  C    -19.683820   27.076132   48.208677
  O    -20.354809   25.896946   47.603604
  H    -21.022300   25.463349   45.731507
  H    -19.373653   27.122935   45.396311
  H    -20.838137   28.122888   45.197996
  H    -18.983522   28.846119   47.105245
  H    -20.688111   28.917922   47.532492
  H    -20.116842   27.263511   49.196293
  H    -18.629631   26.809724   48.326249
  C    -23.328874   28.349417   48.046058
  H    -23.582722   28.554706   49.097897
  C    -23.143764   26.846096   47.844620
  C    -24.602860   26.363799   47.756596
  C    -25.324458   27.524359   47.031565
  O    -24.437698   28.704753   47.155937
  H    -22.488426   28.972636   47.752569
  O    -22.508197   26.460996   46.588903
  H    -22.597290   26.377431   48.671281
  H    -24.659976   25.417576   47.215468
  H    -25.002720   26.217551   48.766356
  H    -26.297241   27.760482   47.476251
  H    -25.452094   27.331592   45.963328

 Multiplicity           Mult            ....    1
 Number of Electrons    NEL             ....   86
 Basis Dimension        Dim             ....  127

ORBITAL ENERGIES
----------------

  NO   OCC          E(Eh)            E(eV)
   0   2.0000     -19.149192      -521.0760
   1   2.0000     -19.138102      -520.7742
   2   2.0000     -19.126541      -520.4597
   3   2.0000     -10.278881      -279.7026
   4   2.0000     -10.238379      -278.6005
   5   2.0000     -10.233862      -278.4776
   6   2.0000     -10.221820      -278.1499
   7   2.0000     -10.216994      -278.0185
   8   2.0000     -10.193503      -277.3793
   9   2.0000     -10.188232      -277.2359
  10   2.0000     -10.181804      -277.0610
  11   2.0000      -1.052843       -28.6493
  12   2.0000      -1.012897       -27.5623
  13   2.0000      -0.989269       -26.9194
  14   2.0000      -0.791774       -21.5453
  15   2.0000      -0.782299       -21.2874
  16   2.0000      -0.739721       -20.1288
  17   2.0000      -0.724204       -19.7066
  18   2.0000      -0.620438       -16.8830
  19   2.0000      -0.606770       -16.5110
  20   2.0000      -0.595236       -16.1972
  21   2.0000      -0.563126       -15.3234
  22   2.0000      -0.514625       -14.0037
  23   2.0000      -0.504505       -13.7283
  24   2.0000      -0.492635       -13.4053
  25   2.0000      -0.484573       -13.1859
  26   2.0000      -0.452513       -12.3135
  27   2.0000      -0.439324       -11.9546
  28   2.0000      -0.435633       -11.8542
  29   2.0000      -0.416884       -11.3440
  30   2.0000      -0.410551       -11.1716
  31   2.0000      -0.383954       -10.4479
  32   2.0000      -0.372082       -10.1249
  33   2.0000      -0.363291        -9.8856
  34   2.0000      -0.359593        -9.7850
  35   2.0000      -0.357886        -9.7386
  36   2.0000      -0.345486        -9.4012
  37   2.0000      -0.324046        -8.8177
  38   2.0000      -0.304328        -8.2812
  39   2.0000      -0.302756        -8.2384
  40   2.0000      -0.264980        -7.2105
  41   2.0000      -0.251764        -6.8508
  42   2.0000      -0.230823        -6.2810
  43   0.0000       0.070979         1.9314
  44   0.0000       0.090003         2.4491
  45   0.0000       0.093238         2.5371
  46   0.0000       0.104739         2.8501
  47   0.0000       0.112765         3.0685

MULLIKEN ATOMIC CHARGES
-----------------------
   0 C :    0.311230
   1 C :   -0.264977
   2 C :   -0.320001
   3 C :   -0.015878
   4 O :   -0.513252
   5 H :    0.161566
   6 H :    0.150960
   7 H :    0.161709
   8 H :    0.147689
   9 H :    0.151837
  10 H :    0.140836
  11 H :    0.152320
  12 C :   -0.010560
  13 H :    0.121993
  14 C :    0.071835
  15 C :   -0.289950
  16 C :    0.000704
  17 O :   -0.524452
  18 H :    0.157742
  19 O :   -0.534061
  20 H :    0.148585
  21 H :    0.165345
  22 H :    0.140529
  23 H :    0.132772
  24 H :    0.155479
Sum of atomic charges:   -0.0000000

LOEWDIN ATOMIC CHARGES
----------------------
   0 C :    0.181709
   1 C :   -0.224908
   2 C :   -0.224595
   3 C :   -0.033906
   4 O :   -0.320598
   5 H :    0.108523
   6 H :    0.119336
   7 H :    0.126560
   8 H :    0.117260
   9 H :    0.109984
  10 H :    0.100301
  11 H :    0.107040
  12 C :   -0.050995
  13 H :    0.091622
  14 C :    0.039489
  15 C :   -0.222074
  16 C :   -0.028645
  17 O :   -0.333339
  18 H :    0.110979
  19 O :   -0.328283
  20 H :    0.106641
  21 H :    0.130135
  22 H :    0.111744
  23 H :    0.097018
  24 H :    0.109003

  Mayer bond orders larger than 0.100000
B(  0-C ,  1-C ) :   0.9145 B(  0-C ,  4-O ) :   0.8984 B(  0-C ,  5-H ) :   0.9360
B(  0-C , 19-O ) :   0.8812 B(  1-C ,  2-C ) :   0.9570 B(  1-C ,  6-H ) :   0.9338
B(  1-C ,  7-H ) :   0.9351 B(  2-C ,  3-C ) :   0.9500 B(  2-C ,  8-H ) :   0.9438
B(  2-C ,  9-H ) :   0.9255 B(  3-C ,  4-O ) :   0.8373 B(  3-C , 10-H ) :   0.9340
B(  3-C , 11-H ) :   0.9395 B( 12-C , 13-H ) :   0.9093 B( 12-C , 14-C ) :   0.9092
B( 12-C , 17-O ) :   0.8694 B( 12-C , 18-H ) :   0.9153 B( 14-C , 15-C ) :   0.9558
B( 14-C , 19-O ) :   0.8298 B( 14-C , 20-H ) :   0.9148 B( 15-C , 16-C ) :   0.9480
B( 15-C , 21-H ) :   0.9366 B( 15-C , 22-H ) :   0.9428 B( 16-C , 17-O ) :   0.8527
B( 16-C , 23-H ) :   0.9338 B( 16-C , 24-H ) :   0.9361

FINAL SINGLE POINT ENERGY      -538.425115620650

DIPOLE MOMENT
-------------
                                X             Y             Z
Electronic contribution:     -0.98574      -2.00905      -1.27590
Nuclear contribution   :      1.55574       2.11859       1.75766
                        -----------------------------------------
Total Dipole Moment    :      0.56999       0.10954       0.48176
                        -----------------------------------------
Magnitude (a.u.)       :      0.75431
Magnitude (Debye)      :      1.91731

Rotational constants in cm-1:     0.074829     0.023046     0.021669
Rotational constants in MHz :  2243.315475   690.896065   649.614985

                             ****ORCA TERMINATED NORMALLY****
TOTAL RUN TIME: 0 days 0 hours 10 minutes 35 seconds 35 msec
