                         Program Version 4.2.1 -  RELEASE  -
|  1> # Test redundant internal optimization
|  2> #
|  3> ! RKS B3LYP  Opt TightSCF SmallPrint
|  4>
|  5> %basis
|  6>         Basis "6-31G"
|  7> end
|  8>
|  9> %geom
| 10> Constraints
| 11> { D 4  0  19  14  255.0   C } # D for Dihedral angle
| 12> { D 0  19  14  12  105.0   C } # D for Dihedral angle
| 13> { D 0  4  3  2   C } # D for Dihedral angle
| 14> { D 4  3  2  1   C } # D for Dihedral angle
| 15> { D 3  2  1  0   C } # D for Dihedral angle
| 16> { D 2  1  0  4   C } # D for Dihedral angle
| 17> { D 1  0  4  3   C } # D for Dihedral angle
| 18> { D 14  15  16  17   C } # D for Dihedral angle
| 19> { D 15  16  17  12   C } # D for Dihedral angle
| 20> { D 16  17  12  14   C } # D for Dihedral angle
| 21> { D 17  12  14  15   C } # D for Dihedral angle
| 22> { D 12  14  15  16   C } # D for Dihedral angle
| 23> end
| 24> end
| 25>
| 26>
| 27> #%pal
| 28> #nprocs 8
| 29> #end
| 30>
| 31> * xyz 0 1
| 32> C  -21.048   26.222   46.251
| 33> C  -20.361   27.558   45.944
| 34> C  -20.329   28.222   47.341
| 35> C  -20.110   27.022   48.296
| 36> O  -20.473   25.807   47.535
| 37> H  -20.833   25.428   45.533
| 38> H  -19.344   27.382   45.576
| 39> H  -20.898   28.157   45.201
| 40> H  -19.543   28.978   47.434
| 41> H  -21.289   28.710   47.548
| 42> H  -20.733   27.082   49.195
| 43> H  -19.064   26.913   48.597
| 44> C  -23.812   24.409   46.856
| 45> H  -24.147   23.447   46.436
| 46> C  -23.236   25.322   45.767
| 47> C  -24.522   25.879   45.112
| 48> C  -25.498   26.010   46.308
| 49> O  -24.954   25.160   47.390
| 50> H  -23.136   24.219   47.691
| 51> O  -22.472   26.381   46.366
| 52> H  -22.593   24.791   45.057
| 53> H  -24.359   26.833   44.600
| 54> H  -24.909   25.166   44.374
| 55> H  -26.511   25.672   46.062
| 56> H  -25.550   27.031   46.696
| 57> *
| 58>
| 59>                          ****END OF INPUT****
 Total Charge           Charge          ....    0
 Multiplicity           Mult            ....    1
 Number of Electrons    NEL             ....   86
FINAL SINGLE POINT ENERGY      -538.432093881805
FINAL SINGLE POINT ENERGY      -538.434382293431
FINAL SINGLE POINT ENERGY      -538.434642730023
FINAL SINGLE POINT ENERGY      -538.434673502847
FINAL SINGLE POINT ENERGY      -538.434680548554
                    ***********************HURRAY********************

CARTESIAN COORDINATES (ANGSTROEM)
---------------------------------
  C    -20.975624   26.176854   46.233072
  C    -20.385414   27.557722   45.943733
  C    -20.428703   28.222440   47.341068
  C    -20.140132   27.040571   48.294413
  O    -20.403924   25.810193   47.508411
  H    -20.705690   25.386980   45.525165
  H    -19.351222   27.445648   45.596976
  H    -20.958202   28.099018   45.188112
  H    -19.699995   29.031625   47.447052
  H    -21.428658   28.627050   47.522752
  H    -20.783291   27.036903   49.177675
  H    -19.092772   26.994045   48.607924
  C    -23.838201   24.379511   46.845698
  H    -24.236298   23.442732   46.426668
  C    -23.234009   25.252954   45.745869
  C    -24.493002   25.894403   45.129749
  C    -25.426355   26.087468   46.349245
  O    -24.909594   25.199434   47.411636
  H    -23.130639   24.160190   47.646299
  O    -22.411588   26.312018   46.316752
  H    -22.649303   24.676806   45.016491
  H    -24.250707   26.832223   44.624792
  H    -24.933112   25.205420   44.399107
  H    -26.466095   25.819932   46.129164
  H    -25.391470   27.108861   46.738178

 Multiplicity           Mult            ....    1
 Number of Electrons    NEL             ....   86
 Basis Dimension        Dim             ....  127

ORBITAL ENERGIES
----------------

  NO   OCC          E(Eh)            E(eV)
   0   2.0000     -19.141111      -520.8561
   1   2.0000     -19.136085      -520.7194
   2   2.0000     -19.124211      -520.3962
   3   2.0000     -10.279390      -279.7164
   4   2.0000     -10.241415      -278.6831
   5   2.0000     -10.221303      -278.1358
   6   2.0000     -10.217896      -278.0431
   7   2.0000     -10.215990      -277.9912
   8   2.0000     -10.185140      -277.1518
   9   2.0000     -10.183720      -277.1131
  10   2.0000     -10.182662      -277.0843
  11   2.0000      -1.052134       -28.6300
  12   2.0000      -1.011243       -27.5173
  13   2.0000      -0.989138       -26.9158
  14   2.0000      -0.790285       -21.5047
  15   2.0000      -0.775287       -21.0966
  16   2.0000      -0.736351       -20.0371
  17   2.0000      -0.719311       -19.5735
  18   2.0000      -0.606107       -16.4930
  19   2.0000      -0.597353       -16.2548
  20   2.0000      -0.593162       -16.1408
  21   2.0000      -0.580405       -15.7936
  22   2.0000      -0.520175       -14.1547
  23   2.0000      -0.502434       -13.6719
  24   2.0000      -0.480393       -13.0722
  25   2.0000      -0.474185       -12.9032
  26   2.0000      -0.447584       -12.1794
  27   2.0000      -0.444587       -12.0978
  28   2.0000      -0.430841       -11.7238
  29   2.0000      -0.409439       -11.1414
  30   2.0000      -0.406469       -11.0606
  31   2.0000      -0.384694       -10.4680
  32   2.0000      -0.368427       -10.0254
  33   2.0000      -0.362863        -9.8740
  34   2.0000      -0.354405        -9.6438
  35   2.0000      -0.351861        -9.5746
  36   2.0000      -0.342586        -9.3222
  37   2.0000      -0.318328        -8.6621
  38   2.0000      -0.306765        -8.3475
  39   2.0000      -0.299056        -8.1377
  40   2.0000      -0.266301        -7.2464
  41   2.0000      -0.246817        -6.7162
  42   2.0000      -0.229052        -6.2328
  43   0.0000       0.075987         2.0677
  44   0.0000       0.096756         2.6329
  45   0.0000       0.098915         2.6916
  46   0.0000       0.115150         3.1334
  47   0.0000       0.126548         3.4436

MULLIKEN ATOMIC CHARGES
-----------------------
   0 C :    0.283074
   1 C :   -0.253160
   2 C :   -0.299584
   3 C :   -0.000474
   4 O :   -0.506922
   5 H :    0.137382
   6 H :    0.142143
   7 H :    0.146946
   8 H :    0.139678
   9 H :    0.165094
  10 H :    0.154305
  11 H :    0.139448
  12 C :    0.008244
  13 H :    0.117522
  14 C :    0.064462
  15 C :   -0.291230
  16 C :    0.005957
  17 O :   -0.518974
  18 H :    0.175368
  19 O :   -0.511615
  20 H :    0.121606
  21 H :    0.155571
  22 H :    0.140458
  23 H :    0.133313
  24 H :    0.151387
Sum of atomic charges:   -0.0000000

LOEWDIN ATOMIC CHARGES
----------------------
   0 C :    0.173719
   1 C :   -0.218513
   2 C :   -0.216162
   3 C :   -0.026501
   4 O :   -0.324573
   5 H :    0.096011
   6 H :    0.112182
   7 H :    0.118795
   8 H :    0.112937
   9 H :    0.120565
  10 H :    0.109249
  11 H :    0.101114
  12 C :   -0.043435
  13 H :    0.088555
  14 C :    0.040860
  15 C :   -0.228311
  16 C :   -0.027540
  17 O :   -0.328889
  18 H :    0.126006
  19 O :   -0.321665
  20 H :    0.095340
  21 H :    0.124076
  22 H :    0.112034
  23 H :    0.097126
  24 H :    0.107019

  Mayer bond orders larger than 0.100000
B(  0-C ,  1-C ) :   0.9453 B(  0-C ,  4-O ) :   0.9226 B(  0-C ,  5-H ) :   0.9171
B(  0-C , 19-O ) :   0.8568 B(  1-C ,  2-C ) :   0.9583 B(  1-C ,  6-H ) :   0.9384
B(  1-C ,  7-H ) :   0.9383 B(  2-C ,  3-C ) :   0.9544 B(  2-C ,  8-H ) :   0.9453
B(  2-C ,  9-H ) :   0.9434 B(  3-C ,  4-O ) :   0.8368 B(  3-C , 10-H ) :   0.9344
B(  3-C , 11-H ) :   0.9401 B( 12-C , 13-H ) :   0.9107 B( 12-C , 14-C ) :   0.9201
B( 12-C , 17-O ) :   0.8713 B( 12-C , 18-H ) :   0.9284 B( 14-C , 15-C ) :   0.9537
B( 14-C , 19-O ) :   0.8338 B( 14-C , 20-H ) :   0.9189 B( 15-C , 16-C ) :   0.9478
B( 15-C , 21-H ) :   0.9387 B( 15-C , 22-H ) :   0.9405 B( 16-C , 17-O ) :   0.8579
B( 16-C , 23-H ) :   0.9330 B( 16-C , 24-H ) :   0.9364

FINAL SINGLE POINT ENERGY      -538.434681749053

DIPOLE MOMENT
-------------
                                X             Y             Z
Electronic contribution:     -0.43374      -2.83425       1.82092
Nuclear contribution   :      0.85974       3.29260      -2.98654
                        -----------------------------------------
Total Dipole Moment    :      0.42600       0.45835      -1.16562
                        -----------------------------------------
Magnitude (a.u.)       :      1.32296
Magnitude (Debye)      :      3.36271

Rotational constants in cm-1:     0.076481     0.020744     0.019768
Rotational constants in MHz :  2292.846287   621.884273   592.634953

                             ****ORCA TERMINATED NORMALLY****
TOTAL RUN TIME: 0 days 0 hours 5 minutes 39 seconds 914 msec
