                         Program Version 4.2.0 -  RELEASE  -
|  1> # Test redundant internal optimization
|  2> #
|  3> ! RKS B3LYP  Opt TightSCF SmallPrint
|  4>
|  5> %basis
|  6>         Basis "6-31G"
|  7> end
|  8>
|  9> %geom
| 10> Constraints
| 11> { D 4  0  15  12  0.0   C } # D for Dihedral angle
| 12> { D 0  15  12  16  120.0   C } # D for Dihedral angle
| 13> { D 0  4  3  2   C } # D for Dihedral angle
| 14> { D 4  3  2  1   C } # D for Dihedral angle
| 15> { D 3  2  1  0   C } # D for Dihedral angle
| 16> { D 2  1  0  4   C } # D for Dihedral angle
| 17> { D 1  0  4  3   C } # D for Dihedral angle
| 18> { D 16  20  19  18   C } # D for Dihedral angle
| 19> { D 20  19  18  17   C } # D for Dihedral angle
| 20> { D 19  18  17  16   C } # D for Dihedral angle
| 21> { D 18  17  16  20   C } # D for Dihedral angle
| 22> { D 17  16  20  19   C } # D for Dihedral angle
| 23> { D 15  12  16  20   C } # D for Dihedral angle
| 24> end
| 25> end
| 26>
| 27>
| 28> #%pal
| 29> #nprocs 8
| 30> #end
| 31>
| 32> * xyz 0 1
| 33> C  -21.048   26.222   46.251
| 34> C  -20.361   27.558   45.944
| 35> C  -20.329   28.222   47.341
| 36> C  -20.110   27.022   48.296
| 37> O  -20.473   25.807   47.535
| 38> H  -20.833   25.428   45.533
| 39> H  -19.344   27.382   45.576
| 40> H  -20.898   28.157   45.201
| 41> H  -19.543   28.978   47.434
| 42> H  -21.289   28.710   47.548
| 43> H  -20.733   27.082   49.195
| 44> H  -19.064   26.913   48.597
| 45> C  -23.172   26.101   47.783
| 46> H  -23.891   25.276   47.711
| 47> H  -22.375   25.801   48.476
| 48> O  -22.586   26.394   46.375
| 49> C  -23.897   27.329   48.400
| 50> C  -25.135   27.713   47.581
| 51> C  -26.167   26.666   48.064
| 52> C  -25.804   26.477   49.558
| 53> O  -24.430   26.997   49.725
| 54> H  -23.177   28.138   48.537
| 55> H  -25.460   28.726   47.844
| 56> O  -24.893   27.658   46.047
| 57> H  -27.202   26.995   47.924
| 58> H  -26.037   25.728   47.512
| 59> H  -25.830   25.427   49.866
| 60> H  -26.451   27.057   50.221
| 61> H  -24.567   26.652   45.762
| 62> *
| 63>
| 64>                          ****END OF INPUT****
 Total Charge           Charge          ....    0
 Multiplicity           Mult            ....    1
 Number of Electrons    NEL             ....  102
FINAL SINGLE POINT ENERGY      -652.830237478491
FINAL SINGLE POINT ENERGY      -652.854211868115
FINAL SINGLE POINT ENERGY      -652.860568263742
FINAL SINGLE POINT ENERGY      -652.862909332434
FINAL SINGLE POINT ENERGY      -652.864090293252
FINAL SINGLE POINT ENERGY      -652.864715972453
FINAL SINGLE POINT ENERGY      -652.864884475881
FINAL SINGLE POINT ENERGY      -652.864921743792
FINAL SINGLE POINT ENERGY      -652.864925103605
                    ***********************HURRAY********************

CARTESIAN COORDINATES (ANGSTROEM)
---------------------------------
  C    -21.114825   26.202350   46.365745
  C    -20.539497   27.558341   45.957848
  C    -20.339236   28.244146   47.330499
  C    -19.935863   27.075456   48.253599
  O    -20.363745   25.834980   47.533944
  H    -20.964920   25.403852   45.636305
  H    -19.581271   27.399139   45.450724
  H    -21.206962   28.111621   45.293093
  H    -19.573472   29.025226   47.298547
  H    -21.273902   28.706154   47.660808
  H    -20.424801   27.097758   49.230731
  H    -18.854862   26.989531   48.390451
  C    -23.158231   25.999324   47.895903
  H    -23.838274   25.149810   47.769400
  H    -22.381338   25.713130   48.607037
  O    -22.565555   26.280596   46.581341
  C    -23.910615   27.239097   48.390581
  C    -25.106811   27.657358   47.518041
  C    -26.201923   26.655913   47.985976
  C    -25.901824   26.481492   49.488670
  O    -24.499473   26.954968   49.698231
  H    -23.206467   28.062750   48.540168
  H    -25.405767   28.674928   47.793693
  O    -24.877398   27.653960   46.095898
  H    -27.208050   27.038504   47.795133
  H    -26.088736   25.719222   47.429957
  H    -25.974433   25.444110   49.828719
  H    -26.537852   27.106383   50.121994
  H    -24.062898   27.135901   45.893962

 Multiplicity           Mult            ....    1
 Number of Electrons    NEL             ....  102
 Basis Dimension        Dim             ....  149

ORBITAL ENERGIES
----------------

  NO   OCC          E(Eh)            E(eV)
   0   2.0000     -19.162915      -521.4494
   1   2.0000     -19.157312      -521.2970
   2   2.0000     -19.139559      -520.8139
   3   2.0000     -19.112807      -520.0859
   4   2.0000     -10.292699      -280.0786
   5   2.0000     -10.241093      -278.6743
   6   2.0000     -10.232544      -278.4417
   7   2.0000     -10.232396      -278.4377
   8   2.0000     -10.229274      -278.3527
   9   2.0000     -10.225554      -278.2515
  10   2.0000     -10.199133      -277.5325
  11   2.0000     -10.196017      -277.4477
  12   2.0000     -10.177734      -276.9502
  13   2.0000      -1.066849       -29.0304
  14   2.0000      -1.024685       -27.8831
  15   2.0000      -1.005546       -27.3623
  16   2.0000      -0.990913       -26.9641
  17   2.0000      -0.800331       -21.7781
  18   2.0000      -0.775077       -21.0909
  19   2.0000      -0.767522       -20.8853
  20   2.0000      -0.738275       -20.0895
  21   2.0000      -0.678201       -18.4548
  22   2.0000      -0.613248       -16.6873
  23   2.0000      -0.599162       -16.3040
  24   2.0000      -0.595128       -16.1943
  25   2.0000      -0.577288       -15.7088
  26   2.0000      -0.534184       -14.5359
  27   2.0000      -0.512801       -13.9540
  28   2.0000      -0.507988       -13.8231
  29   2.0000      -0.487419       -13.2634
  30   2.0000      -0.477011       -12.9801
  31   2.0000      -0.460262       -12.5244
  32   2.0000      -0.445959       -12.1352
  33   2.0000      -0.426907       -11.6167
  34   2.0000      -0.425058       -11.5664
  35   2.0000      -0.420026       -11.4295
  36   2.0000      -0.411573       -11.1995
  37   2.0000      -0.386168       -10.5082
  38   2.0000      -0.384195       -10.4545
  39   2.0000      -0.370480       -10.0813
  40   2.0000      -0.368066       -10.0156
  41   2.0000      -0.359154        -9.7731
  42   2.0000      -0.355416        -9.6714
  43   2.0000      -0.344191        -9.3659
  44   2.0000      -0.329195        -8.9579
  45   2.0000      -0.318220        -8.6592
  46   2.0000      -0.285145        -7.7592
  47   2.0000      -0.276251        -7.5172
  48   2.0000      -0.274742        -7.4761
  49   2.0000      -0.246888        -6.7182
  50   2.0000      -0.238569        -6.4918
  51   0.0000       0.060389         1.6433
  52   0.0000       0.069481         1.8907
  53   0.0000       0.087487         2.3807
  54   0.0000       0.094235         2.5643
  55   0.0000       0.098882         2.6907

MULLIKEN ATOMIC CHARGES
-----------------------
   0 C :    0.316529
   1 C :   -0.265714
   2 C :   -0.315166
   3 C :   -0.025905
   4 O :   -0.508085
   5 H :    0.164942
   6 H :    0.152499
   7 H :    0.165115
   8 H :    0.153702
   9 H :    0.162606
  10 H :    0.157380
  11 H :    0.158655
  12 C :   -0.035596
  13 H :    0.151196
  14 H :    0.184069
  15 O :   -0.577652
  16 C :    0.047526
  17 C :    0.124104
  18 C :   -0.299950
  19 C :   -0.020086
  20 O :   -0.523693
  21 H :    0.152775
  22 H :    0.142731
  23 O :   -0.643613
  24 H :    0.148331
  25 H :    0.148444
  26 H :    0.141529
  27 H :    0.149511
  28 H :    0.393816
Sum of atomic charges:   -0.0000000

LOEWDIN ATOMIC CHARGES
----------------------
   0 C :    0.187604
   1 C :   -0.220809
   2 C :   -0.220306
   3 C :   -0.032307
   4 O :   -0.311508
   5 H :    0.108927
   6 H :    0.118388
   7 H :    0.127427
   8 H :    0.120849
   9 H :    0.114705
  10 H :    0.108990
  11 H :    0.111380
  12 C :   -0.047640
  13 H :    0.106668
  14 H :    0.125520
  15 O :   -0.354981
  16 C :    0.008922
  17 C :    0.041935
  18 C :   -0.236536
  19 C :   -0.031971
  20 O :   -0.326417
  21 H :    0.106388
  22 H :    0.103405
  23 O :   -0.436053
  24 H :    0.120281
  25 H :    0.112539
  26 H :    0.101994
  27 H :    0.105941
  28 H :    0.286665

  Mayer bond orders larger than 0.100000
B(  0-C ,  1-C ) :   0.9329 B(  0-C ,  4-O ) :   0.9304 B(  0-C ,  5-H ) :   0.9300
B(  0-C , 15-O ) :   0.7975 B(  1-C ,  2-C ) :   0.9514 B(  1-C ,  6-H ) :   0.9340
B(  1-C ,  7-H ) :   0.9344 B(  2-C ,  3-C ) :   0.9529 B(  2-C ,  8-H ) :   0.9433
B(  2-C ,  9-H ) :   0.9353 B(  3-C ,  4-O ) :   0.8196 B(  3-C , 10-H ) :   0.9317
B(  3-C , 11-H ) :   0.9398 B( 12-C , 13-H ) :   0.9328 B( 12-C , 14-H ) :   0.9110
B( 12-C , 15-O ) :   0.7837 B( 12-C , 16-C ) :   0.8924 B( 16-C , 17-C ) :   0.9117
B( 16-C , 20-O ) :   0.8495 B( 16-C , 21-H ) :   0.9235 B( 17-C , 18-C ) :   0.9012
B( 17-C , 22-H ) :   0.9326 B( 17-C , 23-O ) :   0.9327 B( 18-C , 19-C ) :   0.9392
B( 18-C , 24-H ) :   0.9454 B( 18-C , 25-H ) :   0.9425 B( 19-C , 20-O ) :   0.8331
B( 19-C , 26-H ) :   0.9347 B( 19-C , 27-H ) :   0.9379 B( 23-O , 28-H ) :   0.7227

FINAL SINGLE POINT ENERGY      -652.864926639042

DIPOLE MOMENT
-------------
                                X             Y             Z
Electronic contribution:     -0.08303      -2.00350      -0.69150
Nuclear contribution   :      0.84100       2.17299       0.84261
                        -----------------------------------------
Total Dipole Moment    :      0.75797       0.16948       0.15111
                        -----------------------------------------
Magnitude (a.u.)       :      0.79125
Magnitude (Debye)      :      2.01121

Rotational constants in cm-1:     0.051215     0.015634     0.014100
Rotational constants in MHz :  1535.387510   468.695283   422.713649

                             ****ORCA TERMINATED NORMALLY****
TOTAL RUN TIME: 0 days 0 hours 38 minutes 12 seconds 644 msec
