                         Program Version 4.2.0 -  RELEASE  -
|  1> # Test redundant internal optimization
|  2> #
|  3> ! RKS B3LYP  Opt TightSCF SmallPrint
|  4>
|  5> %basis
|  6>         Basis "6-31G"
|  7> end
|  8>
|  9> %geom
| 10> Constraints
| 11> { D 4  0  15  12  345.0   C } # D for Dihedral angle
| 12> { D 0  15  12  16  300.0   C } # D for Dihedral angle
| 13> { D 0  4  3  2   C } # D for Dihedral angle
| 14> { D 4  3  2  1   C } # D for Dihedral angle
| 15> { D 3  2  1  0   C } # D for Dihedral angle
| 16> { D 2  1  0  4   C } # D for Dihedral angle
| 17> { D 1  0  4  3   C } # D for Dihedral angle
| 18> { D 16  20  19  18   C } # D for Dihedral angle
| 19> { D 20  19  18  17   C } # D for Dihedral angle
| 20> { D 19  18  17  16   C } # D for Dihedral angle
| 21> { D 18  17  16  20   C } # D for Dihedral angle
| 22> { D 17  16  20  19   C } # D for Dihedral angle
| 23> { D 15  12  16  20   C } # D for Dihedral angle
| 24> end
| 25> end
| 26>
| 27>
| 28> #%pal
| 29> #nprocs 8
| 30> #end
| 31>
| 32> * xyz 0 1
| 33> C  -21.048   26.222   46.251
| 34> C  -20.361   27.558   45.944
| 35> C  -20.329   28.222   47.341
| 36> C  -20.110   27.022   48.296
| 37> O  -20.473   25.807   47.535
| 38> H  -20.833   25.428   45.533
| 39> H  -19.344   27.382   45.576
| 40> H  -20.898   28.157   45.201
| 41> H  -19.543   28.978   47.434
| 42> H  -21.289   28.710   47.548
| 43> H  -20.733   27.082   49.195
| 44> H  -19.064   26.913   48.597
| 45> C  -23.221   25.764   47.645
| 46> H  -22.786   26.232   48.537
| 47> H  -24.304   25.939   47.660
| 48> O  -22.586   26.394   46.375
| 49> C  -22.988   24.231   47.735
| 50> C  -23.724   23.626   48.936
| 51> C  -25.172   23.530   48.401
| 52> C  -24.971   23.194   46.902
| 53> O  -23.575   23.554   46.574
| 54> H  -21.915   24.030   47.715
| 55> O  -23.161   22.213   49.250
| 56> H  -23.645   24.238   49.841
| 57> H  -25.768   22.774   48.922
| 58> H  -25.681   24.495   48.516
| 59> H  -25.649   23.759   46.251
| 60> H  -25.087   22.127   46.694
| 61> H  -23.230   21.582   48.357
| 62> *
| 63>
| 64>                          ****END OF INPUT****
 Total Charge           Charge          ....    0
 Multiplicity           Mult            ....    1
 Number of Electrons    NEL             ....  102
FINAL SINGLE POINT ENERGY      -652.833021489427
FINAL SINGLE POINT ENERGY      -652.855684009271
FINAL SINGLE POINT ENERGY      -652.860154418844
FINAL SINGLE POINT ENERGY      -652.860943994864
FINAL SINGLE POINT ENERGY      -652.861058848233
FINAL SINGLE POINT ENERGY      -652.861072947042
                    ***********************HURRAY********************

CARTESIAN COORDINATES (ANGSTROEM)
---------------------------------
  C    -21.070990   26.200894   46.296017
  C    -20.465874   27.569255   45.979790
  C    -20.343854   28.192775   47.388755
  C    -20.000607   26.981347   48.284571
  O    -20.386565   25.775318   47.498499
  H    -20.884919   25.423776   45.551169
  H    -19.480751   27.431176   45.519581
  H    -21.098852   28.148551   45.304573
  H    -19.578988   28.973727   47.439787
  H    -21.302032   28.633485   47.681675
  H    -20.546471   26.973563   49.232188
  H    -18.929652   26.890022   48.486685
  C    -23.169320   25.756174   47.604188
  H    -22.807351   26.224071   48.531087
  H    -24.218060   26.030627   47.462856
  O    -22.511857   26.340843   46.448254
  C    -23.009825   24.236409   47.731313
  C    -23.777326   23.650359   48.926800
  C    -25.215178   23.532443   48.353506
  C    -24.966776   23.166089   46.867751
  O    -23.561971   23.529872   46.571255
  H    -21.948328   23.986491   47.780951
  O    -23.244219   22.349884   49.300947
  H    -23.720969   24.256840   49.832234
  H    -25.784141   22.771314   48.892901
  H    -25.741903   24.488876   48.446400
  H    -25.627843   23.704882   46.182375
  H    -25.069786   22.092730   46.680071
  H    -23.023592   21.851207   48.485821

 Multiplicity           Mult            ....    1
 Number of Electrons    NEL             ....  102
 Basis Dimension        Dim             ....  149

ORBITAL ENERGIES
----------------

  NO   OCC          E(Eh)            E(eV)
   0   2.0000     -19.150223      -521.1041
   1   2.0000     -19.136486      -520.7303
   2   2.0000     -19.136019      -520.7175
   3   2.0000     -19.134091      -520.6651
   4   2.0000     -10.276535      -279.6387
   5   2.0000     -10.238756      -278.6107
   6   2.0000     -10.232455      -278.4392
   7   2.0000     -10.229559      -278.3604
   8   2.0000     -10.226247      -278.2703
   9   2.0000     -10.224436      -278.2210
  10   2.0000     -10.190127      -277.2875
  11   2.0000     -10.186429      -277.1868
  12   2.0000     -10.185125      -277.1513
  13   2.0000      -1.054574       -28.6964
  14   2.0000      -1.031179       -28.0598
  15   2.0000      -1.001727       -27.2584
  16   2.0000      -0.990116       -26.9424
  17   2.0000      -0.791911       -21.5490
  18   2.0000      -0.778977       -21.1970
  19   2.0000      -0.762554       -20.7502
  20   2.0000      -0.734481       -19.9862
  21   2.0000      -0.671027       -18.2596
  22   2.0000      -0.602994       -16.4083
  23   2.0000      -0.601714       -16.3735
  24   2.0000      -0.598845       -16.2954
  25   2.0000      -0.567851       -15.4520
  26   2.0000      -0.519896       -14.1471
  27   2.0000      -0.512304       -13.9405
  28   2.0000      -0.497169       -13.5287
  29   2.0000      -0.487833       -13.2746
  30   2.0000      -0.471349       -12.8261
  31   2.0000      -0.459956       -12.5160
  32   2.0000      -0.446737       -12.1563
  33   2.0000      -0.440313       -11.9815
  34   2.0000      -0.417332       -11.3562
  35   2.0000      -0.409681       -11.1480
  36   2.0000      -0.397996       -10.8300
  37   2.0000      -0.389021       -10.5858
  38   2.0000      -0.375480       -10.2173
  39   2.0000      -0.367445        -9.9987
  40   2.0000      -0.360500        -9.8097
  41   2.0000      -0.358829        -9.7642
  42   2.0000      -0.351951        -9.5771
  43   2.0000      -0.333812        -9.0835
  44   2.0000      -0.324148        -8.8205
  45   2.0000      -0.310028        -8.4363
  46   2.0000      -0.297536        -8.0964
  47   2.0000      -0.267389        -7.2760
  48   2.0000      -0.263117        -7.1598
  49   2.0000      -0.257275        -7.0008
  50   2.0000      -0.232405        -6.3241
  51   0.0000       0.067142         1.8270
  52   0.0000       0.078695         2.1414
  53   0.0000       0.089758         2.4424
  54   0.0000       0.098429         2.6784
  55   0.0000       0.106783         2.9057

MULLIKEN ATOMIC CHARGES
-----------------------
   0 C :    0.296616
   1 C :   -0.257092
   2 C :   -0.304983
   3 C :   -0.015485
   4 O :   -0.518639
   5 H :    0.165044
   6 H :    0.144774
   7 H :    0.162949
   8 H :    0.146568
   9 H :    0.156112
  10 H :    0.144288
  11 H :    0.151386
  12 C :    0.007750
  13 H :    0.120794
  14 H :    0.149819
  15 O :   -0.528701
  16 C :    0.039381
  17 C :    0.076474
  18 C :   -0.298471
  19 C :   -0.026287
  20 O :   -0.517678
  21 H :    0.197435
  22 O :   -0.603388
  23 H :    0.148653
  24 H :    0.163642
  25 H :    0.140334
  26 H :    0.148474
  27 H :    0.144313
  28 H :    0.365917
Sum of atomic charges:   -0.0000000

LOEWDIN ATOMIC CHARGES
----------------------
   0 C :    0.179738
   1 C :   -0.215849
   2 C :   -0.218452
   3 C :   -0.031943
   4 O :   -0.323850
   5 H :    0.107690
   6 H :    0.113814
   7 H :    0.127256
   8 H :    0.116769
   9 H :    0.115609
  10 H :    0.101437
  11 H :    0.107188
  12 C :   -0.036802
  13 H :    0.091866
  14 H :    0.112439
  15 O :   -0.328936
  16 C :   -0.002375
  17 C :    0.035902
  18 C :   -0.242479
  19 C :   -0.037887
  20 O :   -0.327683
  21 H :    0.130322
  22 O :   -0.415247
  23 H :    0.113314
  24 H :    0.126637
  25 H :    0.110867
  26 H :    0.105165
  27 H :    0.101757
  28 H :    0.283733

  Mayer bond orders larger than 0.100000
B(  0-C ,  1-C ) :   0.9391 B(  0-C ,  4-O ) :   0.8900 B(  0-C ,  5-H ) :   0.9242
B(  0-C , 15-O ) :   0.8456 B(  1-C ,  2-C ) :   0.9520 B(  1-C ,  6-H ) :   0.9367
B(  1-C ,  7-H ) :   0.9358 B(  2-C ,  3-C ) :   0.9538 B(  2-C ,  8-H ) :   0.9447
B(  2-C ,  9-H ) :   0.9455 B(  3-C ,  4-O ) :   0.8293 B(  3-C , 10-H ) :   0.9323
B(  3-C , 11-H ) :   0.9401 B( 12-C , 13-H ) :   0.9103 B( 12-C , 14-H ) :   0.9394
B( 12-C , 15-O ) :   0.8567 B( 12-C , 16-C ) :   0.8797 B( 16-C , 17-C ) :   0.9004
B( 16-C , 20-O ) :   0.8487 B( 16-C , 21-H ) :   0.9054 B( 17-C , 18-C ) :   0.9113
B( 17-C , 22-O ) :   0.8909 B( 17-C , 23-H ) :   0.9332 B( 18-C , 19-C ) :   0.9425
B( 18-C , 24-H ) :   0.9371 B( 18-C , 25-H ) :   0.9343 B( 19-C , 20-O ) :   0.8523
B( 19-C , 26-H ) :   0.9338 B( 19-C , 27-H ) :   0.9383 B( 22-O , 28-H ) :   0.7936

FINAL SINGLE POINT ENERGY      -652.861075056341

DIPOLE MOMENT
-------------
                                X             Y             Z
Electronic contribution:      0.49959      -4.21251      -1.40113
Nuclear contribution   :     -0.63317       5.17411       1.58905
                        -----------------------------------------
Total Dipole Moment    :     -0.13358       0.96160       0.18791
                        -----------------------------------------
Magnitude (a.u.)       :      0.98885
Magnitude (Debye)      :      2.51346

Rotational constants in cm-1:     0.058960     0.013881     0.012721
Rotational constants in MHz :  1767.571574   416.146385   381.351377

                             ****ORCA TERMINATED NORMALLY****
TOTAL RUN TIME: 0 days 0 hours 23 minutes 5 seconds 508 msec
