                         Program Version 4.2.0 -  RELEASE  -
|  1> # Test redundant internal optimization
|  2> #
|  3> ! RKS B3LYP  Opt TightSCF SmallPrint
|  4>
|  5> %basis
|  6>         Basis "6-31G"
|  7> end
|  8>
|  9> %geom
| 10> Constraints
| 11> { D 4  0  15  12  165.0   C } # D for Dihedral angle
| 12> { D 0  15  12  16  210.0   C } # D for Dihedral angle
| 13> { D 0  4  3  2   C } # D for Dihedral angle
| 14> { D 4  3  2  1   C } # D for Dihedral angle
| 15> { D 3  2  1  0   C } # D for Dihedral angle
| 16> { D 2  1  0  4   C } # D for Dihedral angle
| 17> { D 1  0  4  3   C } # D for Dihedral angle
| 18> { D 16  20  19  18   C } # D for Dihedral angle
| 19> { D 20  19  18  17   C } # D for Dihedral angle
| 20> { D 19  18  17  16   C } # D for Dihedral angle
| 21> { D 18  17  16  20   C } # D for Dihedral angle
| 22> { D 17  16  20  19   C } # D for Dihedral angle
| 23> { D 15  12  16  20   C } # D for Dihedral angle
| 24> end
| 25> end
| 26>
| 27>
| 28> #%pal
| 29> #nprocs 8
| 30> #end
| 31>
| 32> * xyz 0 1
| 33> C  -21.048   26.222   46.251
| 34> C  -20.361   27.558   45.944
| 35> C  -20.329   28.222   47.341
| 36> C  -20.110   27.022   48.296
| 37> O  -20.473   25.807   47.535
| 38> H  -20.833   25.428   45.533
| 39> H  -19.344   27.382   45.576
| 40> H  -20.898   28.157   45.201
| 41> H  -19.543   28.978   47.434
| 42> H  -21.289   28.710   47.548
| 43> H  -20.733   27.082   49.195
| 44> H  -19.064   26.913   48.597
| 45> C  -23.260   27.170   45.210
| 46> H  -22.545   27.890   44.794
| 47> H  -23.557   26.480   44.410
| 48> O  -22.586   26.394   46.375
| 49> C  -24.528   27.946   45.660
| 50> C  -24.177   29.054   46.660
| 51> C  -23.643   30.164   45.723
| 52> C  -24.522   30.009   44.457
| 53> O  -25.123   28.659   44.525
| 54> H  -25.275   27.235   46.018
| 55> H  -25.081   29.390   47.181
| 56> O  -23.136   28.610   47.723
| 57> H  -23.718   31.163   46.163
| 58> H  -22.588   29.980   45.486
| 59> H  -23.944   30.098   43.531
| 60> H  -25.346   30.727   44.430
| 61> H  -22.223   28.269   47.224
| 62> *
| 63>
| 64>                          ****END OF INPUT****
 Total Charge           Charge          ....    0
 Multiplicity           Mult            ....    1
 Number of Electrons    NEL             ....  102
FINAL SINGLE POINT ENERGY      -652.789052904695
FINAL SINGLE POINT ENERGY      -652.828728524302
FINAL SINGLE POINT ENERGY      -652.845006210466
FINAL SINGLE POINT ENERGY      -652.850746484393
FINAL SINGLE POINT ENERGY      -652.853941308953
FINAL SINGLE POINT ENERGY      -652.856427404522
FINAL SINGLE POINT ENERGY      -652.858244525368
FINAL SINGLE POINT ENERGY      -652.859382287427
FINAL SINGLE POINT ENERGY      -652.859862927577
FINAL SINGLE POINT ENERGY      -652.859924750630
FINAL SINGLE POINT ENERGY      -652.859938916625
FINAL SINGLE POINT ENERGY      -652.859941835106
                    ***********************HURRAY********************

CARTESIAN COORDINATES (ANGSTROEM)
---------------------------------
  C    -21.075501   26.271348   46.239686
  C    -20.180922   27.461121   45.887292
  C    -20.146306   28.250508   47.225602
  C    -20.174971   27.125687   48.280915
  O    -20.668090   25.915572   47.560207
  H    -20.910408   25.393991   45.607256
  H    -19.191108   27.063097   45.638826
  H    -20.517893   28.064374   45.040620
  H    -19.248594   28.870377   47.311444
  H    -21.025976   28.889573   47.321807
  H    -20.849747   27.333479   49.115197
  H    -19.185347   26.868690   48.667357
  C    -23.189109   27.188695   45.150464
  H    -22.496921   27.889472   44.670568
  H    -23.509388   26.457990   44.399663
  O    -22.537797   26.495892   46.270530
  C    -24.420736   27.947546   45.666758
  C    -24.176790   29.063181   46.693951
  C    -23.718665   30.234539   45.782806
  C    -24.558339   30.034412   44.503150
  O    -25.051356   28.627907   44.538327
  H    -25.148534   27.219696   46.038580
  H    -25.137657   29.319972   47.156616
  O    -23.241574   28.730932   47.742782
  H    -23.886419   31.209018   46.250043
  H    -22.645318   30.137820   45.587225
  H    -23.984393   30.185793   43.583672
  H    -25.444574   30.674381   44.475087
  H    -22.954567   27.793934   47.614569

 Multiplicity           Mult            ....    1
 Number of Electrons    NEL             ....  102
 Basis Dimension        Dim             ....  149

ORBITAL ENERGIES
----------------

  NO   OCC          E(Eh)            E(eV)
   0   2.0000     -19.160234      -521.3765
   1   2.0000     -19.149713      -521.0902
   2   2.0000     -19.145880      -520.9859
   3   2.0000     -19.128801      -520.5211
   4   2.0000     -10.290413      -280.0164
   5   2.0000     -10.240252      -278.6514
   6   2.0000     -10.239156      -278.6216
   7   2.0000     -10.238976      -278.6167
   8   2.0000     -10.233084      -278.4564
   9   2.0000     -10.229002      -278.3453
  10   2.0000     -10.197658      -277.4924
  11   2.0000     -10.188405      -277.2406
  12   2.0000     -10.185122      -277.1513
  13   2.0000      -1.061558       -28.8865
  14   2.0000      -1.032494       -28.0956
  15   2.0000      -1.009498       -27.4698
  16   2.0000      -1.000232       -27.2177
  17   2.0000      -0.791732       -21.5441
  18   2.0000      -0.779258       -21.2047
  19   2.0000      -0.772931       -21.0325
  20   2.0000      -0.738443       -20.0940
  21   2.0000      -0.684382       -18.6230
  22   2.0000      -0.607541       -16.5320
  23   2.0000      -0.603625       -16.4255
  24   2.0000      -0.594313       -16.1721
  25   2.0000      -0.582521       -15.8512
  26   2.0000      -0.532663       -14.4945
  27   2.0000      -0.513022       -13.9600
  28   2.0000      -0.505152       -13.7459
  29   2.0000      -0.498553       -13.5663
  30   2.0000      -0.472258       -12.8508
  31   2.0000      -0.457957       -12.4616
  32   2.0000      -0.451667       -12.2905
  33   2.0000      -0.440521       -11.9872
  34   2.0000      -0.433041       -11.7837
  35   2.0000      -0.416700       -11.3390
  36   2.0000      -0.413720       -11.2579
  37   2.0000      -0.394182       -10.7262
  38   2.0000      -0.383292       -10.4299
  39   2.0000      -0.375807       -10.2262
  40   2.0000      -0.362903        -9.8751
  41   2.0000      -0.359536        -9.7835
  42   2.0000      -0.353470        -9.6184
  43   2.0000      -0.343092        -9.3360
  44   2.0000      -0.324423        -8.8280
  45   2.0000      -0.312559        -8.5052
  46   2.0000      -0.296738        -8.0747
  47   2.0000      -0.277346        -7.5470
  48   2.0000      -0.265755        -7.2316
  49   2.0000      -0.256494        -6.9795
  50   2.0000      -0.248553        -6.7635
  51   0.0000       0.054185         1.4744
  52   0.0000       0.062666         1.7052
  53   0.0000       0.090170         2.4537
  54   0.0000       0.094085         2.5602
  55   0.0000       0.107747         2.9319

MULLIKEN ATOMIC CHARGES
-----------------------
   0 C :    0.321302
   1 C :   -0.296167
   2 C :   -0.329925
   3 C :   -0.019197
   4 O :   -0.502084
   5 H :    0.154495
   6 H :    0.157538
   7 H :    0.142617
   8 H :    0.140746
   9 H :    0.194994
  10 H :    0.163460
  11 H :    0.148134
  12 C :   -0.010855
  13 H :    0.129558
  14 H :    0.162128
  15 O :   -0.549919
  16 C :    0.038894
  17 C :    0.123876
  18 C :   -0.310990
  19 C :   -0.015727
  20 O :   -0.518075
  21 H :    0.168372
  22 H :    0.149164
  23 O :   -0.639670
  24 H :    0.153062
  25 H :    0.149253
  26 H :    0.140407
  27 H :    0.153210
  28 H :    0.401401
Sum of atomic charges:   -0.0000000

LOEWDIN ATOMIC CHARGES
----------------------
   0 C :    0.183860
   1 C :   -0.231809
   2 C :   -0.233696
   3 C :   -0.029031
   4 O :   -0.300929
   5 H :    0.102170
   6 H :    0.122556
   7 H :    0.112538
   8 H :    0.114933
   9 H :    0.130068
  10 H :    0.112389
  11 H :    0.106193
  12 C :   -0.045600
  13 H :    0.095015
  14 H :    0.112504
  15 O :   -0.345886
  16 C :    0.016279
  17 C :    0.041637
  18 C :   -0.234866
  19 C :   -0.030855
  20 O :   -0.320426
  21 H :    0.117648
  22 H :    0.104750
  23 O :   -0.429788
  24 H :    0.121733
  25 H :    0.111416
  26 H :    0.101436
  27 H :    0.107957
  28 H :    0.287802

  Mayer bond orders larger than 0.100000
B(  0-C ,  1-C ) :   0.9270 B(  0-C ,  4-O ) :   0.9481 B(  0-C ,  5-H ) :   0.9257
B(  0-C , 15-O ) :   0.7952 B(  1-C ,  2-C ) :   0.9474 B(  1-C ,  6-H ) :   0.9317
B(  1-C ,  7-H ) :   0.9268 B(  2-C ,  3-C ) :   0.9529 B(  2-C ,  8-H ) :   0.9451
B(  2-C ,  9-H ) :   0.9023 B(  3-C ,  4-O ) :   0.8218 B(  3-C , 10-H ) :   0.9320
B(  3-C , 11-H ) :   0.9404 B( 12-C , 13-H ) :   0.9121 B( 12-C , 14-H ) :   0.9236
B( 12-C , 15-O ) :   0.8024 B( 12-C , 16-C ) :   0.9079 B( 16-C , 17-C ) :   0.9174
B( 16-C , 20-O ) :   0.8561 B( 16-C , 21-H ) :   0.9268 B( 17-C , 18-C ) :   0.9090
B( 17-C , 22-H ) :   0.9252 B( 17-C , 23-O ) :   0.9116 B( 18-C , 19-C ) :   0.9398
B( 18-C , 24-H ) :   0.9447 B( 18-C , 25-H ) :   0.9421 B( 19-C , 20-O ) :   0.8355
B( 19-C , 26-H ) :   0.9344 B( 19-C , 27-H ) :   0.9375 B( 23-O , 28-H ) :   0.7096

FINAL SINGLE POINT ENERGY      -652.859942103674

DIPOLE MOMENT
-------------
                                X             Y             Z
Electronic contribution:     -3.54196      -5.05817       1.15392
Nuclear contribution   :      4.38456       5.91263      -1.92444
                        -----------------------------------------
Total Dipole Moment    :      0.84260       0.85446      -0.77052
                        -----------------------------------------
Magnitude (a.u.)       :      1.42611
Magnitude (Debye)      :      3.62487

Rotational constants in cm-1:     0.051769     0.016475     0.015292
Rotational constants in MHz :  1552.003421   493.919435   458.432470

                             ****ORCA TERMINATED NORMALLY****
TOTAL RUN TIME: 0 days 0 hours 41 minutes 37 seconds 647 msec
