                         Program Version 4.2.0 -  RELEASE  -
|  1> # Test redundant internal optimization
|  2> #
|  3> ! RKS B3LYP  Opt TightSCF SmallPrint
|  4>
|  5> %basis
|  6>         Basis "6-31G"
|  7> end
|  8>
|  9> %geom
| 10> Constraints
| 11> { D 4  0  15  12  15.0   C } # D for Dihedral angle
| 12> { D 0  15  12  16  75.0   C } # D for Dihedral angle
| 13> { D 0  4  3  2   C } # D for Dihedral angle
| 14> { D 4  3  2  1   C } # D for Dihedral angle
| 15> { D 3  2  1  0   C } # D for Dihedral angle
| 16> { D 2  1  0  4   C } # D for Dihedral angle
| 17> { D 1  0  4  3   C } # D for Dihedral angle
| 18> { D 16  20  19  18   C } # D for Dihedral angle
| 19> { D 20  19  18  17   C } # D for Dihedral angle
| 20> { D 19  18  17  16   C } # D for Dihedral angle
| 21> { D 18  17  16  20   C } # D for Dihedral angle
| 22> { D 17  16  20  19   C } # D for Dihedral angle
| 23> { D 15  12  16  20   C } # D for Dihedral angle
| 24> end
| 25> end
| 26>
| 27>
| 28> #%pal
| 29> #nprocs 8
| 30> #end
| 31>
| 32> * xyz 0 1
| 33> C  -21.048   26.222   46.251
| 34> C  -20.361   27.558   45.944
| 35> C  -20.329   28.222   47.341
| 36> C  -20.110   27.022   48.296
| 37> O  -20.473   25.807   47.535
| 38> H  -20.833   25.428   45.533
| 39> H  -19.344   27.382   45.576
| 40> H  -20.898   28.157   45.201
| 41> H  -19.543   28.978   47.434
| 42> H  -21.289   28.710   47.548
| 43> H  -20.733   27.082   49.195
| 44> H  -19.064   26.913   48.597
| 45> C  -23.128   26.462   47.829
| 46> H  -24.214   26.305   47.819
| 47> H  -22.673   25.676   48.446
| 48> O  -22.586   26.394   46.375
| 49> C  -22.839   27.827   48.514
| 50> C  -23.581   28.970   47.813
| 51> C  -25.011   28.812   48.382
| 52> C  -24.760   28.340   49.836
| 53> O  -23.371   27.836   49.881
| 54> H  -21.759   27.967   48.590
| 55> O  -22.971   30.336   48.231
| 56> H  -23.548   28.899   46.720
| 57> H  -25.590   29.739   48.338
| 58> H  -25.558   28.048   47.816
| 59> H  -25.442   27.539   50.141
| 60> H  -24.830   29.158   50.558
| 61> H  -22.994   30.430   49.324
| 62> *
| 63>
| 64>                          ****END OF INPUT****
 Total Charge           Charge          ....    0
 Multiplicity           Mult            ....    1
 Number of Electrons    NEL             ....  102
FINAL SINGLE POINT ENERGY      -652.790424489242
FINAL SINGLE POINT ENERGY      -652.831325596796
FINAL SINGLE POINT ENERGY      -652.851618528395
FINAL SINGLE POINT ENERGY      -652.855657004657
FINAL SINGLE POINT ENERGY      -652.856160240196
FINAL SINGLE POINT ENERGY      -652.856256497635
FINAL SINGLE POINT ENERGY      -652.856265736360
FINAL SINGLE POINT ENERGY      -652.856266111223
                    ***********************HURRAY********************

CARTESIAN COORDINATES (ANGSTROEM)
---------------------------------
  C    -21.103828   26.261437   46.417564
  C    -20.369274   27.494079   45.875832
  C    -19.974418   28.235601   47.183378
  C    -19.677669   27.072093   48.160123
  O    -20.324556   25.868336   47.564804
  H    -21.043541   25.417359   45.724418
  H    -19.480497   27.151792   45.335255
  H    -20.988972   28.093630   45.205263
  H    -19.094358   28.871928   47.043765
  H    -20.785783   28.881266   47.527832
  H    -20.070301   27.224641   49.169367
  H    -18.609745   26.845601   48.227205
  C    -23.180063   26.488923   47.925727
  H    -24.232811   26.290691   47.706433
  H    -22.808510   25.693493   48.581798
  O    -22.539620   26.405374   46.619639
  C    -23.027138   27.820265   48.662624
  C    -23.653537   29.033160   47.961129
  C    -25.146802   28.876324   48.339493
  C    -25.092022   28.295234   49.775748
  O    -23.723476   27.745937   49.954524
  H    -21.983016   28.003476   48.908400
  O    -23.076369   30.275936   48.453128
  H    -23.481012   29.037366   46.885417
  H    -25.663246   29.838511   48.289201
  H    -25.640605   28.186738   47.647293
  H    -25.820843   27.495541   49.939631
  H    -25.234656   29.060271   50.545503
  H    -23.053335   30.253997   49.433507

 Multiplicity           Mult            ....    1
 Number of Electrons    NEL             ....  102
 Basis Dimension        Dim             ....  149

ORBITAL ENERGIES
----------------

  NO   OCC          E(Eh)            E(eV)
   0   2.0000     -19.149453      -521.0831
   1   2.0000     -19.147334      -521.0255
   2   2.0000     -19.143934      -520.9329
   3   2.0000     -19.139850      -520.8218
   4   2.0000     -10.278278      -279.6862
   5   2.0000     -10.241027      -278.6725
   6   2.0000     -10.234683      -278.4999
   7   2.0000     -10.232563      -278.4422
   8   2.0000     -10.231571      -278.4152
   9   2.0000     -10.228895      -278.3424
  10   2.0000     -10.191780      -277.3324
  11   2.0000     -10.188497      -277.2431
  12   2.0000     -10.186618      -277.1920
  13   2.0000      -1.051284       -28.6069
  14   2.0000      -1.039051       -28.2740
  15   2.0000      -1.009831       -27.4789
  16   2.0000      -0.993531       -27.0353
  17   2.0000      -0.788161       -21.4469
  18   2.0000      -0.783949       -21.3323
  19   2.0000      -0.771514       -20.9940
  20   2.0000      -0.734224       -19.9793
  21   2.0000      -0.677395       -18.4329
  22   2.0000      -0.608655       -16.5623
  23   2.0000      -0.606002       -16.4901
  24   2.0000      -0.602442       -16.3933
  25   2.0000      -0.570219       -15.5164
  26   2.0000      -0.528795       -14.3892
  27   2.0000      -0.506451       -13.7812
  28   2.0000      -0.499485       -13.5917
  29   2.0000      -0.489965       -13.3326
  30   2.0000      -0.477349       -12.9893
  31   2.0000      -0.463290       -12.6068
  32   2.0000      -0.453902       -12.3513
  33   2.0000      -0.432727       -11.7751
  34   2.0000      -0.423569       -11.5259
  35   2.0000      -0.416335       -11.3290
  36   2.0000      -0.404663       -11.0114
  37   2.0000      -0.396393       -10.7864
  38   2.0000      -0.375803       -10.2261
  39   2.0000      -0.370458       -10.0807
  40   2.0000      -0.359940        -9.7945
  41   2.0000      -0.359582        -9.7847
  42   2.0000      -0.347835        -9.4651
  43   2.0000      -0.335617        -9.1326
  44   2.0000      -0.326956        -8.8969
  45   2.0000      -0.313396        -8.5279
  46   2.0000      -0.306334        -8.3358
  47   2.0000      -0.274415        -7.4672
  48   2.0000      -0.267538        -7.2801
  49   2.0000      -0.261266        -7.1094
  50   2.0000      -0.236997        -6.4490
  51   0.0000       0.058983         1.6050
  52   0.0000       0.076393         2.0788
  53   0.0000       0.086943         2.3658
  54   0.0000       0.093478         2.5437
  55   0.0000       0.101362         2.7582

MULLIKEN ATOMIC CHARGES
-----------------------
   0 C :    0.311890
   1 C :   -0.265929
   2 C :   -0.335067
   3 C :   -0.026351
   4 O :   -0.512695
   5 H :    0.160444
   6 H :    0.150328
   7 H :    0.155759
   8 H :    0.147884
   9 H :    0.180816
  10 H :    0.155620
  11 H :    0.151916
  12 C :   -0.011630
  13 H :    0.147745
  14 H :    0.167538
  15 O :   -0.542180
  16 C :    0.036328
  17 C :    0.088777
  18 C :   -0.307394
  19 C :   -0.034527
  20 O :   -0.525895
  21 H :    0.161397
  22 O :   -0.606104
  23 H :    0.171354
  24 H :    0.162936
  25 H :    0.156516
  26 H :    0.150379
  27 H :    0.147409
  28 H :    0.362733
Sum of atomic charges:   -0.0000000

LOEWDIN ATOMIC CHARGES
----------------------
   0 C :    0.181539
   1 C :   -0.222624
   2 C :   -0.229724
   3 C :   -0.036587
   4 O :   -0.318122
   5 H :    0.105759
   6 H :    0.117987
   7 H :    0.123129
   8 H :    0.117998
   9 H :    0.121970
  10 H :    0.104324
  11 H :    0.107664
  12 C :   -0.037849
  13 H :    0.111306
  14 H :    0.116052
  15 O :   -0.340976
  16 C :   -0.002916
  17 C :    0.032741
  18 C :   -0.241540
  19 C :   -0.039611
  20 O :   -0.328312
  21 H :    0.112981
  22 O :   -0.415795
  23 H :    0.123508
  24 H :    0.127033
  25 H :    0.119264
  26 H :    0.105843
  27 H :    0.102820
  28 H :    0.282140

  Mayer bond orders larger than 0.100000
B(  0-C ,  1-C ) :   0.9199 B(  0-C ,  4-O ) :   0.9112 B(  0-C ,  5-H ) :   0.9346
B(  0-C , 15-O ) :   0.8536 B(  1-C ,  2-C ) :   0.9537 B(  1-C ,  6-H ) :   0.9349
B(  1-C ,  7-H ) :   0.9365 B(  2-C ,  3-C ) :   0.9487 B(  2-C ,  8-H ) :   0.9443
B(  2-C ,  9-H ) :   0.9197 B(  3-C ,  4-O ) :   0.8318 B(  3-C , 10-H ) :   0.9231
B(  3-C , 11-H ) :   0.9375 B( 12-C , 13-H ) :   0.9399 B( 12-C , 14-H ) :   0.9164
B( 12-C , 15-O ) :   0.8398 B( 12-C , 16-C ) :   0.8794 B( 16-C , 17-C ) :   0.9034
B( 16-C , 20-O ) :   0.8314 B( 16-C , 21-H ) :   0.9120 B( 17-C , 18-C ) :   0.9197
B( 17-C , 22-O ) :   0.8726 B( 17-C , 23-H ) :   0.9243 B( 18-C , 19-C ) :   0.9434
B( 18-C , 24-H ) :   0.9366 B( 18-C , 25-H ) :   0.9326 B( 19-C , 20-O ) :   0.8456
B( 19-C , 26-H ) :   0.9344 B( 19-C , 27-H ) :   0.9374 B( 22-O , 28-H ) :   0.7968

FINAL SINGLE POINT ENERGY      -652.856264993938

DIPOLE MOMENT
-------------
                                X             Y             Z
Electronic contribution:     -0.25247      -2.54193       0.71134
Nuclear contribution   :      0.07071       3.07005      -0.68536
                        -----------------------------------------
Total Dipole Moment    :     -0.18176       0.52812       0.02599
                        -----------------------------------------
Magnitude (a.u.)       :      0.55913
Magnitude (Debye)      :      1.42119

Rotational constants in cm-1:     0.047296     0.016807     0.015652
Rotational constants in MHz :  1417.884609   503.874388   469.221811

                             ****ORCA TERMINATED NORMALLY****
TOTAL RUN TIME: 0 days 0 hours 19 minutes 54 seconds 697 msec
