                         Program Version 4.2.0 -  RELEASE  -
|  1> # Test redundant internal optimization
|  2> #
|  3> ! RKS B3LYP  Opt TightSCF SmallPrint
|  4>
|  5> %basis
|  6>         Basis "6-31G"
|  7> end
|  8>
|  9> %geom
| 10> Constraints
| 11> { D 4  0  15  12  240.0   C } # D for Dihedral angle
| 12> { D 0  15  12  16  225.0   C } # D for Dihedral angle
| 13> { D 0  4  3  2   C } # D for Dihedral angle
| 14> { D 4  3  2  1   C } # D for Dihedral angle
| 15> { D 3  2  1  0   C } # D for Dihedral angle
| 16> { D 2  1  0  4   C } # D for Dihedral angle
| 17> { D 1  0  4  3   C } # D for Dihedral angle
| 18> { D 16  20  19  18   C } # D for Dihedral angle
| 19> { D 20  19  18  17   C } # D for Dihedral angle
| 20> { D 19  18  17  16   C } # D for Dihedral angle
| 21> { D 18  17  16  20   C } # D for Dihedral angle
| 22> { D 17  16  20  19   C } # D for Dihedral angle
| 23> { D 15  12  16  20   C } # D for Dihedral angle
| 24> end
| 25> end
| 26>
| 27>
| 28> #%pal
| 29> #nprocs 8
| 30> #end
| 31>
| 32> * xyz 0 1
| 33> C  -21.048   26.222   46.251
| 34> C  -20.361   27.558   45.944
| 35> C  -20.329   28.222   47.341
| 36> C  -20.110   27.022   48.296
| 37> O  -20.473   25.807   47.535
| 38> H  -20.833   25.428   45.533
| 39> H  -19.344   27.382   45.576
| 40> H  -20.898   28.157   45.201
| 41> H  -19.543   28.978   47.434
| 42> H  -21.289   28.710   47.548
| 43> H  -20.733   27.082   49.195
| 44> H  -19.064   26.913   48.597
| 45> C  -23.430   25.483   45.442
| 46> H  -22.779   25.054   44.670
| 47> H  -23.875   24.657   46.012
| 48> O  -22.586   26.394   46.375
| 49> C  -24.585   26.248   44.739
| 50> C  -25.464   25.298   43.919
| 51> C  -26.349   24.663   45.018
| 52> C  -26.556   25.827   46.019
| 53> O  -25.500   26.821   45.732
| 54> H  -24.167   27.082   44.170
| 55> O  -26.332   26.106   42.916
| 56> H  -24.888   24.556   43.356
| 57> H  -27.295   24.273   44.630
| 58> H  -25.816   23.832   45.497
| 59> H  -26.469   25.503   47.063
| 60> H  -27.517   26.329   45.883
| 61> H  -26.919   26.856   43.459
| 62> *
| 63>
| 64>                          ****END OF INPUT****
 Total Charge           Charge          ....    0
 Multiplicity           Mult            ....    1
 Number of Electrons    NEL             ....  102
FINAL SINGLE POINT ENERGY      -652.831506886170
FINAL SINGLE POINT ENERGY      -652.854229226358
FINAL SINGLE POINT ENERGY      -652.858076131993
FINAL SINGLE POINT ENERGY      -652.858728169660
FINAL SINGLE POINT ENERGY      -652.858793897664
FINAL SINGLE POINT ENERGY      -652.858803568523
                    ***********************HURRAY********************

CARTESIAN COORDINATES (ANGSTROEM)
---------------------------------
  C    -21.067579   26.157512   46.175104
  C    -20.503857   27.548659   45.886748
  C    -20.554351   28.210421   47.285227
  C    -20.241369   27.033134   48.234502
  O    -20.486525   25.800158   47.444387
  H    -20.789211   25.376243   45.460810
  H    -19.468707   27.457569   45.535691
  H    -21.087828   28.084287   45.135131
  H    -19.840804   29.033144   47.389091
  H    -21.561498   28.595226   47.469905
  H    -20.882091   27.013771   49.119320
  H    -19.192362   27.002871   48.544507
  C    -23.323646   25.378738   45.458693
  H    -22.718253   24.935131   44.653010
  H    -23.715033   24.563565   46.081678
  O    -22.510749   26.250688   46.284880
  C    -24.462208   26.185343   44.836602
  C    -25.417334   25.344256   43.978167
  C    -26.360445   24.740934   45.053427
  C    -26.470722   25.879622   46.098249
  O    -25.329362   26.792123   45.848625
  H    -24.035395   27.013565   44.262814
  O    -26.141533   26.183451   43.036820
  H    -24.920126   24.589951   43.366609
  H    -27.322509   24.468090   44.613703
  H    -25.912689   23.841354   45.489418
  H    -26.416546   25.515901   47.128453
  H    -27.386520   26.467884   45.982878
  H    -26.432747   26.999407   43.496553

 Multiplicity           Mult            ....    1
 Number of Electrons    NEL             ....  102
 Basis Dimension        Dim             ....  149

ORBITAL ENERGIES
----------------

  NO   OCC          E(Eh)            E(eV)
   0   2.0000     -19.141411      -520.8643
   1   2.0000     -19.141024      -520.8537
   2   2.0000     -19.138698      -520.7905
   3   2.0000     -19.135094      -520.6924
   4   2.0000     -10.278138      -279.6823
   5   2.0000     -10.245031      -278.7815
   6   2.0000     -10.235773      -278.5296
   7   2.0000     -10.235380      -278.5188
   8   2.0000     -10.230410      -278.3836
   9   2.0000     -10.220208      -278.1060
  10   2.0000     -10.190690      -277.3028
  11   2.0000     -10.181709      -277.0584
  12   2.0000     -10.180466      -277.0246
  13   2.0000      -1.050080       -28.5741
  14   2.0000      -1.037071       -28.2202
  15   2.0000      -1.007570       -27.4174
  16   2.0000      -0.991617       -26.9833
  17   2.0000      -0.788610       -21.4592
  18   2.0000      -0.780479       -21.2379
  19   2.0000      -0.767675       -20.8895
  20   2.0000      -0.729196       -19.8424
  21   2.0000      -0.674633       -18.3577
  22   2.0000      -0.606309       -16.4985
  23   2.0000      -0.595010       -16.1911
  24   2.0000      -0.593394       -16.1471
  25   2.0000      -0.583715       -15.8837
  26   2.0000      -0.526683       -14.3318
  27   2.0000      -0.512438       -13.9441
  28   2.0000      -0.495247       -13.4763
  29   2.0000      -0.487390       -13.2626
  30   2.0000      -0.473557       -12.8862
  31   2.0000      -0.457767       -12.4565
  32   2.0000      -0.451208       -12.2780
  33   2.0000      -0.440840       -11.9959
  34   2.0000      -0.427600       -11.6356
  35   2.0000      -0.409061       -11.1311
  36   2.0000      -0.396984       -10.8025
  37   2.0000      -0.394498       -10.7348
  38   2.0000      -0.374107       -10.1800
  39   2.0000      -0.368702       -10.0329
  40   2.0000      -0.361900        -9.8478
  41   2.0000      -0.353031        -9.6065
  42   2.0000      -0.347566        -9.4578
  43   2.0000      -0.331553        -9.0220
  44   2.0000      -0.313884        -8.5412
  45   2.0000      -0.310260        -8.4426
  46   2.0000      -0.301239        -8.1971
  47   2.0000      -0.273119        -7.4319
  48   2.0000      -0.264002        -7.1839
  49   2.0000      -0.253394        -6.8952
  50   2.0000      -0.236335        -6.4310
  51   0.0000       0.065068         1.7706
  52   0.0000       0.078972         2.1489
  53   0.0000       0.088367         2.4046
  54   0.0000       0.096113         2.6154
  55   0.0000       0.100238         2.7276

MULLIKEN ATOMIC CHARGES
-----------------------
   0 C :    0.278424
   1 C :   -0.250640
   2 C :   -0.300594
   3 C :   -0.000345
   4 O :   -0.503184
   5 H :    0.136579
   6 H :    0.140423
   7 H :    0.145482
   8 H :    0.138874
   9 H :    0.170603
  10 H :    0.152271
  11 H :    0.138955
  12 C :    0.003447
  13 H :    0.121019
  14 H :    0.142903
  15 O :   -0.504597
  16 C :    0.071274
  17 C :    0.077532
  18 C :   -0.296439
  19 C :   -0.025749
  20 O :   -0.509670
  21 H :    0.158165
  22 O :   -0.603075
  23 H :    0.149816
  24 H :    0.162401
  25 H :    0.143923
  26 H :    0.151379
  27 H :    0.144359
  28 H :    0.366464
Sum of atomic charges:    0.0000000

LOEWDIN ATOMIC CHARGES
----------------------
   0 C :    0.175317
   1 C :   -0.221114
   2 C :   -0.216530
   3 C :   -0.026047
   4 O :   -0.317543
   5 H :    0.095936
   6 H :    0.111180
   7 H :    0.117573
   8 H :    0.112869
   9 H :    0.123450
  10 H :    0.108289
  11 H :    0.100760
  12 C :   -0.036179
  13 H :    0.094597
  14 H :    0.101700
  15 O :   -0.321658
  16 C :    0.013690
  17 C :    0.034506
  18 C :   -0.240675
  19 C :   -0.037152
  20 O :   -0.320717
  21 H :    0.115642
  22 O :   -0.414884
  23 H :    0.114220
  24 H :    0.126729
  25 H :    0.112959
  26 H :    0.107053
  27 H :    0.101806
  28 H :    0.284223

  Mayer bond orders larger than 0.100000
B(  0-C ,  1-C ) :   0.9414 B(  0-C ,  4-O ) :   0.9321 B(  0-C ,  5-H ) :   0.9178
B(  0-C , 15-O ) :   0.8486 B(  1-C ,  2-C ) :   0.9582 B(  1-C ,  6-H ) :   0.9369
B(  1-C ,  7-H ) :   0.9382 B(  2-C ,  3-C ) :   0.9546 B(  2-C ,  8-H ) :   0.9452
B(  2-C ,  9-H ) :   0.9418 B(  3-C ,  4-O ) :   0.8370 B(  3-C , 10-H ) :   0.9349
B(  3-C , 11-H ) :   0.9399 B( 12-C , 13-H ) :   0.9120 B( 12-C , 14-H ) :   0.9230
B( 12-C , 15-O ) :   0.8503 B( 12-C , 16-C ) :   0.8943 B( 16-C , 17-C ) :   0.8970
B( 16-C , 20-O ) :   0.8682 B( 16-C , 21-H ) :   0.9260 B( 17-C , 18-C ) :   0.9109
B( 17-C , 22-O ) :   0.8927 B( 17-C , 23-H ) :   0.9337 B( 18-C , 19-C ) :   0.9393
B( 18-C , 24-H ) :   0.9374 B( 18-C , 25-H ) :   0.9341 B( 19-C , 20-O ) :   0.8507
B( 19-C , 26-H ) :   0.9340 B( 19-C , 27-H ) :   0.9379 B( 22-O , 28-H ) :   0.7927

FINAL SINGLE POINT ENERGY      -652.858805419075

DIPOLE MOMENT
-------------
                                X             Y             Z
Electronic contribution:     -1.24775      -0.63324      -0.88810
Nuclear contribution   :      1.31539       0.56812       0.76237
                        -----------------------------------------
Total Dipole Moment    :      0.06764      -0.06512      -0.12573
                        -----------------------------------------
Magnitude (a.u.)       :      0.15692
Magnitude (Debye)      :      0.39885

Rotational constants in cm-1:     0.064424     0.011160     0.010902
Rotational constants in MHz :  1931.378687   334.566065   326.840615

                             ****ORCA TERMINATED NORMALLY****
TOTAL RUN TIME: 0 days 0 hours 19 minutes 14 seconds 619 msec
