                         Program Version 4.2.0 -  RELEASE  -
|  1> # Test redundant internal optimization
|  2> #
|  3> ! RKS B3LYP  Opt TightSCF SmallPrint
|  4>
|  5> %basis
|  6>         Basis "6-31G"
|  7> end
|  8>
|  9> %geom
| 10> Constraints
| 11> { D 4  0  15  12  330.0   C } # D for Dihedral angle
| 12> { D 0  15  12  16  240.0   C } # D for Dihedral angle
| 13> { D 0  4  3  2   C } # D for Dihedral angle
| 14> { D 4  3  2  1   C } # D for Dihedral angle
| 15> { D 3  2  1  0   C } # D for Dihedral angle
| 16> { D 2  1  0  4   C } # D for Dihedral angle
| 17> { D 1  0  4  3   C } # D for Dihedral angle
| 18> { D 16  20  19  18   C } # D for Dihedral angle
| 19> { D 20  19  18  17   C } # D for Dihedral angle
| 20> { D 19  18  17  16   C } # D for Dihedral angle
| 21> { D 18  17  16  20   C } # D for Dihedral angle
| 22> { D 17  16  20  19   C } # D for Dihedral angle
| 23> { D 15  12  16  20   C } # D for Dihedral angle
| 24> end
| 25> end
| 26>
| 27>
| 28> #%pal
| 29> #nprocs 8
| 30> #end
| 31>
| 32> * xyz 0 1
| 33> C  -21.048   26.222   46.251
| 34> C  -20.361   27.558   45.944
| 35> C  -20.329   28.222   47.341
| 36> C  -20.110   27.022   48.296
| 37> O  -20.473   25.807   47.535
| 38> H  -20.833   25.428   45.533
| 39> H  -19.344   27.382   45.576
| 40> H  -20.898   28.157   45.201
| 41> H  -19.543   28.978   47.434
| 42> H  -21.289   28.710   47.548
| 43> H  -20.733   27.082   49.195
| 44> H  -19.064   26.913   48.597
| 45> C  -23.271   25.476   47.424
| 46> H  -22.510   24.854   47.912
| 47> H  -23.768   26.078   48.195
| 48> O  -22.586   26.394   46.375
| 49> C  -24.339   24.538   46.795
| 50> C  -23.700   23.540   45.823
| 51> C  -23.121   22.484   46.794
| 52> C  -24.164   22.450   47.940
| 53> O  -24.952   23.695   47.828
| 54> H  -25.136   25.144   46.362
| 55> H  -24.470   23.095   45.182
| 56> O  -22.616   24.182   44.914
| 57> H  -22.985   21.505   46.324
| 58> H  -22.144   22.813   47.169
| 59> H  -23.698   22.408   48.930
| 60> H  -24.863   21.615   47.843
| 61> H  -21.835   24.634   45.535
| 62> *
| 63>
| 64>                          ****END OF INPUT****
 Total Charge           Charge          ....    0
 Multiplicity           Mult            ....    1
 Number of Electrons    NEL             ....  102
FINAL SINGLE POINT ENERGY      -652.813535831702
FINAL SINGLE POINT ENERGY      -652.844123442583
FINAL SINGLE POINT ENERGY      -652.854832830043
FINAL SINGLE POINT ENERGY      -652.857246529303
FINAL SINGLE POINT ENERGY      -652.857770433946
FINAL SINGLE POINT ENERGY      -652.858005793796
FINAL SINGLE POINT ENERGY      -652.858429434856
FINAL SINGLE POINT ENERGY      -652.858852434926
FINAL SINGLE POINT ENERGY      -652.858441590213
FINAL SINGLE POINT ENERGY      -652.859552140769
FINAL SINGLE POINT ENERGY      -652.859750867167
FINAL SINGLE POINT ENERGY      -652.861102663118
FINAL SINGLE POINT ENERGY      -652.862668253981
FINAL SINGLE POINT ENERGY      -652.863633871157
FINAL SINGLE POINT ENERGY      -652.864392047739
FINAL SINGLE POINT ENERGY      -652.864699501988
FINAL SINGLE POINT ENERGY      -652.864760870020
FINAL SINGLE POINT ENERGY      -652.864753283097
FINAL SINGLE POINT ENERGY      -652.864751889283
                    ***********************HURRAY********************

CARTESIAN COORDINATES (ANGSTROEM)
---------------------------------
  C    -20.980438   26.154540   46.348300
  C    -20.388107   27.519153   46.002816
  C    -20.395652   28.222766   47.377346
  C    -20.094890   27.076770   48.365916
  O    -20.387154   25.817632   47.618112
  H    -20.743932   25.326007   45.678741
  H    -19.366934   27.383071   45.629129
  H    -20.976508   28.046402   45.248732
  H    -19.658041   29.028523   47.441846
  H    -21.386277   28.646885   47.565996
  H    -20.716514   27.102408   49.264425
  H    -19.041884   27.023417   48.655025
  C    -23.155593   25.499166   47.417049
  H    -22.429978   24.939903   48.013109
  H    -23.689828   26.189603   48.076838
  O    -22.443138   26.306070   46.413310
  C    -24.178698   24.562203   46.762677
  C    -23.625153   23.491501   45.811413
  C    -23.115859   22.416863   46.809931
  C    -24.143103   22.491887   47.959783
  O    -24.840834   23.798260   47.819073
  H    -24.958549   25.160651   46.279751
  H    -24.459843   23.086168   45.223421
  O    -22.575115   23.926565   44.914304
  H    -23.062260   21.423629   46.356262
  H    -22.108822   22.696607   47.135298
  H    -23.679834   22.441021   48.949622
  H    -24.911973   21.716446   47.889422
  H    -22.668088   24.891884   44.768354

 Multiplicity           Mult            ....    1
 Number of Electrons    NEL             ....  102
 Basis Dimension        Dim             ....  149

ORBITAL ENERGIES
----------------

  NO   OCC          E(Eh)            E(eV)
   0   2.0000     -19.152498      -521.1660
   1   2.0000     -19.148091      -521.0460
   2   2.0000     -19.138795      -520.7931
   3   2.0000     -19.134015      -520.6630
   4   2.0000     -10.279488      -279.7191
   5   2.0000     -10.235265      -278.5157
   6   2.0000     -10.232706      -278.4461
   7   2.0000     -10.230248      -278.3792
   8   2.0000     -10.225716      -278.2559
   9   2.0000     -10.222820      -278.1771
  10   2.0000     -10.190315      -277.2926
  11   2.0000     -10.188598      -277.2459
  12   2.0000     -10.180506      -277.0256
  13   2.0000      -1.057356       -28.7721
  14   2.0000      -1.027225       -27.9522
  15   2.0000      -1.008512       -27.4430
  16   2.0000      -0.992666       -27.0118
  17   2.0000      -0.793355       -21.5883
  18   2.0000      -0.773801       -21.0562
  19   2.0000      -0.764054       -20.7910
  20   2.0000      -0.732795       -19.9404
  21   2.0000      -0.672905       -18.3107
  22   2.0000      -0.605226       -16.4690
  23   2.0000      -0.596361       -16.2278
  24   2.0000      -0.595453       -16.2031
  25   2.0000      -0.570111       -15.5135
  26   2.0000      -0.519336       -14.1319
  27   2.0000      -0.516449       -14.0533
  28   2.0000      -0.499013       -13.5788
  29   2.0000      -0.495113       -13.4727
  30   2.0000      -0.467054       -12.7092
  31   2.0000      -0.453364       -12.3367
  32   2.0000      -0.444343       -12.0912
  33   2.0000      -0.436756       -11.8847
  34   2.0000      -0.422212       -11.4890
  35   2.0000      -0.409541       -11.1442
  36   2.0000      -0.405653       -11.0384
  37   2.0000      -0.384602       -10.4656
  38   2.0000      -0.379120       -10.3164
  39   2.0000      -0.367372        -9.9967
  40   2.0000      -0.361695        -9.8422
  41   2.0000      -0.354265        -9.6400
  42   2.0000      -0.350450        -9.5362
  43   2.0000      -0.338390        -9.2081
  44   2.0000      -0.331865        -9.0305
  45   2.0000      -0.303681        -8.2636
  46   2.0000      -0.292641        -7.9632
  47   2.0000      -0.272292        -7.4094
  48   2.0000      -0.269275        -7.3274
  49   2.0000      -0.260301        -7.0832
  50   2.0000      -0.237864        -6.4726
  51   0.0000       0.058089         1.5807
  52   0.0000       0.080137         2.1806
  53   0.0000       0.094997         2.5850
  54   0.0000       0.104328         2.8389
  55   0.0000       0.109062         2.9677

MULLIKEN ATOMIC CHARGES
-----------------------
   0 C :    0.279034
   1 C :   -0.258522
   2 C :   -0.300885
   3 C :   -0.013807
   4 O :   -0.514029
   5 H :    0.171290
   6 H :    0.147851
   7 H :    0.157794
   8 H :    0.145461
   9 H :    0.161157
  10 H :    0.149256
  11 H :    0.150127
  12 C :   -0.020288
  13 H :    0.173371
  14 H :    0.152633
  15 O :   -0.558895
  16 C :    0.049760
  17 C :    0.114096
  18 C :   -0.304636
  19 C :   -0.013719
  20 O :   -0.521689
  21 H :    0.150402
  22 H :    0.140802
  23 O :   -0.620204
  24 H :    0.150144
  25 H :    0.167156
  26 H :    0.142879
  27 H :    0.147638
  28 H :    0.375824
Sum of atomic charges:   -0.0000000

LOEWDIN ATOMIC CHARGES
----------------------
   0 C :    0.169752
   1 C :   -0.215829
   2 C :   -0.216656
   3 C :   -0.030176
   4 O :   -0.317464
   5 H :    0.108362
   6 H :    0.115408
   7 H :    0.124690
   8 H :    0.116205
   9 H :    0.118655
  10 H :    0.106069
  11 H :    0.107093
  12 C :   -0.051144
  13 H :    0.117994
  14 H :    0.110906
  15 O :   -0.355385
  16 C :    0.011937
  17 C :    0.037482
  18 C :   -0.227930
  19 C :   -0.029696
  20 O :   -0.322736
  21 H :    0.108789
  22 H :    0.098354
  23 O :   -0.419305
  24 H :    0.120386
  25 H :    0.122086
  26 H :    0.102863
  27 H :    0.104861
  28 H :    0.284428

  Mayer bond orders larger than 0.100000
B(  0-C ,  1-C ) :   0.9423 B(  0-C ,  4-O ) :   0.9093 B(  0-C ,  5-H ) :   0.9043
B(  0-C , 15-O ) :   0.8132 B(  1-C ,  2-C ) :   0.9529 B(  1-C ,  6-H ) :   0.9373
B(  1-C ,  7-H ) :   0.9360 B(  2-C ,  3-C ) :   0.9567 B(  2-C ,  8-H ) :   0.9446
B(  2-C ,  9-H ) :   0.9444 B(  3-C ,  4-O ) :   0.8261 B(  3-C , 10-H ) :   0.9351
B(  3-C , 11-H ) :   0.9406 B( 12-C , 13-H ) :   0.9098 B( 12-C , 14-H ) :   0.9342
B( 12-C , 15-O ) :   0.8075 B( 12-C , 16-C ) :   0.8966 B( 16-C , 17-C ) :   0.9109
B( 16-C , 20-O ) :   0.8506 B( 16-C , 21-H ) :   0.9316 B( 17-C , 18-C ) :   0.9249
B( 17-C , 22-H ) :   0.9227 B( 17-C , 23-O ) :   0.8992 B( 18-C , 19-C ) :   0.9415
B( 18-C , 24-H ) :   0.9444 B( 18-C , 25-H ) :   0.9372 B( 19-C , 20-O ) :   0.8366
B( 19-C , 26-H ) :   0.9344 B( 19-C , 27-H ) :   0.9382 B( 23-O , 28-H ) :   0.7627

FINAL SINGLE POINT ENERGY      -652.864752199468

DIPOLE MOMENT
-------------
                                X             Y             Z
Electronic contribution:     -2.75125      -1.58284      -1.63886
Nuclear contribution   :      3.24767       2.22566       1.85407
                        -----------------------------------------
Total Dipole Moment    :      0.49642       0.64282       0.21521
                        -----------------------------------------
Magnitude (a.u.)       :      0.84022
Magnitude (Debye)      :      2.13566

Rotational constants in cm-1:     0.054110     0.014884     0.013932
Rotational constants in MHz :  1622.184660   446.224936   417.655950

                             ****ORCA TERMINATED NORMALLY****
TOTAL RUN TIME: 0 days 0 hours 59 minutes 59 seconds 344 msec
