                         Program Version 4.2.0 -  RELEASE  -
|  1> # Test redundant internal optimization
|  2> #
|  3> ! RKS B3LYP  Opt TightSCF SmallPrint
|  4>
|  5> %basis
|  6>         Basis "6-31G"
|  7> end
|  8>
|  9> %geom
| 10> Constraints
| 11> { D 4  0  15  12  255.0   C } # D for Dihedral angle
| 12> { D 0  15  12  16  105.0   C } # D for Dihedral angle
| 13> { D 0  4  3  2   C } # D for Dihedral angle
| 14> { D 4  3  2  1   C } # D for Dihedral angle
| 15> { D 3  2  1  0   C } # D for Dihedral angle
| 16> { D 2  1  0  4   C } # D for Dihedral angle
| 17> { D 1  0  4  3   C } # D for Dihedral angle
| 18> { D 16  20  19  18   C } # D for Dihedral angle
| 19> { D 20  19  18  17   C } # D for Dihedral angle
| 20> { D 19  18  17  16   C } # D for Dihedral angle
| 21> { D 18  17  16  20   C } # D for Dihedral angle
| 22> { D 17  16  20  19   C } # D for Dihedral angle
| 23> { D 15  12  16  20   C } # D for Dihedral angle
| 24> end
| 25> end
| 26>
| 27>
| 28> #%pal
| 29> #nprocs 8
| 30> #end
| 31>
| 32> * xyz 0 1
| 33> C  -21.048   26.222   46.251
| 34> C  -20.361   27.558   45.944
| 35> C  -20.329   28.222   47.341
| 36> C  -20.110   27.022   48.296
| 37> O  -20.473   25.807   47.535
| 38> H  -20.833   25.428   45.533
| 39> H  -19.344   27.382   45.576
| 40> H  -20.898   28.157   45.201
| 41> H  -19.543   28.978   47.434
| 42> H  -21.289   28.710   47.548
| 43> H  -20.733   27.082   49.195
| 44> H  -19.064   26.913   48.597
| 45> C  -23.431   25.260   45.734
| 46> H  -24.247   25.703   45.149
| 47> H  -22.813   24.656   45.056
| 48> O  -22.586   26.394   46.375
| 49> C  -24.050   24.302   46.789
| 50> C  -22.972   23.711   47.705
| 51> C  -22.721   24.881   48.688
| 52> C  -24.126   25.516   48.843
| 53> O  -24.932   25.041   47.698
| 54> H  -24.666   23.558   46.280
| 55> O  -23.531   22.474   48.458
| 56> H  -22.067   23.408   47.167
| 57> H  -22.305   24.550   49.644
| 58> H  -22.019   25.599   48.247
| 59> H  -24.095   26.611   48.832
| 60> H  -24.635   25.186   49.754
| 61> H  -24.438   22.754   49.005
| 62> *
| 63>
| 64>                          ****END OF INPUT****
 Total Charge           Charge          ....    0
 Multiplicity           Mult            ....    1
 Number of Electrons    NEL             ....  102
FINAL SINGLE POINT ENERGY      -652.821420747463
FINAL SINGLE POINT ENERGY      -652.847517689996
FINAL SINGLE POINT ENERGY      -652.860007660005
FINAL SINGLE POINT ENERGY      -652.863004175952
FINAL SINGLE POINT ENERGY      -652.863447608332
FINAL SINGLE POINT ENERGY      -652.863486178338
FINAL SINGLE POINT ENERGY      -652.863491456381
                    ***********************HURRAY********************

CARTESIAN COORDINATES (ANGSTROEM)
---------------------------------
  C    -20.962197   26.246217   46.226632
  C    -20.358197   27.592281   45.819492
  C    -20.344307   28.355094   47.167365
  C    -20.044641   27.241124   48.194782
  O    -20.355151   25.958551   47.507553
  H    -20.712292   25.405361   45.571335
  H    -19.338608   27.436345   45.448603
  H    -20.949422   28.087483   45.047363
  H    -19.597954   29.154705   47.193328
  H    -21.329856   28.793339   47.350144
  H    -20.657111   27.311584   49.097383
  H    -18.989247   27.192961   48.477442
  C    -23.247516   25.320295   45.812590
  H    -24.035551   25.823973   45.244481
  H    -22.674768   24.683580   45.119423
  O    -22.397755   26.400209   46.305617
  C    -23.943682   24.426475   46.843623
  C    -23.107771   23.577647   47.811305
  C    -22.837975   24.583975   48.960459
  C    -24.144315   25.414662   49.010190
  O    -24.832111   25.195348   47.715615
  H    -24.589707   23.760459   46.255851
  O    -23.868343   22.413546   48.244867
  H    -22.193937   23.174277   47.374259
  H    -22.635607   24.054431   49.895975
  H    -21.976367   25.196972   48.696548
  H    -23.954708   26.485824   49.126085
  H    -24.831138   25.088114   49.798587
  H    -24.748765   22.710167   48.558105

 Multiplicity           Mult            ....    1
 Number of Electrons    NEL             ....  102
 Basis Dimension        Dim             ....  149

ORBITAL ENERGIES
----------------

  NO   OCC          E(Eh)            E(eV)
   0   2.0000     -19.151401      -521.1361
   1   2.0000     -19.150152      -521.1021
   2   2.0000     -19.133598      -520.6517
   3   2.0000     -19.129798      -520.5483
   4   2.0000     -10.287415      -279.9348
   5   2.0000     -10.235339      -278.5177
   6   2.0000     -10.232826      -278.4494
   7   2.0000     -10.230857      -278.3958
   8   2.0000     -10.229100      -278.3480
   9   2.0000     -10.218358      -278.0557
  10   2.0000     -10.190761      -277.3047
  11   2.0000     -10.190088      -277.2864
  12   2.0000     -10.166121      -276.6342
  13   2.0000      -1.059310       -28.8253
  14   2.0000      -1.027898       -27.9705
  15   2.0000      -1.003709       -27.3123
  16   2.0000      -0.995098       -27.0780
  17   2.0000      -0.793284       -21.5864
  18   2.0000      -0.772161       -21.0116
  19   2.0000      -0.760129       -20.6842
  20   2.0000      -0.736195       -20.0329
  21   2.0000      -0.674392       -18.3511
  22   2.0000      -0.604922       -16.4608
  23   2.0000      -0.601648       -16.3717
  24   2.0000      -0.590863       -16.0782
  25   2.0000      -0.576731       -15.6936
  26   2.0000      -0.524805       -14.2807
  27   2.0000      -0.502245       -13.6668
  28   2.0000      -0.500472       -13.6185
  29   2.0000      -0.489094       -13.3089
  30   2.0000      -0.472877       -12.8676
  31   2.0000      -0.450728       -12.2649
  32   2.0000      -0.445036       -12.1101
  33   2.0000      -0.439529       -11.9602
  34   2.0000      -0.431027       -11.7288
  35   2.0000      -0.408163       -11.1067
  36   2.0000      -0.403088       -10.9686
  37   2.0000      -0.382484       -10.4079
  38   2.0000      -0.371716       -10.1149
  39   2.0000      -0.364169        -9.9096
  40   2.0000      -0.362099        -9.8532
  41   2.0000      -0.352503        -9.5921
  42   2.0000      -0.348806        -9.4915
  43   2.0000      -0.332117        -9.0374
  44   2.0000      -0.320433        -8.7194
  45   2.0000      -0.310649        -8.4532
  46   2.0000      -0.299190        -8.1414
  47   2.0000      -0.275622        -7.5000
  48   2.0000      -0.263581        -7.1724
  49   2.0000      -0.259842        -7.0707
  50   2.0000      -0.233136        -6.3440
  51   0.0000       0.066428         1.8076
  52   0.0000       0.081951         2.2300
  53   0.0000       0.086892         2.3645
  54   0.0000       0.105655         2.8750
  55   0.0000       0.108458         2.9513

MULLIKEN ATOMIC CHARGES
-----------------------
   0 C :    0.285758
   1 C :   -0.253992
   2 C :   -0.300401
   3 C :   -0.006107
   4 O :   -0.506661
   5 H :    0.143310
   6 H :    0.145227
   7 H :    0.157085
   8 H :    0.144765
   9 H :    0.167082
  10 H :    0.145482
  11 H :    0.147914
  12 C :   -0.009648
  13 H :    0.164427
  14 H :    0.118440
  15 O :   -0.517110
  16 C :    0.078788
  17 C :    0.073078
  18 C :   -0.316807
  19 C :   -0.027465
  20 O :   -0.525691
  21 H :    0.150471
  22 O :   -0.603194
  23 H :    0.150759
  24 H :    0.143212
  25 H :    0.207380
  26 H :    0.147750
  27 H :    0.134792
  28 H :    0.361356
Sum of atomic charges:   -0.0000000

LOEWDIN ATOMIC CHARGES
----------------------
   0 C :    0.172686
   1 C :   -0.216546
   2 C :   -0.215804
   3 C :   -0.028278
   4 O :   -0.320919
   5 H :    0.097352
   6 H :    0.113934
   7 H :    0.123964
   8 H :    0.115686
   9 H :    0.121555
  10 H :    0.104376
  11 H :    0.105360
  12 C :   -0.035434
  13 H :    0.119204
  14 H :    0.094257
  15 O :   -0.326831
  16 C :    0.005579
  17 C :    0.037729
  18 C :   -0.252200
  19 C :   -0.035920
  20 O :   -0.332103
  21 H :    0.114917
  22 O :   -0.417947
  23 H :    0.115776
  24 H :    0.117543
  25 H :    0.141051
  26 H :    0.105100
  27 H :    0.095058
  28 H :    0.280855

  Mayer bond orders larger than 0.100000
B(  0-C ,  1-C ) :   0.9441 B(  0-C ,  4-O ) :   0.8978 B(  0-C ,  5-H ) :   0.9171
B(  0-C , 15-O ) :   0.8610 B(  1-C ,  2-C ) :   0.9581 B(  1-C ,  6-H ) :   0.9380
B(  1-C ,  7-H ) :   0.9377 B(  2-C ,  3-C ) :   0.9548 B(  2-C ,  8-H ) :   0.9448
B(  2-C ,  9-H ) :   0.9431 B(  3-C ,  4-O ) :   0.8282 B(  3-C , 10-H ) :   0.9342
B(  3-C , 11-H ) :   0.9402 B( 12-C , 13-H ) :   0.9311 B( 12-C , 14-H ) :   0.9122
B( 12-C , 15-O ) :   0.8627 B( 12-C , 16-C ) :   0.8910 B( 16-C , 17-C ) :   0.9085
B( 16-C , 20-O ) :   0.8726 B( 16-C , 21-H ) :   0.9141 B( 17-C , 18-C ) :   0.9258
B( 17-C , 22-O ) :   0.8880 B( 17-C , 23-H ) :   0.9352 B( 18-C , 19-C ) :   0.9435
B( 18-C , 24-H ) :   0.9402 B( 18-C , 25-H ) :   0.8856 B( 19-C , 20-O ) :   0.8404
B( 19-C , 26-H ) :   0.9348 B( 19-C , 27-H ) :   0.9371 B( 22-O , 28-H ) :   0.7969

FINAL SINGLE POINT ENERGY      -652.863489910100

DIPOLE MOMENT
-------------
                                X             Y             Z
Electronic contribution:     -3.48291      -3.92937      -0.70876
Nuclear contribution   :      4.28327       4.89359       0.38039
                        -----------------------------------------
Total Dipole Moment    :      0.80036       0.96422      -0.32837
                        -----------------------------------------
Magnitude (a.u.)       :      1.29542
Magnitude (Debye)      :      3.29270

Rotational constants in cm-1:     0.050411     0.016010     0.015064
Rotational constants in MHz :  1511.292387   479.963132   451.597014

                             ****ORCA TERMINATED NORMALLY****
TOTAL RUN TIME: 0 days 0 hours 25 minutes 5 seconds 805 msec
