                         Program Version 4.2.0 -  RELEASE  -
|  1> # Test redundant internal optimization
|  2> #
|  3> ! RKS B3LYP  Opt TightSCF SmallPrint
|  4>
|  5> %basis
|  6>         Basis "6-31G"
|  7> end
|  8>
|  9> %geom
| 10> Constraints
| 11> { D 4  0  15  12  285.0   C } # D for Dihedral angle
| 12> { D 0  15  12  16  90.0   C } # D for Dihedral angle
| 13> { D 0  4  3  2   C } # D for Dihedral angle
| 14> { D 4  3  2  1   C } # D for Dihedral angle
| 15> { D 3  2  1  0   C } # D for Dihedral angle
| 16> { D 2  1  0  4   C } # D for Dihedral angle
| 17> { D 1  0  4  3   C } # D for Dihedral angle
| 18> { D 16  20  19  18   C } # D for Dihedral angle
| 19> { D 20  19  18  17   C } # D for Dihedral angle
| 20> { D 19  18  17  16   C } # D for Dihedral angle
| 21> { D 18  17  16  20   C } # D for Dihedral angle
| 22> { D 17  16  20  19   C } # D for Dihedral angle
| 23> { D 15  12  16  20   C } # D for Dihedral angle
| 24> end
| 25> end
| 26>
| 27>
| 28> #%pal
| 29> #nprocs 8
| 30> #end
| 31>
| 32> * xyz 0 1
| 33> C  -21.048   26.222   46.251
| 34> C  -20.361   27.558   45.944
| 35> C  -20.329   28.222   47.341
| 36> C  -20.110   27.022   48.296
| 37> O  -20.473   25.807   47.535
| 38> H  -20.833   25.428   45.533
| 39> H  -19.344   27.382   45.576
| 40> H  -20.898   28.157   45.201
| 41> H  -19.543   28.978   47.434
| 42> H  -21.289   28.710   47.548
| 43> H  -20.733   27.082   49.195
| 44> H  -19.064   26.913   48.597
| 45> C  -23.396   25.070   46.435
| 46> H  -24.385   25.230   45.988
| 47> H  -22.886   24.281   45.867
| 48> O  -22.586   26.394   46.375
| 49> C  -23.594   24.553   47.887
| 50> C  -24.295   23.190   47.902
| 51> C  -23.128   22.234   47.556
| 52> C  -21.913   22.897   48.252
| 53> O  -22.297   24.299   48.523
| 54> H  -24.094   25.324   48.476
| 55> O  -24.848   22.889   49.321
| 56> H  -25.123   23.124   47.187
| 57> H  -23.300   21.210   47.904
| 58> H  -22.979   22.198   46.471
| 59> H  -21.014   22.886   47.626
| 60> H  -21.680   22.435   49.216
| 61> H  -24.035   22.949   50.053
| 62> *
| 63>
| 64>                          ****END OF INPUT****
 Total Charge           Charge          ....    0
 Multiplicity           Mult            ....    1
 Number of Electrons    NEL             ....  102
FINAL SINGLE POINT ENERGY      -652.828441716544
FINAL SINGLE POINT ENERGY      -652.853278347431
FINAL SINGLE POINT ENERGY      -652.858389785048
FINAL SINGLE POINT ENERGY      -652.860248898800
FINAL SINGLE POINT ENERGY      -652.860452328781
FINAL SINGLE POINT ENERGY      -652.860486906191
                    ***********************HURRAY********************

CARTESIAN COORDINATES (ANGSTROEM)
---------------------------------
  C    -20.995496   26.210470   46.236438
  C    -20.523031   27.633773   45.946586
  C    -20.442629   28.241466   47.367594
  C    -19.978912   27.043102   48.226582
  O    -20.264052   25.834113   47.414973
  H    -20.761431   25.454123   45.478299
  H    -19.531280   27.597773   45.480297
  H    -21.207774   28.168447   45.285564
  H    -19.752402   29.088671   47.425097
  H    -21.435325   28.578738   47.678464
  H    -20.514617   26.955688   49.174194
  H    -18.900911   27.045652   48.415760
  C    -23.228197   25.091510   46.476101
  H    -24.206790   25.366379   46.066834
  H    -22.785051   24.324205   45.820557
  O    -22.435304   26.303829   46.392160
  C    -23.448935   24.525286   47.887527
  C    -24.267024   23.227091   47.857930
  C    -23.166183   22.161384   47.599083
  C    -21.952394   22.727594   48.380154
  O    -22.237603   24.162079   48.611492
  H    -23.944483   25.290968   48.493315
  O    -24.937363   23.004194   49.129775
  H    -25.062773   23.215911   47.110904
  H    -23.488607   21.181067   47.957339
  H    -22.951804   22.083519   46.527285
  H    -21.010747   22.643073   47.830743
  H    -21.828937   22.259245   49.361546
  H    -24.317946   23.224651   49.857406

 Multiplicity           Mult            ....    1
 Number of Electrons    NEL             ....  102
 Basis Dimension        Dim             ....  149

ORBITAL ENERGIES
----------------

  NO   OCC          E(Eh)            E(eV)
   0   2.0000     -19.140846      -520.8489
   1   2.0000     -19.136847      -520.7401
   2   2.0000     -19.135888      -520.7140
   3   2.0000     -19.130462      -520.5663
   4   2.0000     -10.273768      -279.5634
   5   2.0000     -10.240855      -278.6678
   6   2.0000     -10.232275      -278.4343
   7   2.0000     -10.230296      -278.3805
   8   2.0000     -10.225336      -278.2455
   9   2.0000     -10.216352      -278.0011
  10   2.0000     -10.187480      -277.2154
  11   2.0000     -10.178572      -276.9730
  12   2.0000     -10.178399      -276.9683
  13   2.0000      -1.046759       -28.4838
  14   2.0000      -1.033061       -28.1110
  15   2.0000      -1.003072       -27.2950
  16   2.0000      -0.990412       -26.9505
  17   2.0000      -0.786382       -21.3986
  18   2.0000      -0.777308       -21.1516
  19   2.0000      -0.762332       -20.7441
  20   2.0000      -0.727138       -19.7864
  21   2.0000      -0.670265       -18.2388
  22   2.0000      -0.601449       -16.3663
  23   2.0000      -0.593553       -16.1514
  24   2.0000      -0.591013       -16.0823
  25   2.0000      -0.576316       -15.6823
  26   2.0000      -0.520977       -14.1765
  27   2.0000      -0.510660       -13.8958
  28   2.0000      -0.490862       -13.3570
  29   2.0000      -0.479175       -13.0390
  30   2.0000      -0.471851       -12.8397
  31   2.0000      -0.454657       -12.3719
  32   2.0000      -0.449511       -12.2318
  33   2.0000      -0.433333       -11.7916
  34   2.0000      -0.419558       -11.4168
  35   2.0000      -0.407060       -11.0767
  36   2.0000      -0.394410       -10.7324
  37   2.0000      -0.390151       -10.6165
  38   2.0000      -0.372273       -10.1301
  39   2.0000      -0.368387       -10.0243
  40   2.0000      -0.351431        -9.5629
  41   2.0000      -0.349256        -9.5037
  42   2.0000      -0.341228        -9.2853
  43   2.0000      -0.333328        -9.0703
  44   2.0000      -0.318913        -8.6781
  45   2.0000      -0.301627        -8.2077
  46   2.0000      -0.290878        -7.9152
  47   2.0000      -0.269555        -7.3350
  48   2.0000      -0.268694        -7.3115
  49   2.0000      -0.251686        -6.8487
  50   2.0000      -0.228303        -6.2124
  51   0.0000       0.067920         1.8482
  52   0.0000       0.088986         2.4214
  53   0.0000       0.090918         2.4740
  54   0.0000       0.101097         2.7510
  55   0.0000       0.110573         3.0088

MULLIKEN ATOMIC CHARGES
-----------------------
   0 C :    0.299257
   1 C :   -0.264548
   2 C :   -0.298503
   3 C :   -0.003288
   4 O :   -0.491832
   5 H :    0.132216
   6 H :    0.141765
   7 H :    0.154205
   8 H :    0.137422
   9 H :    0.160739
  10 H :    0.155482
  11 H :    0.138543
  12 C :   -0.005297
  13 H :    0.147335
  14 H :    0.118081
  15 O :   -0.521071
  16 C :    0.078052
  17 C :    0.070406
  18 C :   -0.293884
  19 C :   -0.025110
  20 O :   -0.500680
  21 H :    0.159288
  22 O :   -0.604149
  23 H :    0.150580
  24 H :    0.159949
  25 H :    0.142003
  26 H :    0.154509
  27 H :    0.143210
  28 H :    0.365320
Sum of atomic charges:   -0.0000000

LOEWDIN ATOMIC CHARGES
----------------------
   0 C :    0.175196
   1 C :   -0.216455
   2 C :   -0.216536
   3 C :   -0.027186
   4 O :   -0.311490
   5 H :    0.091399
   6 H :    0.111783
   7 H :    0.122092
   8 H :    0.111619
   9 H :    0.118392
  10 H :    0.109953
  11 H :    0.100553
  12 C :   -0.041445
  13 H :    0.113283
  14 H :    0.089815
  15 O :   -0.325964
  16 C :    0.008016
  17 C :    0.032615
  18 C :   -0.241383
  19 C :   -0.036028
  20 O :   -0.312590
  21 H :    0.115246
  22 O :   -0.415430
  23 H :    0.114131
  24 H :    0.125915
  25 H :    0.111116
  26 H :    0.108986
  27 H :    0.101104
  28 H :    0.283295

  Mayer bond orders larger than 0.100000
B(  0-C ,  1-C ) :   0.9468 B(  0-C ,  4-O ) :   0.9317 B(  0-C ,  5-H ) :   0.9214
B(  0-C , 15-O ) :   0.8471 B(  1-C ,  2-C ) :   0.9599 B(  1-C ,  6-H ) :   0.9411
B(  1-C ,  7-H ) :   0.9368 B(  2-C ,  3-C ) :   0.9546 B(  2-C ,  8-H ) :   0.9453
B(  2-C ,  9-H ) :   0.9446 B(  3-C ,  4-O ) :   0.8368 B(  3-C , 10-H ) :   0.9327
B(  3-C , 11-H ) :   0.9404 B( 12-C , 13-H ) :   0.9288 B( 12-C , 14-H ) :   0.9212
B( 12-C , 15-O ) :   0.8639 B( 12-C , 16-C ) :   0.8783 B( 16-C , 17-C ) :   0.8927
B( 16-C , 20-O ) :   0.8771 B( 16-C , 21-H ) :   0.9264 B( 17-C , 18-C ) :   0.9112
B( 17-C , 22-O ) :   0.8902 B( 17-C , 23-H ) :   0.9325 B( 18-C , 19-C ) :   0.9396
B( 18-C , 24-H ) :   0.9378 B( 18-C , 25-H ) :   0.9333 B( 19-C , 20-O ) :   0.8481
B( 19-C , 26-H ) :   0.9317 B( 19-C , 27-H ) :   0.9382 B( 22-O , 28-H ) :   0.7935

FINAL SINGLE POINT ENERGY      -652.860490316877

DIPOLE MOMENT
-------------
                                X             Y             Z
Electronic contribution:     -2.16724      -1.21785       1.69241
Nuclear contribution   :      2.63238       1.21560      -2.24303
                        -----------------------------------------
Total Dipole Moment    :      0.46514      -0.00225      -0.55063
                        -----------------------------------------
Magnitude (a.u.)       :      0.72080
Magnitude (Debye)      :      1.83213

Rotational constants in cm-1:     0.059315     0.014262     0.013443
Rotational constants in MHz :  1778.233164   427.554194   403.004468

                             ****ORCA TERMINATED NORMALLY****
TOTAL RUN TIME: 0 days 0 hours 24 minutes 58 seconds 291 msec
