                         Program Version 4.2.0 -  RELEASE  -
|  1> # Test redundant internal optimization
|  2> #
|  3> ! RKS B3LYP  Opt TightSCF SmallPrint
|  4>
|  5> %basis
|  6>         Basis "6-31G"
|  7> end
|  8>
|  9> %geom
| 10> Constraints
| 11> { D 4  0  15  12  285.0   C } # D for Dihedral angle
| 12> { D 0  15  12  16  15.0   C } # D for Dihedral angle
| 13> { D 0  4  3  2   C } # D for Dihedral angle
| 14> { D 4  3  2  1   C } # D for Dihedral angle
| 15> { D 3  2  1  0   C } # D for Dihedral angle
| 16> { D 2  1  0  4   C } # D for Dihedral angle
| 17> { D 1  0  4  3   C } # D for Dihedral angle
| 18> { D 16  20  19  18   C } # D for Dihedral angle
| 19> { D 20  19  18  17   C } # D for Dihedral angle
| 20> { D 19  18  17  16   C } # D for Dihedral angle
| 21> { D 18  17  16  20   C } # D for Dihedral angle
| 22> { D 17  16  20  19   C } # D for Dihedral angle
| 23> { D 15  12  16  20   C } # D for Dihedral angle
| 24> end
| 25> end
| 26>
| 27>
| 28> #%pal
| 29> #nprocs 8
| 30> #end
| 31>
| 32> * xyz 0 1
| 33> C  -21.048   26.222   46.251
| 34> C  -20.361   27.558   45.944
| 35> C  -20.329   28.222   47.341
| 36> C  -20.110   27.022   48.296
| 37> O  -20.473   25.807   47.535
| 38> H  -20.833   25.428   45.533
| 39> H  -19.344   27.382   45.576
| 40> H  -20.898   28.157   45.201
| 41> H  -19.543   28.978   47.434
| 42> H  -21.289   28.710   47.548
| 43> H  -20.733   27.082   49.195
| 44> H  -19.064   26.913   48.597
| 45> C  -23.396   25.070   46.435
| 46> H  -24.154   25.145   47.225
| 47> H  -23.910   24.890   45.482
| 48> O  -22.586   26.394   46.375
| 49> C  -22.503   23.833   46.731
| 50> C  -23.314   22.534   46.669
| 51> C  -23.407   22.295   45.143
| 52> C  -22.042   22.811   44.623
| 53> O  -21.486   23.674   45.687
| 54> H  -21.974   23.991   47.673
| 55> H  -22.762   21.721   47.155
| 56> O  -24.708   22.651   47.345
| 57> H  -23.581   21.244   44.888
| 58> H  -24.229   22.883   44.719
| 59> H  -22.138   23.395   43.701
| 60> H  -21.325   22.001   44.457
| 61> H  -25.280   23.458   46.875
| 62> *
| 63>
| 64>                          ****END OF INPUT****
 Total Charge           Charge          ....    0
 Multiplicity           Mult            ....    1
 Number of Electrons    NEL             ....  102
FINAL SINGLE POINT ENERGY      -652.824890448770
FINAL SINGLE POINT ENERGY      -652.848096959882
FINAL SINGLE POINT ENERGY      -652.855904858240
FINAL SINGLE POINT ENERGY      -652.857808354572
FINAL SINGLE POINT ENERGY      -652.858113192617
FINAL SINGLE POINT ENERGY      -652.858193941904
FINAL SINGLE POINT ENERGY      -652.858201515289
FINAL SINGLE POINT ENERGY      -652.858203968128
                    ***********************HURRAY********************

CARTESIAN COORDINATES (ANGSTROEM)
---------------------------------
  C    -20.899664   26.250461   46.213758
  C    -20.417068   27.685037   45.988766
  C    -20.470751   28.265332   47.421834
  C    -20.073553   27.058173   48.302040
  O    -20.267290   25.853484   47.458623
  H    -20.608117   25.504259   45.478223
  H    -19.388788   27.661241   45.610225
  H    -21.047831   28.225093   45.279898
  H    -19.797894   29.117580   47.558371
  H    -21.491128   28.587682   47.647185
  H    -20.688569   26.966567   49.201645
  H    -19.017781   27.073541   48.590022
  C    -23.161399   25.120848   46.403513
  H    -23.882909   25.292024   47.210370
  H    -23.714078   25.071688   45.452617
  O    -22.338513   26.324460   46.347193
  C    -22.463818   23.782911   46.669405
  C    -23.426559   22.580361   46.659597
  C    -23.532496   22.269308   45.134323
  C    -22.112108   22.594184   44.620231
  O    -21.464947   23.446490   45.652874
  H    -21.903013   23.858690   47.603674
  H    -22.962959   21.745495   47.188885
  O    -24.690939   22.782471   47.332998
  H    -23.827832   21.234459   44.943094
  H    -24.284590   22.926307   44.677754
  H    -22.117081   23.130684   43.666188
  H    -21.493974   21.697892   44.516481
  H    -25.274351   23.364278   46.804211

 Multiplicity           Mult            ....    1
 Number of Electrons    NEL             ....  102
 Basis Dimension        Dim             ....  149

ORBITAL ENERGIES
----------------

  NO   OCC          E(Eh)            E(eV)
   0   2.0000     -19.151425      -521.1368
   1   2.0000     -19.142716      -520.8998
   2   2.0000     -19.133152      -520.6395
   3   2.0000     -19.127145      -520.4761
   4   2.0000     -10.261363      -279.2259
   5   2.0000     -10.247302      -278.8433
   6   2.0000     -10.233788      -278.4755
   7   2.0000     -10.229642      -278.3627
   8   2.0000     -10.228815      -278.3402
   9   2.0000     -10.214797      -277.9587
  10   2.0000     -10.197814      -277.4966
  11   2.0000     -10.175209      -276.8815
  12   2.0000     -10.174474      -276.8615
  13   2.0000      -1.042491       -28.3676
  14   2.0000      -1.033583       -28.1252
  15   2.0000      -1.017712       -27.6934
  16   2.0000      -0.980719       -26.6867
  17   2.0000      -0.785790       -21.3824
  18   2.0000      -0.778631       -21.1876
  19   2.0000      -0.761647       -20.7255
  20   2.0000      -0.725629       -19.7454
  21   2.0000      -0.676772       -18.4159
  22   2.0000      -0.614466       -16.7205
  23   2.0000      -0.596146       -16.2220
  24   2.0000      -0.587551       -15.9881
  25   2.0000      -0.561047       -15.2669
  26   2.0000      -0.529594       -14.4110
  27   2.0000      -0.508235       -13.8298
  28   2.0000      -0.494764       -13.4632
  29   2.0000      -0.475048       -12.9267
  30   2.0000      -0.464830       -12.6487
  31   2.0000      -0.452957       -12.3256
  32   2.0000      -0.440020       -11.9736
  33   2.0000      -0.430705       -11.7201
  34   2.0000      -0.427412       -11.6305
  35   2.0000      -0.413206       -11.2439
  36   2.0000      -0.405013       -11.0210
  37   2.0000      -0.390689       -10.6312
  38   2.0000      -0.383117       -10.4251
  39   2.0000      -0.365658        -9.9501
  40   2.0000      -0.356178        -9.6921
  41   2.0000      -0.346425        -9.4267
  42   2.0000      -0.337356        -9.1799
  43   2.0000      -0.329239        -8.9591
  44   2.0000      -0.322119        -8.7653
  45   2.0000      -0.313048        -8.5185
  46   2.0000      -0.291005        -7.9186
  47   2.0000      -0.273185        -7.4337
  48   2.0000      -0.260598        -7.0912
  49   2.0000      -0.244883        -6.6636
  50   2.0000      -0.233459        -6.3528
  51   0.0000       0.049766         1.3542
  52   0.0000       0.075715         2.0603
  53   0.0000       0.092181         2.5084
  54   0.0000       0.098244         2.6734
  55   0.0000       0.107901         2.9361

MULLIKEN ATOMIC CHARGES
-----------------------
   0 C :    0.282370
   1 C :   -0.257557
   2 C :   -0.295324
   3 C :   -0.003172
   4 O :   -0.513505
   5 H :    0.183434
   6 H :    0.142247
   7 H :    0.150518
   8 H :    0.134587
   9 H :    0.159156
  10 H :    0.140972
  11 H :    0.139037
  12 C :    0.007329
  13 H :    0.149538
  14 H :    0.118680
  15 O :   -0.546184
  16 C :    0.062104
  17 C :    0.082749
  18 C :   -0.320164
  19 C :   -0.016051
  20 O :   -0.514297
  21 H :    0.190517
  22 H :    0.172031
  23 O :   -0.597842
  24 H :    0.156599
  25 H :    0.135228
  26 H :    0.143817
  27 H :    0.155628
  28 H :    0.357554
Sum of atomic charges:   -0.0000000

LOEWDIN ATOMIC CHARGES
----------------------
   0 C :    0.168286
   1 C :   -0.214356
   2 C :   -0.216004
   3 C :   -0.030269
   4 O :   -0.328323
   5 H :    0.116877
   6 H :    0.112300
   7 H :    0.121053
   8 H :    0.110006
   9 H :    0.117618
  10 H :    0.101867
  11 H :    0.100576
  12 C :   -0.045211
  13 H :    0.112273
  14 H :    0.088265
  15 O :   -0.331865
  16 C :    0.004012
  17 C :    0.038672
  18 C :   -0.240777
  19 C :   -0.032462
  20 O :   -0.317906
  21 H :    0.131014
  22 H :    0.121448
  23 O :   -0.404554
  24 H :    0.122622
  25 H :    0.104688
  26 H :    0.102541
  27 H :    0.108571
  28 H :    0.279039

  Mayer bond orders larger than 0.100000
B(  0-C ,  1-C ) :   0.9444 B(  0-C ,  4-O ) :   0.8877 B(  0-C ,  5-H ) :   0.9005
B(  0-C , 15-O ) :   0.8403 B(  1-C ,  2-C ) :   0.9555 B(  1-C ,  6-H ) :   0.9419
B(  1-C ,  7-H ) :   0.9378 B(  2-C ,  3-C ) :   0.9553 B(  2-C ,  8-H ) :   0.9462
B(  2-C ,  9-H ) :   0.9446 B(  3-C ,  4-O ) :   0.8440 B(  3-C , 10-H ) :   0.9362
B(  3-C , 11-H ) :   0.9406 B( 12-C , 13-H ) :   0.9145 B( 12-C , 14-H ) :   0.9272
B( 12-C , 15-O ) :   0.8512 B( 12-C , 16-C ) :   0.9073 B( 16-C , 17-C ) :   0.8671
B( 16-C , 20-O ) :   0.8365 B( 16-C , 21-H ) :   0.9136 B( 17-C , 18-C ) :   0.9216
B( 17-C , 22-H ) :   0.9326 B( 17-C , 23-O ) :   0.9010 B( 18-C , 19-C ) :   0.9404
B( 18-C , 24-H ) :   0.9427 B( 18-C , 25-H ) :   0.9398 B( 19-C , 20-O ) :   0.8432
B( 19-C , 26-H ) :   0.9318 B( 19-C , 27-H ) :   0.9371 B( 23-O , 28-H ) :   0.7975

FINAL SINGLE POINT ENERGY      -652.858204058689

DIPOLE MOMENT
-------------
                                X             Y             Z
Electronic contribution:     -0.46823      -2.59238       1.31033
Nuclear contribution   :      0.00512       2.68351      -2.16223
                        -----------------------------------------
Total Dipole Moment    :     -0.46310       0.09113      -0.85190
                        -----------------------------------------
Magnitude (a.u.)       :      0.97391
Magnitude (Debye)      :      2.47549

Rotational constants in cm-1:     0.057411     0.013935     0.013031
Rotational constants in MHz :  1721.136943   417.770538   390.672061

                             ****ORCA TERMINATED NORMALLY****
TOTAL RUN TIME: 0 days 0 hours 30 minutes 12 seconds 877 msec
