                         Program Version 4.2.1 -  RELEASE  -
|  1> # Test redundant internal optimization
|  2> #
|  3> ! RKS B3LYP  Opt TightSCF SmallPrint
|  4>
|  5> %basis
|  6>         Basis "6-31G"
|  7> end
|  8>
|  9> %geom
| 10> Constraints
| 11> { D 4  0  19  14  255.0   C } # D for Dihedral angle
| 12> { D 0  19  14  12  135.0   C } # D for Dihedral angle
| 13> { D 0  4  3  2   C } # D for Dihedral angle
| 14> { D 4  3  2  1   C } # D for Dihedral angle
| 15> { D 3  2  1  0   C } # D for Dihedral angle
| 16> { D 2  1  0  4   C } # D for Dihedral angle
| 17> { D 1  0  4  3   C } # D for Dihedral angle
| 18> { D 14  15  16  17   C } # D for Dihedral angle
| 19> { D 15  16  17  12   C } # D for Dihedral angle
| 20> { D 16  17  12  14   C } # D for Dihedral angle
| 21> { D 17  12  14  15   C } # D for Dihedral angle
| 22> { D 12  14  15  16   C } # D for Dihedral angle
| 23> end
| 24> end
| 25>
| 26>
| 27> #%pal
| 28> #nprocs 8
| 29> #end
| 30>
| 31> * xyz 0 1
| 32> C  -21.048   26.222   46.251
| 33> C  -20.361   27.558   45.944
| 34> C  -20.329   28.222   47.341
| 35> C  -20.110   27.022   48.296
| 36> O  -20.473   25.807   47.535
| 37> H  -20.833   25.428   45.533
| 38> H  -19.344   27.382   45.576
| 39> H  -20.898   28.157   45.201
| 40> H  -19.543   28.978   47.434
| 41> H  -21.289   28.710   47.548
| 42> H  -20.733   27.082   49.195
| 43> H  -19.064   26.913   48.597
| 44> C  -24.364   24.889   46.711
| 45> H  -24.776   23.910   46.421
| 46> C  -23.236   25.322   45.767
| 47> C  -24.031   25.845   44.548
| 48> C  -25.285   26.486   45.193
| 49> O  -25.381   25.936   46.563
| 50> H  -24.086   24.862   47.766
| 51> O  -22.472   26.381   46.366
| 52> H  -22.553   24.505   45.511
| 53> H  -23.462   26.557   43.943
| 54> H  -24.317   25.008   43.897
| 55> H  -26.205   26.252   44.647
| 56> H  -25.196   27.573   45.288
| 57> *
| 58>
| 59>                          ****END OF INPUT****
 Total Charge           Charge          ....    0
 Multiplicity           Mult            ....    1
 Number of Electrons    NEL             ....   86
FINAL SINGLE POINT ENERGY      -538.431343385372
FINAL SINGLE POINT ENERGY      -538.433502344800
FINAL SINGLE POINT ENERGY      -538.433726905520
FINAL SINGLE POINT ENERGY      -538.433755260653
FINAL SINGLE POINT ENERGY      -538.433761258431
                    ***********************HURRAY********************

CARTESIAN COORDINATES (ANGSTROEM)
---------------------------------
  C    -20.974354   26.184571   46.226229
  C    -20.376856   27.564344   45.947616
  C    -20.413952   28.217322   47.350516
  C    -20.130514   27.026019   48.293255
  O    -20.402739   25.803852   47.497064
  H    -20.707365   25.398553   45.512738
  H    -19.343941   27.449497   45.597992
  H    -20.947687   28.116612   45.198400
  H    -19.680335   29.021341   47.461807
  H    -21.411311   28.626120   47.537084
  H    -20.771729   27.019221   49.178080
  H    -19.082947   26.970574   48.604681
  C    -24.358191   24.919046   46.723792
  H    -24.820789   23.956288   46.458334
  C    -23.241667   25.272839   45.740501
  C    -24.042513   25.822601   44.543304
  C    -25.236131   26.543291   45.215271
  O    -25.316032   26.016658   46.593721
  H    -24.014388   24.896521   47.758206
  O    -22.409533   26.321892   46.317269
  H    -22.621911   24.405875   45.477890
  H    -23.435189   26.489044   43.925295
  H    -24.386332   24.988780   43.919248
  H    -26.184591   26.353500   44.700029
  H    -25.078002   27.622639   45.293680

 Multiplicity           Mult            ....    1
 Number of Electrons    NEL             ....   86
 Basis Dimension        Dim             ....  127

ORBITAL ENERGIES
----------------

  NO   OCC          E(Eh)            E(eV)
   0   2.0000     -19.140497      -520.8394
   1   2.0000     -19.135919      -520.7148
   2   2.0000     -19.126043      -520.4461
   3   2.0000     -10.279689      -279.7246
   4   2.0000     -10.241768      -278.6927
   5   2.0000     -10.221727      -278.1473
   6   2.0000     -10.219755      -278.0937
   7   2.0000     -10.218505      -278.0597
   8   2.0000     -10.186362      -277.1850
   9   2.0000     -10.183951      -277.1194
  10   2.0000     -10.182586      -277.0823
  11   2.0000      -1.051983       -28.6259
  12   2.0000      -1.012726       -27.5577
  13   2.0000      -0.989310       -26.9205
  14   2.0000      -0.790247       -21.5037
  15   2.0000      -0.775775       -21.1099
  16   2.0000      -0.739224       -20.1153
  17   2.0000      -0.719165       -19.5695
  18   2.0000      -0.605302       -16.4711
  19   2.0000      -0.598892       -16.2967
  20   2.0000      -0.594808       -16.1856
  21   2.0000      -0.580389       -15.7932
  22   2.0000      -0.520671       -14.1682
  23   2.0000      -0.503033       -13.6882
  24   2.0000      -0.480294       -13.0695
  25   2.0000      -0.475525       -12.9397
  26   2.0000      -0.451954       -12.2983
  27   2.0000      -0.443465       -12.0673
  28   2.0000      -0.426829       -11.6146
  29   2.0000      -0.414686       -11.2842
  30   2.0000      -0.404869       -11.0170
  31   2.0000      -0.385342       -10.4857
  32   2.0000      -0.372233       -10.1290
  33   2.0000      -0.365366        -9.9421
  34   2.0000      -0.355061        -9.6617
  35   2.0000      -0.352163        -9.5829
  36   2.0000      -0.343311        -9.3420
  37   2.0000      -0.317802        -8.6478
  38   2.0000      -0.306722        -8.3463
  39   2.0000      -0.297494        -8.0952
  40   2.0000      -0.266506        -7.2520
  41   2.0000      -0.248046        -6.7497
  42   2.0000      -0.230066        -6.2604
  43   0.0000       0.075057         2.0424
  44   0.0000       0.093784         2.5520
  45   0.0000       0.098451         2.6790
  46   0.0000       0.115273         3.1367
  47   0.0000       0.122974         3.3463

MULLIKEN ATOMIC CHARGES
-----------------------
   0 C :    0.281090
   1 C :   -0.253366
   2 C :   -0.300167
   3 C :   -0.000699
   4 O :   -0.506213
   5 H :    0.137206
   6 H :    0.142121
   7 H :    0.146760
   8 H :    0.139766
   9 H :    0.167602
  10 H :    0.151452
  11 H :    0.139589
  12 C :    0.015086
  13 H :    0.119243
  14 C :    0.061157
  15 C :   -0.290980
  16 C :    0.003424
  17 O :   -0.520071
  18 H :    0.169299
  19 O :   -0.511899
  20 H :    0.131707
  21 H :    0.149857
  22 H :    0.141024
  23 H :    0.133742
  24 H :    0.153269
Sum of atomic charges:   -0.0000000

LOEWDIN ATOMIC CHARGES
----------------------
   0 C :    0.174000
   1 C :   -0.218646
   2 C :   -0.216274
   3 C :   -0.026724
   4 O :   -0.324318
   5 H :    0.095891
   6 H :    0.112090
   7 H :    0.118498
   8 H :    0.112982
   9 H :    0.121803
  10 H :    0.107727
  11 H :    0.101157
  12 C :   -0.035643
  13 H :    0.089494
  14 C :    0.040671
  15 C :   -0.234032
  16 C :   -0.028464
  17 O :   -0.329336
  18 H :    0.124160
  19 O :   -0.322850
  20 H :    0.100373
  21 H :    0.120170
  22 H :    0.112110
  23 H :    0.097455
  24 H :    0.107705

  Mayer bond orders larger than 0.100000
B(  0-C ,  1-C ) :   0.9458 B(  0-C ,  4-O ) :   0.9235 B(  0-C ,  5-H ) :   0.9174
B(  0-C , 19-O ) :   0.8582 B(  1-C ,  2-C ) :   0.9581 B(  1-C ,  6-H ) :   0.9384
B(  1-C ,  7-H ) :   0.9380 B(  2-C ,  3-C ) :   0.9545 B(  2-C ,  8-H ) :   0.9453
B(  2-C ,  9-H ) :   0.9428 B(  3-C ,  4-O ) :   0.8379 B(  3-C , 10-H ) :   0.9348
B(  3-C , 11-H ) :   0.9401 B( 12-C , 13-H ) :   0.9137 B( 12-C , 14-C ) :   0.9319
B( 12-C , 17-O ) :   0.8714 B( 12-C , 18-H ) :   0.9310 B( 14-C , 15-C ) :   0.9424
B( 14-C , 19-O ) :   0.8282 B( 14-C , 20-H ) :   0.9183 B( 15-C , 16-C ) :   0.9467
B( 15-C , 21-H ) :   0.9411 B( 15-C , 22-H ) :   0.9379 B( 16-C , 17-O ) :   0.8589
B( 16-C , 23-H ) :   0.9331 B( 16-C , 24-H ) :   0.9357

FINAL SINGLE POINT ENERGY      -538.433762218607

DIPOLE MOMENT
-------------
                                X             Y             Z
Electronic contribution:     -1.10265      -2.36462       1.97854
Nuclear contribution   :      1.74860       2.50829      -2.97462
                        -----------------------------------------
Total Dipole Moment    :      0.64595       0.14367      -0.99608
                        -----------------------------------------
Magnitude (a.u.)       :      1.19585
Magnitude (Debye)      :      3.03961

Rotational constants in cm-1:     0.078569     0.020057     0.019294
Rotational constants in MHz :  2355.446157   601.290437   578.412546

                             ****ORCA TERMINATED NORMALLY****
TOTAL RUN TIME: 0 days 0 hours 5 minutes 44 seconds 796 msec
