                         Program Version 4.2.0 -  RELEASE  -
|  1> # Test redundant internal optimization
|  2> #
|  3> ! RKS B3LYP  Opt TightSCF SmallPrint
|  4>
|  5> %basis
|  6>         Basis "6-31G"
|  7> end
|  8>
|  9> %geom
| 10> Constraints
| 11> { D 4  0  15  12  270.0   C } # D for Dihedral angle
| 12> { D 0  15  12  16  180.0   C } # D for Dihedral angle
| 13> { D 0  4  3  2   C } # D for Dihedral angle
| 14> { D 4  3  2  1   C } # D for Dihedral angle
| 15> { D 3  2  1  0   C } # D for Dihedral angle
| 16> { D 2  1  0  4   C } # D for Dihedral angle
| 17> { D 1  0  4  3   C } # D for Dihedral angle
| 18> { D 16  20  19  18   C } # D for Dihedral angle
| 19> { D 20  19  18  17   C } # D for Dihedral angle
| 20> { D 19  18  17  16   C } # D for Dihedral angle
| 21> { D 18  17  16  20   C } # D for Dihedral angle
| 22> { D 17  16  20  19   C } # D for Dihedral angle
| 23> { D 15  12  16  20   C } # D for Dihedral angle
| 24> end
| 25> end
| 26>
| 27>
| 28> #%pal
| 29> #nprocs 8
| 30> #end
| 31>
| 32> * xyz 0 1
| 33> C  -21.048   26.222   46.251
| 34> C  -20.361   27.558   45.944
| 35> C  -20.329   28.222   47.341
| 36> C  -20.110   27.022   48.296
| 37> O  -20.473   25.807   47.535
| 38> H  -20.833   25.428   45.533
| 39> H  -19.344   27.382   45.576
| 40> H  -20.898   28.157   45.201
| 41> H  -19.543   28.978   47.434
| 42> H  -21.289   28.710   47.548
| 43> H  -20.733   27.082   49.195
| 44> H  -19.064   26.913   48.597
| 45> C  -23.420   25.119   46.072
| 46> H  -23.215   24.787   45.047
| 47> H  -23.142   24.307   46.757
| 48> O  -22.586   26.394   46.375
| 49> C  -24.949   25.354   46.213
| 50> C  -25.303   25.907   47.599
| 51> C  -24.932   27.401   47.444
| 52> C  -25.298   27.703   45.969
| 53> O  -25.395   26.396   45.283
| 54> H  -25.478   24.438   45.944
| 55> O  -26.824   25.745   47.864
| 56> H  -24.756   25.416   48.411
| 57> H  -25.466   28.047   48.147
| 58> H  -23.857   27.542   47.611
| 59> H  -24.543   28.318   45.466
| 60> H  -26.273   28.191   45.873
| 61> H  -27.392   26.230   47.063
| 62> *
| 63>
| 64>                          ****END OF INPUT****
 Total Charge           Charge          ....    0
 Multiplicity           Mult            ....    1
 Number of Electrons    NEL             ....  102
FINAL SINGLE POINT ENERGY      -652.839207024718
FINAL SINGLE POINT ENERGY      -652.862573945892
FINAL SINGLE POINT ENERGY      -652.866626026415
FINAL SINGLE POINT ENERGY      -652.867697404951
FINAL SINGLE POINT ENERGY      -652.867819033352
FINAL SINGLE POINT ENERGY      -652.867835372689
                    ***********************HURRAY********************

CARTESIAN COORDINATES (ANGSTROEM)
---------------------------------
  C    -21.091933   26.146562   46.237859
  C    -20.451530   27.498382   45.920880
  C    -20.426676   28.172446   47.313018
  C    -20.162251   26.986837   48.268467
  O    -20.500600   25.762428   47.500559
  H    -20.873469   25.341572   45.530109
  H    -19.434387   27.336598   45.546415
  H    -21.020531   28.058235   45.176114
  H    -19.658141   28.947599   47.391852
  H    -21.398217   28.631107   47.520835
  H    -20.776871   27.017880   49.171698
  H    -19.109418   26.897143   48.551761
  C    -23.321233   25.148869   46.100285
  H    -23.131885   24.797059   45.076914
  H    -23.042405   24.353262   46.805818
  O    -22.518989   26.341026   46.348853
  C    -24.807450   25.456974   46.241102
  C    -25.283159   25.974693   47.607053
  C    -24.983685   27.492552   47.492062
  C    -25.267211   27.790341   45.998538
  O    -25.246448   26.485067   45.296794
  H    -25.351959   24.540549   45.983056
  O    -26.701994   25.703082   47.788686
  H    -24.788343   25.498205   48.453640
  H    -25.620720   28.065917   48.170539
  H    -23.934073   27.672835   47.726455
  H    -24.508402   28.438686   45.552308
  H    -26.256799   28.229637   45.831950
  H    -27.185221   25.990457   46.985382

 Multiplicity           Mult            ....    1
 Number of Electrons    NEL             ....  102
 Basis Dimension        Dim             ....  149

ORBITAL ENERGIES
----------------

  NO   OCC          E(Eh)            E(eV)
   0   2.0000     -19.150016      -521.0984
   1   2.0000     -19.142236      -520.8867
   2   2.0000     -19.137056      -520.7458
   3   2.0000     -19.133357      -520.6451
   4   2.0000     -10.282501      -279.8011
   5   2.0000     -10.235277      -278.5160
   6   2.0000     -10.233856      -278.4774
   7   2.0000     -10.233270      -278.4614
   8   2.0000     -10.228168      -278.3226
   9   2.0000     -10.222393      -278.1654
  10   2.0000     -10.189411      -277.2680
  11   2.0000     -10.188287      -277.2374
  12   2.0000     -10.175317      -276.8845
  13   2.0000      -1.058291       -28.7976
  14   2.0000      -1.031505       -28.0687
  15   2.0000      -1.003369       -27.3030
  16   2.0000      -0.995689       -27.0941
  17   2.0000      -0.792119       -21.5547
  18   2.0000      -0.775717       -21.1083
  19   2.0000      -0.763695       -20.7812
  20   2.0000      -0.732432       -19.9305
  21   2.0000      -0.673453       -18.3256
  22   2.0000      -0.602199       -16.3867
  23   2.0000      -0.597116       -16.2484
  24   2.0000      -0.594977       -16.1901
  25   2.0000      -0.580717       -15.8021
  26   2.0000      -0.526388       -14.3237
  27   2.0000      -0.505833       -13.7644
  28   2.0000      -0.498163       -13.5557
  29   2.0000      -0.485242       -13.2041
  30   2.0000      -0.474312       -12.9067
  31   2.0000      -0.461324       -12.5533
  32   2.0000      -0.447309       -12.1719
  33   2.0000      -0.434032       -11.8106
  34   2.0000      -0.424186       -11.5427
  35   2.0000      -0.409493       -11.1429
  36   2.0000      -0.404755       -11.0140
  37   2.0000      -0.386178       -10.5085
  38   2.0000      -0.378559       -10.3011
  39   2.0000      -0.366197        -9.9647
  40   2.0000      -0.359794        -9.7905
  41   2.0000      -0.355809        -9.6821
  42   2.0000      -0.349597        -9.5130
  43   2.0000      -0.332342        -9.0435
  44   2.0000      -0.322180        -8.7670
  45   2.0000      -0.308312        -8.3896
  46   2.0000      -0.300306        -8.1717
  47   2.0000      -0.273262        -7.4358
  48   2.0000      -0.264909        -7.2085
  49   2.0000      -0.253097        -6.8871
  50   2.0000      -0.242411        -6.5963
  51   0.0000       0.064236         1.7480
  52   0.0000       0.083562         2.2738
  53   0.0000       0.089018         2.4223
  54   0.0000       0.103252         2.8096
  55   0.0000       0.105182         2.8622

MULLIKEN ATOMIC CHARGES
-----------------------
   0 C :    0.290167
   1 C :   -0.258335
   2 C :   -0.304282
   3 C :   -0.001614
   4 O :   -0.508668
   5 H :    0.143920
   6 H :    0.146926
   7 H :    0.156037
   8 H :    0.143941
   9 H :    0.159287
  10 H :    0.147283
  11 H :    0.144005
  12 C :    0.006438
  13 H :    0.141323
  14 H :    0.144935
  15 O :   -0.526682
  16 C :    0.059660
  17 C :    0.074621
  18 C :   -0.286913
  19 C :   -0.019385
  20 O :   -0.527189
  21 H :    0.157163
  22 O :   -0.602488
  23 H :    0.154326
  24 H :    0.147532
  25 H :    0.172812
  26 H :    0.149249
  27 H :    0.133643
  28 H :    0.362287
Sum of atomic charges:    0.0000000

LOEWDIN ATOMIC CHARGES
----------------------
   0 C :    0.173703
   1 C :   -0.215637
   2 C :   -0.216748
   3 C :   -0.027428
   4 O :   -0.327074
   5 H :    0.099731
   6 H :    0.115162
   7 H :    0.123451
   8 H :    0.114794
   9 H :    0.115388
  10 H :    0.105495
  11 H :    0.103571
  12 C :   -0.037505
  13 H :    0.102376
  14 H :    0.104337
  15 O :   -0.329242
  16 C :    0.014942
  17 C :    0.039727
  18 C :   -0.241399
  19 C :   -0.033345
  20 O :   -0.330749
  21 H :    0.116961
  22 O :   -0.416913
  23 H :    0.117431
  24 H :    0.118233
  25 H :    0.127328
  26 H :    0.106553
  27 H :    0.095359
  28 H :    0.281500

  Mayer bond orders larger than 0.100000
B(  0-C ,  1-C ) :   0.9465 B(  0-C ,  4-O ) :   0.9170 B(  0-C ,  5-H ) :   0.9183
B(  0-C , 15-O ) :   0.8508 B(  1-C ,  2-C ) :   0.9567 B(  1-C ,  6-H ) :   0.9392
B(  1-C ,  7-H ) :   0.9364 B(  2-C ,  3-C ) :   0.9543 B(  2-C ,  8-H ) :   0.9449
B(  2-C ,  9-H ) :   0.9431 B(  3-C ,  4-O ) :   0.8381 B(  3-C , 10-H ) :   0.9354
B(  3-C , 11-H ) :   0.9399 B( 12-C , 13-H ) :   0.9172 B( 12-C , 14-H ) :   0.9079
B( 12-C , 15-O ) :   0.8358 B( 12-C , 16-C ) :   0.9140 B( 16-C , 17-C ) :   0.9088
B( 16-C , 20-O ) :   0.8710 B( 16-C , 21-H ) :   0.9221 B( 17-C , 18-C ) :   0.9246
B( 17-C , 22-O ) :   0.8905 B( 17-C , 23-H ) :   0.9352 B( 18-C , 19-C ) :   0.9460
B( 18-C , 24-H ) :   0.9370 B( 18-C , 25-H ) :   0.9174 B( 19-C , 20-O ) :   0.8396
B( 19-C , 26-H ) :   0.9342 B( 19-C , 27-H ) :   0.9377 B( 22-O , 28-H ) :   0.7962

FINAL SINGLE POINT ENERGY      -652.867835099365

DIPOLE MOMENT
-------------
                                X             Y             Z
Electronic contribution:     -3.41273      -4.32502      -1.13889
Nuclear contribution   :      4.23639       5.06626       0.93427
                        -----------------------------------------
Total Dipole Moment    :      0.82366       0.74124      -0.20462
                        -----------------------------------------
Magnitude (a.u.)       :      1.12682
Magnitude (Debye)      :      2.86415

Rotational constants in cm-1:     0.051777     0.014197     0.014141
Rotational constants in MHz :  1552.238957   425.628323   423.935059

                             ****ORCA TERMINATED NORMALLY****
TOTAL RUN TIME: 0 days 1 hours 3 minutes 22 seconds 155 msec
