                         Program Version 4.2.0 -  RELEASE  -
|  1> # Test redundant internal optimization
|  2> #
|  3> ! RKS B3LYP  Opt TightSCF SmallPrint
|  4>
|  5> %basis
|  6>         Basis "6-31G"
|  7> end
|  8>
|  9> %geom
| 10> Constraints
| 11> { D 4  0  15  12  330.0   C } # D for Dihedral angle
| 12> { D 0  15  12  16  285.0   C } # D for Dihedral angle
| 13> { D 0  4  3  2   C } # D for Dihedral angle
| 14> { D 4  3  2  1   C } # D for Dihedral angle
| 15> { D 3  2  1  0   C } # D for Dihedral angle
| 16> { D 2  1  0  4   C } # D for Dihedral angle
| 17> { D 1  0  4  3   C } # D for Dihedral angle
| 18> { D 16  20  19  18   C } # D for Dihedral angle
| 19> { D 20  19  18  17   C } # D for Dihedral angle
| 20> { D 19  18  17  16   C } # D for Dihedral angle
| 21> { D 18  17  16  20   C } # D for Dihedral angle
| 22> { D 17  16  20  19   C } # D for Dihedral angle
| 23> { D 15  12  16  20   C } # D for Dihedral angle
| 24> end
| 25> end
| 26>
| 27>
| 28> #%pal
| 29> #nprocs 8
| 30> #end
| 31>
| 32> * xyz 0 1
| 33> C  -21.048   26.222   46.251
| 34> C  -20.361   27.558   45.944
| 35> C  -20.329   28.222   47.341
| 36> C  -20.110   27.022   48.296
| 37> O  -20.473   25.807   47.535
| 38> H  -20.833   25.428   45.533
| 39> H  -19.344   27.382   45.576
| 40> H  -20.898   28.157   45.201
| 41> H  -19.543   28.978   47.434
| 42> H  -21.289   28.710   47.548
| 43> H  -20.733   27.082   49.195
| 44> H  -19.064   26.913   48.597
| 45> C  -23.271   25.476   47.424
| 46> H  -22.687   25.488   48.353
| 47> H  -24.282   25.838   47.650
| 48> O  -22.586   26.394   46.375
| 49> C  -23.393   24.003   46.944
| 50> C  -24.123   23.914   45.599
| 51> C  -23.002   24.306   44.607
| 52> C  -21.731   23.701   45.256
| 53> O  -22.066   23.440   46.673
| 54> H  -23.838   23.403   47.740
| 55> H  -24.456   22.886   45.419
| 56> O  -25.358   24.852   45.511
| 57> H  -23.176   23.924   43.596
| 58> H  -22.920   25.398   44.543
| 59> H  -20.872   24.379   45.209
| 60> H  -21.451   22.742   44.810
| 61> H  -25.048   25.887   45.689
| 62> *
| 63>
| 64>                          ****END OF INPUT****
 Total Charge           Charge          ....    0
 Multiplicity           Mult            ....    1
 Number of Electrons    NEL             ....  102
FINAL SINGLE POINT ENERGY      -652.794163516291
FINAL SINGLE POINT ENERGY      -652.836487562039
FINAL SINGLE POINT ENERGY      -652.855390201562
FINAL SINGLE POINT ENERGY      -652.858974497816
FINAL SINGLE POINT ENERGY      -652.859407955203
FINAL SINGLE POINT ENERGY      -652.859501961325
FINAL SINGLE POINT ENERGY      -652.859521195048
FINAL SINGLE POINT ENERGY      -652.859526281224
FINAL SINGLE POINT ENERGY      -652.859527430995
                    ***********************HURRAY********************

CARTESIAN COORDINATES (ANGSTROEM)
---------------------------------
  C    -20.966983   26.394568   46.289330
  C    -20.429742   27.812476   46.099702
  C    -20.379874   28.328902   47.555877
  C    -19.995693   27.071721   48.363380
  O    -20.295279   25.914088   47.471473
  H    -20.722302   25.693686   45.491556
  H    -19.426710   27.761446   45.660699
  H    -21.072174   28.414399   45.453119
  H    -19.660737   29.142871   47.688478
  H    -21.368861   28.692322   47.850068
  H    -20.567159   26.959184   49.288571
  H    -18.927326   27.017277   48.590415
  C    -23.109696   25.570511   47.336531
  H    -22.585210   25.557434   48.297473
  H    -24.097833   26.017992   47.474098
  O    -22.412792   26.488981   46.438077
  C    -23.310737   24.116873   46.885755
  C    -24.175867   23.948992   45.623973
  C    -23.107659   24.010845   44.487149
  C    -21.890758   23.313079   45.136388
  O    -22.126024   23.322021   46.601487
  H    -23.791623   23.626093   47.742134
  H    -24.675193   22.977940   45.638198
  O    -25.243789   24.915984   45.487353
  H    -23.441898   23.518280   43.570815
  H    -22.893522   25.062296   44.266190
  H    -20.937070   23.801276   44.920076
  H    -21.812942   22.262166   44.840760
  H    -24.859550   25.798301   45.299873

 Multiplicity           Mult            ....    1
 Number of Electrons    NEL             ....  102
 Basis Dimension        Dim             ....  149

ORBITAL ENERGIES
----------------

  NO   OCC          E(Eh)            E(eV)
   0   2.0000     -19.145988      -520.9888
   1   2.0000     -19.145944      -520.9876
   2   2.0000     -19.139346      -520.8081
   3   2.0000     -19.136274      -520.7245
   4   2.0000     -10.280039      -279.7341
   5   2.0000     -10.235986      -278.5353
   6   2.0000     -10.229316      -278.3538
   7   2.0000     -10.227485      -278.3040
   8   2.0000     -10.226115      -278.2667
   9   2.0000     -10.225704      -278.2556
  10   2.0000     -10.188535      -277.2441
  11   2.0000     -10.187247      -277.2091
  12   2.0000     -10.184967      -277.1470
  13   2.0000      -1.055336       -28.7172
  14   2.0000      -1.027387       -27.9566
  15   2.0000      -1.010084       -27.4858
  16   2.0000      -0.992685       -27.0123
  17   2.0000      -0.791427       -21.5358
  18   2.0000      -0.772507       -21.0210
  19   2.0000      -0.766982       -20.8706
  20   2.0000      -0.733494       -19.9594
  21   2.0000      -0.677152       -18.4262
  22   2.0000      -0.604953       -16.4616
  23   2.0000      -0.604273       -16.4431
  24   2.0000      -0.599822       -16.3220
  25   2.0000      -0.558827       -15.2065
  26   2.0000      -0.528783       -14.3889
  27   2.0000      -0.507738       -13.8162
  28   2.0000      -0.497797       -13.5458
  29   2.0000      -0.486106       -13.2276
  30   2.0000      -0.468505       -12.7487
  31   2.0000      -0.461700       -12.5635
  32   2.0000      -0.440015       -11.9734
  33   2.0000      -0.432537       -11.7699
  34   2.0000      -0.423013       -11.5108
  35   2.0000      -0.411594       -11.2000
  36   2.0000      -0.405850       -11.0437
  37   2.0000      -0.391345       -10.6490
  38   2.0000      -0.377482       -10.2718
  39   2.0000      -0.371247       -10.1021
  40   2.0000      -0.359483        -9.7820
  41   2.0000      -0.356333        -9.6963
  42   2.0000      -0.347105        -9.4452
  43   2.0000      -0.332873        -9.0579
  44   2.0000      -0.326065        -8.8727
  45   2.0000      -0.308301        -8.3893
  46   2.0000      -0.297964        -8.1080
  47   2.0000      -0.269503        -7.3336
  48   2.0000      -0.261849        -7.1253
  49   2.0000      -0.260749        -7.0954
  50   2.0000      -0.234371        -6.3776
  51   0.0000       0.068184         1.8554
  52   0.0000       0.082230         2.2376
  53   0.0000       0.093765         2.5515
  54   0.0000       0.094858         2.5812
  55   0.0000       0.103282         2.8104

MULLIKEN ATOMIC CHARGES
-----------------------
   0 C :    0.306003
   1 C :   -0.261326
   2 C :   -0.297602
   3 C :   -0.016495
   4 O :   -0.500025
   5 H :    0.144095
   6 H :    0.144994
   7 H :    0.155666
   8 H :    0.143877
   9 H :    0.157965
  10 H :    0.146619
  11 H :    0.149632
  12 C :   -0.039681
  13 H :    0.159996
  14 H :    0.153427
  15 O :   -0.551481
  16 C :    0.098052
  17 C :    0.091143
  18 C :   -0.317460
  19 C :   -0.011685
  20 O :   -0.512132
  21 H :    0.147264
  22 H :    0.161507
  23 O :   -0.608293
  24 H :    0.148761
  25 H :    0.151058
  26 H :    0.143100
  27 H :    0.146022
  28 H :    0.367000
Sum of atomic charges:   -0.0000000

LOEWDIN ATOMIC CHARGES
----------------------
   0 C :    0.178785
   1 C :   -0.217036
   2 C :   -0.216900
   3 C :   -0.030762
   4 O :   -0.311473
   5 H :    0.096244
   6 H :    0.113609
   7 H :    0.123555
   8 H :    0.115310
   9 H :    0.117062
  10 H :    0.103754
  11 H :    0.106485
  12 C :   -0.054122
  13 H :    0.111557
  14 H :    0.117044
  15 O :   -0.349170
  16 C :    0.008732
  17 C :    0.035577
  18 C :   -0.242202
  19 C :   -0.029039
  20 O :   -0.314170
  21 H :    0.114972
  22 H :    0.115785
  23 O :   -0.410843
  24 H :    0.118658
  25 H :    0.113313
  26 H :    0.097787
  27 H :    0.103841
  28 H :    0.283649

  Mayer bond orders larger than 0.100000
B(  0-C ,  1-C ) :   0.9417 B(  0-C ,  4-O ) :   0.9220 B(  0-C ,  5-H ) :   0.9082
B(  0-C , 15-O ) :   0.8271 B(  1-C ,  2-C ) :   0.9548 B(  1-C ,  6-H ) :   0.9380
B(  1-C ,  7-H ) :   0.9359 B(  2-C ,  3-C ) :   0.9532 B(  2-C ,  8-H ) :   0.9449
B(  2-C ,  9-H ) :   0.9450 B(  3-C ,  4-O ) :   0.8340 B(  3-C , 10-H ) :   0.9339
B(  3-C , 11-H ) :   0.9402 B( 12-C , 13-H ) :   0.9205 B( 12-C , 14-H ) :   0.9200
B( 12-C , 15-O ) :   0.8485 B( 12-C , 16-C ) :   0.8914 B( 16-C , 17-C ) :   0.8830
B( 16-C , 20-O ) :   0.8782 B( 16-C , 21-H ) :   0.9210 B( 17-C , 18-C ) :   0.9266
B( 17-C , 22-H ) :   0.9370 B( 17-C , 23-O ) :   0.9009 B( 18-C , 19-C ) :   0.9428
B( 18-C , 24-H ) :   0.9418 B( 18-C , 25-H ) :   0.9335 B( 19-C , 20-O ) :   0.8423
B( 19-C , 26-H ) :   0.9181 B( 19-C , 27-H ) :   0.9379 B( 23-O , 28-H ) :   0.7903

FINAL SINGLE POINT ENERGY      -652.859526425694

DIPOLE MOMENT
-------------
                                X             Y             Z
Electronic contribution:     -2.44028      -3.46953       0.66666
Nuclear contribution   :      3.01679       4.38328      -0.95648
                        -----------------------------------------
Total Dipole Moment    :      0.57651       0.91374      -0.28982
                        -----------------------------------------
Magnitude (a.u.)       :      1.11861
Magnitude (Debye)      :      2.84328

Rotational constants in cm-1:     0.050784     0.016429     0.015362
Rotational constants in MHz :  1522.480056   492.527246   460.526742

                             ****ORCA TERMINATED NORMALLY****
TOTAL RUN TIME: 0 days 0 hours 53 minutes 39 seconds 858 msec
