                         Program Version 4.2.0 -  RELEASE  -
|  1> # Test redundant internal optimization
|  2> #
|  3> ! RKS B3LYP  Opt TightSCF SmallPrint
|  4>
|  5> %basis
|  6>         Basis "6-31G"
|  7> end
|  8>
|  9> %geom
| 10> Constraints
| 11> { D 4  0  15  12  180.0   C } # D for Dihedral angle
| 12> { D 0  15  12  16  135.0   C } # D for Dihedral angle
| 13> { D 0  4  3  2   C } # D for Dihedral angle
| 14> { D 4  3  2  1   C } # D for Dihedral angle
| 15> { D 3  2  1  0   C } # D for Dihedral angle
| 16> { D 2  1  0  4   C } # D for Dihedral angle
| 17> { D 1  0  4  3   C } # D for Dihedral angle
| 18> { D 16  20  19  18   C } # D for Dihedral angle
| 19> { D 20  19  18  17   C } # D for Dihedral angle
| 20> { D 19  18  17  16   C } # D for Dihedral angle
| 21> { D 18  17  16  20   C } # D for Dihedral angle
| 22> { D 17  16  20  19   C } # D for Dihedral angle
| 23> { D 15  12  16  20   C } # D for Dihedral angle
| 24> end
| 25> end
| 26>
| 27>
| 28> #%pal
| 29> #nprocs 8
| 30> #end
| 31>
| 32> * xyz 0 1
| 33> C  -21.048   26.222   46.251
| 34> C  -20.361   27.558   45.944
| 35> C  -20.329   28.222   47.341
| 36> C  -20.110   27.022   48.296
| 37> O  -20.473   25.807   47.535
| 38> H  -20.833   25.428   45.533
| 39> H  -19.344   27.382   45.576
| 40> H  -20.898   28.157   45.201
| 41> H  -19.543   28.978   47.434
| 42> H  -21.289   28.710   47.548
| 43> H  -20.733   27.082   49.195
| 44> H  -19.064   26.913   48.597
| 45> C  -23.309   26.834   45.072
| 46> H  -23.576   27.895   45.147
| 47> H  -22.648   26.707   44.205
| 48> O  -22.586   26.394   46.375
| 49> C  -24.605   26.021   44.801
| 50> C  -24.322   24.514   44.773
| 51> C  -24.246   24.182   46.282
| 52> C  -25.299   25.131   46.905
| 53> O  -25.556   26.190   45.904
| 54> H  -25.087   26.407   43.901
| 55> O  -25.506   23.763   44.106
| 56> H  -23.403   24.258   44.235
| 57> H  -24.455   23.129   46.496
| 58> H  -23.244   24.409   46.668
| 59> H  -24.949   25.594   47.835
| 60> H  -26.252   24.630   47.096
| 61> H  -26.438   24.004   44.629
| 62> *
| 63>
| 64>                          ****END OF INPUT****
 Total Charge           Charge          ....    0
 Multiplicity           Mult            ....    1
 Number of Electrons    NEL             ....  102
FINAL SINGLE POINT ENERGY      -652.832715029388
FINAL SINGLE POINT ENERGY      -652.855243481247
FINAL SINGLE POINT ENERGY      -652.859082924112
FINAL SINGLE POINT ENERGY      -652.860379777404
FINAL SINGLE POINT ENERGY      -652.860503362644
FINAL SINGLE POINT ENERGY      -652.860519372010
                    ***********************HURRAY********************

CARTESIAN COORDINATES (ANGSTROEM)
---------------------------------
  C    -21.066350   26.247712   46.197722
  C    -20.343032   27.560568   45.905407
  C    -20.374212   28.260207   47.286932
  C    -20.229729   27.081115   48.270252
  O    -20.580617   25.864194   47.488523
  H    -20.855075   25.428960   45.501716
  H    -19.312862   27.340843   45.601082
  H    -20.811922   28.154230   45.116023
  H    -19.575006   28.998839   47.399376
  H    -21.334847   28.764570   47.426694
  H    -20.903141   27.147546   49.127736
  H    -19.203611   26.939169   48.620904
  C    -23.221007   26.829181   45.111672
  H    -23.484584   27.890051   45.193812
  H    -22.587443   26.695164   44.221599
  O    -22.510608   26.431703   46.322345
  C    -24.503226   26.018221   44.925760
  C    -24.350952   24.493890   44.804635
  C    -24.291427   24.061404   46.294443
  C    -25.255121   25.058784   46.983331
  O    -25.424853   26.195635   46.046305
  H    -25.010916   26.413313   44.036538
  O    -25.492400   23.922434   44.104781
  H    -23.479772   24.181278   44.227114
  H    -24.606396   23.019836   46.405597
  H    -23.278589   24.182664   46.680245
  H    -24.850511   25.440399   47.923497
  H    -26.250763   24.639204   47.161896
  H    -26.317029   24.281883   44.495062

 Multiplicity           Mult            ....    1
 Number of Electrons    NEL             ....  102
 Basis Dimension        Dim             ....  149

ORBITAL ENERGIES
----------------

  NO   OCC          E(Eh)            E(eV)
   0   2.0000     -19.146947      -521.0149
   1   2.0000     -19.146016      -520.9896
   2   2.0000     -19.134413      -520.6738
   3   2.0000     -19.133652      -520.6531
   4   2.0000     -10.286672      -279.9146
   5   2.0000     -10.235956      -278.5345
   6   2.0000     -10.235257      -278.5155
   7   2.0000     -10.232343      -278.4362
   8   2.0000     -10.229819      -278.3675
   9   2.0000     -10.217777      -278.0398
  10   2.0000     -10.193164      -277.3701
  11   2.0000     -10.191458      -277.3237
  12   2.0000     -10.171878      -276.7909
  13   2.0000      -1.059547       -28.8317
  14   2.0000      -1.030465       -28.0404
  15   2.0000      -1.003179       -27.2979
  16   2.0000      -0.994612       -27.0648
  17   2.0000      -0.791925       -21.5494
  18   2.0000      -0.775541       -21.1035
  19   2.0000      -0.761847       -20.7309
  20   2.0000      -0.735634       -20.0176
  21   2.0000      -0.676094       -18.3975
  22   2.0000      -0.606755       -16.5106
  23   2.0000      -0.599032       -16.3005
  24   2.0000      -0.593644       -16.1539
  25   2.0000      -0.573245       -15.5988
  26   2.0000      -0.527229       -14.3466
  27   2.0000      -0.506134       -13.7726
  28   2.0000      -0.502931       -13.6854
  29   2.0000      -0.487808       -13.2739
  30   2.0000      -0.474304       -12.9065
  31   2.0000      -0.457536       -12.4502
  32   2.0000      -0.448923       -12.2158
  33   2.0000      -0.435221       -11.8430
  34   2.0000      -0.427513       -11.6332
  35   2.0000      -0.410283       -11.1644
  36   2.0000      -0.405345       -11.0300
  37   2.0000      -0.383506       -10.4357
  38   2.0000      -0.382100       -10.3975
  39   2.0000      -0.363359        -9.8875
  40   2.0000      -0.362557        -9.8657
  41   2.0000      -0.356733        -9.7072
  42   2.0000      -0.354468        -9.6456
  43   2.0000      -0.327320        -8.9068
  44   2.0000      -0.317446        -8.6381
  45   2.0000      -0.309001        -8.4083
  46   2.0000      -0.300438        -8.1753
  47   2.0000      -0.266214        -7.2440
  48   2.0000      -0.263423        -7.1681
  49   2.0000      -0.261067        -7.1040
  50   2.0000      -0.236611        -6.4385
  51   0.0000       0.068421         1.8618
  52   0.0000       0.078290         2.1304
  53   0.0000       0.091626         2.4933
  54   0.0000       0.101501         2.7620
  55   0.0000       0.111150         3.0245

MULLIKEN ATOMIC CHARGES
-----------------------
   0 C :    0.300666
   1 C :   -0.277900
   2 C :   -0.298723
   3 C :   -0.001335
   4 O :   -0.506211
   5 H :    0.142001
   6 H :    0.148829
   7 H :    0.146387
   8 H :    0.144782
   9 H :    0.163232
  10 H :    0.156666
  11 H :    0.144317
  12 C :   -0.009165
  13 H :    0.154465
  14 H :    0.120832
  15 O :   -0.514049
  16 C :    0.073072
  17 C :    0.075693
  18 C :   -0.287076
  19 C :   -0.016905
  20 O :   -0.527284
  21 H :    0.149380
  22 O :   -0.605527
  23 H :    0.142416
  24 H :    0.146335
  25 H :    0.181351
  26 H :    0.157150
  27 H :    0.133000
  28 H :    0.363601
Sum of atomic charges:   -0.0000000

LOEWDIN ATOMIC CHARGES
----------------------
   0 C :    0.178387
   1 C :   -0.231712
   2 C :   -0.216178
   3 C :   -0.023804
   4 O :   -0.303910
   5 H :    0.096109
   6 H :    0.116324
   7 H :    0.115245
   8 H :    0.115829
   9 H :    0.119428
  10 H :    0.110964
  11 H :    0.103893
  12 C :   -0.042292
  13 H :    0.109656
  14 H :    0.094902
  15 O :   -0.335767
  16 C :    0.011998
  17 C :    0.038452
  18 C :   -0.240620
  19 C :   -0.031446
  20 O :   -0.330788
  21 H :    0.113008
  22 O :   -0.418135
  23 H :    0.111222
  24 H :    0.117466
  25 H :    0.132722
  26 H :    0.111591
  27 H :    0.094997
  28 H :    0.282461

  Mayer bond orders larger than 0.100000
B(  0-C ,  1-C ) :   0.9306 B(  0-C ,  4-O ) :   0.9370 B(  0-C ,  5-H ) :   0.9187
B(  0-C , 15-O ) :   0.8239 B(  1-C ,  2-C ) :   0.9510 B(  1-C ,  6-H ) :   0.9338
B(  1-C ,  7-H ) :   0.9325 B(  2-C ,  3-C ) :   0.9563 B(  2-C ,  8-H ) :   0.9448
B(  2-C ,  9-H ) :   0.9440 B(  3-C ,  4-O ) :   0.8305 B(  3-C , 10-H ) :   0.9345
B(  3-C , 11-H ) :   0.9397 B( 12-C , 13-H ) :   0.9214 B( 12-C , 14-H ) :   0.9102
B( 12-C , 15-O ) :   0.8469 B( 12-C , 16-C ) :   0.8986 B( 16-C , 17-C ) :   0.9085
B( 16-C , 20-O ) :   0.8782 B( 16-C , 21-H ) :   0.9203 B( 17-C , 18-C ) :   0.9229
B( 17-C , 22-O ) :   0.8892 B( 17-C , 23-H ) :   0.9370 B( 18-C , 19-C ) :   0.9454
B( 18-C , 24-H ) :   0.9379 B( 18-C , 25-H ) :   0.9169 B( 19-C , 20-O ) :   0.8334
B( 19-C , 26-H ) :   0.9339 B( 19-C , 27-H ) :   0.9381 B( 22-O , 28-H ) :   0.7954

FINAL SINGLE POINT ENERGY      -652.860520291203

DIPOLE MOMENT
-------------
                                X             Y             Z
Electronic contribution:     -3.64666      -2.57929      -1.08081
Nuclear contribution   :      4.56990       3.47541       1.02779
                        -----------------------------------------
Total Dipole Moment    :      0.92325       0.89612      -0.05303
                        -----------------------------------------
Magnitude (a.u.)       :      1.28772
Magnitude (Debye)      :      3.27314

Rotational constants in cm-1:     0.058698     0.013593     0.013183
Rotational constants in MHz :  1759.711839   407.515177   395.209949

                             ****ORCA TERMINATED NORMALLY****
TOTAL RUN TIME: 0 days 1 hours 2 minutes 53 seconds 66 msec
