                         Program Version 4.2.0 -  RELEASE  -
|  1> # Test redundant internal optimization
|  2> #
|  3> ! RKS B3LYP  Opt TightSCF SmallPrint
|  4>
|  5> %basis
|  6>         Basis "6-31G"
|  7> end
|  8>
|  9> %geom
| 10> Constraints
| 11> { D 4  0  15  12  195.0   C } # D for Dihedral angle
| 12> { D 0  15  12  16  255.0   C } # D for Dihedral angle
| 13> { D 0  4  3  2   C } # D for Dihedral angle
| 14> { D 4  3  2  1   C } # D for Dihedral angle
| 15> { D 3  2  1  0   C } # D for Dihedral angle
| 16> { D 2  1  0  4   C } # D for Dihedral angle
| 17> { D 1  0  4  3   C } # D for Dihedral angle
| 18> { D 16  20  19  18   C } # D for Dihedral angle
| 19> { D 20  19  18  17   C } # D for Dihedral angle
| 20> { D 19  18  17  16   C } # D for Dihedral angle
| 21> { D 18  17  16  20   C } # D for Dihedral angle
| 22> { D 17  16  20  19   C } # D for Dihedral angle
| 23> { D 15  12  16  20   C } # D for Dihedral angle
| 24> end
| 25> end
| 26>
| 27>
| 28> #%pal
| 29> #nprocs 8
| 30> #end
| 31>
| 32> * xyz 0 1
| 33> C  -21.048   26.222   46.251
| 34> C  -20.361   27.558   45.944
| 35> C  -20.329   28.222   47.341
| 36> C  -20.110   27.022   48.296
| 37> O  -20.473   25.807   47.535
| 38> H  -20.833   25.428   45.533
| 39> H  -19.344   27.382   45.576
| 40> H  -20.898   28.157   45.201
| 41> H  -19.543   28.978   47.434
| 42> H  -21.289   28.710   47.548
| 43> H  -20.733   27.082   49.195
| 44> H  -19.064   26.913   48.597
| 45> C  -23.353   26.472   45.026
| 46> H  -22.701   26.117   44.218
| 47> H  -24.245   25.833   45.054
| 48> O  -22.586   26.394   46.375
| 49> C  -23.816   27.915   44.681
| 50> C  -24.661   28.513   45.812
| 51> C  -23.572   28.940   46.825
| 52> C  -22.402   29.392   45.915
| 53> O  -22.661   28.813   44.579
| 54> H  -24.305   27.910   43.706
| 55> O  -25.442   29.751   45.294
| 56> H  -25.380   27.803   46.235
| 57> H  -23.907   29.735   47.500
| 58> H  -23.273   28.083   47.440
| 59> H  -21.430   29.042   46.276
| 60> H  -22.364   30.479   45.793
| 61> H  -24.742   30.477   44.866
| 62> *
| 63>
| 64>                          ****END OF INPUT****
 Total Charge           Charge          ....    0
 Multiplicity           Mult            ....    1
 Number of Electrons    NEL             ....  102
FINAL SINGLE POINT ENERGY      -652.772099374927
FINAL SINGLE POINT ENERGY      -652.829614318767
FINAL SINGLE POINT ENERGY      -652.849897762056
FINAL SINGLE POINT ENERGY      -652.854841162201
FINAL SINGLE POINT ENERGY      -652.855654248365
FINAL SINGLE POINT ENERGY      -652.855802947098
FINAL SINGLE POINT ENERGY      -652.855830725276
FINAL SINGLE POINT ENERGY      -652.855840533505
FINAL SINGLE POINT ENERGY      -652.855842163234
                    ***********************HURRAY********************

CARTESIAN COORDINATES (ANGSTROEM)
---------------------------------
  C    -20.979785   26.135562   46.211195
  C    -20.178080   27.417105   45.995848
  C    -20.072634   27.980301   47.435670
  C    -19.959232   26.699010   48.289899
  O    -20.446461   25.597622   47.424485
  H    -20.840409   25.381276   45.427926
  H    -19.184289   27.145220   45.620606
  H    -20.648416   28.096300   45.281512
  H    -19.214504   28.646730   47.564809
  H    -20.977902   28.529093   47.704454
  H    -20.569512   26.726810   49.195823
  H    -18.926700   26.454003   48.555739
  C    -23.199148   26.551900   45.182242
  H    -22.621120   26.179885   44.322652
  H    -24.086505   25.913566   45.278189
  O    -22.421370   26.334539   46.396177
  C    -23.714636   27.954556   44.823218
  C    -24.749745   28.568066   45.778302
  C    -23.843873   29.352029   46.764471
  C    -22.692043   29.853110   45.860740
  O    -22.728401   29.017140   44.631979
  H    -24.191900   27.816451   43.842908
  O    -25.670415   29.437630   45.062118
  H    -25.380667   27.828907   46.271555
  H    -24.392772   30.162278   47.249733
  H    -23.467565   28.660584   47.525399
  H    -21.709520   29.771915   46.323380
  H    -22.836552   30.889176   45.535193
  H    -25.160843   30.049231   44.489779

 Multiplicity           Mult            ....    1
 Number of Electrons    NEL             ....  102
 Basis Dimension        Dim             ....  149

ORBITAL ENERGIES
----------------

  NO   OCC          E(Eh)            E(eV)
   0   2.0000     -19.153401      -521.1905
   1   2.0000     -19.144923      -520.9598
   2   2.0000     -19.142051      -520.8817
   3   2.0000     -19.140336      -520.8350
   4   2.0000     -10.280044      -279.7342
   5   2.0000     -10.242391      -278.7096
   6   2.0000     -10.240668      -278.6627
   7   2.0000     -10.237603      -278.5793
   8   2.0000     -10.234863      -278.5048
   9   2.0000     -10.226548      -278.2785
  10   2.0000     -10.189145      -277.2607
  11   2.0000     -10.188041      -277.2307
  12   2.0000     -10.182180      -277.0712
  13   2.0000      -1.053957       -28.6796
  14   2.0000      -1.041631       -28.3442
  15   2.0000      -1.010317       -27.4921
  16   2.0000      -0.995832       -27.0980
  17   2.0000      -0.788288       -21.4504
  18   2.0000      -0.783764       -21.3273
  19   2.0000      -0.772559       -21.0224
  20   2.0000      -0.735079       -20.0025
  21   2.0000      -0.681490       -18.5443
  22   2.0000      -0.607679       -16.5358
  23   2.0000      -0.605866       -16.4865
  24   2.0000      -0.597909       -16.2699
  25   2.0000      -0.577662       -15.7190
  26   2.0000      -0.527461       -14.3529
  27   2.0000      -0.510032       -13.8787
  28   2.0000      -0.500245       -13.6124
  29   2.0000      -0.488200       -13.2846
  30   2.0000      -0.478919       -13.0320
  31   2.0000      -0.463781       -12.6201
  32   2.0000      -0.451222       -12.2784
  33   2.0000      -0.446921       -12.1613
  34   2.0000      -0.424799       -11.5594
  35   2.0000      -0.412473       -11.2240
  36   2.0000      -0.404789       -11.0149
  37   2.0000      -0.394812       -10.7434
  38   2.0000      -0.378252       -10.2928
  39   2.0000      -0.374324       -10.1859
  40   2.0000      -0.364711        -9.9243
  41   2.0000      -0.358147        -9.7457
  42   2.0000      -0.354161        -9.6372
  43   2.0000      -0.335726        -9.1356
  44   2.0000      -0.315835        -8.5943
  45   2.0000      -0.312473        -8.5028
  46   2.0000      -0.303841        -8.2679
  47   2.0000      -0.278484        -7.5779
  48   2.0000      -0.266193        -7.2435
  49   2.0000      -0.261118        -7.1054
  50   2.0000      -0.241888        -6.5821
  51   0.0000       0.059379         1.6158
  52   0.0000       0.078089         2.1249
  53   0.0000       0.089943         2.4475
  54   0.0000       0.095641         2.6025
  55   0.0000       0.098668         2.6849

MULLIKEN ATOMIC CHARGES
-----------------------
   0 C :    0.304129
   1 C :   -0.299335
   2 C :   -0.309020
   3 C :   -0.002114
   4 O :   -0.504306
   5 H :    0.141625
   6 H :    0.143825
   7 H :    0.186167
   8 H :    0.143120
   9 H :    0.155199
  10 H :    0.151861
  11 H :    0.143125
  12 C :   -0.029913
  13 H :    0.134605
  14 H :    0.153088
  15 O :   -0.510195
  16 C :    0.083108
  17 C :    0.078686
  18 C :   -0.298257
  19 C :   -0.036899
  20 O :   -0.526983
  21 H :    0.156723
  22 O :   -0.601869
  23 H :    0.160082
  24 H :    0.156392
  25 H :    0.173582
  26 H :    0.147597
  27 H :    0.143672
  28 H :    0.362306
Sum of atomic charges:   -0.0000000

LOEWDIN ATOMIC CHARGES
----------------------
   0 C :    0.182607
   1 C :   -0.239944
   2 C :   -0.220930
   3 C :   -0.024991
   4 O :   -0.301248
   5 H :    0.095670
   6 H :    0.115472
   7 H :    0.132473
   8 H :    0.115232
   9 H :    0.110944
  10 H :    0.107738
  11 H :    0.102820
  12 C :   -0.043342
  13 H :    0.099851
  14 H :    0.115616
  15 O :   -0.339303
  16 C :    0.003969
  17 C :    0.037711
  18 C :   -0.239970
  19 C :   -0.039299
  20 O :   -0.329402
  21 H :    0.117433
  22 O :   -0.415272
  23 H :    0.119802
  24 H :    0.123859
  25 H :    0.126407
  26 H :    0.104467
  27 H :    0.100028
  28 H :    0.281601

  Mayer bond orders larger than 0.100000
B(  0-C ,  1-C ) :   0.9263 B(  0-C ,  4-O ) :   0.9386 B(  0-C ,  5-H ) :   0.9190
B(  0-C , 15-O ) :   0.8267 B(  1-C ,  2-C ) :   0.9543 B(  1-C ,  6-H ) :   0.9314
B(  1-C ,  7-H ) :   0.9047 B(  2-C ,  3-C ) :   0.9481 B(  2-C ,  8-H ) :   0.9454
B(  2-C ,  9-H ) :   0.9310 B(  3-C ,  4-O ) :   0.8359 B(  3-C , 10-H ) :   0.9351
B(  3-C , 11-H ) :   0.9392 B( 12-C , 13-H ) :   0.9193 B( 12-C , 14-H ) :   0.9221
B( 12-C , 15-O ) :   0.8792 B( 12-C , 16-C ) :   0.8837 B( 16-C , 17-C ) :   0.9060
B( 16-C , 20-O ) :   0.8585 B( 16-C , 21-H ) :   0.9136 B( 17-C , 18-C ) :   0.9218
B( 17-C , 22-O ) :   0.8924 B( 17-C , 23-H ) :   0.9345 B( 18-C , 19-C ) :   0.9469
B( 18-C , 24-H ) :   0.9365 B( 18-C , 25-H ) :   0.9196 B( 19-C , 20-O ) :   0.8340
B( 19-C , 26-H ) :   0.9177 B( 19-C , 27-H ) :   0.9380 B( 22-O , 28-H ) :   0.7975

FINAL SINGLE POINT ENERGY      -652.855841568493

DIPOLE MOMENT
-------------
                                X             Y             Z
Electronic contribution:     -2.92493      -2.90557      -2.02091
Nuclear contribution   :      3.57771       3.68929       1.95511
                        -----------------------------------------
Total Dipole Moment    :      0.65278       0.78372      -0.06580
                        -----------------------------------------
Magnitude (a.u.)       :      1.02209
Magnitude (Debye)      :      2.59794

Rotational constants in cm-1:     0.053432     0.016009     0.014702
Rotational constants in MHz :  1601.851164   479.927278   440.749747

                             ****ORCA TERMINATED NORMALLY****
TOTAL RUN TIME: 0 days 0 hours 48 minutes 5 seconds 109 msec
