                         Program Version 4.2.1 -  RELEASE  -
|  1> # Test redundant internal optimization
|  2> #
|  3> ! RKS B3LYP  Opt TightSCF SmallPrint
|  4>
|  5> %basis
|  6>         Basis "6-31G"
|  7> end
|  8>
|  9> %geom
| 10> Constraints
| 11> { D 4  0  19  14  180.0   C } # D for Dihedral angle
| 12> { D 0  19  14  12  315.0   C } # D for Dihedral angle
| 13> { D 0  4  3  2   C } # D for Dihedral angle
| 14> { D 4  3  2  1   C } # D for Dihedral angle
| 15> { D 3  2  1  0   C } # D for Dihedral angle
| 16> { D 2  1  0  4   C } # D for Dihedral angle
| 17> { D 1  0  4  3   C } # D for Dihedral angle
| 18> { D 14  15  16  17   C } # D for Dihedral angle
| 19> { D 15  16  17  12   C } # D for Dihedral angle
| 20> { D 16  17  12  14   C } # D for Dihedral angle
| 21> { D 17  12  14  15   C } # D for Dihedral angle
| 22> { D 12  14  15  16   C } # D for Dihedral angle
| 23> end
| 24> end
| 25>
| 26>
| 27> #%pal
| 28> #nprocs 8
| 29> #end
| 30>
| 31> * xyz 0 1
| 32> C  -21.048   26.222   46.251
| 33> C  -20.361   27.558   45.944
| 34> C  -20.329   28.222   47.341
| 35> C  -20.110   27.022   48.296
| 36> O  -20.473   25.807   47.535
| 37> H  -20.833   25.428   45.533
| 38> H  -19.344   27.382   45.576
| 39> H  -20.898   28.157   45.201
| 40> H  -19.543   28.978   47.434
| 41> H  -21.289   28.710   47.548
| 42> H  -20.733   27.082   49.195
| 43> H  -19.064   26.913   48.597
| 44> C  -22.332   27.920   44.486
| 45> H  -22.939   28.442   43.730
| 46> C  -23.122   26.788   45.152
| 47> C  -23.034   25.672   44.084
| 48> C  -21.620   25.873   43.482
| 49> O  -21.197   27.242   43.850
| 50> H  -21.918   28.652   45.180
| 51> O  -22.472   26.381   46.366
| 52> H  -24.155   27.067   45.389
| 53> H  -23.171   24.671   44.503
| 54> H  -23.804   25.822   43.317
| 55> H  -21.609   25.775   42.391
| 56> H  -20.884   25.183   43.907
| 57> *
| 58>
| 59>                          ****END OF INPUT****
 Total Charge           Charge          ....    0
 Multiplicity           Mult            ....    1
 Number of Electrons    NEL             ....   86
FINAL SINGLE POINT ENERGY      -538.328005840114
FINAL SINGLE POINT ENERGY      -538.418336660095
FINAL SINGLE POINT ENERGY      -538.422733106180
FINAL SINGLE POINT ENERGY      -538.423893537574
FINAL SINGLE POINT ENERGY      -538.424151030707
FINAL SINGLE POINT ENERGY      -538.424221819460
FINAL SINGLE POINT ENERGY      -538.424233994682
FINAL SINGLE POINT ENERGY      -538.424238261677
FINAL SINGLE POINT ENERGY      -538.424240064497
                    ***********************HURRAY********************

CARTESIAN COORDINATES (ANGSTROEM)
---------------------------------
  C    -20.784325   26.242042   46.330333
  C    -19.979919   27.528183   46.144924
  C    -20.205827   28.250502   47.498797
  C    -20.257490   27.076816   48.499229
  O    -20.519421   25.864817   47.688354
  H    -20.468337   25.412512   45.691572
  H    -18.925157   27.240242   46.046940
  H    -20.241210   28.104521   45.261793
  H    -19.409676   28.964177   47.730624
  H    -21.159159   28.788762   47.485823
  H    -21.052938   27.177498   49.242490
  H    -19.303278   26.912847   49.009836
  C    -22.535714   27.928566   44.246068
  H    -23.371452   28.332970   43.656580
  C    -23.028941   26.758841   45.101243
  C    -23.088461   25.621215   44.062088
  C    -21.891508   25.915682   43.128287
  O    -21.522737   27.339616   43.361131
  H    -22.071855   28.739605   44.806248
  O    -22.244514   26.384720   46.273031
  H    -24.012069   26.964312   45.532906
  H    -23.028957   24.646035   44.551197
  H    -24.033734   25.671458   43.509439
  H    -22.136344   25.790474   42.068447
  H    -21.008977   25.312587   43.360620

 Multiplicity           Mult            ....    1
 Number of Electrons    NEL             ....   86
 Basis Dimension        Dim             ....  127

ORBITAL ENERGIES
----------------

  NO   OCC          E(Eh)            E(eV)
   0   2.0000     -19.142530      -520.8947
   1   2.0000     -19.133834      -520.6581
   2   2.0000     -19.132967      -520.6345
   3   2.0000     -10.276004      -279.6243
   4   2.0000     -10.242959      -278.7251
   5   2.0000     -10.230637      -278.3898
   6   2.0000     -10.230284      -278.3802
   7   2.0000     -10.220121      -278.1036
   8   2.0000     -10.187942      -277.2280
   9   2.0000     -10.182378      -277.0766
  10   2.0000     -10.177452      -276.9425
  11   2.0000      -1.046896       -28.4875
  12   2.0000      -1.021512       -27.7968
  13   2.0000      -0.982464       -26.7342
  14   2.0000      -0.786912       -21.4130
  15   2.0000      -0.777966       -21.1695
  16   2.0000      -0.746006       -20.2998
  17   2.0000      -0.723925       -19.6990
  18   2.0000      -0.619279       -16.8514
  19   2.0000      -0.606142       -16.4940
  20   2.0000      -0.594403       -16.1745
  21   2.0000      -0.564459       -15.3597
  22   2.0000      -0.515190       -14.0190
  23   2.0000      -0.505823       -13.7641
  24   2.0000      -0.488020       -13.2797
  25   2.0000      -0.481299       -13.0968
  26   2.0000      -0.452705       -12.3187
  27   2.0000      -0.441858       -12.0236
  28   2.0000      -0.435806       -11.8589
  29   2.0000      -0.414206       -11.2711
  30   2.0000      -0.398295       -10.8381
  31   2.0000      -0.393421       -10.7055
  32   2.0000      -0.379479       -10.3261
  33   2.0000      -0.365798        -9.9539
  34   2.0000      -0.361790        -9.8448
  35   2.0000      -0.350411        -9.5352
  36   2.0000      -0.344803        -9.3826
  37   2.0000      -0.321124        -8.7382
  38   2.0000      -0.303776        -8.2662
  39   2.0000      -0.287010        -7.8099
  40   2.0000      -0.261142        -7.1060
  41   2.0000      -0.252302        -6.8655
  42   2.0000      -0.238237        -6.4827
  43   0.0000       0.071865         1.9555
  44   0.0000       0.090397         2.4598
  45   0.0000       0.099497         2.7075
  46   0.0000       0.102636         2.7929
  47   0.0000       0.104206         2.8356

MULLIKEN ATOMIC CHARGES
-----------------------
   0 C :    0.307860
   1 C :   -0.285394
   2 C :   -0.304409
   3 C :    0.001050
   4 O :   -0.500358
   5 H :    0.138977
   6 H :    0.145141
   7 H :    0.176563
   8 H :    0.140856
   9 H :    0.150075
  10 H :    0.150846
  11 H :    0.140981
  12 C :   -0.035541
  13 H :    0.136759
  14 C :    0.094843
  15 C :   -0.296633
  16 C :   -0.021771
  17 O :   -0.527627
  18 H :    0.156965
  19 O :   -0.525514
  20 H :    0.151622
  21 H :    0.167322
  22 H :    0.141698
  23 H :    0.145450
  24 H :    0.150238
Sum of atomic charges:   -0.0000000

LOEWDIN ATOMIC CHARGES
----------------------
   0 C :    0.188163
   1 C :   -0.233415
   2 C :   -0.219724
   3 C :   -0.025957
   4 O :   -0.303436
   5 H :    0.094862
   6 H :    0.116716
   7 H :    0.129587
   8 H :    0.113704
   9 H :    0.111045
  10 H :    0.107341
  11 H :    0.101412
  12 C :   -0.055110
  13 H :    0.100339
  14 C :    0.043929
  15 C :   -0.235973
  16 C :   -0.035262
  17 O :   -0.339948
  18 H :    0.113768
  19 O :   -0.337073
  20 H :    0.115682
  21 H :    0.128764
  22 H :    0.114301
  23 H :    0.103264
  24 H :    0.103022

  Mayer bond orders larger than 0.100000
B(  0-C ,  1-C ) :   0.9288 B(  0-C ,  4-O ) :   0.9309 B(  0-C ,  5-H ) :   0.9189
B(  0-C , 19-O ) :   0.8271 B(  1-C ,  2-C ) :   0.9476 B(  1-C ,  6-H ) :   0.9328
B(  1-C ,  7-H ) :   0.9132 B(  2-C ,  3-C ) :   0.9526 B(  2-C ,  8-H ) :   0.9449
B(  2-C ,  9-H ) :   0.9454 B(  3-C ,  4-O ) :   0.8364 B(  3-C , 10-H ) :   0.9354
B(  3-C , 11-H ) :   0.9396 B( 12-C , 13-H ) :   0.9158 B( 12-C , 14-C ) :   0.9097
B( 12-C , 17-O ) :   0.8474 B( 12-C , 18-H ) :   0.9270 B( 14-C , 15-C ) :   0.9213
B( 14-C , 19-O ) :   0.8828 B( 14-C , 20-H ) :   0.9350 B( 15-C , 16-C ) :   0.9484
B( 15-C , 21-H ) :   0.9367 B( 15-C , 22-H ) :   0.9400 B( 16-C , 17-O ) :   0.8437
B( 16-C , 23-H ) :   0.9339 B( 16-C , 24-H ) :   0.9332

FINAL SINGLE POINT ENERGY      -538.424240308187

DIPOLE MOMENT
-------------
                                X             Y             Z
Electronic contribution:     -0.46777      -2.08571       0.85773
Nuclear contribution   :      0.15447       2.58764      -1.28032
                        -----------------------------------------
Total Dipole Moment    :     -0.31330       0.50193      -0.42259
                        -----------------------------------------
Magnitude (a.u.)       :      0.72710
Magnitude (Debye)      :      1.84814

Rotational constants in cm-1:     0.076320     0.024235     0.022418
Rotational constants in MHz :  2288.030193   726.555798   672.064626

                             ****ORCA TERMINATED NORMALLY****
TOTAL RUN TIME: 0 days 0 hours 10 minutes 48 seconds 217 msec
