                         Program Version 4.2.0 -  RELEASE  -
|  1> # Test redundant internal optimization
|  2> #
|  3> ! RKS B3LYP  Opt TightSCF SmallPrint
|  4>
|  5> %basis
|  6>         Basis "6-31G"
|  7> end
|  8>
|  9> %geom
| 10> Constraints
| 11> { D 4  0  15  12  255.0   C } # D for Dihedral angle
| 12> { D 0  15  12  16  180.0   C } # D for Dihedral angle
| 13> { D 0  4  3  2   C } # D for Dihedral angle
| 14> { D 4  3  2  1   C } # D for Dihedral angle
| 15> { D 3  2  1  0   C } # D for Dihedral angle
| 16> { D 2  1  0  4   C } # D for Dihedral angle
| 17> { D 1  0  4  3   C } # D for Dihedral angle
| 18> { D 16  20  19  18   C } # D for Dihedral angle
| 19> { D 20  19  18  17   C } # D for Dihedral angle
| 20> { D 19  18  17  16   C } # D for Dihedral angle
| 21> { D 18  17  16  20   C } # D for Dihedral angle
| 22> { D 17  16  20  19   C } # D for Dihedral angle
| 23> { D 15  12  16  20   C } # D for Dihedral angle
| 24> end
| 25> end
| 26>
| 27>
| 28> #%pal
| 29> #nprocs 8
| 30> #end
| 31>
| 32> * xyz 0 1
| 33> C  -21.048   26.222   46.251
| 34> C  -20.361   27.558   45.944
| 35> C  -20.329   28.222   47.341
| 36> C  -20.110   27.022   48.296
| 37> O  -20.473   25.807   47.535
| 38> H  -20.833   25.428   45.533
| 39> H  -19.344   27.382   45.576
| 40> H  -20.898   28.157   45.201
| 41> H  -19.543   28.978   47.434
| 42> H  -21.289   28.710   47.548
| 43> H  -20.733   27.082   49.195
| 44> H  -19.064   26.913   48.597
| 45> C  -23.431   25.260   45.734
| 46> H  -23.200   25.197   44.663
| 47> H  -23.189   24.293   46.194
| 48> O  -22.586   26.394   46.375
| 49> C  -24.960   25.488   45.890
| 50> C  -25.759   24.297   45.350
| 51> C  -25.635   23.283   46.512
| 52> C  -25.650   24.188   47.770
| 53> O  -25.326   25.554   47.309
| 54> H  -25.226   26.449   45.445
| 55> H  -26.806   24.583   45.196
| 56> O  -25.201   23.746   44.009
| 57> H  -26.444   22.545   46.520
| 58> H  -24.686   22.740   46.439
| 59> H  -24.912   23.877   48.519
| 60> H  -26.636   24.231   48.241
| 61> H  -24.154   23.451   44.138
| 62> *
| 63>
| 64>                          ****END OF INPUT****
 Total Charge           Charge          ....    0
 Multiplicity           Mult            ....    1
 Number of Electrons    NEL             ....  102
FINAL SINGLE POINT ENERGY      -652.827620900284
FINAL SINGLE POINT ENERGY      -652.852075534093
FINAL SINGLE POINT ENERGY      -652.856697684794
FINAL SINGLE POINT ENERGY      -652.857531910295
FINAL SINGLE POINT ENERGY      -652.857702424962
FINAL SINGLE POINT ENERGY      -652.857729774378
FINAL SINGLE POINT ENERGY      -652.857734987955
FINAL SINGLE POINT ENERGY      -652.857735092369
                    ***********************HURRAY********************

CARTESIAN COORDINATES (ANGSTROEM)
---------------------------------
  C    -21.032855   26.162653   46.202820
  C    -20.482082   27.566085   45.948886
  C    -20.537306   28.190654   47.363489
  C    -20.212514   26.992879   48.283422
  O    -20.445962   25.776840   47.465366
  H    -20.747454   25.400194   45.471956
  H    -19.447117   27.493703   45.593835
  H    -21.074598   28.112339   45.212147
  H    -19.830545   29.016555   47.487603
  H    -21.547183   28.561985   47.559968
  H    -20.852380   26.947975   49.167927
  H    -19.162880   26.965507   48.592066
  C    -23.232077   25.185655   45.703910
  H    -23.032654   25.127070   44.623480
  H    -22.948691   24.229147   46.169355
  O    -22.472365   26.264570   46.304037
  C    -24.713783   25.480356   45.917604
  C    -25.645070   24.388295   45.366454
  C    -25.645814   23.351128   46.529133
  C    -25.562687   24.248000   47.783826
  O    -25.077976   25.575488   47.326380
  H    -24.927827   26.463533   45.488760
  H    -26.645090   24.803791   45.225924
  O    -25.282211   23.856005   44.068725
  H    -26.535643   22.715918   46.516280
  H    -24.763805   22.702195   46.441695
  H    -24.875044   23.859647   48.541283
  H    -26.542347   24.407100   48.244253
  H    -24.550041   23.211733   44.154416

 Multiplicity           Mult            ....    1
 Number of Electrons    NEL             ....  102
 Basis Dimension        Dim             ....  149

ORBITAL ENERGIES
----------------

  NO   OCC          E(Eh)            E(eV)
   0   2.0000     -19.150792      -521.1195
   1   2.0000     -19.137731      -520.7641
   2   2.0000     -19.134758      -520.6832
   3   2.0000     -19.132594      -520.6244
   4   2.0000     -10.274708      -279.5890
   5   2.0000     -10.245105      -278.7835
   6   2.0000     -10.230320      -278.3812
   7   2.0000     -10.229716      -278.3647
   8   2.0000     -10.228529      -278.3324
   9   2.0000     -10.218305      -278.0542
  10   2.0000     -10.195907      -277.4447
  11   2.0000     -10.179915      -277.0096
  12   2.0000     -10.178765      -276.9783
  13   2.0000      -1.048658       -28.5354
  14   2.0000      -1.033382       -28.1198
  15   2.0000      -1.014613       -27.6090
  16   2.0000      -0.989862       -26.9355
  17   2.0000      -0.784819       -21.3560
  18   2.0000      -0.780255       -21.2318
  19   2.0000      -0.765323       -20.8255
  20   2.0000      -0.726035       -19.7564
  21   2.0000      -0.677900       -18.4466
  22   2.0000      -0.611558       -16.6413
  23   2.0000      -0.592285       -16.1169
  24   2.0000      -0.585654       -15.9365
  25   2.0000      -0.579214       -15.7612
  26   2.0000      -0.529620       -14.4117
  27   2.0000      -0.510294       -13.8858
  28   2.0000      -0.495334       -13.4787
  29   2.0000      -0.483792       -13.1647
  30   2.0000      -0.468241       -12.7415
  31   2.0000      -0.456442       -12.4204
  32   2.0000      -0.443444       -12.0667
  33   2.0000      -0.433268       -11.7898
  34   2.0000      -0.425225       -11.5710
  35   2.0000      -0.417913       -11.3720
  36   2.0000      -0.400650       -10.9022
  37   2.0000      -0.396476       -10.7887
  38   2.0000      -0.376454       -10.2438
  39   2.0000      -0.371894       -10.1197
  40   2.0000      -0.352251        -9.5852
  41   2.0000      -0.349523        -9.5110
  42   2.0000      -0.343381        -9.3439
  43   2.0000      -0.328589        -8.9414
  44   2.0000      -0.315779        -8.5928
  45   2.0000      -0.315290        -8.5795
  46   2.0000      -0.299553        -8.1512
  47   2.0000      -0.271819        -7.3966
  48   2.0000      -0.260698        -7.0939
  49   2.0000      -0.244102        -6.6423
  50   2.0000      -0.239138        -6.5073
  51   0.0000       0.049281         1.3410
  52   0.0000       0.079388         2.1603
  53   0.0000       0.088415         2.4059
  54   0.0000       0.096809         2.6343
  55   0.0000       0.104048         2.8313

MULLIKEN ATOMIC CHARGES
-----------------------
   0 C :    0.283326
   1 C :   -0.252515
   2 C :   -0.300065
   3 C :    0.000640
   4 O :   -0.506782
   5 H :    0.134529
   6 H :    0.140114
   7 H :    0.149557
   8 H :    0.137783
   9 H :    0.169729
  10 H :    0.153020
  11 H :    0.137506
  12 C :   -0.010073
  13 H :    0.131978
  14 H :    0.126872
  15 O :   -0.509227
  16 C :    0.096570
  17 C :    0.082794
  18 C :   -0.323856
  19 C :   -0.012989
  20 O :   -0.502571
  21 H :    0.161503
  22 H :    0.167111
  23 O :   -0.600675
  24 H :    0.157651
  25 H :    0.133278
  26 H :    0.151107
  27 H :    0.148461
  28 H :    0.355224
Sum of atomic charges:    0.0000000

LOEWDIN ATOMIC CHARGES
----------------------
   0 C :    0.173594
   1 C :   -0.217994
   2 C :   -0.216119
   3 C :   -0.026127
   4 O :   -0.324228
   5 H :    0.096116
   6 H :    0.110991
   7 H :    0.120262
   8 H :    0.112144
   9 H :    0.122913
  10 H :    0.108634
  11 H :    0.100039
  12 C :   -0.049980
  13 H :    0.095879
  14 H :    0.091462
  15 O :   -0.319279
  16 C :    0.023652
  17 C :    0.035220
  18 C :   -0.241130
  19 C :   -0.030278
  20 O :   -0.311066
  21 H :    0.119003
  22 H :    0.119246
  23 O :   -0.408247
  24 H :    0.122308
  25 H :    0.103661
  26 H :    0.106189
  27 H :    0.105527
  28 H :    0.277608

  Mayer bond orders larger than 0.100000
B(  0-C ,  1-C ) :   0.9455 B(  0-C ,  4-O ) :   0.9235 B(  0-C ,  5-H ) :   0.9193
B(  0-C , 15-O ) :   0.8541 B(  1-C ,  2-C ) :   0.9581 B(  1-C ,  6-H ) :   0.9391
B(  1-C ,  7-H ) :   0.9379 B(  2-C ,  3-C ) :   0.9551 B(  2-C ,  8-H ) :   0.9454
B(  2-C ,  9-H ) :   0.9422 B(  3-C ,  4-O ) :   0.8372 B(  3-C , 10-H ) :   0.9347
B(  3-C , 11-H ) :   0.9402 B( 12-C , 13-H ) :   0.9037 B( 12-C , 14-H ) :   0.9145
B( 12-C , 15-O ) :   0.8466 B( 12-C , 16-C ) :   0.9088 B( 16-C , 17-C ) :   0.8733
B( 16-C , 20-O ) :   0.8751 B( 16-C , 21-H ) :   0.9298 B( 17-C , 18-C ) :   0.9251
B( 17-C , 22-H ) :   0.9340 B( 17-C , 23-O ) :   0.8943 B( 18-C , 19-C ) :   0.9395
B( 18-C , 24-H ) :   0.9419 B( 18-C , 25-H ) :   0.9400 B( 19-C , 20-O ) :   0.8512
B( 19-C , 26-H ) :   0.9302 B( 19-C , 27-H ) :   0.9374 B( 23-O , 28-H ) :   0.7993

FINAL SINGLE POINT ENERGY      -652.857734960574

DIPOLE MOMENT
-------------
                                X             Y             Z
Electronic contribution:     -1.85259      -0.88076      -1.06684
Nuclear contribution   :      2.12359       0.41161       0.90229
                        -----------------------------------------
Total Dipole Moment    :      0.27100      -0.46915      -0.16455
                        -----------------------------------------
Magnitude (a.u.)       :      0.56623
Magnitude (Debye)      :      1.43925

Rotational constants in cm-1:     0.055846     0.012410     0.011401
Rotational constants in MHz :  1674.216616   372.054761   341.786978

                             ****ORCA TERMINATED NORMALLY****
TOTAL RUN TIME: 0 days 0 hours 25 minutes 2 seconds 429 msec
