                         Program Version 4.2.0 -  RELEASE  -
|  1> # Test redundant internal optimization
|  2> #
|  3> ! RKS B3LYP  Opt TightSCF SmallPrint
|  4>
|  5> %basis
|  6>         Basis "6-31G"
|  7> end
|  8>
|  9> %geom
| 10> Constraints
| 11> { D 4  0  15  12  225.0   C } # D for Dihedral angle
| 12> { D 0  15  12  16  315.0   C } # D for Dihedral angle
| 13> { D 0  4  3  2   C } # D for Dihedral angle
| 14> { D 4  3  2  1   C } # D for Dihedral angle
| 15> { D 3  2  1  0   C } # D for Dihedral angle
| 16> { D 2  1  0  4   C } # D for Dihedral angle
| 17> { D 1  0  4  3   C } # D for Dihedral angle
| 18> { D 16  20  19  18   C } # D for Dihedral angle
| 19> { D 20  19  18  17   C } # D for Dihedral angle
| 20> { D 19  18  17  16   C } # D for Dihedral angle
| 21> { D 18  17  16  20   C } # D for Dihedral angle
| 22> { D 17  16  20  19   C } # D for Dihedral angle
| 23> { D 15  12  16  20   C } # D for Dihedral angle
| 24> end
| 25> end
| 26>
| 27>
| 28> #%pal
| 29> #nprocs 8
| 30> #end
| 31>
| 32> * xyz 0 1
| 33> C  -21.048   26.222   46.251
| 34> C  -20.361   27.558   45.944
| 35> C  -20.329   28.222   47.341
| 36> C  -20.110   27.022   48.296
| 37> O  -20.473   25.807   47.535
| 38> H  -20.833   25.428   45.533
| 39> H  -19.344   27.382   45.576
| 40> H  -20.898   28.157   45.201
| 41> H  -19.543   28.978   47.434
| 42> H  -21.289   28.710   47.548
| 43> H  -20.733   27.082   49.195
| 44> H  -19.064   26.913   48.597
| 45> C  -23.415   25.773   45.218
| 46> H  -23.446   24.683   45.339
| 47> H  -24.446   26.149   45.239
| 48> O  -22.586   26.394   46.375
| 49> C  -22.825   26.092   43.817
| 50> C  -23.729   25.564   42.698
| 51> C  -24.833   26.647   42.649
| 52> C  -24.061   27.951   42.968
| 53> O  -22.786   27.542   43.595
| 54> H  -21.794   25.734   43.773
| 55> O  -22.947   25.518   41.357
| 56> H  -24.124   24.563   42.901
| 57> H  -25.343   26.690   41.681
| 58> H  -25.589   26.448   43.418
| 59> H  -24.607   28.603   43.659
| 60> H  -23.810   28.519   42.068
| 61> H  -22.541   26.511   41.133
| 62> *
| 63>
| 64>                          ****END OF INPUT****
 Total Charge           Charge          ....    0
 Multiplicity           Mult            ....    1
 Number of Electrons    NEL             ....  102
FINAL SINGLE POINT ENERGY      -652.831093549164
FINAL SINGLE POINT ENERGY      -652.853677923506
FINAL SINGLE POINT ENERGY      -652.857839423117
FINAL SINGLE POINT ENERGY      -652.858522365877
FINAL SINGLE POINT ENERGY      -652.858635642929
FINAL SINGLE POINT ENERGY      -652.858645431532
                    ***********************HURRAY********************

CARTESIAN COORDINATES (ANGSTROEM)
---------------------------------
  C    -20.984868   26.221281   46.177569
  C    -20.347827   27.591234   45.954970
  C    -20.416163   28.206633   47.370532
  C    -20.191912   26.988805   48.292596
  O    -20.466735   25.792824   47.452794
  H    -20.712034   25.444842   45.457512
  H    -19.305382   27.460035   45.638562
  H    -20.882490   28.169924   45.199321
  H    -19.669560   28.991299   47.525710
  H    -21.409630   28.634537   47.535436
  H    -20.862481   26.971092   49.155386
  H    -19.156549   26.898508   48.635319
  C    -23.265384   25.820089   45.218499
  H    -23.341287   24.725327   45.326906
  H    -24.251032   26.251882   45.410351
  O    -22.429393   26.356413   46.276480
  C    -22.807584   26.120340   43.786157
  C    -23.772546   25.578950   42.720390
  C    -24.858277   26.688343   42.683727
  C    -24.042599   27.983776   42.929845
  O    -22.747828   27.561324   43.516866
  H    -21.800369   25.732644   43.611081
  O    -23.102369   25.433204   41.439122
  H    -24.171765   24.589922   42.946929
  H    -25.378059   26.687335   41.722553
  H    -25.597733   26.524798   43.474965
  H    -24.538347   28.672011   43.620998
  H    -23.816229   28.521721   42.003761
  H    -22.580569   26.242905   41.254659

 Multiplicity           Mult            ....    1
 Number of Electrons    NEL             ....  102
 Basis Dimension        Dim             ....  149

ORBITAL ENERGIES
----------------

  NO   OCC          E(Eh)            E(eV)
   0   2.0000     -19.151876      -521.1491
   1   2.0000     -19.146806      -521.0111
   2   2.0000     -19.135219      -520.6958
   3   2.0000     -19.131152      -520.5851
   4   2.0000     -10.272509      -279.5292
   5   2.0000     -10.251131      -278.9475
   6   2.0000     -10.242907      -278.7237
   7   2.0000     -10.239472      -278.6302
   8   2.0000     -10.235708      -278.5278
   9   2.0000     -10.216574      -278.0071
  10   2.0000     -10.197895      -277.4988
  11   2.0000     -10.176161      -276.9074
  12   2.0000     -10.171717      -276.7865
  13   2.0000      -1.048991       -28.5445
  14   2.0000      -1.040946       -28.3256
  15   2.0000      -1.014447       -27.6045
  16   2.0000      -0.987294       -26.8656
  17   2.0000      -0.792521       -21.5656
  18   2.0000      -0.776843       -21.1390
  19   2.0000      -0.770339       -20.9620
  20   2.0000      -0.730246       -19.8710
  21   2.0000      -0.675954       -18.3936
  22   2.0000      -0.613120       -16.6838
  23   2.0000      -0.609489       -16.5850
  24   2.0000      -0.589057       -16.0291
  25   2.0000      -0.569010       -15.4836
  26   2.0000      -0.532416       -14.4878
  27   2.0000      -0.515345       -14.0232
  28   2.0000      -0.491548       -13.3757
  29   2.0000      -0.488722       -13.2988
  30   2.0000      -0.472685       -12.8624
  31   2.0000      -0.455815       -12.4033
  32   2.0000      -0.453546       -12.3416
  33   2.0000      -0.444388       -12.0924
  34   2.0000      -0.423842       -11.5333
  35   2.0000      -0.414063       -11.2672
  36   2.0000      -0.403114       -10.9693
  37   2.0000      -0.392722       -10.6865
  38   2.0000      -0.380389       -10.3509
  39   2.0000      -0.370949       -10.0940
  40   2.0000      -0.359900        -9.7934
  41   2.0000      -0.352175        -9.5832
  42   2.0000      -0.345179        -9.3928
  43   2.0000      -0.336006        -9.1432
  44   2.0000      -0.318662        -8.6712
  45   2.0000      -0.307058        -8.3555
  46   2.0000      -0.301960        -8.2168
  47   2.0000      -0.280193        -7.6244
  48   2.0000      -0.262935        -7.1548
  49   2.0000      -0.249686        -6.7943
  50   2.0000      -0.237969        -6.4755
  51   0.0000       0.057598         1.5673
  52   0.0000       0.083889         2.2827
  53   0.0000       0.087754         2.3879
  54   0.0000       0.090673         2.4673
  55   0.0000       0.094526         2.5722

MULLIKEN ATOMIC CHARGES
-----------------------
   0 C :    0.282977
   1 C :   -0.264517
   2 C :   -0.300723
   3 C :   -0.001037
   4 O :   -0.508839
   5 H :    0.137189
   6 H :    0.133577
   7 H :    0.180539
   8 H :    0.137307
   9 H :    0.160947
  10 H :    0.149356
  11 H :    0.137432
  12 C :    0.010399
  13 H :    0.132141
  14 H :    0.148753
  15 O :   -0.511500
  16 C :    0.040772
  17 C :    0.080272
  18 C :   -0.297785
  19 C :   -0.033441
  20 O :   -0.519132
  21 H :    0.164273
  22 O :   -0.600122
  23 H :    0.155398
  24 H :    0.165760
  25 H :    0.149901
  26 H :    0.155657
  27 H :    0.149185
  28 H :    0.365261
Sum of atomic charges:   -0.0000000

LOEWDIN ATOMIC CHARGES
----------------------
   0 C :    0.176612
   1 C :   -0.227586
   2 C :   -0.216547
   3 C :   -0.026409
   4 O :   -0.313920
   5 H :    0.094948
   6 H :    0.108466
   7 H :    0.132666
   8 H :    0.112075
   9 H :    0.118577
  10 H :    0.106513
  11 H :    0.100098
  12 C :   -0.037224
  13 H :    0.097014
  14 H :    0.113266
  15 O :   -0.326538
  16 C :   -0.001543
  17 C :    0.038364
  18 C :   -0.240170
  19 C :   -0.038451
  20 O :   -0.329392
  21 H :    0.113726
  22 O :   -0.412389
  23 H :    0.117675
  24 H :    0.128312
  25 H :    0.115641
  26 H :    0.108644
  27 H :    0.103862
  28 H :    0.283712

  Mayer bond orders larger than 0.100000
B(  0-C ,  1-C ) :   0.9375 B(  0-C ,  4-O ) :   0.9255 B(  0-C ,  5-H ) :   0.9181
B(  0-C , 15-O ) :   0.8306 B(  1-C ,  2-C ) :   0.9552 B(  1-C ,  6-H ) :   0.9364
B(  1-C ,  7-H ) :   0.9198 B(  2-C ,  3-C ) :   0.9548 B(  2-C ,  8-H ) :   0.9456
B(  2-C ,  9-H ) :   0.9439 B(  3-C ,  4-O ) :   0.8392 B(  3-C , 10-H ) :   0.9353
B(  3-C , 11-H ) :   0.9401 B( 12-C , 13-H ) :   0.9083 B( 12-C , 14-H ) :   0.9371
B( 12-C , 15-O ) :   0.8697 B( 12-C , 16-C ) :   0.8839 B( 16-C , 17-C ) :   0.8940
B( 16-C , 20-O ) :   0.8466 B( 16-C , 21-H ) :   0.9184 B( 17-C , 18-C ) :   0.9121
B( 17-C , 22-O ) :   0.8939 B( 17-C , 23-H ) :   0.9330 B( 18-C , 19-C ) :   0.9399
B( 18-C , 24-H ) :   0.9368 B( 18-C , 25-H ) :   0.9333 B( 19-C , 20-O ) :   0.8412
B( 19-C , 26-H ) :   0.9332 B( 19-C , 27-H ) :   0.9373 B( 22-O , 28-H ) :   0.7944

FINAL SINGLE POINT ENERGY      -652.858646158302

DIPOLE MOMENT
-------------
                                X             Y             Z
Electronic contribution:      0.62607      -3.27986      -0.75540
Nuclear contribution   :     -1.16429       4.07786       0.26601
                        -----------------------------------------
Total Dipole Moment    :     -0.53823       0.79800      -0.48939
                        -----------------------------------------
Magnitude (a.u.)       :      1.07981
Magnitude (Debye)      :      2.74467

Rotational constants in cm-1:     0.063697     0.012638     0.012105
Rotational constants in MHz :  1909.596180   378.882125   362.903075

                             ****ORCA TERMINATED NORMALLY****
TOTAL RUN TIME: 0 days 0 hours 20 minutes 52 seconds 559 msec
