                         Program Version 4.2.1 -  RELEASE  -
|  1> # Test redundant internal optimization
|  2> #
|  3> ! RKS B3LYP  Opt TightSCF SmallPrint
|  4>
|  5> %basis
|  6>         Basis "6-31G"
|  7> end
|  8>
|  9> %geom
| 10> Constraints
| 11> { D 4  0  19  14  195.0   C } # D for Dihedral angle
| 12> { D 0  19  14  12  270.0   C } # D for Dihedral angle
| 13> { D 0  4  3  2   C } # D for Dihedral angle
| 14> { D 4  3  2  1   C } # D for Dihedral angle
| 15> { D 3  2  1  0   C } # D for Dihedral angle
| 16> { D 2  1  0  4   C } # D for Dihedral angle
| 17> { D 1  0  4  3   C } # D for Dihedral angle
| 18> { D 14  15  16  17   C } # D for Dihedral angle
| 19> { D 15  16  17  12   C } # D for Dihedral angle
| 20> { D 16  17  12  14   C } # D for Dihedral angle
| 21> { D 17  12  14  15   C } # D for Dihedral angle
| 22> { D 12  14  15  16   C } # D for Dihedral angle
| 23> end
| 24> end
| 25>
| 26>
| 27> #%pal
| 28> #nprocs 8
| 29> #end
| 30>
| 31> * xyz 0 1
| 32> C  -21.048   26.222   46.251
| 33> C  -20.361   27.558   45.944
| 34> C  -20.329   28.222   47.341
| 35> C  -20.110   27.022   48.296
| 36> O  -20.473   25.807   47.535
| 37> H  -20.833   25.428   45.533
| 38> H  -19.344   27.382   45.576
| 39> H  -20.898   28.157   45.201
| 40> H  -19.543   28.978   47.434
| 41> H  -21.289   28.710   47.548
| 42> H  -20.733   27.082   49.195
| 43> H  -19.064   26.913   48.597
| 44> C  -23.257   27.908   44.641
| 45> H  -24.016   28.028   43.852
| 46> C  -23.163   26.451   45.109
| 47> C  -22.317   25.814   43.983
| 48> C  -21.337   26.949   43.593
| 49> O  -21.920   28.205   44.115
| 50> H  -23.453   28.628   45.438
| 51> O  -22.472   26.381   46.366
| 52> H  -24.143   25.974   45.226
| 53> H  -21.796   24.906   44.304
| 54> H  -22.958   25.548   43.133
| 55> H  -21.206   27.038   42.509
| 56> H  -20.355   26.832   44.060
| 57> *
| 58>
| 59>                          ****END OF INPUT****
 Total Charge           Charge          ....    0
 Multiplicity           Mult            ....    1
 Number of Electrons    NEL             ....   86
FINAL SINGLE POINT ENERGY      -538.372372013987
FINAL SINGLE POINT ENERGY      -538.423604691513
FINAL SINGLE POINT ENERGY      -538.426847929264
FINAL SINGLE POINT ENERGY      -538.427472875880
FINAL SINGLE POINT ENERGY      -538.427621157040
FINAL SINGLE POINT ENERGY      -538.427667579669
FINAL SINGLE POINT ENERGY      -538.427677669161
FINAL SINGLE POINT ENERGY      -538.427681189899
                    ***********************HURRAY********************

CARTESIAN COORDINATES (ANGSTROEM)
---------------------------------
  C    -20.793036   26.257285   46.326852
  C    -20.085079   27.600597   46.156185
  C    -20.296615   28.254993   47.544620
  C    -20.225231   27.048569   48.503592
  O    -20.443175   25.847556   47.657214
  H    -20.470987   25.464491   45.646559
  H    -19.017825   27.417469   45.977395
  H    -20.489729   28.195735   45.335050
  H    -19.541057   29.013667   47.768941
  H    -21.283039   28.725784   47.587661
  H    -20.992472   27.067282   49.282240
  H    -19.240735   26.928984   48.966396
  C    -23.238105   27.900775   44.576009
  H    -24.159066   27.972373   43.980762
  C    -23.026389   26.468130   45.076989
  C    -22.464401   25.782478   43.816578
  C    -21.609980   26.887377   43.147634
  O    -22.061758   28.177337   43.733162
  H    -23.253686   28.638311   45.379042
  O    -22.249858   26.381725   46.307501
  H    -23.982866   26.020934   45.366793
  H    -21.899579   24.873357   44.040095
  H    -23.304682   25.498789   43.173783
  H    -21.746226   26.928743   42.061619
  H    -20.542423   26.790259   43.367329

 Multiplicity           Mult            ....    1
 Number of Electrons    NEL             ....   86
 Basis Dimension        Dim             ....  127

ORBITAL ENERGIES
----------------

  NO   OCC          E(Eh)            E(eV)
   0   2.0000     -19.143648      -520.9252
   1   2.0000     -19.135702      -520.7089
   2   2.0000     -19.133769      -520.6563
   3   2.0000     -10.275365      -279.6069
   4   2.0000     -10.244223      -278.7595
   5   2.0000     -10.233692      -278.4729
   6   2.0000     -10.227286      -278.2986
   7   2.0000     -10.218637      -278.0632
   8   2.0000     -10.197427      -277.4861
   9   2.0000     -10.178696      -276.9764
  10   2.0000     -10.172096      -276.7968
  11   2.0000      -1.047526       -28.5046
  12   2.0000      -1.021573       -27.7984
  13   2.0000      -0.985382       -26.8136
  14   2.0000      -0.789839       -21.4926
  15   2.0000      -0.775524       -21.1031
  16   2.0000      -0.749544       -20.3961
  17   2.0000      -0.719720       -19.5846
  18   2.0000      -0.618729       -16.8365
  19   2.0000      -0.609365       -16.5817
  20   2.0000      -0.592091       -16.1116
  21   2.0000      -0.562552       -15.3078
  22   2.0000      -0.520382       -14.1603
  23   2.0000      -0.508094       -13.8259
  24   2.0000      -0.484001       -13.1703
  25   2.0000      -0.480449       -13.0737
  26   2.0000      -0.453500       -12.3404
  27   2.0000      -0.440856       -11.9963
  28   2.0000      -0.433383       -11.7929
  29   2.0000      -0.418926       -11.3996
  30   2.0000      -0.399689       -10.8761
  31   2.0000      -0.390786       -10.6338
  32   2.0000      -0.378807       -10.3079
  33   2.0000      -0.371992       -10.1224
  34   2.0000      -0.362904        -9.8751
  35   2.0000      -0.348083        -9.4718
  36   2.0000      -0.342144        -9.3102
  37   2.0000      -0.319531        -8.6949
  38   2.0000      -0.305322        -8.3082
  39   2.0000      -0.293664        -7.9910
  40   2.0000      -0.261084        -7.1045
  41   2.0000      -0.253157        -6.8888
  42   2.0000      -0.237344        -6.4584
  43   0.0000       0.071417         1.9434
  44   0.0000       0.085182         2.3179
  45   0.0000       0.101424         2.7599
  46   0.0000       0.102320         2.7843
  47   0.0000       0.105602         2.8736

MULLIKEN ATOMIC CHARGES
-----------------------
   0 C :    0.298166
   1 C :   -0.295657
   2 C :   -0.302289
   3 C :   -0.000799
   4 O :   -0.504305
   5 H :    0.134406
   6 H :    0.136191
   7 H :    0.192647
   8 H :    0.139914
   9 H :    0.155702
  10 H :    0.151446
  11 H :    0.139343
  12 C :   -0.016387
  13 H :    0.130759
  14 C :    0.091555
  15 C :   -0.324884
  16 C :   -0.024124
  17 O :   -0.517398
  18 H :    0.166411
  19 O :   -0.517523
  20 H :    0.151869
  21 H :    0.160356
  22 H :    0.155945
  23 H :    0.150122
  24 H :    0.148537
Sum of atomic charges:   -0.0000000

LOEWDIN ATOMIC CHARGES
----------------------
   0 C :    0.182381
   1 C :   -0.244204
   2 C :   -0.216322
   3 C :   -0.026211
   4 O :   -0.305789
   5 H :    0.093104
   6 H :    0.110411
   7 H :    0.135835
   8 H :    0.113535
   9 H :    0.114558
  10 H :    0.107509
  11 H :    0.100943
  12 C :   -0.049750
  13 H :    0.096875
  14 C :    0.042693
  15 C :   -0.239315
  16 C :   -0.039613
  17 O :   -0.333540
  18 H :    0.120476
  19 O :   -0.331112
  20 H :    0.113458
  21 H :    0.123915
  22 H :    0.122215
  23 H :    0.105415
  24 H :    0.102532

  Mayer bond orders larger than 0.100000
B(  0-C ,  1-C ) :   0.9312 B(  0-C ,  4-O ) :   0.9356 B(  0-C ,  5-H ) :   0.9171
B(  0-C , 19-O ) :   0.8246 B(  1-C ,  2-C ) :   0.9502 B(  1-C ,  6-H ) :   0.9339
B(  1-C ,  7-H ) :   0.8977 B(  2-C ,  3-C ) :   0.9539 B(  2-C ,  8-H ) :   0.9452
B(  2-C ,  9-H ) :   0.9448 B(  3-C ,  4-O ) :   0.8342 B(  3-C , 10-H ) :   0.9355
B(  3-C , 11-H ) :   0.9401 B( 12-C , 13-H ) :   0.9153 B( 12-C , 14-C ) :   0.9056
B( 12-C , 17-O ) :   0.8490 B( 12-C , 18-H ) :   0.9321 B( 14-C , 15-C ) :   0.9329
B( 14-C , 19-O ) :   0.8868 B( 14-C , 20-H ) :   0.9337 B( 15-C , 16-C ) :   0.9426
B( 15-C , 21-H ) :   0.9332 B( 15-C , 22-H ) :   0.9366 B( 16-C , 17-O ) :   0.8509
B( 16-C , 23-H ) :   0.9343 B( 16-C , 24-H ) :   0.9307

FINAL SINGLE POINT ENERGY      -538.427682296935

DIPOLE MOMENT
-------------
                                X             Y             Z
Electronic contribution:     -1.13125      -1.80541       1.27495
Nuclear contribution   :      0.99331       1.89398      -1.93044
                        -----------------------------------------
Total Dipole Moment    :     -0.13794       0.08857      -0.65549
                        -----------------------------------------
Magnitude (a.u.)       :      0.67568
Magnitude (Debye)      :      1.71744

Rotational constants in cm-1:     0.073562     0.024725     0.023049
Rotational constants in MHz :  2205.335490   741.227173   690.977362

                             ****ORCA TERMINATED NORMALLY****
TOTAL RUN TIME: 0 days 0 hours 21 minutes 23 seconds 254 msec
