                         Program Version 4.2.0 -  RELEASE  -
|  1> # Test redundant internal optimization
|  2> #
|  3> ! RKS B3LYP  Opt TightSCF SmallPrint
|  4>
|  5> %basis
|  6>         Basis "6-31G"
|  7> end
|  8>
|  9> %geom
| 10> Constraints
| 11> { D 4  0  15  12  255.0   C } # D for Dihedral angle
| 12> { D 0  15  12  16  225.0   C } # D for Dihedral angle
| 13> { D 0  4  3  2   C } # D for Dihedral angle
| 14> { D 4  3  2  1   C } # D for Dihedral angle
| 15> { D 3  2  1  0   C } # D for Dihedral angle
| 16> { D 2  1  0  4   C } # D for Dihedral angle
| 17> { D 1  0  4  3   C } # D for Dihedral angle
| 18> { D 16  20  19  18   C } # D for Dihedral angle
| 19> { D 20  19  18  17   C } # D for Dihedral angle
| 20> { D 19  18  17  16   C } # D for Dihedral angle
| 21> { D 18  17  16  20   C } # D for Dihedral angle
| 22> { D 17  16  20  19   C } # D for Dihedral angle
| 23> { D 15  12  16  20   C } # D for Dihedral angle
| 24> end
| 25> end
| 26>
| 27>
| 28> #%pal
| 29> #nprocs 8
| 30> #end
| 31>
| 32> * xyz 0 1
| 33> C  -21.048   26.222   46.251
| 34> C  -20.361   27.558   45.944
| 35> C  -20.329   28.222   47.341
| 36> C  -20.110   27.022   48.296
| 37> O  -20.473   25.807   47.535
| 38> H  -20.833   25.428   45.533
| 39> H  -19.344   27.382   45.576
| 40> H  -20.898   28.157   45.201
| 41> H  -19.543   28.978   47.434
| 42> H  -21.289   28.710   47.548
| 43> H  -20.733   27.082   49.195
| 44> H  -19.064   26.913   48.597
| 45> C  -23.431   25.260   45.734
| 46> H  -22.791   24.658   45.077
| 47> H  -23.841   24.601   46.510
| 48> O  -22.586   26.394   46.375
| 49> C  -24.622   25.799   44.894
| 50> C  -25.516   26.726   45.727
| 51> C  -24.705   28.044   45.707
| 52> C  -24.067   28.043   44.296
| 53> O  -24.136   26.650   43.803
| 54> H  -25.146   24.959   44.435
| 55> H  -26.483   26.860   45.231
| 56> O  -25.771   26.198   47.165
| 57> H  -25.326   28.928   45.884
| 58> H  -23.929   28.020   46.482
| 59> H  -23.021   28.368   44.308
| 60> H  -24.622   28.664   43.586
| 61> H  -24.815   26.056   47.680
| 62> *
| 63>
| 64>                          ****END OF INPUT****
 Total Charge           Charge          ....    0
 Multiplicity           Mult            ....    1
 Number of Electrons    NEL             ....  102
FINAL SINGLE POINT ENERGY      -652.835400391628
FINAL SINGLE POINT ENERGY      -652.858348533819
FINAL SINGLE POINT ENERGY      -652.862888992460
FINAL SINGLE POINT ENERGY      -652.864375873859
FINAL SINGLE POINT ENERGY      -652.864490458799
FINAL SINGLE POINT ENERGY      -652.864513796573
                    ***********************HURRAY********************

CARTESIAN COORDINATES (ANGSTROEM)
---------------------------------
  C    -21.034711   26.151305   46.229744
  C    -20.410859   27.517707   45.943554
  C    -20.402577   28.166733   47.349480
  C    -20.127366   26.964380   48.280798
  O    -20.445730   25.753579   47.485235
  H    -20.802381   25.366594   45.504449
  H    -19.387871   27.374611   45.576542
  H    -20.975568   28.084592   45.201432
  H    -19.645870   28.950898   47.447842
  H    -21.382134   28.605911   47.562522
  H    -20.747433   26.967038   49.180850
  H    -19.074972   26.883399   48.568487
  C    -23.312316   25.260771   45.766893
  H    -22.709914   24.635306   45.095051
  H    -23.706464   24.622134   46.567915
  O    -22.470316   26.302925   46.344413
  C    -24.476113   25.840235   44.969728
  C    -25.449187   26.727313   45.766465
  C    -24.750971   28.119073   45.689983
  C    -24.119151   28.103609   44.282172
  O    -24.069809   26.681948   43.852378
  H    -25.003601   24.984060   44.530822
  H    -26.423654   26.745543   45.274403
  O    -25.718473   26.265000   47.111226
  H    -25.458077   28.942169   45.828515
  H    -23.980042   28.168627   46.463252
  H    -23.105618   28.514258   44.267334
  H    -24.728519   28.634319   43.543866
  H    -24.913305   26.374961   47.659649

 Multiplicity           Mult            ....    1
 Number of Electrons    NEL             ....  102
 Basis Dimension        Dim             ....  149

ORBITAL ENERGIES
----------------

  NO   OCC          E(Eh)            E(eV)
   0   2.0000     -19.150801      -521.1198
   1   2.0000     -19.142132      -520.8839
   2   2.0000     -19.139256      -520.8056
   3   2.0000     -19.136538      -520.7317
   4   2.0000     -10.284709      -279.8611
   5   2.0000     -10.237235      -278.5693
   6   2.0000     -10.233526      -278.4684
   7   2.0000     -10.231171      -278.4043
   8   2.0000     -10.228535      -278.3326
   9   2.0000     -10.225416      -278.2477
  10   2.0000     -10.190574      -277.2996
  11   2.0000     -10.189314      -277.2653
  12   2.0000     -10.181437      -277.0510
  13   2.0000      -1.057445       -28.7745
  14   2.0000      -1.028023       -27.9739
  15   2.0000      -1.010456       -27.4959
  16   2.0000      -0.998137       -27.1607
  17   2.0000      -0.791563       -21.5395
  18   2.0000      -0.773869       -21.0580
  19   2.0000      -0.767706       -20.8903
  20   2.0000      -0.733737       -19.9660
  21   2.0000      -0.679687       -18.4952
  22   2.0000      -0.603204       -16.4140
  23   2.0000      -0.602909       -16.4060
  24   2.0000      -0.597511       -16.2591
  25   2.0000      -0.576808       -15.6957
  26   2.0000      -0.527830       -14.3630
  27   2.0000      -0.509318       -13.8593
  28   2.0000      -0.497433       -13.5358
  29   2.0000      -0.491992       -13.3878
  30   2.0000      -0.469686       -12.7808
  31   2.0000      -0.463850       -12.6220
  32   2.0000      -0.442769       -12.0484
  33   2.0000      -0.432837       -11.7781
  34   2.0000      -0.421906       -11.4807
  35   2.0000      -0.418884       -11.3984
  36   2.0000      -0.405551       -11.0356
  37   2.0000      -0.395330       -10.7575
  38   2.0000      -0.385140       -10.4802
  39   2.0000      -0.367003        -9.9867
  40   2.0000      -0.360920        -9.8211
  41   2.0000      -0.353799        -9.6273
  42   2.0000      -0.348906        -9.4942
  43   2.0000      -0.330275        -8.9872
  44   2.0000      -0.321145        -8.7388
  45   2.0000      -0.312657        -8.5078
  46   2.0000      -0.305671        -8.3177
  47   2.0000      -0.275326        -7.4920
  48   2.0000      -0.263277        -7.1641
  49   2.0000      -0.255634        -6.9562
  50   2.0000      -0.238912        -6.5011
  51   0.0000       0.063091         1.7168
  52   0.0000       0.071249         1.9388
  53   0.0000       0.086578         2.3559
  54   0.0000       0.096699         2.6313
  55   0.0000       0.105064         2.8589

MULLIKEN ATOMIC CHARGES
-----------------------
   0 C :    0.291731
   1 C :   -0.263902
   2 C :   -0.303932
   3 C :   -0.001184
   4 O :   -0.503852
   5 H :    0.148807
   6 H :    0.148339
   7 H :    0.157492
   8 H :    0.144357
   9 H :    0.156622
  10 H :    0.147621
  11 H :    0.144141
  12 C :   -0.022203
  13 H :    0.143637
  14 H :    0.150093
  15 O :   -0.539584
  16 C :    0.098288
  17 C :    0.086183
  18 C :   -0.317227
  19 C :   -0.008855
  20 O :   -0.523693
  21 H :    0.149060
  22 H :    0.162999
  23 O :   -0.606095
  24 H :    0.144786
  25 H :    0.166157
  26 H :    0.139725
  27 H :    0.144200
  28 H :    0.366290
Sum of atomic charges:   -0.0000000

LOEWDIN ATOMIC CHARGES
----------------------
   0 C :    0.178454
   1 C :   -0.218375
   2 C :   -0.217139
   3 C :   -0.027188
   4 O :   -0.321046
   5 H :    0.102012
   6 H :    0.115928
   7 H :    0.120333
   8 H :    0.115052
   9 H :    0.114509
  10 H :    0.105685
  11 H :    0.103476
  12 C :   -0.043181
  13 H :    0.106085
  14 H :    0.107058
  15 O :   -0.340565
  16 C :    0.014604
  17 C :    0.037769
  18 C :   -0.244030
  19 C :   -0.025519
  20 O :   -0.325077
  21 H :    0.114841
  22 H :    0.116474
  23 O :   -0.410221
  24 H :    0.115709
  25 H :    0.120306
  26 H :    0.098436
  27 H :    0.101767
  28 H :    0.283845

  Mayer bond orders larger than 0.100000
B(  0-C ,  1-C ) :   0.9460 B(  0-C ,  4-O ) :   0.9264 B(  0-C ,  5-H ) :   0.9163
B(  0-C , 15-O ) :   0.8398 B(  1-C ,  2-C ) :   0.9569 B(  1-C ,  6-H ) :   0.9374
B(  1-C ,  7-H ) :   0.9309 B(  2-C ,  3-C ) :   0.9531 B(  2-C ,  8-H ) :   0.9449
B(  2-C ,  9-H ) :   0.9442 B(  3-C ,  4-O ) :   0.8393 B(  3-C , 10-H ) :   0.9354
B(  3-C , 11-H ) :   0.9397 B( 12-C , 13-H ) :   0.9220 B( 12-C , 14-H ) :   0.9102
B( 12-C , 15-O ) :   0.8363 B( 12-C , 16-C ) :   0.9045 B( 16-C , 17-C ) :   0.8884
B( 16-C , 20-O ) :   0.8751 B( 16-C , 21-H ) :   0.9250 B( 17-C , 18-C ) :   0.9321
B( 17-C , 22-H ) :   0.9359 B( 17-C , 23-O ) :   0.9035 B( 18-C , 19-C ) :   0.9463
B( 18-C , 24-H ) :   0.9412 B( 18-C , 25-H ) :   0.9266 B( 19-C , 20-O ) :   0.8406
B( 19-C , 26-H ) :   0.9264 B( 19-C , 27-H ) :   0.9370 B( 23-O , 28-H ) :   0.7912

FINAL SINGLE POINT ENERGY      -652.864515258377

DIPOLE MOMENT
-------------
                                X             Y             Z
Electronic contribution:     -2.48609      -4.64549      -0.64305
Nuclear contribution   :      3.19277       5.52739       0.67646
                        -----------------------------------------
Total Dipole Moment    :      0.70668       0.88190       0.03341
                        -----------------------------------------
Magnitude (a.u.)       :      1.13060
Magnitude (Debye)      :      2.87376

Rotational constants in cm-1:     0.045423     0.016018     0.015163
Rotational constants in MHz :  1361.744321   480.193049   454.563341

                             ****ORCA TERMINATED NORMALLY****
TOTAL RUN TIME: 0 days 0 hours 51 minutes 44 seconds 903 msec
