                         Program Version 4.2.1 -  RELEASE  -
|  1> # Test redundant internal optimization
|  2> #
|  3> ! RKS B3LYP  Opt TightSCF SmallPrint
|  4>
|  5> %basis
|  6>         Basis "6-31G"
|  7> end
|  8>
|  9> %geom
| 10> Constraints
| 11> { D 4  0  19  14  165.0   C } # D for Dihedral angle
| 12> { D 0  19  14  12  165.0   C } # D for Dihedral angle
| 13> { D 0  4  3  2   C } # D for Dihedral angle
| 14> { D 4  3  2  1   C } # D for Dihedral angle
| 15> { D 3  2  1  0   C } # D for Dihedral angle
| 16> { D 2  1  0  4   C } # D for Dihedral angle
| 17> { D 1  0  4  3   C } # D for Dihedral angle
| 18> { D 14  15  16  17   C } # D for Dihedral angle
| 19> { D 15  16  17  12   C } # D for Dihedral angle
| 20> { D 16  17  12  14   C } # D for Dihedral angle
| 21> { D 17  12  14  15   C } # D for Dihedral angle
| 22> { D 12  14  15  16   C } # D for Dihedral angle
| 23> end
| 24> end
| 25>
| 26>
| 27> #%pal
| 28> #nprocs 8
| 29> #end
| 30>
| 31> * xyz 0 1
| 32> C  -21.048   26.222   46.251
| 33> C  -20.361   27.558   45.944
| 34> C  -20.329   28.222   47.341
| 35> C  -20.110   27.022   48.296
| 36> O  -20.473   25.807   47.535
| 37> H  -20.833   25.428   45.533
| 38> H  -19.344   27.382   45.576
| 39> H  -20.898   28.157   45.201
| 40> H  -19.543   28.978   47.434
| 41> H  -21.289   28.710   47.548
| 42> H  -20.733   27.082   49.195
| 43> H  -19.064   26.913   48.597
| 44> C  -24.597   26.898   45.297
| 45> H  -25.050   27.185   44.335
| 46> C  -23.077   27.101   45.280
| 47> C  -22.962   28.627   45.504
| 48> C  -24.140   28.932   46.462
| 49> O  -25.067   27.782   46.368
| 50> H  -24.915   25.887   45.555
| 51> O  -22.472   26.381   46.366
| 52> H  -22.610   26.773   44.345
| 53> H  -21.995   28.923   45.924
| 54> H  -23.090   29.159   44.553
| 55> H  -24.677   29.848   46.192
| 56> H  -23.822   29.004   47.507
| 57> *
| 58>
| 59>                          ****END OF INPUT****
 Total Charge           Charge          ....    0
 Multiplicity           Mult            ....    1
 Number of Electrons    NEL             ....   86
FINAL SINGLE POINT ENERGY      -538.402448254946
FINAL SINGLE POINT ENERGY      -538.420953096415
FINAL SINGLE POINT ENERGY      -538.422485167944
FINAL SINGLE POINT ENERGY      -538.422842230071
FINAL SINGLE POINT ENERGY      -538.422885114990
FINAL SINGLE POINT ENERGY      -538.422896394350
FINAL SINGLE POINT ENERGY      -538.422897171472
                    ***********************HURRAY********************

CARTESIAN COORDINATES (ANGSTROEM)
---------------------------------
  C    -20.983055   26.269434   46.210378
  C    -20.126918   27.516096   45.981587
  C    -20.161854   28.197490   47.377366
  C    -20.175923   26.986857   48.336296
  O    -20.596232   25.826143   47.516331
  H    -20.762037   25.451339   45.515944
  H    -19.108456   27.183361   45.750083
  H    -20.460228   28.157494   45.163184
  H    -19.299352   28.850199   47.542771
  H    -21.070110   28.795368   47.496623
  H    -20.879326   27.102536   49.164582
  H    -19.184356   26.748941   48.732207
  C    -24.612145   26.851873   45.377909
  H    -25.179775   27.064623   44.459852
  C    -23.133418   27.201727   45.201650
  C    -23.151510   28.730098   45.394383
  C    -24.248363   28.943138   46.463844
  O    -25.060277   27.707112   46.481220
  H    -24.757939   25.815289   45.681241
  O    -22.431501   26.456508   46.242902
  H    -22.752535   26.914547   44.210439
  H    -22.194226   29.153701   45.689866
  H    -23.442413   29.193553   44.443128
  H    -24.895009   29.798221   46.237373
  H    -23.832043   29.065354   47.467840

 Multiplicity           Mult            ....    1
 Number of Electrons    NEL             ....   86
 Basis Dimension        Dim             ....  127

ORBITAL ENERGIES
----------------

  NO   OCC          E(Eh)            E(eV)
   0   2.0000     -19.140445      -520.8380
   1   2.0000     -19.136930      -520.7423
   2   2.0000     -19.127234      -520.4785
   3   2.0000     -10.281285      -279.7680
   4   2.0000     -10.243919      -278.7512
   5   2.0000     -10.226870      -278.2873
   6   2.0000     -10.221990      -278.1545
   7   2.0000     -10.220250      -278.1071
   8   2.0000     -10.193921      -277.3907
   9   2.0000     -10.193199      -277.3711
  10   2.0000     -10.189442      -277.2688
  11   2.0000      -1.052580       -28.6422
  12   2.0000      -1.014020       -27.5929
  13   2.0000      -0.987100       -26.8604
  14   2.0000      -0.790927       -21.5222
  15   2.0000      -0.785502       -21.3746
  16   2.0000      -0.745137       -20.2762
  17   2.0000      -0.723711       -19.6932
  18   2.0000      -0.616182       -16.7672
  19   2.0000      -0.603440       -16.4204
  20   2.0000      -0.598867       -16.2960
  21   2.0000      -0.572298       -15.5730
  22   2.0000      -0.515410       -14.0250
  23   2.0000      -0.508264       -13.8306
  24   2.0000      -0.494923       -13.4675
  25   2.0000      -0.485078       -13.1996
  26   2.0000      -0.453920       -12.3518
  27   2.0000      -0.445665       -12.1272
  28   2.0000      -0.424149       -11.5417
  29   2.0000      -0.417510       -11.3610
  30   2.0000      -0.413652       -11.2560
  31   2.0000      -0.390295       -10.6205
  32   2.0000      -0.375038       -10.2053
  33   2.0000      -0.368603       -10.0302
  34   2.0000      -0.362624        -9.8675
  35   2.0000      -0.361286        -9.8311
  36   2.0000      -0.354772        -9.6538
  37   2.0000      -0.314290        -8.5523
  38   2.0000      -0.302899        -8.2423
  39   2.0000      -0.292132        -7.9493
  40   2.0000      -0.259812        -7.0698
  41   2.0000      -0.256090        -6.9686
  42   2.0000      -0.231251        -6.2927
  43   0.0000       0.069828         1.9001
  44   0.0000       0.085813         2.3351
  45   0.0000       0.093682         2.5492
  46   0.0000       0.108092         2.9413
  47   0.0000       0.111626         3.0375

MULLIKEN ATOMIC CHARGES
-----------------------
   0 C :    0.321386
   1 C :   -0.294782
   2 C :   -0.306382
   3 C :   -0.000323
   4 O :   -0.496777
   5 H :    0.142808
   6 H :    0.152382
   7 H :    0.141901
   8 H :    0.144801
   9 H :    0.156253
  10 H :    0.157545
  11 H :    0.143137
  12 C :    0.005062
  13 H :    0.123169
  14 C :    0.070666
  15 C :   -0.300058
  16 C :    0.003939
  17 O :   -0.517203
  18 H :    0.174616
  19 O :   -0.513282
  20 H :    0.119344
  21 H :    0.149550
  22 H :    0.139213
  23 H :    0.134727
  24 H :    0.148307
Sum of atomic charges:   -0.0000000

LOEWDIN ATOMIC CHARGES
----------------------
   0 C :    0.185566
   1 C :   -0.235235
   2 C :   -0.218981
   3 C :   -0.024975
   4 O :   -0.300465
   5 H :    0.096331
   6 H :    0.119903
   7 H :    0.112226
   8 H :    0.115499
   9 H :    0.111534
  10 H :    0.110858
  11 H :    0.102987
  12 C :   -0.031996
  13 H :    0.090262
  14 C :    0.038695
  15 C :   -0.239275
  16 C :   -0.027460
  17 O :   -0.326641
  18 H :    0.126905
  19 O :   -0.330447
  20 H :    0.091756
  21 H :    0.118232
  22 H :    0.112799
  23 H :    0.098218
  24 H :    0.103705

  Mayer bond orders larger than 0.100000
B(  0-C ,  1-C ) :   0.9233 B(  0-C ,  4-O ) :   0.9370 B(  0-C ,  5-H ) :   0.9235
B(  0-C , 19-O ) :   0.8473 B(  1-C ,  2-C ) :   0.9514 B(  1-C ,  6-H ) :   0.9319
B(  1-C ,  7-H ) :   0.9277 B(  2-C ,  3-C ) :   0.9512 B(  2-C ,  8-H ) :   0.9450
B(  2-C ,  9-H ) :   0.9360 B(  3-C ,  4-O ) :   0.8373 B(  3-C , 10-H ) :   0.9335
B(  3-C , 11-H ) :   0.9395 B( 12-C , 13-H ) :   0.9159 B( 12-C , 14-C ) :   0.9327
B( 12-C , 17-O ) :   0.8689 B( 12-C , 18-H ) :   0.9293 B( 14-C , 15-C ) :   0.9256
B( 14-C , 19-O ) :   0.8415 B( 14-C , 20-H ) :   0.9213 B( 15-C , 16-C ) :   0.9436
B( 15-C , 21-H ) :   0.9276 B( 15-C , 22-H ) :   0.9354 B( 16-C , 17-O ) :   0.8636
B( 16-C , 23-H ) :   0.9321 B( 16-C , 24-H ) :   0.9347

FINAL SINGLE POINT ENERGY      -538.422897287593

DIPOLE MOMENT
-------------
                                X             Y             Z
Electronic contribution:     -2.43725      -5.07248       1.23700
Nuclear contribution   :      3.50123       6.27984      -2.26098
                        -----------------------------------------
Total Dipole Moment    :      1.06398       1.20736      -1.02399
                        -----------------------------------------
Magnitude (a.u.)       :      1.90744
Magnitude (Debye)      :      4.84832

Rotational constants in cm-1:     0.070603     0.023397     0.022132
Rotational constants in MHz :  2116.629562   701.433541   663.506101

                             ****ORCA TERMINATED NORMALLY****
TOTAL RUN TIME: 0 days 0 hours 8 minutes 46 seconds 572 msec
