                         Program Version 4.2.0 -  RELEASE  -
|  1> # Test redundant internal optimization
|  2> #
|  3> ! RKS B3LYP  Opt TightSCF SmallPrint
|  4>
|  5> %basis
|  6>         Basis "6-31G"
|  7> end
|  8>
|  9> %geom
| 10> Constraints
| 11> { D 4  0  15  12  285.0   C } # D for Dihedral angle
| 12> { D 0  15  12  16  210.0   C } # D for Dihedral angle
| 13> { D 0  4  3  2   C } # D for Dihedral angle
| 14> { D 4  3  2  1   C } # D for Dihedral angle
| 15> { D 3  2  1  0   C } # D for Dihedral angle
| 16> { D 2  1  0  4   C } # D for Dihedral angle
| 17> { D 1  0  4  3   C } # D for Dihedral angle
| 18> { D 16  20  19  18   C } # D for Dihedral angle
| 19> { D 20  19  18  17   C } # D for Dihedral angle
| 20> { D 19  18  17  16   C } # D for Dihedral angle
| 21> { D 18  17  16  20   C } # D for Dihedral angle
| 22> { D 17  16  20  19   C } # D for Dihedral angle
| 23> { D 15  12  16  20   C } # D for Dihedral angle
| 24> end
| 25> end
| 26>
| 27>
| 28> #%pal
| 29> #nprocs 8
| 30> #end
| 31>
| 32> * xyz 0 1
| 33> C  -21.048   26.222   46.251
| 34> C  -20.361   27.558   45.944
| 35> C  -20.329   28.222   47.341
| 36> C  -20.110   27.022   48.296
| 37> O  -20.473   25.807   47.535
| 38> H  -20.833   25.428   45.533
| 39> H  -19.344   27.382   45.576
| 40> H  -20.898   28.157   45.201
| 41> H  -19.543   28.978   47.434
| 42> H  -21.289   28.710   47.548
| 43> H  -20.733   27.082   49.195
| 44> H  -19.064   26.913   48.597
| 45> C  -23.396   25.070   46.435
| 46> H  -22.860   24.292   45.878
| 47> H  -23.505   24.734   47.474
| 48> O  -22.586   26.394   46.375
| 49> C  -24.821   25.209   45.831
| 50> C  -25.602   26.345   46.504
| 51> C  -25.014   27.590   45.798
| 52> C  -24.750   27.087   44.357
| 53> O  -24.743   25.609   44.422
| 54> H  -25.319   24.239   45.862
| 55> H  -26.671   26.246   46.285
| 56> O  -25.418   26.383   48.045
| 57> H  -25.690   28.451   45.822
| 58> H  -24.075   27.888   46.281
| 59> H  -23.790   27.433   43.960
| 60> H  -25.544   27.374   43.662
| 61> H  -24.354   26.482   48.287
| 62> *
| 63>
| 64>                          ****END OF INPUT****
 Total Charge           Charge          ....    0
 Multiplicity           Mult            ....    1
 Number of Electrons    NEL             ....  102
FINAL SINGLE POINT ENERGY      -652.838390566171
FINAL SINGLE POINT ENERGY      -652.862477947456
FINAL SINGLE POINT ENERGY      -652.867084515816
FINAL SINGLE POINT ENERGY      -652.868438159260
FINAL SINGLE POINT ENERGY      -652.868551707081
FINAL SINGLE POINT ENERGY      -652.868570268827
FINAL SINGLE POINT ENERGY      -652.868570644031
                    ***********************HURRAY********************

CARTESIAN COORDINATES (ANGSTROEM)
---------------------------------
  C    -21.062074   26.144402   46.260160
  C    -20.438559   27.505926   45.950835
  C    -20.404147   28.164282   47.349937
  C    -20.117075   26.971184   48.289789
  O    -20.452384   25.751363   47.512161
  H    -20.844411   25.343604   45.546597
  H    -19.425167   27.354873   45.562753
  H    -21.018783   28.070279   45.218026
  H    -19.642796   28.946364   47.429040
  H    -21.378129   28.609880   47.574057
  H    -20.719597   26.986884   49.201699
  H    -19.060185   26.889021   48.559692
  C    -23.270522   25.089476   46.458408
  H    -22.753255   24.299041   45.898991
  H    -23.357719   24.769691   47.503669
  O    -22.487876   26.321994   46.375846
  C    -24.658512   25.279422   45.857110
  C    -25.527122   26.362397   46.522375
  C    -25.055283   27.651822   45.783297
  C    -24.772057   27.138893   44.355741
  O    -24.637679   25.662217   44.452220
  H    -25.153435   24.301440   45.901670
  H    -26.583290   26.160735   46.331570
  O    -25.412130   26.420727   47.964251
  H    -25.813637   28.440323   45.807304
  H    -24.139453   28.013782   46.255722
  H    -23.848902   27.548120   43.935942
  H    -25.599360   27.335713   43.666199
  H    -24.529461   26.773144   48.203937

 Multiplicity           Mult            ....    1
 Number of Electrons    NEL             ....  102
 Basis Dimension        Dim             ....  149

ORBITAL ENERGIES
----------------

  NO   OCC          E(Eh)            E(eV)
   0   2.0000     -19.153802      -521.2014
   1   2.0000     -19.144531      -520.9492
   2   2.0000     -19.139143      -520.8025
   3   2.0000     -19.133556      -520.6505
   4   2.0000     -10.284372      -279.8520
   5   2.0000     -10.235948      -278.5343
   6   2.0000     -10.230552      -278.3875
   7   2.0000     -10.230001      -278.3725
   8   2.0000     -10.229856      -278.3685
   9   2.0000     -10.222305      -278.1631
  10   2.0000     -10.191911      -277.3360
  11   2.0000     -10.191200      -277.3166
  12   2.0000     -10.179213      -276.9905
  13   2.0000      -1.060714       -28.8635
  14   2.0000      -1.026567       -27.9343
  15   2.0000      -1.009235       -27.4627
  16   2.0000      -0.998560       -27.1722
  17   2.0000      -0.793994       -21.6057
  18   2.0000      -0.772326       -21.0160
  19   2.0000      -0.765724       -20.8364
  20   2.0000      -0.733621       -19.9629
  21   2.0000      -0.677301       -18.4303
  22   2.0000      -0.604838       -16.4585
  23   2.0000      -0.601463       -16.3666
  24   2.0000      -0.596751       -16.2384
  25   2.0000      -0.573526       -15.6064
  26   2.0000      -0.527532       -14.3549
  27   2.0000      -0.510137       -13.8815
  28   2.0000      -0.497975       -13.5506
  29   2.0000      -0.491130       -13.3643
  30   2.0000      -0.466230       -12.6868
  31   2.0000      -0.465075       -12.6553
  32   2.0000      -0.443864       -12.0781
  33   2.0000      -0.427467       -11.6320
  34   2.0000      -0.420590       -11.4448
  35   2.0000      -0.417876       -11.3710
  36   2.0000      -0.404770       -11.0144
  37   2.0000      -0.396922       -10.8008
  38   2.0000      -0.385408       -10.4875
  39   2.0000      -0.364718        -9.9245
  40   2.0000      -0.362840        -9.8734
  41   2.0000      -0.354278        -9.6404
  42   2.0000      -0.347789        -9.4638
  43   2.0000      -0.335070        -9.1177
  44   2.0000      -0.321746        -8.7552
  45   2.0000      -0.308999        -8.4083
  46   2.0000      -0.303765        -8.2659
  47   2.0000      -0.278063        -7.5665
  48   2.0000      -0.261825        -7.1246
  49   2.0000      -0.257964        -7.0195
  50   2.0000      -0.238610        -6.4929
  51   0.0000       0.059964         1.6317
  52   0.0000       0.079686         2.1684
  53   0.0000       0.086670         2.3584
  54   0.0000       0.098488         2.6800
  55   0.0000       0.105831         2.8798

MULLIKEN ATOMIC CHARGES
-----------------------
   0 C :    0.292459
   1 C :   -0.264238
   2 C :   -0.300998
   3 C :   -0.004228
   4 O :   -0.510935
   5 H :    0.151771
   6 H :    0.150294
   7 H :    0.154945
   8 H :    0.145210
   9 H :    0.153964
  10 H :    0.145412
  11 H :    0.146376
  12 C :   -0.013813
  13 H :    0.146669
  14 H :    0.152325
  15 O :   -0.538380
  16 C :    0.088698
  17 C :    0.087418
  18 C :   -0.317055
  19 C :   -0.002266
  20 O :   -0.523038
  21 H :    0.149397
  22 H :    0.162035
  23 O :   -0.607588
  24 H :    0.145144
  25 H :    0.164199
  26 H :    0.140220
  27 H :    0.142147
  28 H :    0.363854
Sum of atomic charges:   -0.0000000

LOEWDIN ATOMIC CHARGES
----------------------
   0 C :    0.173967
   1 C :   -0.215074
   2 C :   -0.216611
   3 C :   -0.028313
   4 O :   -0.328784
   5 H :    0.101039
   6 H :    0.117127
   7 H :    0.122290
   8 H :    0.115310
   9 H :    0.113788
  10 H :    0.104367
  11 H :    0.104637
  12 C :   -0.045534
  13 H :    0.108125
  14 H :    0.108211
  15 O :   -0.334981
  16 C :    0.016832
  17 C :    0.037973
  18 C :   -0.244549
  19 C :   -0.024687
  20 O :   -0.324594
  21 H :    0.114922
  22 H :    0.116201
  23 O :   -0.411527
  24 H :    0.115233
  25 H :    0.120083
  26 H :    0.101478
  27 H :    0.100854
  28 H :    0.282218

  Mayer bond orders larger than 0.100000
B(  0-C ,  1-C ) :   0.9500 B(  0-C ,  4-O ) :   0.9069 B(  0-C ,  5-H ) :   0.9166
B(  0-C , 15-O ) :   0.8529 B(  1-C ,  2-C ) :   0.9558 B(  1-C ,  6-H ) :   0.9393
B(  1-C ,  7-H ) :   0.9360 B(  2-C ,  3-C ) :   0.9539 B(  2-C ,  8-H ) :   0.9449
B(  2-C ,  9-H ) :   0.9457 B(  3-C ,  4-O ) :   0.8389 B(  3-C , 10-H ) :   0.9359
B(  3-C , 11-H ) :   0.9400 B( 12-C , 13-H ) :   0.9207 B( 12-C , 14-H ) :   0.9079
B( 12-C , 15-O ) :   0.8203 B( 12-C , 16-C ) :   0.9114 B( 16-C , 17-C ) :   0.8871
B( 16-C , 20-O ) :   0.8766 B( 16-C , 21-H ) :   0.9275 B( 17-C , 18-C ) :   0.9315
B( 17-C , 22-H ) :   0.9362 B( 17-C , 23-O ) :   0.9027 B( 18-C , 19-C ) :   0.9450
B( 18-C , 24-H ) :   0.9410 B( 18-C , 25-H ) :   0.9272 B( 19-C , 20-O ) :   0.8385
B( 19-C , 26-H ) :   0.9328 B( 19-C , 27-H ) :   0.9373 B( 23-O , 28-H ) :   0.7923

FINAL SINGLE POINT ENERGY      -652.868569256075

DIPOLE MOMENT
-------------
                                X             Y             Z
Electronic contribution:     -2.40129      -4.62334      -0.09428
Nuclear contribution   :      3.16736       5.60606       0.01956
                        -----------------------------------------
Total Dipole Moment    :      0.76606       0.98271      -0.07472
                        -----------------------------------------
Magnitude (a.u.)       :      1.24826
Magnitude (Debye)      :      3.17283

Rotational constants in cm-1:     0.046049     0.015712     0.014987
Rotational constants in MHz :  1380.506418   471.027451   449.307568

                             ****ORCA TERMINATED NORMALLY****
TOTAL RUN TIME: 0 days 0 hours 19 minutes 15 seconds 882 msec
