                         Program Version 4.2.0 -  RELEASE  -
|  1> # Test redundant internal optimization
|  2> #
|  3> ! RKS B3LYP  Opt TightSCF SmallPrint
|  4>
|  5> %basis
|  6>         Basis "6-31G"
|  7> end
|  8>
|  9> %geom
| 10> Constraints
| 11> { D 4  0  15  12  165.0   C } # D for Dihedral angle
| 12> { D 0  15  12  16  180.0   C } # D for Dihedral angle
| 13> { D 0  4  3  2   C } # D for Dihedral angle
| 14> { D 4  3  2  1   C } # D for Dihedral angle
| 15> { D 3  2  1  0   C } # D for Dihedral angle
| 16> { D 2  1  0  4   C } # D for Dihedral angle
| 17> { D 1  0  4  3   C } # D for Dihedral angle
| 18> { D 16  20  19  18   C } # D for Dihedral angle
| 19> { D 20  19  18  17   C } # D for Dihedral angle
| 20> { D 19  18  17  16   C } # D for Dihedral angle
| 21> { D 18  17  16  20   C } # D for Dihedral angle
| 22> { D 17  16  20  19   C } # D for Dihedral angle
| 23> { D 15  12  16  20   C } # D for Dihedral angle
| 24> end
| 25> end
| 26>
| 27>
| 28> #%pal
| 29> #nprocs 8
| 30> #end
| 31>
| 32> * xyz 0 1
| 33> C  -21.048   26.222   46.251
| 34> C  -20.361   27.558   45.944
| 35> C  -20.329   28.222   47.341
| 36> C  -20.110   27.022   48.296
| 37> O  -20.473   25.807   47.535
| 38> H  -20.833   25.428   45.533
| 39> H  -19.344   27.382   45.576
| 40> H  -20.898   28.157   45.201
| 41> H  -19.543   28.978   47.434
| 42> H  -21.289   28.710   47.548
| 43> H  -20.733   27.082   49.195
| 44> H  -19.064   26.913   48.597
| 45> C  -23.260   27.170   45.210
| 46> H  -22.827   28.177   45.148
| 47> H  -23.081   26.660   44.255
| 48> O  -22.586   26.394   46.375
| 49> C  -24.797   27.309   45.391
| 50> C  -25.443   27.976   44.172
| 51> C  -25.512   26.799   43.170
| 52> C  -25.792   25.578   44.082
| 53> O  -25.427   25.986   45.455
| 54> H  -25.002   27.808   46.341
| 55> O  -26.869   28.476   44.530
| 56> H  -24.865   28.825   43.790
| 57> H  -26.284   26.936   42.407
| 58> H  -24.550   26.685   42.657
| 59> H  -25.201   24.700   43.800
| 60> H  -26.851   25.303   44.097
| 61> H  -27.465   27.641   44.915
| 62> *
| 63>
| 64>                          ****END OF INPUT****
 Total Charge           Charge          ....    0
 Multiplicity           Mult            ....    1
 Number of Electrons    NEL             ....  102
FINAL SINGLE POINT ENERGY      -652.825827118506
FINAL SINGLE POINT ENERGY      -652.849308026308
FINAL SINGLE POINT ENERGY      -652.853745160036
FINAL SINGLE POINT ENERGY      -652.854475153158
FINAL SINGLE POINT ENERGY      -652.854581840689
FINAL SINGLE POINT ENERGY      -652.854594065170
                    ***********************HURRAY********************

CARTESIAN COORDINATES (ANGSTROEM)
---------------------------------
  C    -21.080406   26.266751   46.169547
  C    -20.284800   27.551836   45.943090
  C    -20.399120   28.251260   47.322630
  C    -20.379668   27.062004   48.305239
  O    -20.712949   25.863957   47.494896
  H    -20.833150   25.442501   45.492981
  H    -19.243632   27.279689   45.734007
  H    -20.638395   28.169975   45.114361
  H    -19.582586   28.956861   47.502398
  H    -21.346355   28.795646   47.391162
  H    -21.114137   27.154314   49.109103
  H    -19.389804   26.883027   48.735401
  C    -23.131994   27.176653   45.080031
  H    -22.755694   28.208502   45.015941
  H    -22.913838   26.675045   44.123612
  O    -22.529072   26.458025   46.180600
  C    -24.636294   27.232333   45.338711
  C    -25.431762   27.937308   44.231227
  C    -25.615880   26.794470   43.197353
  C    -25.774590   25.539314   44.091074
  O    -25.244756   25.904641   45.427396
  H    -24.798146   27.707014   46.311009
  O    -26.707150   28.416984   44.737450
  H    -24.937064   28.817755   43.818077
  H    -26.486486   26.984554   42.564608
  H    -24.731741   26.717375   42.554320
  H    -25.219957   24.675948   43.712238
  H    -26.820882   25.248817   44.226561
  H    -27.096692   27.731441   45.320979

 Multiplicity           Mult            ....    1
 Number of Electrons    NEL             ....  102
 Basis Dimension        Dim             ....  149

ORBITAL ENERGIES
----------------

  NO   OCC          E(Eh)            E(eV)
   0   2.0000     -19.140030      -520.8267
   1   2.0000     -19.139747      -520.8190
   2   2.0000     -19.139064      -520.8004
   3   2.0000     -19.138742      -520.7916
   4   2.0000     -10.279743      -279.7260
   5   2.0000     -10.244625      -278.7704
   6   2.0000     -10.236145      -278.5397
   7   2.0000     -10.235300      -278.5167
   8   2.0000     -10.229464      -278.3579
   9   2.0000     -10.225194      -278.2417
  10   2.0000     -10.191446      -277.3234
  11   2.0000     -10.190997      -277.3111
  12   2.0000     -10.190334      -277.2931
  13   2.0000      -1.053434       -28.6654
  14   2.0000      -1.036670       -28.2092
  15   2.0000      -1.007004       -27.4020
  16   2.0000      -0.992489       -27.0070
  17   2.0000      -0.789342       -21.4791
  18   2.0000      -0.785679       -21.3794
  19   2.0000      -0.769579       -20.9413
  20   2.0000      -0.732725       -19.9385
  21   2.0000      -0.678062       -18.4510
  22   2.0000      -0.605545       -16.4777
  23   2.0000      -0.604180       -16.4406
  24   2.0000      -0.592484       -16.1223
  25   2.0000      -0.581003       -15.8099
  26   2.0000      -0.526147       -14.3172
  27   2.0000      -0.512974       -13.9587
  28   2.0000      -0.496553       -13.5119
  29   2.0000      -0.494842       -13.4653
  30   2.0000      -0.476142       -12.9565
  31   2.0000      -0.462500       -12.5853
  32   2.0000      -0.452455       -12.3119
  33   2.0000      -0.445933       -12.1344
  34   2.0000      -0.424681       -11.5562
  35   2.0000      -0.414012       -11.2658
  36   2.0000      -0.399420       -10.8688
  37   2.0000      -0.394253       -10.7282
  38   2.0000      -0.377769       -10.2796
  39   2.0000      -0.373067       -10.1517
  40   2.0000      -0.364622        -9.9219
  41   2.0000      -0.359837        -9.7917
  42   2.0000      -0.354156        -9.6371
  43   2.0000      -0.333803        -9.0832
  44   2.0000      -0.313089        -8.5196
  45   2.0000      -0.306580        -8.3425
  46   2.0000      -0.298465        -8.1216
  47   2.0000      -0.272534        -7.4160
  48   2.0000      -0.260408        -7.0861
  49   2.0000      -0.251039        -6.8311
  50   2.0000      -0.244172        -6.6443
  51   0.0000       0.063143         1.7182
  52   0.0000       0.077974         2.1218
  53   0.0000       0.085227         2.3191
  54   0.0000       0.097891         2.6638
  55   0.0000       0.105152         2.8613

MULLIKEN ATOMIC CHARGES
-----------------------
   0 C :    0.317181
   1 C :   -0.296862
   2 C :   -0.298166
   3 C :    0.000104
   4 O :   -0.497040
   5 H :    0.144210
   6 H :    0.152301
   7 H :    0.141506
   8 H :    0.144211
   9 H :    0.155186
  10 H :    0.156490
  11 H :    0.142706
  12 C :    0.000719
  13 H :    0.122209
  14 H :    0.119324
  15 O :   -0.503700
  16 C :    0.069607
  17 C :    0.074425
  18 C :   -0.290695
  19 C :   -0.031216
  20 O :   -0.503705
  21 H :    0.169347
  22 O :   -0.601665
  23 H :    0.147576
  24 H :    0.163119
  25 H :    0.140257
  26 H :    0.149432
  27 H :    0.146723
  28 H :    0.366416
Sum of atomic charges:    0.0000000

LOEWDIN ATOMIC CHARGES
----------------------
   0 C :    0.183868
   1 C :   -0.235981
   2 C :   -0.216971
   3 C :   -0.025274
   4 O :   -0.300342
   5 H :    0.098579
   6 H :    0.118841
   7 H :    0.112192
   8 H :    0.115250
   9 H :    0.114316
  10 H :    0.110586
  11 H :    0.102970
  12 C :   -0.044206
  13 H :    0.089960
  14 H :    0.088195
  15 O :   -0.322562
  16 C :    0.019672
  17 C :    0.034604
  18 C :   -0.240879
  19 C :   -0.038588
  20 O :   -0.315578
  21 H :    0.121238
  22 O :   -0.414037
  23 H :    0.113138
  24 H :    0.126901
  25 H :    0.110836
  26 H :    0.105927
  27 H :    0.102987
  28 H :    0.284360

  Mayer bond orders larger than 0.100000
B(  0-C ,  1-C ) :   0.9269 B(  0-C ,  4-O ) :   0.9394 B(  0-C ,  5-H ) :   0.9218
B(  0-C , 15-O ) :   0.8348 B(  1-C ,  2-C ) :   0.9504 B(  1-C ,  6-H ) :   0.9338
B(  1-C ,  7-H ) :   0.9289 B(  2-C ,  3-C ) :   0.9546 B(  2-C ,  8-H ) :   0.9451
B(  2-C ,  9-H ) :   0.9454 B(  3-C ,  4-O ) :   0.8364 B(  3-C , 10-H ) :   0.9340
B(  3-C , 11-H ) :   0.9396 B( 12-C , 13-H ) :   0.9002 B( 12-C , 14-H ) :   0.9142
B( 12-C , 15-O ) :   0.8521 B( 12-C , 16-C ) :   0.8979 B( 16-C , 17-C ) :   0.9001
B( 16-C , 20-O ) :   0.8725 B( 16-C , 21-H ) :   0.9231 B( 17-C , 18-C ) :   0.9121
B( 17-C , 22-O ) :   0.8944 B( 17-C , 23-H ) :   0.9331 B( 18-C , 19-C ) :   0.9390
B( 18-C , 24-H ) :   0.9370 B( 18-C , 25-H ) :   0.9344 B( 19-C , 20-O ) :   0.8534
B( 19-C , 26-H ) :   0.9337 B( 19-C , 27-H ) :   0.9376 B( 22-O , 28-H ) :   0.7929

FINAL SINGLE POINT ENERGY      -652.854596225667

DIPOLE MOMENT
-------------
                                X             Y             Z
Electronic contribution:     -3.12850      -3.13680       2.56121
Nuclear contribution   :      3.86713       3.89358      -3.59398
                        -----------------------------------------
Total Dipole Moment    :      0.73863       0.75678      -1.03277
                        -----------------------------------------
Magnitude (a.u.)       :      1.47814
Magnitude (Debye)      :      3.75714

Rotational constants in cm-1:     0.062491     0.011613     0.011099
Rotational constants in MHz :  1873.434716   348.163935   332.729260

                             ****ORCA TERMINATED NORMALLY****
TOTAL RUN TIME: 0 days 1 hours 42 minutes 0 seconds 513 msec
