                         Program Version 4.2.0 -  RELEASE  -
|  1> # Test redundant internal optimization
|  2> #
|  3> ! RKS B3LYP  Opt TightSCF SmallPrint
|  4>
|  5> %basis
|  6>         Basis "6-31G"
|  7> end
|  8>
|  9> %geom
| 10> Constraints
| 11> { D 4  0  15  12  270.0   C } # D for Dihedral angle
| 12> { D 0  15  12  16  210.0   C } # D for Dihedral angle
| 13> { D 0  4  3  2   C } # D for Dihedral angle
| 14> { D 4  3  2  1   C } # D for Dihedral angle
| 15> { D 3  2  1  0   C } # D for Dihedral angle
| 16> { D 2  1  0  4   C } # D for Dihedral angle
| 17> { D 1  0  4  3   C } # D for Dihedral angle
| 18> { D 16  20  19  18   C } # D for Dihedral angle
| 19> { D 20  19  18  17   C } # D for Dihedral angle
| 20> { D 19  18  17  16   C } # D for Dihedral angle
| 21> { D 18  17  16  20   C } # D for Dihedral angle
| 22> { D 17  16  20  19   C } # D for Dihedral angle
| 23> { D 15  12  16  20   C } # D for Dihedral angle
| 24> end
| 25> end
| 26>
| 27>
| 28> #%pal
| 29> #nprocs 8
| 30> #end
| 31>
| 32> * xyz 0 1
| 33> C  -21.048   26.222   46.251
| 34> C  -20.361   27.558   45.944
| 35> C  -20.329   28.222   47.341
| 36> C  -20.110   27.022   48.296
| 37> O  -20.473   25.807   47.535
| 38> H  -20.833   25.428   45.533
| 39> H  -19.344   27.382   45.576
| 40> H  -20.898   28.157   45.201
| 41> H  -19.543   28.978   47.434
| 42> H  -21.289   28.710   47.548
| 43> H  -20.733   27.082   49.195
| 44> H  -19.064   26.913   48.597
| 45> C  -23.420   25.119   46.072
| 46> H  -22.879   24.497   45.348
| 47> H  -23.567   24.530   46.987
| 48> O  -22.586   26.394   46.375
| 49> C  -24.822   25.443   45.487
| 50> C  -24.711   26.119   44.117
| 51> C  -24.435   24.910   43.192
| 52> C  -25.269   23.776   43.838
| 53> O  -25.565   24.206   45.221
| 54> H  -25.396   26.008   46.225
| 55> H  -25.662   26.597   43.855
| 56> O  -23.590   27.194   44.055
| 57> H  -24.719   25.097   42.152
| 58> H  -23.367   24.661   43.207
| 59> H  -24.731   22.823   43.866
| 60> H  -26.228   23.625   43.335
| 61> H  -22.629   26.737   44.314
| 62> *
| 63>
| 64>                          ****END OF INPUT****
 Total Charge           Charge          ....    0
 Multiplicity           Mult            ....    1
 Number of Electrons    NEL             ....  102
FINAL SINGLE POINT ENERGY      -652.828064143637
FINAL SINGLE POINT ENERGY      -652.854137847089
FINAL SINGLE POINT ENERGY      -652.860723673950
FINAL SINGLE POINT ENERGY      -652.863323402619
FINAL SINGLE POINT ENERGY      -652.864768500773
FINAL SINGLE POINT ENERGY      -652.866025745409
FINAL SINGLE POINT ENERGY      -652.866917186008
FINAL SINGLE POINT ENERGY      -652.867340265482
FINAL SINGLE POINT ENERGY      -652.867473538425
FINAL SINGLE POINT ENERGY      -652.867497854059
FINAL SINGLE POINT ENERGY      -652.867503162785
                    ***********************HURRAY********************

CARTESIAN COORDINATES (ANGSTROEM)
---------------------------------
  C    -21.046568   26.111038   46.241966
  C    -20.423938   27.463817   45.900045
  C    -20.451287   28.182852   47.269616
  C    -20.191632   27.035082   48.268920
  O    -20.486493   25.780729   47.526690
  H    -20.807338   25.286479   45.564818
  H    -19.393089   27.301042   45.565234
  H    -20.961526   27.995863   45.112285
  H    -19.700725   28.975619   47.341938
  H    -21.437773   28.626054   47.435323
  H    -20.834235   27.077996   49.151421
  H    -19.146162   26.970948   48.583526
  C    -23.306702   25.076432   46.097302
  H    -22.768011   24.393425   45.426233
  H    -23.476382   24.563284   47.048321
  O    -22.491223   26.280945   46.319843
  C    -24.649015   25.488812   45.481613
  C    -24.575183   26.149894   44.096315
  C    -24.394416   24.915609   43.166014
  C    -25.240897   23.828056   43.860686
  O    -25.452266   24.287996   45.264758
  H    -25.196877   26.108255   46.198102
  H    -25.541571   26.625625   43.886876
  O    -23.536726   27.138886   43.932793
  H    -24.724679   25.121533   42.144564
  H    -23.331332   24.655381   43.129976
  H    -24.755299   22.847544   43.881016
  H    -26.234701   23.720120   43.417287
  H    -23.044954   27.207684   44.783519

 Multiplicity           Mult            ....    1
 Number of Electrons    NEL             ....  102
 Basis Dimension        Dim             ....  149

ORBITAL ENERGIES
----------------

  NO   OCC          E(Eh)            E(eV)
   0   2.0000     -19.165456      -521.5186
   1   2.0000     -19.147769      -521.0373
   2   2.0000     -19.142648      -520.8979
   3   2.0000     -19.119769      -520.2754
   4   2.0000     -10.291508      -280.0462
   5   2.0000     -10.238241      -278.5967
   6   2.0000     -10.236411      -278.5469
   7   2.0000     -10.233801      -278.4759
   8   2.0000     -10.231136      -278.4034
   9   2.0000     -10.228812      -278.3401
  10   2.0000     -10.194322      -277.4016
  11   2.0000     -10.191825      -277.3337
  12   2.0000     -10.182403      -277.0773
  13   2.0000      -1.065442       -28.9922
  14   2.0000      -1.028353       -27.9829
  15   2.0000      -1.008395       -27.4398
  16   2.0000      -0.997155       -27.1340
  17   2.0000      -0.796301       -21.6684
  18   2.0000      -0.774780       -21.0828
  19   2.0000      -0.769549       -20.9405
  20   2.0000      -0.735855       -20.0236
  21   2.0000      -0.679722       -18.4962
  22   2.0000      -0.607154       -16.5215
  23   2.0000      -0.602058       -16.3828
  24   2.0000      -0.595020       -16.1913
  25   2.0000      -0.583847       -15.8873
  26   2.0000      -0.527756       -14.3610
  27   2.0000      -0.523921       -14.2566
  28   2.0000      -0.500435       -13.6175
  29   2.0000      -0.489565       -13.3217
  30   2.0000      -0.472932       -12.8691
  31   2.0000      -0.461324       -12.5533
  32   2.0000      -0.441913       -12.0251
  33   2.0000      -0.435220       -11.8429
  34   2.0000      -0.430776       -11.7220
  35   2.0000      -0.421948       -11.4818
  36   2.0000      -0.407568       -11.0905
  37   2.0000      -0.389748       -10.6056
  38   2.0000      -0.381287       -10.3754
  39   2.0000      -0.370918       -10.0932
  40   2.0000      -0.364080        -9.9071
  41   2.0000      -0.357114        -9.7176
  42   2.0000      -0.351526        -9.5655
  43   2.0000      -0.343103        -9.3363
  44   2.0000      -0.330170        -8.9844
  45   2.0000      -0.316015        -8.5992
  46   2.0000      -0.297319        -8.0905
  47   2.0000      -0.277824        -7.5600
  48   2.0000      -0.265740        -7.2312
  49   2.0000      -0.250359        -6.8126
  50   2.0000      -0.245895        -6.6912
  51   0.0000       0.054448         1.4816
  52   0.0000       0.074152         2.0178
  53   0.0000       0.090626         2.4661
  54   0.0000       0.095410         2.5962
  55   0.0000       0.108548         2.9537

MULLIKEN ATOMIC CHARGES
-----------------------
   0 C :    0.290797
   1 C :   -0.279153
   2 C :   -0.299214
   3 C :   -0.002901
   4 O :   -0.504777
   5 H :    0.151438
   6 H :    0.154519
   7 H :    0.163299
   8 H :    0.146741
   9 H :    0.163535
  10 H :    0.153486
  11 H :    0.146092
  12 C :   -0.003776
  13 H :    0.134719
  14 H :    0.173256
  15 O :   -0.550675
  16 C :    0.038414
  17 C :    0.119942
  18 C :   -0.299119
  19 C :   -0.021036
  20 O :   -0.519057
  21 H :    0.164888
  22 H :    0.143759
  23 O :   -0.650974
  24 H :    0.152263
  25 H :    0.145257
  26 H :    0.142829
  27 H :    0.151099
  28 H :    0.394349
Sum of atomic charges:   -0.0000000

LOEWDIN ATOMIC CHARGES
----------------------
   0 C :    0.174721
   1 C :   -0.219088
   2 C :   -0.215801
   3 C :   -0.026155
   4 O :   -0.319553
   5 H :    0.102290
   6 H :    0.119284
   7 H :    0.124459
   8 H :    0.116530
   9 H :    0.119540
  10 H :    0.109081
  11 H :    0.104846
  12 C :   -0.040257
  13 H :    0.098032
  14 H :    0.118955
  15 O :   -0.338256
  16 C :    0.014828
  17 C :    0.041702
  18 C :   -0.234000
  19 C :   -0.032134
  20 O :   -0.321275
  21 H :    0.116527
  22 H :    0.102284
  23 O :   -0.439964
  24 H :    0.121882
  25 H :    0.110973
  26 H :    0.102384
  27 H :    0.106905
  28 H :    0.281256

  Mayer bond orders larger than 0.100000
B(  0-C ,  1-C ) :   0.9472 B(  0-C ,  4-O ) :   0.9328 B(  0-C ,  5-H ) :   0.9172
B(  0-C , 15-O ) :   0.8123 B(  1-C ,  2-C ) :   0.9536 B(  1-C ,  6-H ) :   0.9384
B(  1-C ,  7-H ) :   0.9312 B(  2-C ,  3-C ) :   0.9537 B(  2-C ,  8-H ) :   0.9448
B(  2-C ,  9-H ) :   0.9444 B(  3-C ,  4-O ) :   0.8318 B(  3-C , 10-H ) :   0.9351
B(  3-C , 11-H ) :   0.9399 B( 12-C , 13-H ) :   0.9193 B( 12-C , 14-H ) :   0.9245
B( 12-C , 15-O ) :   0.7853 B( 12-C , 16-C ) :   0.9069 B( 16-C , 17-C ) :   0.9150
B( 16-C , 20-O ) :   0.8572 B( 16-C , 21-H ) :   0.9276 B( 17-C , 18-C ) :   0.9079
B( 17-C , 22-H ) :   0.9268 B( 17-C , 23-O ) :   0.9258 B( 18-C , 19-C ) :   0.9400
B( 18-C , 24-H ) :   0.9442 B( 18-C , 25-H ) :   0.9423 B( 19-C , 20-O ) :   0.8334
B( 19-C , 26-H ) :   0.9341 B( 19-C , 27-H ) :   0.9380 B( 23-O , 28-H ) :   0.7130

FINAL SINGLE POINT ENERGY      -652.867504441954

DIPOLE MOMENT
-------------
                                X             Y             Z
Electronic contribution:     -2.35368      -1.50533       1.53521
Nuclear contribution   :      3.03999       1.67198      -1.59574
                        -----------------------------------------
Total Dipole Moment    :      0.68631       0.16666      -0.06053
                        -----------------------------------------
Magnitude (a.u.)       :      0.70885
Magnitude (Debye)      :      1.80174

Rotational constants in cm-1:     0.061427     0.013355     0.012145
Rotational constants in MHz :  1841.536986   400.370908   364.106410

                             ****ORCA TERMINATED NORMALLY****
TOTAL RUN TIME: 0 days 0 hours 34 minutes 44 seconds 532 msec
