                         Program Version 4.2.1 -  RELEASE  -
|  1> # Test redundant internal optimization
|  2> #
|  3> ! RKS B3LYP  Opt TightSCF SmallPrint
|  4>
|  5> %basis
|  6>         Basis "6-31G"
|  7> end
|  8>
|  9> %geom
| 10> Constraints
| 11> { D 4  0  19  14  255.0   C } # D for Dihedral angle
| 12> { D 0  19  14  12  270.0   C } # D for Dihedral angle
| 13> { D 0  4  3  2   C } # D for Dihedral angle
| 14> { D 4  3  2  1   C } # D for Dihedral angle
| 15> { D 3  2  1  0   C } # D for Dihedral angle
| 16> { D 2  1  0  4   C } # D for Dihedral angle
| 17> { D 1  0  4  3   C } # D for Dihedral angle
| 18> { D 14  15  16  17   C } # D for Dihedral angle
| 19> { D 15  16  17  12   C } # D for Dihedral angle
| 20> { D 16  17  12  14   C } # D for Dihedral angle
| 21> { D 17  12  14  15   C } # D for Dihedral angle
| 22> { D 12  14  15  16   C } # D for Dihedral angle
| 23> end
| 24> end
| 25>
| 26>
| 27> #%pal
| 28> #nprocs 8
| 29> #end
| 30>
| 31> * xyz 0 1
| 32> C  -21.048   26.222   46.251
| 33> C  -20.361   27.558   45.944
| 34> C  -20.329   28.222   47.341
| 35> C  -20.110   27.022   48.296
| 36> O  -20.473   25.807   47.535
| 37> H  -20.833   25.428   45.533
| 38> H  -19.344   27.382   45.576
| 39> H  -20.898   28.157   45.201
| 40> H  -19.543   28.978   47.434
| 41> H  -21.289   28.710   47.548
| 42> H  -20.733   27.082   49.195
| 43> H  -19.064   26.913   48.597
| 44> C  -23.536   25.655   44.301
| 45> H  -24.347   25.024   43.904
| 46> C  -23.236   25.322   45.767
| 47> C  -22.381   24.041   45.630
| 48> C  -21.574   24.294   44.332
| 49> O  -22.278   25.371   43.602
| 50> H  -23.775   26.703   44.114
| 51> O  -22.472   26.381   46.366
| 52> H  -24.141   25.168   46.366
| 53> H  -21.736   23.866   46.496
| 54> H  -23.031   23.164   45.515
| 55> H  -21.516   23.406   43.693
| 56> H  -20.560   24.652   44.534
| 57> *
| 58>
| 59>                          ****END OF INPUT****
 Total Charge           Charge          ....    0
 Multiplicity           Mult            ....    1
 Number of Electrons    NEL             ....   86
FINAL SINGLE POINT ENERGY      -538.400941978211
FINAL SINGLE POINT ENERGY      -538.428143596156
FINAL SINGLE POINT ENERGY      -538.430559444097
FINAL SINGLE POINT ENERGY      -538.430957841762
FINAL SINGLE POINT ENERGY      -538.431009369638
FINAL SINGLE POINT ENERGY      -538.431016168137
FINAL SINGLE POINT ENERGY      -538.431016865787
                    ***********************HURRAY********************

CARTESIAN COORDINATES (ANGSTROEM)
---------------------------------
  C    -20.793205   26.318777   46.234487
  C    -20.308271   27.757143   46.045510
  C    -20.437556   28.328335   47.478614
  C    -20.078122   27.115162   48.366711
  O    -20.223724   25.919329   47.502538
  H    -20.437275   25.612239   45.489169
  H    -19.260658   27.747280   45.722580
  H    -20.903344   28.296381   45.306379
  H    -19.776832   29.182489   47.653117
  H    -21.469839   28.643302   47.656464
  H    -20.738592   27.008043   49.231217
  H    -19.038183   27.132244   48.707315
  C    -23.465050   25.651095   44.265594
  H    -24.413896   25.164063   43.997822
  C    -23.077888   25.323287   45.710432
  C    -22.491544   23.906576   45.559196
  C    -21.790975   23.947536   44.176869
  O    -22.360876   25.113225   43.455977
  H    -23.528854   26.722410   44.072303
  O    -22.236609   26.350330   46.311152
  H    -23.959342   25.314570   46.359069
  H    -21.812846   23.653930   46.379086
  H    -23.314510   23.184500   45.559672
  H    -21.981462   23.043515   43.586721
  H    -20.708547   24.092243   44.243005

 Multiplicity           Mult            ....    1
 Number of Electrons    NEL             ....   86
 Basis Dimension        Dim             ....  127

ORBITAL ENERGIES
----------------

  NO   OCC          E(Eh)            E(eV)
   0   2.0000     -19.138651      -520.7892
   1   2.0000     -19.135329      -520.6988
   2   2.0000     -19.133526      -520.6497
   3   2.0000     -10.274338      -279.5790
   4   2.0000     -10.241221      -278.6778
   5   2.0000     -10.227904      -278.3154
   6   2.0000     -10.222230      -278.1610
   7   2.0000     -10.220251      -278.1072
   8   2.0000     -10.190534      -277.2985
   9   2.0000     -10.180148      -277.0159
  10   2.0000     -10.179135      -276.9884
  11   2.0000      -1.048488       -28.5308
  12   2.0000      -1.015526       -27.6339
  13   2.0000      -0.987089       -26.8601
  14   2.0000      -0.790072       -21.4989
  15   2.0000      -0.774159       -21.0659
  16   2.0000      -0.746274       -20.3071
  17   2.0000      -0.718355       -19.5474
  18   2.0000      -0.615545       -16.7498
  19   2.0000      -0.604594       -16.4518
  20   2.0000      -0.592563       -16.1245
  21   2.0000      -0.566934       -15.4271
  22   2.0000      -0.524541       -14.2735
  23   2.0000      -0.501978       -13.6595
  24   2.0000      -0.479800       -13.0560
  25   2.0000      -0.476453       -12.9649
  26   2.0000      -0.452308       -12.3079
  27   2.0000      -0.441561       -12.0155
  28   2.0000      -0.424831       -11.5602
  29   2.0000      -0.414880       -11.2895
  30   2.0000      -0.404324       -11.0022
  31   2.0000      -0.395287       -10.7563
  32   2.0000      -0.371110       -10.0984
  33   2.0000      -0.368132       -10.0174
  34   2.0000      -0.356197        -9.6926
  35   2.0000      -0.351076        -9.5533
  36   2.0000      -0.342589        -9.3223
  37   2.0000      -0.316535        -8.6134
  38   2.0000      -0.310715        -8.4550
  39   2.0000      -0.292736        -7.9657
  40   2.0000      -0.263772        -7.1776
  41   2.0000      -0.250447        -6.8150
  42   2.0000      -0.235372        -6.4048
  43   0.0000       0.074255         2.0206
  44   0.0000       0.098641         2.6842
  45   0.0000       0.102234         2.7819
  46   0.0000       0.108296         2.9469
  47   0.0000       0.112044         3.0489

MULLIKEN ATOMIC CHARGES
-----------------------
   0 C :    0.281027
   1 C :   -0.248383
   2 C :   -0.297007
   3 C :   -0.000599
   4 O :   -0.512587
   5 H :    0.152898
   6 H :    0.141284
   7 H :    0.152248
   8 H :    0.137457
   9 H :    0.161092
  10 H :    0.147037
  11 H :    0.139084
  12 C :   -0.006628
  13 H :    0.124216
  14 C :    0.090232
  15 C :   -0.326098
  16 C :   -0.023749
  17 O :   -0.525886
  18 H :    0.163756
  19 O :   -0.527967
  20 H :    0.149216
  21 H :    0.180268
  22 H :    0.153415
  23 H :    0.141246
  24 H :    0.154428
Sum of atomic charges:    0.0000000

LOEWDIN ATOMIC CHARGES
----------------------
   0 C :    0.172456
   1 C :   -0.213725
   2 C :   -0.216164
   3 C :   -0.027143
   4 O :   -0.328088
   5 H :    0.105428
   6 H :    0.111752
   7 H :    0.121441
   8 H :    0.112026
   9 H :    0.118662
  10 H :    0.105088
  11 H :    0.100703
  12 C :   -0.046604
  13 H :    0.092592
  14 C :    0.043938
  15 C :   -0.241681
  16 C :   -0.039565
  17 O :   -0.338193
  18 H :    0.119683
  19 O :   -0.323511
  20 H :    0.111934
  21 H :    0.134446
  22 H :    0.122048
  23 H :    0.101064
  24 H :    0.101412

  Mayer bond orders larger than 0.100000
B(  0-C ,  1-C ) :   0.9463 B(  0-C ,  4-O ) :   0.9099 B(  0-C ,  5-H ) :   0.9061
B(  0-C , 19-O ) :   0.8417 B(  1-C ,  2-C ) :   0.9572 B(  1-C ,  6-H ) :   0.9400
B(  1-C ,  7-H ) :   0.9380 B(  2-C ,  3-C ) :   0.9540 B(  2-C ,  8-H ) :   0.9459
B(  2-C ,  9-H ) :   0.9440 B(  3-C ,  4-O ) :   0.8390 B(  3-C , 10-H ) :   0.9356
B(  3-C , 11-H ) :   0.9402 B( 12-C , 13-H ) :   0.9130 B( 12-C , 14-C ) :   0.9125
B( 12-C , 17-O ) :   0.8614 B( 12-C , 18-H ) :   0.9331 B( 14-C , 15-C ) :   0.9365
B( 14-C , 19-O ) :   0.8715 B( 14-C , 20-H ) :   0.9346 B( 15-C , 16-C ) :   0.9446
B( 15-C , 21-H ) :   0.9275 B( 15-C , 22-H ) :   0.9371 B( 16-C , 17-O ) :   0.8554
B( 16-C , 23-H ) :   0.9329 B( 16-C , 24-H ) :   0.9237

FINAL SINGLE POINT ENERGY      -538.431018326880

DIPOLE MOMENT
-------------
                                X             Y             Z
Electronic contribution:     -0.74994      -1.11655      -0.78702
Nuclear contribution   :      0.57224       1.14624       1.09446
                        -----------------------------------------
Total Dipole Moment    :     -0.17770       0.02969       0.30744
                        -----------------------------------------
Magnitude (a.u.)       :      0.35634
Magnitude (Debye)      :      0.90574

Rotational constants in cm-1:     0.079770     0.022108     0.020951
Rotational constants in MHz :  2391.436339   662.792734   628.090151

                             ****ORCA TERMINATED NORMALLY****
TOTAL RUN TIME: 0 days 0 hours 8 minutes 26 seconds 750 msec
