                         Program Version 4.2.0 -  RELEASE  -
|  1> # Test redundant internal optimization
|  2> #
|  3> ! RKS B3LYP  Opt TightSCF SmallPrint
|  4>
|  5> %basis
|  6>         Basis "6-31G"
|  7> end
|  8>
|  9> %geom
| 10> Constraints
| 11> { D 4  0  15  12  75.0   C } # D for Dihedral angle
| 12> { D 0  15  12  16  105.0   C } # D for Dihedral angle
| 13> { D 0  4  3  2   C } # D for Dihedral angle
| 14> { D 4  3  2  1   C } # D for Dihedral angle
| 15> { D 3  2  1  0   C } # D for Dihedral angle
| 16> { D 2  1  0  4   C } # D for Dihedral angle
| 17> { D 1  0  4  3   C } # D for Dihedral angle
| 18> { D 16  20  19  18   C } # D for Dihedral angle
| 19> { D 20  19  18  17   C } # D for Dihedral angle
| 20> { D 19  18  17  16   C } # D for Dihedral angle
| 21> { D 18  17  16  20   C } # D for Dihedral angle
| 22> { D 17  16  20  19   C } # D for Dihedral angle
| 23> { D 15  12  16  20   C } # D for Dihedral angle
| 24> end
| 25> end
| 26>
| 27>
| 28> #%pal
| 29> #nprocs 8
| 30> #end
| 31>
| 32> * xyz 0 1
| 33> C  -21.048   26.222   46.251
| 34> C  -20.361   27.558   45.944
| 35> C  -20.329   28.222   47.341
| 36> C  -20.110   27.022   48.296
| 37> O  -20.473   25.807   47.535
| 38> H  -20.833   25.428   45.533
| 39> H  -19.344   27.382   45.576
| 40> H  -20.898   28.157   45.201
| 41> H  -19.543   28.978   47.434
| 42> H  -21.289   28.710   47.548
| 43> H  -20.733   27.082   49.195
| 44> H  -19.064   26.913   48.597
| 45> C  -23.049   27.675   47.122
| 46> H  -23.840   27.411   47.836
| 47> H  -22.215   28.116   47.682
| 48> O  -22.586   26.394   46.375
| 49> C  -23.602   28.764   46.161
| 50> C  -22.579   29.119   45.075
| 51> C  -22.750   27.941   44.086
| 52> C  -24.266   27.632   44.166
| 53> O  -24.757   28.252   45.416
| 54> H  -23.951   29.615   46.748
| 55> O  -22.965   30.462   44.399
| 56> H  -21.557   29.206   45.458
| 57> H  -22.428   28.189   43.070
| 58> H  -22.162   27.078   44.423
| 59> H  -24.475   26.557   44.192
| 60> H  -24.828   28.082   43.342
| 61> H  -23.986   30.397   44.007
| 62> *
| 63>
| 64>                          ****END OF INPUT****
 Total Charge           Charge          ....    0
 Multiplicity           Mult            ....    1
 Number of Electrons    NEL             ....  102
FINAL SINGLE POINT ENERGY      -652.745964005800
FINAL SINGLE POINT ENERGY      -652.817463327471
FINAL SINGLE POINT ENERGY      -652.839411346867
FINAL SINGLE POINT ENERGY      -652.845266889484
FINAL SINGLE POINT ENERGY      -652.846527455968
FINAL SINGLE POINT ENERGY      -652.846856637397
FINAL SINGLE POINT ENERGY      -652.846952348432
FINAL SINGLE POINT ENERGY      -652.846980119966
FINAL SINGLE POINT ENERGY      -652.846985653468
FINAL SINGLE POINT ENERGY      -652.846978699920
                    ***********************HURRAY********************

CARTESIAN COORDINATES (ANGSTROEM)
---------------------------------
  C    -21.132482   26.200991   46.559909
  C    -20.149906   27.250887   46.013006
  C    -19.886425   28.145551   47.269136
  C    -19.929947   27.103652   48.417241
  O    -20.615546   25.913062   47.878161
  H    -21.085206   25.261408   46.008180
  H    -19.232407   26.723030   45.731725
  H    -20.499935   27.808848   45.149287
  H    -18.919455   28.654770   47.216338
  H    -20.656613   28.913719   47.381059
  H    -20.470558   27.458005   49.300366
  H    -18.927523   26.787561   48.720660
  C    -23.202881   27.639750   47.089364
  H    -24.060518   27.270366   47.659521
  H    -22.550190   28.176802   47.788334
  O    -22.568959   26.424878   46.587976
  C    -23.773309   28.630677   46.062127
  C    -22.849367   29.309285   45.037097
  C    -22.796127   28.248666   43.897443
  C    -24.228416   27.652573   43.930707
  O    -24.806721   28.006950   45.239330
  H    -24.274801   29.405605   46.657048
  O    -23.433860   30.560503   44.580852
  H    -21.871049   29.583235   45.430556
  H    -22.549338   28.719539   42.942190
  H    -22.066970   27.470824   44.114920
  H    -24.226644   26.563598   43.831267
  H    -24.880149   28.079155   43.161061
  H    -24.375696   30.407113   44.354141

 Multiplicity           Mult            ....    1
 Number of Electrons    NEL             ....  102
 Basis Dimension        Dim             ....  149

ORBITAL ENERGIES
----------------

  NO   OCC          E(Eh)            E(eV)
   0   2.0000     -19.147399      -521.0272
   1   2.0000     -19.144044      -520.9359
   2   2.0000     -19.142168      -520.8849
   3   2.0000     -19.142037      -520.8813
   4   2.0000     -10.284739      -279.8620
   5   2.0000     -10.246090      -278.8103
   6   2.0000     -10.238551      -278.6051
   7   2.0000     -10.234676      -278.4997
   8   2.0000     -10.233154      -278.4583
   9   2.0000     -10.228464      -278.3307
  10   2.0000     -10.200298      -277.5642
  11   2.0000     -10.199152      -277.5330
  12   2.0000     -10.188055      -277.2311
  13   2.0000      -1.054568       -28.6963
  14   2.0000      -1.039885       -28.2967
  15   2.0000      -1.009725       -27.4760
  16   2.0000      -0.995661       -27.0933
  17   2.0000      -0.795014       -21.6334
  18   2.0000      -0.781925       -21.2773
  19   2.0000      -0.774188       -21.0667
  20   2.0000      -0.740568       -20.1519
  21   2.0000      -0.682407       -18.5692
  22   2.0000      -0.614319       -16.7165
  23   2.0000      -0.610862       -16.6224
  24   2.0000      -0.604472       -16.4485
  25   2.0000      -0.569361       -15.4931
  26   2.0000      -0.522152       -14.2085
  27   2.0000      -0.521448       -14.1893
  28   2.0000      -0.508739       -13.8435
  29   2.0000      -0.494939       -13.4680
  30   2.0000      -0.471087       -12.8189
  31   2.0000      -0.458610       -12.4794
  32   2.0000      -0.454542       -12.3687
  33   2.0000      -0.437848       -11.9145
  34   2.0000      -0.433661       -11.8005
  35   2.0000      -0.424892       -11.5619
  36   2.0000      -0.410661       -11.1746
  37   2.0000      -0.394299       -10.7294
  38   2.0000      -0.386697       -10.5226
  39   2.0000      -0.377537       -10.2733
  40   2.0000      -0.371438       -10.1073
  41   2.0000      -0.358873        -9.7654
  42   2.0000      -0.350970        -9.5504
  43   2.0000      -0.334319        -9.0973
  44   2.0000      -0.317446        -8.6381
  45   2.0000      -0.308316        -8.3897
  46   2.0000      -0.304193        -8.2775
  47   2.0000      -0.276376        -7.5206
  48   2.0000      -0.271784        -7.3956
  49   2.0000      -0.259126        -7.0512
  50   2.0000      -0.240055        -6.5322
  51   0.0000       0.059922         1.6306
  52   0.0000       0.069960         1.9037
  53   0.0000       0.085092         2.3155
  54   0.0000       0.096076         2.6144
  55   0.0000       0.106371         2.8945

MULLIKEN ATOMIC CHARGES
-----------------------
   0 C :    0.305842
   1 C :   -0.293331
   2 C :   -0.319573
   3 C :   -0.007514
   4 O :   -0.501127
   5 H :    0.166141
   6 H :    0.160932
   7 H :    0.148787
   8 H :    0.149054
   9 H :    0.150981
  10 H :    0.145931
  11 H :    0.148169
  12 C :   -0.010225
  13 H :    0.174547
  14 H :    0.121833
  15 O :   -0.518122
  16 C :    0.072665
  17 C :    0.065810
  18 C :   -0.292475
  19 C :   -0.025227
  20 O :   -0.521336
  21 H :    0.153871
  22 O :   -0.603251
  23 H :    0.148300
  24 H :    0.154101
  25 H :    0.159236
  26 H :    0.159825
  27 H :    0.140085
  28 H :    0.366070
Sum of atomic charges:    0.0000000

LOEWDIN ATOMIC CHARGES
----------------------
   0 C :    0.175373
   1 C :   -0.234716
   2 C :   -0.224547
   3 C :   -0.033621
   4 O :   -0.316503
   5 H :    0.113589
   6 H :    0.125388
   7 H :    0.117589
   8 H :    0.117957
   9 H :    0.106217
  10 H :    0.102677
  11 H :    0.105145
  12 C :   -0.041124
  13 H :    0.125798
  14 H :    0.095857
  15 O :   -0.319917
  16 C :    0.007290
  17 C :    0.033502
  18 C :   -0.242505
  19 C :   -0.034285
  20 O :   -0.326552
  21 H :    0.116157
  22 O :   -0.413884
  23 H :    0.111154
  24 H :    0.122081
  25 H :    0.118867
  26 H :    0.111375
  27 H :    0.097761
  28 H :    0.283877

  Mayer bond orders larger than 0.100000
B(  0-C ,  1-C ) :   0.9131 B(  0-C ,  4-O ) :   0.8989 B(  0-C ,  5-H ) :   0.9352
B(  0-C , 15-O ) :   0.8981 B(  1-C ,  2-C ) :   0.9539 B(  1-C ,  6-H ) :   0.9315
B(  1-C ,  7-H ) :   0.9169 B(  2-C ,  3-C ) :   0.9417 B(  2-C ,  8-H ) :   0.9450
B(  2-C ,  9-H ) :   0.9354 B(  3-C ,  4-O ) :   0.8476 B(  3-C , 10-H ) :   0.9335
B(  3-C , 11-H ) :   0.9379 B( 12-C , 13-H ) :   0.9286 B( 12-C , 14-H ) :   0.9057
B( 12-C , 15-O ) :   0.8607 B( 12-C , 16-C ) :   0.8878 B( 16-C , 17-C ) :   0.9077
B( 16-C , 20-O ) :   0.8662 B( 16-C , 21-H ) :   0.9149 B( 17-C , 18-C ) :   0.9181
B( 17-C , 22-O ) :   0.8842 B( 17-C , 23-H ) :   0.9258 B( 18-C , 19-C ) :   0.9376
B( 18-C , 24-H ) :   0.9383 B( 18-C , 25-H ) :   0.9141 B( 19-C , 20-O ) :   0.8434
B( 19-C , 26-H ) :   0.9328 B( 19-C , 27-H ) :   0.9363 B( 22-O , 28-H ) :   0.7933

FINAL SINGLE POINT ENERGY      -652.846976150914

DIPOLE MOMENT
-------------
                                X             Y             Z
Electronic contribution:     -4.53381      -1.97525       0.78517
Nuclear contribution   :      5.44765       2.51989      -1.10245
                        -----------------------------------------
Total Dipole Moment    :      0.91384       0.54464      -0.31729
                        -----------------------------------------
Magnitude (a.u.)       :      1.11014
Magnitude (Debye)      :      2.82176

Rotational constants in cm-1:     0.049352     0.016571     0.015296
Rotational constants in MHz :  1479.540860   496.783328   458.565358

                             ****ORCA TERMINATED NORMALLY****
TOTAL RUN TIME: 0 days 1 hours 23 minutes 54 seconds 667 msec
