                         Program Version 4.2.0 -  RELEASE  -
|  1> # Test redundant internal optimization
|  2> #
|  3> ! RKS B3LYP  Opt TightSCF SmallPrint
|  4>
|  5> %basis
|  6>         Basis "6-31G"
|  7> end
|  8>
|  9> %geom
| 10> Constraints
| 11> { D 4  0  15  12  300.0   C } # D for Dihedral angle
| 12> { D 0  15  12  16  165.0   C } # D for Dihedral angle
| 13> { D 0  4  3  2   C } # D for Dihedral angle
| 14> { D 4  3  2  1   C } # D for Dihedral angle
| 15> { D 3  2  1  0   C } # D for Dihedral angle
| 16> { D 2  1  0  4   C } # D for Dihedral angle
| 17> { D 1  0  4  3   C } # D for Dihedral angle
| 18> { D 16  20  19  18   C } # D for Dihedral angle
| 19> { D 20  19  18  17   C } # D for Dihedral angle
| 20> { D 19  18  17  16   C } # D for Dihedral angle
| 21> { D 18  17  16  20   C } # D for Dihedral angle
| 22> { D 17  16  20  19   C } # D for Dihedral angle
| 23> { D 15  12  16  20   C } # D for Dihedral angle
| 24> end
| 25> end
| 26>
| 27>
| 28> #%pal
| 29> #nprocs 8
| 30> #end
| 31>
| 32> * xyz 0 1
| 33> C  -21.048   26.222   46.251
| 34> C  -20.361   27.558   45.944
| 35> C  -20.329   28.222   47.341
| 36> C  -20.110   27.022   48.296
| 37> O  -20.473   25.807   47.535
| 38> H  -20.833   25.428   45.533
| 39> H  -19.344   27.382   45.576
| 40> H  -20.898   28.157   45.201
| 41> H  -19.543   28.978   47.434
| 42> H  -21.289   28.710   47.548
| 43> H  -20.733   27.082   49.195
| 44> H  -19.064   26.913   48.597
| 45> C  -23.362   25.116   46.798
| 46> H  -23.410   24.424   45.948
| 47> H  -22.846   24.609   47.623
| 48> O  -22.586   26.394   46.375
| 49> C  -24.812   25.421   47.263
| 50> C  -24.829   26.455   48.395
| 51> C  -24.638   27.777   47.614
| 52> C  -25.407   27.521   46.294
| 53> O  -25.575   26.055   46.183
| 54> H  -25.316   24.482   47.501
| 55> H  -25.800   26.442   48.901
| 56> O  -23.720   26.216   49.456
| 57> H  -25.018   28.649   48.156
| 58> H  -23.573   27.945   47.414
| 59> H  -24.867   27.889   45.415
| 60> H  -26.409   27.959   46.303
| 61> H  -22.738   26.225   48.970
| 62> *
| 63>
| 64>                          ****END OF INPUT****
 Total Charge           Charge          ....    0
 Multiplicity           Mult            ....    1
 Number of Electrons    NEL             ....  102
FINAL SINGLE POINT ENERGY      -652.838630666138
FINAL SINGLE POINT ENERGY      -652.862684374375
FINAL SINGLE POINT ENERGY      -652.866667526882
FINAL SINGLE POINT ENERGY      -652.868027100502
FINAL SINGLE POINT ENERGY      -652.868145739664
FINAL SINGLE POINT ENERGY      -652.868171342084
FINAL SINGLE POINT ENERGY      -652.868172527503
                    ***********************HURRAY********************

CARTESIAN COORDINATES (ANGSTROEM)
---------------------------------
  C    -21.074604   26.152459   46.266685
  C    -20.410133   27.489873   45.934488
  C    -20.370040   28.173164   47.320225
  C    -20.124904   26.995779   48.290550
  O    -20.487294   25.763915   47.535546
  H    -20.850628   25.332622   45.575682
  H    -19.399923   27.302058   45.555950
  H    -20.972845   28.054749   45.188561
  H    -19.584804   28.932257   47.391267
  H    -21.328641   28.659030   47.526455
  H    -20.729187   27.052843   49.201038
  H    -19.074076   26.887890   48.572299
  C    -23.235582   25.142491   46.773469
  H    -23.274746   24.440836   45.929199
  H    -22.710013   24.661779   47.606878
  O    -22.501075   26.341069   46.352988
  C    -24.657382   25.486022   47.198573
  C    -24.780617   26.466250   48.378548
  C    -24.696006   27.847491   47.659281
  C    -25.421884   27.577978   46.323533
  O    -25.455195   26.102280   46.147604
  H    -25.145995   24.531736   47.431473
  H    -25.749087   26.339311   48.866720
  O    -23.808375   26.264972   49.431482
  H    -25.167386   28.643023   48.243597
  H    -23.647012   28.094865   47.487959
  H    -24.905362   28.019048   45.466638
  H    -26.461911   27.917818   46.333902
  H    -22.906295   26.386392   49.069411

 Multiplicity           Mult            ....    1
 Number of Electrons    NEL             ....  102
 Basis Dimension        Dim             ....  149

ORBITAL ENERGIES
----------------

  NO   OCC          E(Eh)            E(eV)
   0   2.0000     -19.155389      -521.2446
   1   2.0000     -19.154745      -521.2271
   2   2.0000     -19.138281      -520.7791
   3   2.0000     -19.131220      -520.5870
   4   2.0000     -10.287500      -279.9371
   5   2.0000     -10.238798      -278.6119
   6   2.0000     -10.235053      -278.5100
   7   2.0000     -10.230117      -278.3756
   8   2.0000     -10.228633      -278.3352
   9   2.0000     -10.219617      -278.0899
  10   2.0000     -10.197132      -277.4781
  11   2.0000     -10.195298      -277.4282
  12   2.0000     -10.177149      -276.9343
  13   2.0000      -1.065718       -28.9997
  14   2.0000      -1.025716       -27.9112
  15   2.0000      -1.008664       -27.4471
  16   2.0000      -1.001000       -27.2386
  17   2.0000      -0.799125       -21.7453
  18   2.0000      -0.772502       -21.0208
  19   2.0000      -0.765028       -20.8175
  20   2.0000      -0.737402       -20.0657
  21   2.0000      -0.677328       -18.4310
  22   2.0000      -0.610693       -16.6178
  23   2.0000      -0.600234       -16.3332
  24   2.0000      -0.597576       -16.2609
  25   2.0000      -0.573385       -15.6026
  26   2.0000      -0.526267       -14.3205
  27   2.0000      -0.513633       -13.9767
  28   2.0000      -0.505680       -13.7603
  29   2.0000      -0.489950       -13.3322
  30   2.0000      -0.472391       -12.8544
  31   2.0000      -0.466723       -12.7002
  32   2.0000      -0.440417       -11.9844
  33   2.0000      -0.428374       -11.6566
  34   2.0000      -0.418557       -11.3895
  35   2.0000      -0.418082       -11.3766
  36   2.0000      -0.405188       -11.0257
  37   2.0000      -0.400016       -10.8850
  38   2.0000      -0.383599       -10.4383
  39   2.0000      -0.369439       -10.0529
  40   2.0000      -0.368314       -10.0223
  41   2.0000      -0.356117        -9.6904
  42   2.0000      -0.348040        -9.4706
  43   2.0000      -0.344487        -9.3740
  44   2.0000      -0.324821        -8.8388
  45   2.0000      -0.307917        -8.3788
  46   2.0000      -0.303225        -8.2512
  47   2.0000      -0.275837        -7.5059
  48   2.0000      -0.266807        -7.2602
  49   2.0000      -0.260128        -7.0784
  50   2.0000      -0.237817        -6.4713
  51   0.0000       0.047944         1.3046
  52   0.0000       0.083033         2.2594
  53   0.0000       0.088186         2.3997
  54   0.0000       0.095716         2.6046
  55   0.0000       0.101222         2.7544

MULLIKEN ATOMIC CHARGES
-----------------------
   0 C :    0.291300
   1 C :   -0.264054
   2 C :   -0.305887
   3 C :   -0.020083
   4 O :   -0.514825
   5 H :    0.150347
   6 H :    0.151920
   7 H :    0.162173
   8 H :    0.149413
   9 H :    0.161143
  10 H :    0.142803
  11 H :    0.154276
  12 C :   -0.028118
  13 H :    0.150531
  14 H :    0.159597
  15 O :   -0.531531
  16 C :    0.082452
  17 C :    0.085865
  18 C :   -0.317640
  19 C :    0.000264
  20 O :   -0.520472
  21 H :    0.150904
  22 H :    0.160968
  23 O :   -0.615483
  24 H :    0.140593
  25 H :    0.167201
  26 H :    0.144689
  27 H :    0.140005
  28 H :    0.371649
Sum of atomic charges:   -0.0000000

LOEWDIN ATOMIC CHARGES
----------------------
   0 C :    0.171795
   1 C :   -0.212780
   2 C :   -0.217408
   3 C :   -0.032711
   4 O :   -0.331033
   5 H :    0.098928
   6 H :    0.118355
   7 H :    0.127173
   8 H :    0.117792
   9 H :    0.114658
  10 H :    0.099491
  11 H :    0.108942
  12 C :   -0.054966
  13 H :    0.107720
  14 H :    0.111889
  15 O :   -0.331425
  16 C :    0.018472
  17 C :    0.039690
  18 C :   -0.244112
  19 C :   -0.023751
  20 O :   -0.323369
  21 H :    0.115777
  22 H :    0.116110
  23 O :   -0.410888
  24 H :    0.113768
  25 H :    0.117588
  26 H :    0.104745
  27 H :    0.100387
  28 H :    0.279164

  Mayer bond orders larger than 0.100000
B(  0-C ,  1-C ) :   0.9479 B(  0-C ,  4-O ) :   0.8913 B(  0-C ,  5-H ) :   0.9187
B(  0-C , 15-O ) :   0.8636 B(  1-C ,  2-C ) :   0.9538 B(  1-C ,  6-H ) :   0.9389
B(  1-C ,  7-H ) :   0.9351 B(  2-C ,  3-C ) :   0.9532 B(  2-C ,  8-H ) :   0.9440
B(  2-C ,  9-H ) :   0.9387 B(  3-C ,  4-O ) :   0.8361 B(  3-C , 10-H ) :   0.9283
B(  3-C , 11-H ) :   0.9397 B( 12-C , 13-H ) :   0.9229 B( 12-C , 14-H ) :   0.8948
B( 12-C , 15-O ) :   0.8161 B( 12-C , 16-C ) :   0.9194 B( 16-C , 17-C ) :   0.8906
B( 16-C , 20-O ) :   0.8793 B( 16-C , 21-H ) :   0.9266 B( 17-C , 18-C ) :   0.9263
B( 17-C , 22-H ) :   0.9366 B( 17-C , 23-O ) :   0.9047 B( 18-C , 19-C ) :   0.9455
B( 18-C , 24-H ) :   0.9424 B( 18-C , 25-H ) :   0.9220 B( 19-C , 20-O ) :   0.8363
B( 19-C , 26-H ) :   0.9330 B( 19-C , 27-H ) :   0.9384 B( 23-O , 28-H ) :   0.7744

FINAL SINGLE POINT ENERGY      -652.868171116720

DIPOLE MOMENT
-------------
                                X             Y             Z
Electronic contribution:     -2.46475      -4.56349      -0.27769
Nuclear contribution   :      3.39941       5.43350      -0.00395
                        -----------------------------------------
Total Dipole Moment    :      0.93465       0.87001      -0.28163
                        -----------------------------------------
Magnitude (a.u.)       :      1.30760
Magnitude (Debye)      :      3.32365

Rotational constants in cm-1:     0.044479     0.017707     0.016841
Rotational constants in MHz :  1333.454630   530.828279   504.891348

                             ****ORCA TERMINATED NORMALLY****
TOTAL RUN TIME: 0 days 0 hours 21 minutes 43 seconds 844 msec
