                         Program Version 4.2.0 -  RELEASE  -
|  1> # Test redundant internal optimization
|  2> #
|  3> ! RKS B3LYP  Opt TightSCF SmallPrint
|  4>
|  5> %basis
|  6>         Basis "6-31G"
|  7> end
|  8>
|  9> %geom
| 10> Constraints
| 11> { D 4  0  15  12  315.0   C } # D for Dihedral angle
| 12> { D 0  15  12  16  135.0   C } # D for Dihedral angle
| 13> { D 0  4  3  2   C } # D for Dihedral angle
| 14> { D 4  3  2  1   C } # D for Dihedral angle
| 15> { D 3  2  1  0   C } # D for Dihedral angle
| 16> { D 2  1  0  4   C } # D for Dihedral angle
| 17> { D 1  0  4  3   C } # D for Dihedral angle
| 18> { D 16  20  19  18   C } # D for Dihedral angle
| 19> { D 20  19  18  17   C } # D for Dihedral angle
| 20> { D 19  18  17  16   C } # D for Dihedral angle
| 21> { D 18  17  16  20   C } # D for Dihedral angle
| 22> { D 17  16  20  19   C } # D for Dihedral angle
| 23> { D 15  12  16  20   C } # D for Dihedral angle
| 24> end
| 25> end
| 26>
| 27>
| 28> #%pal
| 29> #nprocs 8
| 30> #end
| 31>
| 32> * xyz 0 1
| 33> C  -21.048   26.222   46.251
| 34> C  -20.361   27.558   45.944
| 35> C  -20.329   28.222   47.341
| 36> C  -20.110   27.022   48.296
| 37> O  -20.473   25.807   47.535
| 38> H  -20.833   25.428   45.533
| 39> H  -19.344   27.382   45.576
| 40> H  -20.898   28.157   45.201
| 41> H  -19.543   28.978   47.434
| 42> H  -21.289   28.710   47.548
| 43> H  -20.733   27.082   49.195
| 44> H  -19.064   26.913   48.597
| 45> C  -23.319   25.255   47.135
| 46> H  -23.841   24.615   46.412
| 47> H  -22.599   24.634   47.684
| 48> O  -22.586   26.394   46.375
| 49> C  -24.360   25.788   48.157
| 50> C  -25.503   26.527   47.453
| 51> C  -26.373   25.352   46.947
| 52> C  -26.221   24.294   48.069
| 53> O  -25.021   24.673   48.844
| 54> H  -23.845   26.374   48.921
| 55> H  -26.059   27.136   48.176
| 56> O  -25.015   27.454   46.306
| 57> H  -27.416   25.637   46.780
| 58> H  -25.974   24.970   45.999
| 59> H  -26.089   23.281   47.675
| 60> H  -27.067   24.296   48.761
| 61> H  -24.456   26.865   45.570
| 62> *
| 63>
| 64>                          ****END OF INPUT****
 Total Charge           Charge          ....    0
 Multiplicity           Mult            ....    1
 Number of Electrons    NEL             ....  102
FINAL SINGLE POINT ENERGY      -652.836413540080
FINAL SINGLE POINT ENERGY      -652.860805635515
FINAL SINGLE POINT ENERGY      -652.866973685072
FINAL SINGLE POINT ENERGY      -652.869164633189
FINAL SINGLE POINT ENERGY      -652.870367212289
FINAL SINGLE POINT ENERGY      -652.870959936038
FINAL SINGLE POINT ENERGY      -652.871156389073
FINAL SINGLE POINT ENERGY      -652.871202453639
FINAL SINGLE POINT ENERGY      -652.871205686894
                    ***********************HURRAY********************

CARTESIAN COORDINATES (ANGSTROEM)
---------------------------------
  C    -21.080012   26.124769   46.269625
  C    -20.558215   27.526439   45.959786
  C    -20.570779   28.183280   47.357620
  C    -20.197865   27.020766   48.300877
  O    -20.446747   25.774282   47.515848
  H    -20.813863   25.338289   45.558145
  H    -19.539122   27.447462   45.565303
  H    -21.179737   28.051442   45.231026
  H    -19.868644   29.018830   47.433328
  H    -21.574646   28.556961   47.579125
  H    -20.800958   26.987178   49.211113
  H    -19.137863   27.006299   48.567693
  C    -23.214828   25.128609   47.117479
  H    -23.694721   24.464011   46.389336
  H    -22.490664   24.562979   47.707734
  O    -22.528426   26.206124   46.386268
  C    -24.240234   25.773893   48.054723
  C    -25.363261   26.555780   47.353334
  C    -26.317708   25.409111   46.910347
  C    -26.194783   24.387209   48.058480
  O    -24.939712   24.726333   48.795709
  H    -23.712281   26.385095   48.792321
  H    -25.871457   27.180807   48.096770
  O    -24.954290   27.423359   46.277853
  H    -27.340710   25.765754   46.766046
  H    -25.965387   25.003476   45.956144
  H    -26.128050   23.351188   47.712677
  H    -27.010738   24.465340   48.783335
  H    -24.033300   27.200935   46.006956

 Multiplicity           Mult            ....    1
 Number of Electrons    NEL             ....  102
 Basis Dimension        Dim             ....  149

ORBITAL ENERGIES
----------------

  NO   OCC          E(Eh)            E(eV)
   0   2.0000     -19.162398      -521.4354
   1   2.0000     -19.156588      -521.2773
   2   2.0000     -19.138221      -520.7775
   3   2.0000     -19.112882      -520.0879
   4   2.0000     -10.292383      -280.0700
   5   2.0000     -10.236365      -278.5457
   6   2.0000     -10.231298      -278.4078
   7   2.0000     -10.231134      -278.4033
   8   2.0000     -10.228485      -278.3312
   9   2.0000     -10.224711      -278.2285
  10   2.0000     -10.195728      -277.4399
  11   2.0000     -10.194292      -277.4008
  12   2.0000     -10.176961      -276.9292
  13   2.0000      -1.067738       -29.0546
  14   2.0000      -1.023465       -27.8499
  15   2.0000      -1.005977       -27.3740
  16   2.0000      -0.991161       -26.9709
  17   2.0000      -0.799479       -21.7549
  18   2.0000      -0.771903       -21.0046
  19   2.0000      -0.766276       -20.8514
  20   2.0000      -0.736051       -20.0290
  21   2.0000      -0.676667       -18.4131
  22   2.0000      -0.609543       -16.5865
  23   2.0000      -0.598052       -16.2738
  24   2.0000      -0.593146       -16.1403
  25   2.0000      -0.579124       -15.7588
  26   2.0000      -0.530516       -14.4361
  27   2.0000      -0.517021       -14.0689
  28   2.0000      -0.503530       -13.7018
  29   2.0000      -0.484579       -13.1861
  30   2.0000      -0.476137       -12.9564
  31   2.0000      -0.461124       -12.5478
  32   2.0000      -0.442325       -12.0363
  33   2.0000      -0.426779       -11.6133
  34   2.0000      -0.423445       -11.5225
  35   2.0000      -0.419293       -11.4095
  36   2.0000      -0.410222       -11.1627
  37   2.0000      -0.386114       -10.5067
  38   2.0000      -0.381802       -10.3894
  39   2.0000      -0.368574       -10.0294
  40   2.0000      -0.365275        -9.9396
  41   2.0000      -0.360064        -9.7978
  42   2.0000      -0.352617        -9.5952
  43   2.0000      -0.344290        -9.3686
  44   2.0000      -0.327113        -8.9012
  45   2.0000      -0.312438        -8.5019
  46   2.0000      -0.284157        -7.7323
  47   2.0000      -0.282523        -7.6878
  48   2.0000      -0.270179        -7.3519
  49   2.0000      -0.248141        -6.7523
  50   2.0000      -0.239767        -6.5244
  51   0.0000       0.059348         1.6149
  52   0.0000       0.076969         2.0944
  53   0.0000       0.093514         2.5447
  54   0.0000       0.096073         2.6143
  55   0.0000       0.102637         2.7929

MULLIKEN ATOMIC CHARGES
-----------------------
   0 C :    0.303817
   1 C :   -0.267710
   2 C :   -0.301716
   3 C :   -0.014705
   4 O :   -0.509016
   5 H :    0.156479
   6 H :    0.152026
   7 H :    0.162453
   8 H :    0.148391
   9 H :    0.165787
  10 H :    0.154544
  11 H :    0.152436
  12 C :   -0.031170
  13 H :    0.143575
  14 H :    0.188881
  15 O :   -0.572258
  16 C :    0.061153
  17 C :    0.118013
  18 C :   -0.296536
  19 C :   -0.022299
  20 O :   -0.522783
  21 H :    0.150398
  22 H :    0.145076
  23 O :   -0.644016
  24 H :    0.149366
  25 H :    0.143555
  26 H :    0.142103
  27 H :    0.149170
  28 H :    0.394987
Sum of atomic charges:   -0.0000000

LOEWDIN ATOMIC CHARGES
----------------------
   0 C :    0.180140
   1 C :   -0.214839
   2 C :   -0.216688
   3 C :   -0.028900
   4 O :   -0.320546
   5 H :    0.102870
   6 H :    0.118000
   7 H :    0.126243
   8 H :    0.117905
   9 H :    0.120165
  10 H :    0.108415
  11 H :    0.108225
  12 C :   -0.050667
  13 H :    0.101562
  14 H :    0.128664
  15 O :   -0.348102
  16 C :    0.017602
  17 C :    0.040663
  18 C :   -0.235423
  19 C :   -0.032776
  20 O :   -0.325149
  21 H :    0.110406
  22 H :    0.103958
  23 O :   -0.436618
  24 H :    0.120518
  25 H :    0.110628
  26 H :    0.101953
  27 H :    0.105699
  28 H :    0.286094

  Mayer bond orders larger than 0.100000
B(  0-C ,  1-C ) :   0.9496 B(  0-C ,  4-O ) :   0.9192 B(  0-C ,  5-H ) :   0.9230
B(  0-C , 15-O ) :   0.8125 B(  1-C ,  2-C ) :   0.9526 B(  1-C ,  6-H ) :   0.9380
B(  1-C ,  7-H ) :   0.9349 B(  2-C ,  3-C ) :   0.9550 B(  2-C ,  8-H ) :   0.9441
B(  2-C ,  9-H ) :   0.9426 B(  3-C ,  4-O ) :   0.8237 B(  3-C , 10-H ) :   0.9342
B(  3-C , 11-H ) :   0.9398 B( 12-C , 13-H ) :   0.9285 B( 12-C , 14-H ) :   0.9126
B( 12-C , 15-O ) :   0.7753 B( 12-C , 16-C ) :   0.9017 B( 16-C , 17-C ) :   0.9127
B( 16-C , 20-O ) :   0.8533 B( 16-C , 21-H ) :   0.9309 B( 17-C , 18-C ) :   0.9015
B( 17-C , 22-H ) :   0.9318 B( 17-C , 23-O ) :   0.9323 B( 18-C , 19-C ) :   0.9377
B( 18-C , 24-H ) :   0.9449 B( 18-C , 25-H ) :   0.9442 B( 19-C , 20-O ) :   0.8349
B( 19-C , 26-H ) :   0.9344 B( 19-C , 27-H ) :   0.9385 B( 23-O , 28-H ) :   0.7240

FINAL SINGLE POINT ENERGY      -652.871206722029

DIPOLE MOMENT
-------------
                                X             Y             Z
Electronic contribution:     -0.07727      -1.78803       0.40289
Nuclear contribution   :      0.81341       1.91022      -0.64771
                        -----------------------------------------
Total Dipole Moment    :      0.73614       0.12219      -0.24483
                        -----------------------------------------
Magnitude (a.u.)       :      0.78535
Magnitude (Debye)      :      1.99620

Rotational constants in cm-1:     0.054685     0.014639     0.013316
Rotational constants in MHz :  1639.400816   438.852383   399.192389

                             ****ORCA TERMINATED NORMALLY****
TOTAL RUN TIME: 0 days 0 hours 39 minutes 3 seconds 581 msec
