                         Program Version 4.2.0 -  RELEASE  -
|  1> # Test redundant internal optimization
|  2> #
|  3> ! RKS B3LYP  Opt TightSCF SmallPrint
|  4>
|  5> %basis
|  6>         Basis "6-31G"
|  7> end
|  8>
|  9> %geom
| 10> Constraints
| 11> { D 4  0  15  12  135.0   C } # D for Dihedral angle
| 12> { D 0  15  12  16  255.0   C } # D for Dihedral angle
| 13> { D 0  4  3  2   C } # D for Dihedral angle
| 14> { D 4  3  2  1   C } # D for Dihedral angle
| 15> { D 3  2  1  0   C } # D for Dihedral angle
| 16> { D 2  1  0  4   C } # D for Dihedral angle
| 17> { D 1  0  4  3   C } # D for Dihedral angle
| 18> { D 16  20  19  18   C } # D for Dihedral angle
| 19> { D 20  19  18  17   C } # D for Dihedral angle
| 20> { D 19  18  17  16   C } # D for Dihedral angle
| 21> { D 18  17  16  20   C } # D for Dihedral angle
| 22> { D 17  16  20  19   C } # D for Dihedral angle
| 23> { D 15  12  16  20   C } # D for Dihedral angle
| 24> end
| 25> end
| 26>
| 27>
| 28> #%pal
| 29> #nprocs 8
| 30> #end
| 31>
| 32> * xyz 0 1
| 33> C  -21.048   26.222   46.251
| 34> C  -20.361   27.558   45.944
| 35> C  -20.329   28.222   47.341
| 36> C  -20.110   27.022   48.296
| 37> O  -20.473   25.807   47.535
| 38> H  -20.833   25.428   45.533
| 39> H  -19.344   27.382   45.576
| 40> H  -20.898   28.157   45.201
| 41> H  -19.543   28.978   47.434
| 42> H  -21.289   28.710   47.548
| 43> H  -20.733   27.082   49.195
| 44> H  -19.064   26.913   48.597
| 45> C  -23.162   27.680   45.721
| 46> H  -22.412   28.109   45.044
| 47> H  -24.058   27.443   45.133
| 48> O  -22.586   26.394   46.375
| 49> C  -23.553   28.762   46.765
| 50> C  -24.223   29.966   46.094
| 51> C  -25.661   29.441   45.870
| 52> C  -25.906   28.548   47.112
| 53> O  -24.575   28.244   47.680
| 54> H  -22.678   29.009   47.369
| 55> O  -24.227   31.181   47.062
| 56> H  -23.731   30.268   45.163
| 57> H  -26.398   30.246   45.783
| 58> H  -25.705   28.845   44.951
| 59> H  -26.411   27.609   46.860
| 60> H  -26.480   29.061   47.889
| 61> H  -24.715   30.901   48.002
| 62> *
| 63>
| 64>                          ****END OF INPUT****
 Total Charge           Charge          ....    0
 Multiplicity           Mult            ....    1
 Number of Electrons    NEL             ....  102
FINAL SINGLE POINT ENERGY      -652.806799640472
FINAL SINGLE POINT ENERGY      -652.831759514305
FINAL SINGLE POINT ENERGY      -652.844460974933
FINAL SINGLE POINT ENERGY      -652.846771084781
FINAL SINGLE POINT ENERGY      -652.847177695511
FINAL SINGLE POINT ENERGY      -652.847217457740
FINAL SINGLE POINT ENERGY      -652.847223913784
                    ***********************HURRAY********************

CARTESIAN COORDINATES (ANGSTROEM)
---------------------------------
  C    -21.104584   26.340010   46.262045
  C    -20.148737   27.497481   45.958498
  C    -20.052475   28.211492   47.336407
  C    -20.130487   27.028518   48.329442
  O    -20.695285   25.891536   47.563835
  H    -20.966720   25.478742   45.603289
  H    -19.180834   27.066820   45.681737
  H    -20.463648   28.158678   45.146776
  H    -19.122386   28.778617   47.441596
  H    -20.881918   28.907700   47.478385
  H    -20.776132   27.230706   49.188055
  H    -19.145533   26.711435   48.683566
  C    -23.173827   27.765520   45.683090
  H    -22.514679   28.273425   44.964143
  H    -24.034838   27.378803   45.127379
  O    -22.540688   26.598297   46.261974
  C    -23.649116   28.782342   46.726417
  C    -24.375075   29.986325   46.108021
  C    -25.807123   29.422342   45.902648
  C    -25.989240   28.486161   47.124087
  O    -24.630901   28.208048   47.648398
  H    -22.811829   29.112737   47.343864
  O    -24.366488   31.118483   47.021311
  H    -23.920718   30.358176   45.188453
  H    -26.539103   30.233208   45.869798
  H    -25.865360   28.866324   44.960484
  H    -26.470740   27.538853   46.865129
  H    -26.558067   28.956229   47.933041
  H    -24.589467   30.800992   47.922133

 Multiplicity           Mult            ....    1
 Number of Electrons    NEL             ....  102
 Basis Dimension        Dim             ....  149

ORBITAL ENERGIES
----------------

  NO   OCC          E(Eh)            E(eV)
   0   2.0000     -19.143239      -520.9140
   1   2.0000     -19.141736      -520.8731
   2   2.0000     -19.136511      -520.7309
   3   2.0000     -19.135436      -520.7017
   4   2.0000     -10.279002      -279.7059
   5   2.0000     -10.246931      -278.8332
   6   2.0000     -10.237110      -278.5659
   7   2.0000     -10.235903      -278.5331
   8   2.0000     -10.231437      -278.4116
   9   2.0000     -10.224546      -278.2240
  10   2.0000     -10.195082      -277.4223
  11   2.0000     -10.192845      -277.3614
  12   2.0000     -10.192814      -277.3606
  13   2.0000      -1.047811       -28.5124
  14   2.0000      -1.038467       -28.2581
  15   2.0000      -1.008953       -27.4550
  16   2.0000      -0.990183       -26.9443
  17   2.0000      -0.789720       -21.4894
  18   2.0000      -0.788126       -21.4460
  19   2.0000      -0.770582       -20.9686
  20   2.0000      -0.734703       -19.9923
  21   2.0000      -0.680677       -18.5222
  22   2.0000      -0.609564       -16.5871
  23   2.0000      -0.607204       -16.5229
  24   2.0000      -0.597623       -16.2621
  25   2.0000      -0.575076       -15.6486
  26   2.0000      -0.523969       -14.2579
  27   2.0000      -0.514647       -14.0043
  28   2.0000      -0.501545       -13.6477
  29   2.0000      -0.496660       -13.5148
  30   2.0000      -0.473103       -12.8738
  31   2.0000      -0.459690       -12.5088
  32   2.0000      -0.454889       -12.3781
  33   2.0000      -0.439660       -11.9638
  34   2.0000      -0.433122       -11.7859
  35   2.0000      -0.414776       -11.2866
  36   2.0000      -0.404630       -11.0105
  37   2.0000      -0.396458       -10.7882
  38   2.0000      -0.380874       -10.3641
  39   2.0000      -0.375691       -10.2231
  40   2.0000      -0.365171        -9.9368
  41   2.0000      -0.357685        -9.7331
  42   2.0000      -0.352830        -9.6010
  43   2.0000      -0.335608        -9.1324
  44   2.0000      -0.313142        -8.5210
  45   2.0000      -0.308353        -8.3907
  46   2.0000      -0.289836        -7.8868
  47   2.0000      -0.273983        -7.4555
  48   2.0000      -0.269193        -7.3251
  49   2.0000      -0.253344        -6.8938
  50   2.0000      -0.235441        -6.4067
  51   0.0000       0.061954         1.6859
  52   0.0000       0.072925         1.9844
  53   0.0000       0.084387         2.2963
  54   0.0000       0.086798         2.3619
  55   0.0000       0.094620         2.5747

MULLIKEN ATOMIC CHARGES
-----------------------
   0 C :    0.321478
   1 C :   -0.305034
   2 C :   -0.312500
   3 C :   -0.001857
   4 O :   -0.492344
   5 H :    0.153674
   6 H :    0.158303
   7 H :    0.143550
   8 H :    0.146243
   9 H :    0.154470
  10 H :    0.156035
  11 H :    0.143549
  12 C :    0.001114
  13 H :    0.115639
  14 H :    0.149548
  15 O :   -0.516147
  16 C :    0.055331
  17 C :    0.074910
  18 C :   -0.292311
  19 C :   -0.032860
  20 O :   -0.506921
  21 H :    0.166582
  22 O :   -0.601530
  23 H :    0.147812
  24 H :    0.164270
  25 H :    0.141318
  26 H :    0.156065
  27 H :    0.146004
  28 H :    0.365610
Sum of atomic charges:   -0.0000000

LOEWDIN ATOMIC CHARGES
----------------------
   0 C :    0.184742
   1 C :   -0.233369
   2 C :   -0.220607
   3 C :   -0.028415
   4 O :   -0.306260
   5 H :    0.102312
   6 H :    0.123769
   7 H :    0.112703
   8 H :    0.116514
   9 H :    0.109353
  10 H :    0.110017
  11 H :    0.103548
  12 C :   -0.037772
  13 H :    0.091720
  14 H :    0.109591
  15 O :   -0.323967
  16 C :    0.006679
  17 C :    0.033963
  18 C :   -0.240728
  19 C :   -0.038926
  20 O :   -0.319100
  21 H :    0.111246
  22 O :   -0.414677
  23 H :    0.113117
  24 H :    0.127437
  25 H :    0.112036
  26 H :    0.108879
  27 H :    0.102415
  28 H :    0.283782

  Mayer bond orders larger than 0.100000
B(  0-C ,  1-C ) :   0.9275 B(  0-C ,  4-O ) :   0.9260 B(  0-C ,  5-H ) :   0.9304
B(  0-C , 15-O ) :   0.8627 B(  1-C ,  2-C ) :   0.9528 B(  1-C ,  6-H ) :   0.9329
B(  1-C ,  7-H ) :   0.9274 B(  2-C ,  3-C ) :   0.9519 B(  2-C ,  8-H ) :   0.9451
B(  2-C ,  9-H ) :   0.9286 B(  3-C ,  4-O ) :   0.8426 B(  3-C , 10-H ) :   0.9328
B(  3-C , 11-H ) :   0.9393 B( 12-C , 13-H ) :   0.9061 B( 12-C , 14-H ) :   0.9319
B( 12-C , 15-O ) :   0.8639 B( 12-C , 16-C ) :   0.8787 B( 16-C , 17-C ) :   0.8936
B( 16-C , 20-O ) :   0.8677 B( 16-C , 21-H ) :   0.9079 B( 17-C , 18-C ) :   0.9122
B( 17-C , 22-O ) :   0.8929 B( 17-C , 23-H ) :   0.9334 B( 18-C , 19-C ) :   0.9386
B( 18-C , 24-H ) :   0.9366 B( 18-C , 25-H ) :   0.9345 B( 19-C , 20-O ) :   0.8489
B( 19-C , 26-H ) :   0.9329 B( 19-C , 27-H ) :   0.9370 B( 22-O , 28-H ) :   0.7935

FINAL SINGLE POINT ENERGY      -652.847224516488

DIPOLE MOMENT
-------------
                                X             Y             Z
Electronic contribution:     -1.21546      -2.93995       1.99624
Nuclear contribution   :      1.39005       3.78806      -2.85610
                        -----------------------------------------
Total Dipole Moment    :      0.17459       0.84811      -0.85986
                        -----------------------------------------
Magnitude (a.u.)       :      1.22030
Magnitude (Debye)      :      3.10176

Rotational constants in cm-1:     0.051745     0.014074     0.013238
Rotational constants in MHz :  1551.273874   421.914534   396.854200

                             ****ORCA TERMINATED NORMALLY****
TOTAL RUN TIME: 0 days 0 hours 22 minutes 12 seconds 460 msec
