                         Program Version 4.2.0 -  RELEASE  -
|  1> # Test redundant internal optimization
|  2> #
|  3> ! RKS B3LYP  Opt TightSCF SmallPrint
|  4>
|  5> %basis
|  6>         Basis "6-31G"
|  7> end
|  8>
|  9> %geom
| 10> Constraints
| 11> { D 4  0  15  12  330.0   C } # D for Dihedral angle
| 12> { D 0  15  12  16  345.0   C } # D for Dihedral angle
| 13> { D 0  4  3  2   C } # D for Dihedral angle
| 14> { D 4  3  2  1   C } # D for Dihedral angle
| 15> { D 3  2  1  0   C } # D for Dihedral angle
| 16> { D 2  1  0  4   C } # D for Dihedral angle
| 17> { D 1  0  4  3   C } # D for Dihedral angle
| 18> { D 16  20  19  18   C } # D for Dihedral angle
| 19> { D 20  19  18  17   C } # D for Dihedral angle
| 20> { D 19  18  17  16   C } # D for Dihedral angle
| 21> { D 18  17  16  20   C } # D for Dihedral angle
| 22> { D 17  16  20  19   C } # D for Dihedral angle
| 23> { D 15  12  16  20   C } # D for Dihedral angle
| 24> end
| 25> end
| 26>
| 27>
| 28> #%pal
| 29> #nprocs 8
| 30> #end
| 31>
| 32> * xyz 0 1
| 33> C  -21.048   26.222   46.251
| 34> C  -20.361   27.558   45.944
| 35> C  -20.329   28.222   47.341
| 36> C  -20.110   27.022   48.296
| 37> O  -20.473   25.807   47.535
| 38> H  -20.833   25.428   45.533
| 39> H  -19.344   27.382   45.576
| 40> H  -20.898   28.157   45.201
| 41> H  -19.543   28.978   47.434
| 42> H  -21.289   28.710   47.548
| 43> H  -20.733   27.082   49.195
| 44> H  -19.064   26.913   48.597
| 45> C  -23.271   25.476   47.424
| 46> H  -23.541   26.071   48.305
| 47> H  -24.189   25.038   47.011
| 48> O  -22.586   26.394   46.375
| 49> C  -22.357   24.307   47.887
| 50> C  -23.103   23.358   48.831
| 51> C  -23.937   22.516   47.835
| 52> C  -23.001   22.397   46.607
| 53> O  -21.987   23.463   46.745
| 54> H  -21.432   24.717   48.296
| 55> O  -22.091   22.460   49.594
| 56> H  -23.723   23.882   49.567
| 57> H  -24.222   21.539   48.240
| 58> H  -24.857   23.050   47.570
| 59> H  -23.535   22.530   45.659
| 60> H  -22.466   21.443   46.581
| 61> H  -21.459   21.925   48.876
| 62> *
| 63>
| 64>                          ****END OF INPUT****
 Total Charge           Charge          ....    0
 Multiplicity           Mult            ....    1
 Number of Electrons    NEL             ....  102
FINAL SINGLE POINT ENERGY      -652.813670364835
FINAL SINGLE POINT ENERGY      -652.836730455738
FINAL SINGLE POINT ENERGY      -652.853211747397
FINAL SINGLE POINT ENERGY      -652.855659598203
FINAL SINGLE POINT ENERGY      -652.856208868742
FINAL SINGLE POINT ENERGY      -652.856269079220
FINAL SINGLE POINT ENERGY      -652.856274753447
                    ***********************HURRAY********************

CARTESIAN COORDINATES (ANGSTROEM)
---------------------------------
  C    -20.941086   26.273432   46.245723
  C    -20.514659   27.714693   45.962239
  C    -20.378163   28.288928   47.390808
  C    -19.846590   27.089799   48.206618
  O    -20.140389   25.879751   47.387149
  H    -20.707118   25.541718   45.469577
  H    -19.549616   27.707365   45.442565
  H    -21.247781   28.245318   45.351766
  H    -19.705859   29.151099   47.437025
  H    -21.361558   28.599705   47.755793
  H    -20.330321   26.983229   49.182088
  H    -18.761841   27.114086   48.345641
  C    -23.089393   25.402798   47.384326
  H    -23.409298   26.018069   48.238769
  H    -23.987500   25.095900   46.837644
  O    -22.375866   26.278093   46.461412
  C    -22.360460   24.173389   47.936295
  C    -23.257409   23.298655   48.826907
  C    -24.054190   22.483069   47.770115
  C    -23.014188   22.270977   46.640196
  O    -21.944806   23.273259   46.852161
  H    -21.447716   24.469393   48.447865
  O    -22.451105   22.436191   49.674995
  H    -23.896544   23.862040   49.508098
  H    -24.414738   21.545399   48.199051
  H    -24.918175   23.056653   47.417887
  H    -23.441454   22.408487   45.641872
  H    -22.545008   21.282992   46.684092
  H    -21.689170   22.102515   49.155325

 Multiplicity           Mult            ....    1
 Number of Electrons    NEL             ....  102
 Basis Dimension        Dim             ....  149

ORBITAL ENERGIES
----------------

  NO   OCC          E(Eh)            E(eV)
   0   2.0000     -19.143770      -520.9285
   1   2.0000     -19.138230      -520.7777
   2   2.0000     -19.135831      -520.7124
   3   2.0000     -19.133018      -520.6359
   4   2.0000     -10.273956      -279.5686
   5   2.0000     -10.240094      -278.6471
   6   2.0000     -10.230572      -278.3880
   7   2.0000     -10.227629      -278.3079
   8   2.0000     -10.227627      -278.3079
   9   2.0000     -10.225424      -278.2479
  10   2.0000     -10.186822      -277.1975
  11   2.0000     -10.185632      -277.1651
  12   2.0000     -10.181655      -277.0569
  13   2.0000      -1.047784       -28.5117
  14   2.0000      -1.032040       -28.0832
  15   2.0000      -1.002591       -27.2819
  16   2.0000      -0.986395       -26.8412
  17   2.0000      -0.789468       -21.4825
  18   2.0000      -0.779365       -21.2076
  19   2.0000      -0.762223       -20.7411
  20   2.0000      -0.732035       -19.9197
  21   2.0000      -0.671411       -18.2700
  22   2.0000      -0.601681       -16.3726
  23   2.0000      -0.600300       -16.3350
  24   2.0000      -0.597379       -16.2555
  25   2.0000      -0.567748       -15.4492
  26   2.0000      -0.518378       -14.1058
  27   2.0000      -0.510304       -13.8861
  28   2.0000      -0.495256       -13.4766
  29   2.0000      -0.481790       -13.1102
  30   2.0000      -0.471337       -12.8257
  31   2.0000      -0.459699       -12.5091
  32   2.0000      -0.445167       -12.1136
  33   2.0000      -0.439660       -11.9638
  34   2.0000      -0.413389       -11.2489
  35   2.0000      -0.407930       -11.1003
  36   2.0000      -0.398302       -10.8384
  37   2.0000      -0.390376       -10.6227
  38   2.0000      -0.373711       -10.1692
  39   2.0000      -0.367203        -9.9921
  40   2.0000      -0.360776        -9.8172
  41   2.0000      -0.356834        -9.7099
  42   2.0000      -0.347252        -9.4492
  43   2.0000      -0.335911        -9.1406
  44   2.0000      -0.320772        -8.7287
  45   2.0000      -0.306762        -8.3474
  46   2.0000      -0.294652        -8.0179
  47   2.0000      -0.269759        -7.3405
  48   2.0000      -0.259487        -7.0610
  49   2.0000      -0.246055        -6.6955
  50   2.0000      -0.236814        -6.4440
  51   0.0000       0.067483         1.8363
  52   0.0000       0.083846         2.2816
  53   0.0000       0.089084         2.4241
  54   0.0000       0.098495         2.6802
  55   0.0000       0.107176         2.9164

MULLIKEN ATOMIC CHARGES
-----------------------
   0 C :    0.315763
   1 C :   -0.260388
   2 C :   -0.301283
   3 C :   -0.017927
   4 O :   -0.513181
   5 H :    0.165263
   6 H :    0.144503
   7 H :    0.160637
   8 H :    0.142833
   9 H :    0.156531
  10 H :    0.141005
  11 H :    0.150839
  12 C :    0.028614
  13 H :    0.125544
  14 H :    0.142162
  15 O :   -0.555154
  16 C :    0.026400
  17 C :    0.081272
  18 C :   -0.295732
  19 C :   -0.023759
  20 O :   -0.521150
  21 H :    0.201965
  22 O :   -0.604845
  23 H :    0.148832
  24 H :    0.160282
  25 H :    0.143188
  26 H :    0.145020
  27 H :    0.144641
  28 H :    0.368126
Sum of atomic charges:    0.0000000

LOEWDIN ATOMIC CHARGES
----------------------
   0 C :    0.187149
   1 C :   -0.215627
   2 C :   -0.217260
   3 C :   -0.034187
   4 O :   -0.319605
   5 H :    0.107517
   6 H :    0.113529
   7 H :    0.126279
   8 H :    0.114773
   9 H :    0.116189
  10 H :    0.101042
  11 H :    0.106355
  12 C :   -0.030923
  13 H :    0.096099
  14 H :    0.105685
  15 O :   -0.341993
  16 C :   -0.004475
  17 C :    0.036621
  18 C :   -0.241609
  19 C :   -0.037498
  20 O :   -0.328387
  21 H :    0.133625
  22 O :   -0.415497
  23 H :    0.113821
  24 H :    0.125682
  25 H :    0.111815
  26 H :    0.103703
  27 H :    0.101944
  28 H :    0.285233

  Mayer bond orders larger than 0.100000
B(  0-C ,  1-C ) :   0.9383 B(  0-C ,  4-O ) :   0.8866 B(  0-C ,  5-H ) :   0.9222
B(  0-C , 15-O ) :   0.8416 B(  1-C ,  2-C ) :   0.9544 B(  1-C ,  6-H ) :   0.9379
B(  1-C ,  7-H ) :   0.9362 B(  2-C ,  3-C ) :   0.9561 B(  2-C ,  8-H ) :   0.9450
B(  2-C ,  9-H ) :   0.9453 B(  3-C ,  4-O ) :   0.8344 B(  3-C , 10-H ) :   0.9346
B(  3-C , 11-H ) :   0.9397 B( 12-C , 13-H ) :   0.9166 B( 12-C , 14-H ) :   0.9322
B( 12-C , 15-O ) :   0.8411 B( 12-C , 16-C ) :   0.9015 B( 16-C , 17-C ) :   0.8921
B( 16-C , 20-O ) :   0.8387 B( 16-C , 21-H ) :   0.8975 B( 17-C , 18-C ) :   0.9095
B( 17-C , 22-O ) :   0.8915 B( 17-C , 23-H ) :   0.9337 B( 18-C , 19-C ) :   0.9398
B( 18-C , 24-H ) :   0.9381 B( 18-C , 25-H ) :   0.9333 B( 19-C , 20-O ) :   0.8509
B( 19-C , 26-H ) :   0.9350 B( 19-C , 27-H ) :   0.9384 B( 22-O , 28-H ) :   0.7919

FINAL SINGLE POINT ENERGY      -652.856275666303

DIPOLE MOMENT
-------------
                                X             Y             Z
Electronic contribution:      1.11246      -2.98117      -0.00563
Nuclear contribution   :     -1.39765       3.51130      -0.14135
                        -----------------------------------------
Total Dipole Moment    :     -0.28518       0.53013      -0.14698
                        -----------------------------------------
Magnitude (a.u.)       :      0.61965
Magnitude (Debye)      :      1.57503

Rotational constants in cm-1:     0.057606     0.014546     0.013498
Rotational constants in MHz :  1726.993428   436.071843   404.665039

                             ****ORCA TERMINATED NORMALLY****
TOTAL RUN TIME: 0 days 1 hours 15 minutes 8 seconds 927 msec
