                         Program Version 4.2.0 -  RELEASE  -
|  1> # Test redundant internal optimization
|  2> #
|  3> ! RKS B3LYP  Opt TightSCF SmallPrint
|  4>
|  5> %basis
|  6>         Basis "6-31G"
|  7> end
|  8>
|  9> %geom
| 10> Constraints
| 11> { D 4  0  15  12  285.0   C } # D for Dihedral angle
| 12> { D 0  15  12  16  285.0   C } # D for Dihedral angle
| 13> { D 0  4  3  2   C } # D for Dihedral angle
| 14> { D 4  3  2  1   C } # D for Dihedral angle
| 15> { D 3  2  1  0   C } # D for Dihedral angle
| 16> { D 2  1  0  4   C } # D for Dihedral angle
| 17> { D 1  0  4  3   C } # D for Dihedral angle
| 18> { D 16  20  19  18   C } # D for Dihedral angle
| 19> { D 20  19  18  17   C } # D for Dihedral angle
| 20> { D 19  18  17  16   C } # D for Dihedral angle
| 21> { D 18  17  16  20   C } # D for Dihedral angle
| 22> { D 17  16  20  19   C } # D for Dihedral angle
| 23> { D 15  12  16  20   C } # D for Dihedral angle
| 24> end
| 25> end
| 26>
| 27>
| 28> #%pal
| 29> #nprocs 8
| 30> #end
| 31>
| 32> * xyz 0 1
| 33> C  -21.048   26.222   46.251
| 34> C  -20.361   27.558   45.944
| 35> C  -20.329   28.222   47.341
| 36> C  -20.110   27.022   48.296
| 37> O  -20.473   25.807   47.535
| 38> H  -20.833   25.428   45.533
| 39> H  -19.344   27.382   45.576
| 40> H  -20.898   28.157   45.201
| 41> H  -19.543   28.978   47.434
| 42> H  -21.289   28.710   47.548
| 43> H  -20.733   27.082   49.195
| 44> H  -19.064   26.913   48.597
| 45> C  -23.396   25.070   46.435
| 46> H  -22.909   24.379   47.135
| 47> H  -24.416   25.259   46.795
| 48> O  -22.586   26.394   46.375
| 49> C  -23.505   24.369   45.053
| 50> C  -24.097   25.310   43.997
| 51> C  -22.871   26.181   43.631
| 52> C  -21.688   25.185   43.735
| 53> O  -22.171   24.041   44.538
| 54> H  -24.043   23.427   45.171
| 55> O  -24.575   24.494   42.765
| 56> H  -24.940   25.900   44.369
| 57> H  -22.951   26.630   42.636
| 58> H  -22.756   26.994   44.358
| 59> H  -20.812   25.624   44.226
| 60> H  -21.387   24.790   42.761
| 61> H  -23.745   23.895   42.374
| 62> *
| 63>
| 64>                          ****END OF INPUT****
 Total Charge           Charge          ....    0
 Multiplicity           Mult            ....    1
 Number of Electrons    NEL             ....  102
FINAL SINGLE POINT ENERGY      -652.810836370513
FINAL SINGLE POINT ENERGY      -652.845750316327
FINAL SINGLE POINT ENERGY      -652.860812890253
FINAL SINGLE POINT ENERGY      -652.863949808224
FINAL SINGLE POINT ENERGY      -652.864525199634
FINAL SINGLE POINT ENERGY      -652.864614731344
FINAL SINGLE POINT ENERGY      -652.864639829713
FINAL SINGLE POINT ENERGY      -652.864646443322
                    ***********************HURRAY********************

CARTESIAN COORDINATES (ANGSTROEM)
---------------------------------
  C    -20.943932   26.290072   46.331549
  C    -20.324109   27.678547   46.171662
  C    -20.387624   28.221461   47.617563
  C    -20.140996   26.960729   48.476179
  O    -20.407088   25.802825   47.585677
  H    -20.687700   25.533042   45.595244
  H    -19.286234   27.573453   45.835337
  H    -20.869769   28.298210   45.456857
  H    -19.646119   29.003678   47.806222
  H    -21.383119   28.631197   47.811119
  H    -20.801188   26.899341   49.345223
  H    -19.101863   26.868563   48.806324
  C    -23.185105   25.255937   46.388424
  H    -22.759127   24.547182   47.110115
  H    -24.174333   25.559307   46.744795
  O    -22.383124   26.474853   46.416718
  C    -23.355744   24.537508   45.042388
  C    -24.102736   25.292423   43.930834
  C    -22.941644   26.042618   43.225137
  C    -21.762481   25.044708   43.328265
  O    -22.121036   24.076942   44.399054
  H    -23.919782   23.625306   45.281176
  O    -24.779593   24.363977   43.037790
  H    -24.882890   25.957848   44.300365
  H    -23.202153   26.291149   42.193883
  H    -22.723958   26.963444   43.774675
  H    -20.814769   25.529847   43.576913
  H    -21.620615   24.460843   42.413459
  H    -24.164169   23.637991   42.802055

 Multiplicity           Mult            ....    1
 Number of Electrons    NEL             ....  102
 Basis Dimension        Dim             ....  149

ORBITAL ENERGIES
----------------

  NO   OCC          E(Eh)            E(eV)
   0   2.0000     -19.150653      -521.1158
   1   2.0000     -19.145723      -520.9816
   2   2.0000     -19.138904      -520.7960
   3   2.0000     -19.136909      -520.7418
   4   2.0000     -10.273207      -279.5482
   5   2.0000     -10.241419      -278.6832
   6   2.0000     -10.237344      -278.5723
   7   2.0000     -10.234622      -278.4982
   8   2.0000     -10.230427      -278.3841
   9   2.0000     -10.222720      -278.1743
  10   2.0000     -10.186980      -277.2018
  11   2.0000     -10.185732      -277.1679
  12   2.0000     -10.184112      -277.1238
  13   2.0000      -1.052457       -28.6388
  14   2.0000      -1.038301       -28.2536
  15   2.0000      -1.008277       -27.4366
  16   2.0000      -0.990909       -26.9640
  17   2.0000      -0.789576       -21.4854
  18   2.0000      -0.779734       -21.2177
  19   2.0000      -0.769519       -20.9397
  20   2.0000      -0.730592       -19.8804
  21   2.0000      -0.676886       -18.4190
  22   2.0000      -0.605252       -16.4698
  23   2.0000      -0.604006       -16.4359
  24   2.0000      -0.596478       -16.2310
  25   2.0000      -0.573187       -15.5972
  26   2.0000      -0.526531       -14.3276
  27   2.0000      -0.507917       -13.8211
  28   2.0000      -0.500713       -13.6251
  29   2.0000      -0.485006       -13.1977
  30   2.0000      -0.469754       -12.7827
  31   2.0000      -0.460559       -12.5324
  32   2.0000      -0.447068       -12.1653
  33   2.0000      -0.444030       -12.0827
  34   2.0000      -0.419523       -11.4158
  35   2.0000      -0.413696       -11.2572
  36   2.0000      -0.398697       -10.8491
  37   2.0000      -0.395063       -10.7502
  38   2.0000      -0.378157       -10.2902
  39   2.0000      -0.369317       -10.0496
  40   2.0000      -0.362547        -9.8654
  41   2.0000      -0.355306        -9.6684
  42   2.0000      -0.344793        -9.3823
  43   2.0000      -0.334928        -9.1139
  44   2.0000      -0.326810        -8.8929
  45   2.0000      -0.310013        -8.4359
  46   2.0000      -0.302352        -8.2274
  47   2.0000      -0.278079        -7.5669
  48   2.0000      -0.269437        -7.3317
  49   2.0000      -0.252249        -6.8640
  50   2.0000      -0.242195        -6.5905
  51   0.0000       0.060381         1.6430
  52   0.0000       0.084073         2.2877
  53   0.0000       0.089334         2.4309
  54   0.0000       0.101541         2.7631
  55   0.0000       0.106960         2.9105

MULLIKEN ATOMIC CHARGES
-----------------------
   0 C :    0.268391
   1 C :   -0.265132
   2 C :   -0.298745
   3 C :   -0.002513
   4 O :   -0.513742
   5 H :    0.179654
   6 H :    0.144451
   7 H :    0.152069
   8 H :    0.140058
   9 H :    0.163079
  10 H :    0.147044
  11 H :    0.141052
  12 C :   -0.030931
  13 H :    0.166242
  14 H :    0.149115
  15 O :   -0.522033
  16 C :    0.068611
  17 C :    0.081456
  18 C :   -0.290830
  19 C :   -0.036722
  20 O :   -0.523219
  21 H :    0.159575
  22 O :   -0.602371
  23 H :    0.156781
  24 H :    0.155858
  25 H :    0.164286
  26 H :    0.137959
  27 H :    0.147327
  28 H :    0.363232
Sum of atomic charges:   -0.0000000

LOEWDIN ATOMIC CHARGES
----------------------
   0 C :    0.164415
   1 C :   -0.217029
   2 C :   -0.215760
   3 C :   -0.028004
   4 O :   -0.325373
   5 H :    0.114156
   6 H :    0.113773
   7 H :    0.119672
   8 H :    0.112775
   9 H :    0.119425
  10 H :    0.105222
  11 H :    0.101998
  12 C :   -0.045753
  13 H :    0.114524
  14 H :    0.116840
  15 O :   -0.331580
  16 C :    0.003104
  17 C :    0.038218
  18 C :   -0.240765
  19 C :   -0.039848
  20 O :   -0.330904
  21 H :    0.117799
  22 O :   -0.415709
  23 H :    0.118471
  24 H :    0.123691
  25 H :    0.123483
  26 H :    0.098423
  27 H :    0.102613
  28 H :    0.282122

  Mayer bond orders larger than 0.100000
B(  0-C ,  1-C ) :   0.9457 B(  0-C ,  4-O ) :   0.8968 B(  0-C ,  5-H ) :   0.8951
B(  0-C , 15-O ) :   0.8422 B(  1-C ,  2-C ) :   0.9546 B(  1-C ,  6-H ) :   0.9408
B(  1-C ,  7-H ) :   0.9359 B(  2-C ,  3-C ) :   0.9556 B(  2-C ,  8-H ) :   0.9454
B(  2-C ,  9-H ) :   0.9439 B(  3-C ,  4-O ) :   0.8396 B(  3-C , 10-H ) :   0.9358
B(  3-C , 11-H ) :   0.9404 B( 12-C , 13-H ) :   0.9154 B( 12-C , 14-H ) :   0.9310
B( 12-C , 15-O ) :   0.8702 B( 12-C , 16-C ) :   0.8885 B( 16-C , 17-C ) :   0.9039
B( 16-C , 20-O ) :   0.8569 B( 16-C , 21-H ) :   0.9152 B( 17-C , 18-C ) :   0.9219
B( 17-C , 22-O ) :   0.8922 B( 17-C , 23-H ) :   0.9352 B( 18-C , 19-C ) :   0.9418
B( 18-C , 24-H ) :   0.9370 B( 18-C , 25-H ) :   0.9234 B( 19-C , 20-O ) :   0.8395
B( 19-C , 26-H ) :   0.9251 B( 19-C , 27-H ) :   0.9399 B( 22-O , 28-H ) :   0.7962

FINAL SINGLE POINT ENERGY      -652.864647256290

DIPOLE MOMENT
-------------
                                X             Y             Z
Electronic contribution:     -2.53818      -4.95427      -0.57669
Nuclear contribution   :      3.00060       5.78015       0.46890
                        -----------------------------------------
Total Dipole Moment    :      0.46242       0.82588      -0.10779
                        -----------------------------------------
Magnitude (a.u.)       :      0.95264
Magnitude (Debye)      :      2.42143

Rotational constants in cm-1:     0.062616     0.014126     0.013632
Rotational constants in MHz :  1877.178113   423.495673   408.667244

                             ****ORCA TERMINATED NORMALLY****
TOTAL RUN TIME: 0 days 0 hours 44 minutes 17 seconds 879 msec
