                         Program Version 4.2.0 -  RELEASE  -
|  1> # Test redundant internal optimization
|  2> #
|  3> ! RKS B3LYP  Opt TightSCF SmallPrint
|  4>
|  5> %basis
|  6>         Basis "6-31G"
|  7> end
|  8>
|  9> %geom
| 10> Constraints
| 11> { D 4  0  15  12  345.0   C } # D for Dihedral angle
| 12> { D 0  15  12  16  240.0   C } # D for Dihedral angle
| 13> { D 0  4  3  2   C } # D for Dihedral angle
| 14> { D 4  3  2  1   C } # D for Dihedral angle
| 15> { D 3  2  1  0   C } # D for Dihedral angle
| 16> { D 2  1  0  4   C } # D for Dihedral angle
| 17> { D 1  0  4  3   C } # D for Dihedral angle
| 18> { D 16  20  19  18   C } # D for Dihedral angle
| 19> { D 20  19  18  17   C } # D for Dihedral angle
| 20> { D 19  18  17  16   C } # D for Dihedral angle
| 21> { D 18  17  16  20   C } # D for Dihedral angle
| 22> { D 17  16  20  19   C } # D for Dihedral angle
| 23> { D 15  12  16  20   C } # D for Dihedral angle
| 24> end
| 25> end
| 26>
| 27>
| 28> #%pal
| 29> #nprocs 8
| 30> #end
| 31>
| 32> * xyz 0 1
| 33> C  -21.048   26.222   46.251
| 34> C  -20.361   27.558   45.944
| 35> C  -20.329   28.222   47.341
| 36> C  -20.110   27.022   48.296
| 37> O  -20.473   25.807   47.535
| 38> H  -20.833   25.428   45.533
| 39> H  -19.344   27.382   45.576
| 40> H  -20.898   28.157   45.201
| 41> H  -19.543   28.978   47.434
| 42> H  -21.289   28.710   47.548
| 43> H  -20.733   27.082   49.195
| 44> H  -19.064   26.913   48.597
| 45> C  -23.221   25.764   47.645
| 46> H  -22.433   25.301   48.252
| 47> H  -23.712   26.536   48.252
| 48> O  -22.586   26.394   46.375
| 49> C  -24.281   24.679   47.311
| 50> C  -25.373   25.232   46.387
| 51> C  -24.669   25.187   45.010
| 52> C  -23.794   23.912   45.103
| 53> O  -23.674   23.588   46.542
| 54> H  -24.654   24.245   48.241
| 55> H  -26.245   24.570   46.397
| 56> O  -25.838   26.661   46.779
| 57> H  -25.374   25.149   44.173
| 58> H  -24.041   26.077   44.878
| 59> H  -22.793   24.058   44.684
| 60> H  -24.259   23.050   44.617
| 61> H  -24.979   27.342   46.775
| 62> *
| 63>
| 64>                          ****END OF INPUT****
 Total Charge           Charge          ....    0
 Multiplicity           Mult            ....    1
 Number of Electrons    NEL             ....  102
FINAL SINGLE POINT ENERGY      -652.833979400274
FINAL SINGLE POINT ENERGY      -652.856791101425
FINAL SINGLE POINT ENERGY      -652.861221840913
FINAL SINGLE POINT ENERGY      -652.862817521923
FINAL SINGLE POINT ENERGY      -652.862969690927
FINAL SINGLE POINT ENERGY      -652.862999869279
FINAL SINGLE POINT ENERGY      -652.863000710715
                    ***********************HURRAY********************

CARTESIAN COORDINATES (ANGSTROEM)
---------------------------------
  C    -21.037472   26.219294   46.340270
  C    -20.431000   27.583917   46.017063
  C    -20.324295   28.222779   47.420487
  C    -19.989692   27.022929   48.331154
  O    -20.368573   25.808974   47.548399
  H    -20.849511   25.431627   45.607152
  H    -19.440385   27.441945   45.569791
  H    -21.054078   28.158569   45.328325
  H    -19.561040   29.005332   47.469555
  H    -21.285502   28.666057   47.699360
  H    -20.547421   27.020571   49.271063
  H    -18.921445   26.929048   48.543538
  C    -23.156433   25.798875   47.648234
  H    -22.410060   25.326572   48.292214
  H    -23.641747   26.616821   48.195190
  O    -22.487522   26.369681   46.479926
  C    -24.208398   24.762764   47.259917
  C    -25.350068   25.278337   46.364991
  C    -24.726170   25.147381   44.941554
  C    -23.866203   23.871570   45.066781
  O    -23.666841   23.630814   46.519032
  H    -24.605870   24.353260   48.197057
  H    -26.228182   24.638392   46.474057
  O    -25.813876   26.610525   46.693407
  H    -25.489534   25.068815   44.161946
  H    -24.099007   26.021777   44.752013
  H    -22.888034   23.970107   44.586313
  H    -24.370004   22.986004   44.666284
  H    -25.132639   27.263262   46.426927

 Multiplicity           Mult            ....    1
 Number of Electrons    NEL             ....  102
 Basis Dimension        Dim             ....  149

ORBITAL ENERGIES
----------------

  NO   OCC          E(Eh)            E(eV)
   0   2.0000     -19.155102      -521.2368
   1   2.0000     -19.143934      -520.9329
   2   2.0000     -19.136163      -520.7215
   3   2.0000     -19.130227      -520.5599
   4   2.0000     -10.284219      -279.8478
   5   2.0000     -10.235722      -278.5282
   6   2.0000     -10.232278      -278.4345
   7   2.0000     -10.223806      -278.2039
   8   2.0000     -10.222694      -278.1737
   9   2.0000     -10.220140      -278.1041
  10   2.0000     -10.194482      -277.4059
  11   2.0000     -10.190938      -277.3095
  12   2.0000     -10.176507      -276.9168
  13   2.0000      -1.059202       -28.8224
  14   2.0000      -1.023692       -27.8561
  15   2.0000      -1.006015       -27.3751
  16   2.0000      -0.992918       -27.0187
  17   2.0000      -0.795788       -21.6545
  18   2.0000      -0.769625       -20.9426
  19   2.0000      -0.763388       -20.7728
  20   2.0000      -0.734712       -19.9925
  21   2.0000      -0.673874       -18.3370
  22   2.0000      -0.608024       -16.5452
  23   2.0000      -0.598602       -16.2888
  24   2.0000      -0.598000       -16.2724
  25   2.0000      -0.559972       -15.2376
  26   2.0000      -0.527804       -14.3623
  27   2.0000      -0.510028       -13.8786
  28   2.0000      -0.495897       -13.4940
  29   2.0000      -0.490260       -13.3407
  30   2.0000      -0.468063       -12.7366
  31   2.0000      -0.461799       -12.5662
  32   2.0000      -0.439382       -11.9562
  33   2.0000      -0.429827       -11.6962
  34   2.0000      -0.422219       -11.4892
  35   2.0000      -0.414598       -11.2818
  36   2.0000      -0.399535       -10.8719
  37   2.0000      -0.390793       -10.6340
  38   2.0000      -0.377954       -10.2847
  39   2.0000      -0.371761       -10.1161
  40   2.0000      -0.364209        -9.9106
  41   2.0000      -0.355634        -9.6773
  42   2.0000      -0.348384        -9.4800
  43   2.0000      -0.334882        -9.1126
  44   2.0000      -0.321275        -8.7423
  45   2.0000      -0.306663        -8.3447
  46   2.0000      -0.299670        -8.1544
  47   2.0000      -0.271089        -7.3767
  48   2.0000      -0.264915        -7.2087
  49   2.0000      -0.255739        -6.9590
  50   2.0000      -0.231833        -6.3085
  51   0.0000       0.067109         1.8261
  52   0.0000       0.081613         2.2208
  53   0.0000       0.092008         2.5037
  54   0.0000       0.101543         2.7631
  55   0.0000       0.103107         2.8057

MULLIKEN ATOMIC CHARGES
-----------------------
   0 C :    0.307993
   1 C :   -0.258993
   2 C :   -0.304831
   3 C :   -0.015716
   4 O :   -0.506253
   5 H :    0.158898
   6 H :    0.146725
   7 H :    0.156066
   8 H :    0.148756
   9 H :    0.155500
  10 H :    0.148077
  11 H :    0.153499
  12 C :   -0.047109
  13 H :    0.184133
  14 H :    0.136334
  15 O :   -0.556756
  16 C :    0.102103
  17 C :    0.085389
  18 C :   -0.308256
  19 C :   -0.006838
  20 O :   -0.520073
  21 H :    0.143330
  22 H :    0.159516
  23 O :   -0.607651
  24 H :    0.143439
  25 H :    0.159810
  26 H :    0.138891
  27 H :    0.140452
  28 H :    0.363565
Sum of atomic charges:   -0.0000000

LOEWDIN ATOMIC CHARGES
----------------------
   0 C :    0.185256
   1 C :   -0.218994
   2 C :   -0.218007
   3 C :   -0.030924
   4 O :   -0.312012
   5 H :    0.104272
   6 H :    0.114804
   7 H :    0.123500
   8 H :    0.117859
   9 H :    0.115416
  10 H :    0.105183
  11 H :    0.108807
  12 C :   -0.056993
  13 H :    0.125378
  14 H :    0.101397
  15 O :   -0.355157
  16 C :    0.014712
  17 C :    0.036164
  18 C :   -0.243154
  19 C :   -0.025767
  20 O :   -0.322876
  21 H :    0.112211
  22 H :    0.114964
  23 O :   -0.412278
  24 H :    0.114523
  25 H :    0.119647
  26 H :    0.099688
  27 H :    0.100335
  28 H :    0.282045

  Mayer bond orders larger than 0.100000
B(  0-C ,  1-C ) :   0.9372 B(  0-C ,  4-O ) :   0.9167 B(  0-C ,  5-H ) :   0.9242
B(  0-C , 15-O ) :   0.8254 B(  1-C ,  2-C ) :   0.9527 B(  1-C ,  6-H ) :   0.9356
B(  1-C ,  7-H ) :   0.9364 B(  2-C ,  3-C ) :   0.9544 B(  2-C ,  8-H ) :   0.9446
B(  2-C ,  9-H ) :   0.9457 B(  3-C ,  4-O ) :   0.8265 B(  3-C , 10-H ) :   0.9343
B(  3-C , 11-H ) :   0.9403 B( 12-C , 13-H ) :   0.9050 B( 12-C , 14-H ) :   0.9157
B( 12-C , 15-O ) :   0.8341 B( 12-C , 16-C ) :   0.9024 B( 16-C , 17-C ) :   0.8888
B( 16-C , 20-O ) :   0.8759 B( 16-C , 21-H ) :   0.9253 B( 17-C , 18-C ) :   0.9323
B( 17-C , 22-H ) :   0.9362 B( 17-C , 23-O ) :   0.8996 B( 18-C , 19-C ) :   0.9458
B( 18-C , 24-H ) :   0.9411 B( 18-C , 25-H ) :   0.9277 B( 19-C , 20-O ) :   0.8413
B( 19-C , 26-H ) :   0.9313 B( 19-C , 27-H ) :   0.9383 B( 23-O , 28-H ) :   0.7932

FINAL SINGLE POINT ENERGY      -652.862998802611

DIPOLE MOMENT
-------------
                                X             Y             Z
Electronic contribution:     -2.25132      -3.53274       1.06077
Nuclear contribution   :      3.07619       4.57425      -1.36338
                        -----------------------------------------
Total Dipole Moment    :      0.82487       1.04151      -0.30261
                        -----------------------------------------
Magnitude (a.u.)       :      1.36262
Magnitude (Debye)      :      3.46350

Rotational constants in cm-1:     0.050047     0.015468     0.014605
Rotational constants in MHz :  1500.383135   463.709726   437.841820

                             ****ORCA TERMINATED NORMALLY****
TOTAL RUN TIME: 0 days 0 hours 36 minutes 18 seconds 275 msec
