                         Program Version 4.2.0 -  RELEASE  -
|  1> # Test redundant internal optimization
|  2> #
|  3> ! RKS B3LYP  Opt TightSCF SmallPrint
|  4>
|  5> %basis
|  6>         Basis "6-31G"
|  7> end
|  8>
|  9> %geom
| 10> Constraints
| 11> { D 4  0  15  12  225.0   C } # D for Dihedral angle
| 12> { D 0  15  12  16  15.0   C } # D for Dihedral angle
| 13> { D 0  4  3  2   C } # D for Dihedral angle
| 14> { D 4  3  2  1   C } # D for Dihedral angle
| 15> { D 3  2  1  0   C } # D for Dihedral angle
| 16> { D 2  1  0  4   C } # D for Dihedral angle
| 17> { D 1  0  4  3   C } # D for Dihedral angle
| 18> { D 16  20  19  18   C } # D for Dihedral angle
| 19> { D 20  19  18  17   C } # D for Dihedral angle
| 20> { D 19  18  17  16   C } # D for Dihedral angle
| 21> { D 18  17  16  20   C } # D for Dihedral angle
| 22> { D 17  16  20  19   C } # D for Dihedral angle
| 23> { D 15  12  16  20   C } # D for Dihedral angle
| 24> end
| 25> end
| 26>
| 27>
| 28> #%pal
| 29> #nprocs 8
| 30> #end
| 31>
| 32> * xyz 0 1
| 33> C  -21.048   26.222   46.251
| 34> C  -20.361   27.558   45.944
| 35> C  -20.329   28.222   47.341
| 36> C  -20.110   27.022   48.296
| 37> O  -20.473   25.807   47.535
| 38> H  -20.833   25.428   45.533
| 39> H  -19.344   27.382   45.576
| 40> H  -20.898   28.157   45.201
| 41> H  -19.543   28.978   47.434
| 42> H  -21.289   28.710   47.548
| 43> H  -20.733   27.082   49.195
| 44> H  -19.064   26.913   48.597
| 45> C  -23.415   25.773   45.218
| 46> H  -24.272   25.231   45.637
| 47> H  -23.798   26.559   44.554
| 48> O  -22.586   26.394   46.375
| 49> C  -22.589   24.783   44.350
| 50> C  -22.155   23.559   45.164
| 51> C  -23.450   22.712   45.171
| 52> C  -24.062   22.994   43.776
| 53> O  -23.419   24.228   43.276
| 54> H  -21.769   25.324   43.874
| 55> H  -21.349   23.028   44.644
| 56> O  -21.662   23.918   46.592
| 57> H  -23.260   21.647   45.336
| 58> H  -24.122   23.059   45.965
| 59> H  -25.146   23.146   43.816
| 60> H  -23.843   22.201   43.056
| 61> H  -22.454   24.450   47.132
| 62> *
| 63>
| 64>                          ****END OF INPUT****
 Total Charge           Charge          ....    0
 Multiplicity           Mult            ....    1
 Number of Electrons    NEL             ....  102
FINAL SINGLE POINT ENERGY      -652.806334726517
FINAL SINGLE POINT ENERGY      -652.838001534041
FINAL SINGLE POINT ENERGY      -652.851406175833
FINAL SINGLE POINT ENERGY      -652.853460388560
FINAL SINGLE POINT ENERGY      -652.853979472686
FINAL SINGLE POINT ENERGY      -652.854071610843
FINAL SINGLE POINT ENERGY      -652.854082013987
FINAL SINGLE POINT ENERGY      -652.854085278294
                    ***********************HURRAY********************

CARTESIAN COORDINATES (ANGSTROEM)
---------------------------------
  C    -20.857198   26.252924   46.282649
  C    -20.228377   27.622675   46.026703
  C    -20.501036   28.355048   47.363501
  C    -20.372573   27.223818   48.407429
  O    -20.503645   25.955003   47.647284
  H    -20.486366   25.434218   45.671824
  H    -19.151203   27.504117   45.857528
  H    -20.667509   28.128138   45.162815
  H    -19.799254   29.173875   47.547358
  H    -21.516963   28.759525   47.358877
  H    -21.152918   27.255026   49.172758
  H    -19.391016   27.198510   48.890393
  C    -23.139337   25.758763   45.192794
  H    -24.007975   25.355637   45.724065
  H    -23.501103   26.555183   44.531655
  O    -22.306951   26.366637   46.228424
  C    -22.554276   24.665550   44.275063
  C    -22.156603   23.336959   44.951321
  C    -23.551303   22.666229   45.190420
  C    -24.355596   23.119342   43.952868
  O    -23.641426   24.288437   43.374110
  H    -21.752872   25.064649   43.647097
  H    -21.590245   22.742600   44.228683
  O    -21.301814   23.383541   46.108467
  H    -23.466767   21.579684   45.270247
  H    -23.984626   23.044530   46.123293
  H    -25.381639   23.417212   44.189224
  H    -24.383428   22.352262   43.172636
  H    -21.671983   23.926908   46.837516

 Multiplicity           Mult            ....    1
 Number of Electrons    NEL             ....  102
 Basis Dimension        Dim             ....  149

ORBITAL ENERGIES
----------------

  NO   OCC          E(Eh)            E(eV)
   0   2.0000     -19.146899      -521.0136
   1   2.0000     -19.141711      -520.8724
   2   2.0000     -19.139532      -520.8132
   3   2.0000     -19.139014      -520.7990
   4   2.0000     -10.275133      -279.6006
   5   2.0000     -10.244678      -278.7719
   6   2.0000     -10.240218      -278.6505
   7   2.0000     -10.233933      -278.4795
   8   2.0000     -10.232062      -278.4286
   9   2.0000     -10.223797      -278.2036
  10   2.0000     -10.191889      -277.3354
  11   2.0000     -10.182971      -277.0927
  12   2.0000     -10.182530      -277.0807
  13   2.0000      -1.051208       -28.6048
  14   2.0000      -1.033929       -28.1346
  15   2.0000      -1.016076       -27.6488
  16   2.0000      -0.989397       -26.9229
  17   2.0000      -0.784033       -21.3346
  18   2.0000      -0.779909       -21.2224
  19   2.0000      -0.767197       -20.8765
  20   2.0000      -0.733674       -19.9643
  21   2.0000      -0.680236       -18.5101
  22   2.0000      -0.610361       -16.6088
  23   2.0000      -0.608065       -16.5463
  24   2.0000      -0.596369       -16.2280
  25   2.0000      -0.563788       -15.3415
  26   2.0000      -0.531146       -14.4532
  27   2.0000      -0.521529       -14.1915
  28   2.0000      -0.495912       -13.4945
  29   2.0000      -0.483359       -13.1529
  30   2.0000      -0.462640       -12.5891
  31   2.0000      -0.457696       -12.4545
  32   2.0000      -0.448941       -12.2163
  33   2.0000      -0.432605       -11.7718
  34   2.0000      -0.423814       -11.5326
  35   2.0000      -0.416544       -11.3347
  36   2.0000      -0.408717       -11.1218
  37   2.0000      -0.398279       -10.8377
  38   2.0000      -0.377244       -10.2653
  39   2.0000      -0.372646       -10.1402
  40   2.0000      -0.358634        -9.7589
  41   2.0000      -0.355120        -9.6633
  42   2.0000      -0.350345        -9.5334
  43   2.0000      -0.334650        -9.1063
  44   2.0000      -0.314730        -8.5642
  45   2.0000      -0.314013        -8.5447
  46   2.0000      -0.306607        -8.3432
  47   2.0000      -0.266392        -7.2489
  48   2.0000      -0.260297        -7.0830
  49   2.0000      -0.251154        -6.8342
  50   2.0000      -0.242526        -6.5995
  51   0.0000       0.057848         1.5741
  52   0.0000       0.075130         2.0444
  53   0.0000       0.092342         2.5128
  54   0.0000       0.098837         2.6895
  55   0.0000       0.104181         2.8349

MULLIKEN ATOMIC CHARGES
-----------------------
   0 C :    0.250601
   1 C :   -0.250138
   2 C :   -0.298636
   3 C :   -0.001096
   4 O :   -0.514410
   5 H :    0.179348
   6 H :    0.144899
   7 H :    0.142209
   8 H :    0.139645
   9 H :    0.163607
  10 H :    0.150680
  11 H :    0.143388
  12 C :    0.004410
  13 H :    0.144206
  14 H :    0.155468
  15 O :   -0.544589
  16 C :    0.035416
  17 C :    0.103068
  18 C :   -0.315048
  19 C :   -0.025905
  20 O :   -0.517444
  21 H :    0.153983
  22 H :    0.165639
  23 O :   -0.602838
  24 H :    0.160941
  25 H :    0.143039
  26 H :    0.149353
  27 H :    0.155400
  28 H :    0.384803
Sum of atomic charges:   -0.0000000

LOEWDIN ATOMIC CHARGES
----------------------
   0 C :    0.160968
   1 C :   -0.221703
   2 C :   -0.215889
   3 C :   -0.025911
   4 O :   -0.317628
   5 H :    0.113191
   6 H :    0.112972
   7 H :    0.116095
   8 H :    0.113038
   9 H :    0.119901
  10 H :    0.107204
  11 H :    0.102856
  12 C :   -0.045225
  13 H :    0.105036
  14 H :    0.109251
  15 O :   -0.347256
  16 C :    0.003331
  17 C :    0.033523
  18 C :   -0.240193
  19 C :   -0.033587
  20 O :   -0.317395
  21 H :    0.111059
  22 H :    0.116836
  23 O :   -0.401227
  24 H :    0.125025
  25 H :    0.109642
  26 H :    0.104875
  27 H :    0.108412
  28 H :    0.292801

  Mayer bond orders larger than 0.100000
B(  0-C ,  1-C ) :   0.9381 B(  0-C ,  4-O ) :   0.9040 B(  0-C ,  5-H ) :   0.8941
B(  0-C , 15-O ) :   0.8225 B(  1-C ,  2-C ) :   0.9544 B(  1-C ,  6-H ) :   0.9360
B(  1-C ,  7-H ) :   0.9405 B(  2-C ,  3-C ) :   0.9545 B(  2-C ,  8-H ) :   0.9456
B(  2-C ,  9-H ) :   0.9431 B(  3-C ,  4-O ) :   0.8323 B(  3-C , 10-H ) :   0.9356
B(  3-C , 11-H ) :   0.9399 B( 12-C , 13-H ) :   0.9320 B( 12-C , 14-H ) :   0.9224
B( 12-C , 15-O ) :   0.8332 B( 12-C , 16-C ) :   0.8930 B( 16-C , 17-C ) :   0.8814
B( 16-C , 20-O ) :   0.8350 B( 16-C , 21-H ) :   0.9289 B( 17-C , 18-C ) :   0.9139
B( 17-C , 22-H ) :   0.9314 B( 17-C , 23-O ) :   0.9203 B( 18-C , 19-C ) :   0.9400
B( 18-C , 24-H ) :   0.9411 B( 18-C , 25-H ) :   0.9427 B( 19-C , 20-O ) :   0.8305
B( 19-C , 26-H ) :   0.9325 B( 19-C , 27-H ) :   0.9375 B( 23-O , 28-H ) :   0.7612

FINAL SINGLE POINT ENERGY      -652.854085626017

DIPOLE MOMENT
-------------
                                X             Y             Z
Electronic contribution:      0.21797      -2.25046      -0.87050
Nuclear contribution   :     -0.50379       2.58444       0.83792
                        -----------------------------------------
Total Dipole Moment    :     -0.28582       0.33398      -0.03258
                        -----------------------------------------
Magnitude (a.u.)       :      0.44079
Magnitude (Debye)      :      1.12040

Rotational constants in cm-1:     0.062492     0.014178     0.012818
Rotational constants in MHz :  1873.473553   425.043139   384.275910

                             ****ORCA TERMINATED NORMALLY****
TOTAL RUN TIME: 0 days 0 hours 25 minutes 33 seconds 376 msec
