                         Program Version 4.2.0 -  RELEASE  -
|  1> # Test redundant internal optimization
|  2> #
|  3> ! RKS B3LYP  Opt TightSCF SmallPrint
|  4>
|  5> %basis
|  6>         Basis "6-31G"
|  7> end
|  8>
|  9> %geom
| 10> Constraints
| 11> { D 4  0  15  12  45.0   C } # D for Dihedral angle
| 12> { D 0  15  12  16  135.0   C } # D for Dihedral angle
| 13> { D 0  4  3  2   C } # D for Dihedral angle
| 14> { D 4  3  2  1   C } # D for Dihedral angle
| 15> { D 3  2  1  0   C } # D for Dihedral angle
| 16> { D 2  1  0  4   C } # D for Dihedral angle
| 17> { D 1  0  4  3   C } # D for Dihedral angle
| 18> { D 16  20  19  18   C } # D for Dihedral angle
| 19> { D 20  19  18  17   C } # D for Dihedral angle
| 20> { D 19  18  17  16   C } # D for Dihedral angle
| 21> { D 18  17  16  20   C } # D for Dihedral angle
| 22> { D 17  16  20  19   C } # D for Dihedral angle
| 23> { D 15  12  16  20   C } # D for Dihedral angle
| 24> end
| 25> end
| 26>
| 27>
| 28> #%pal
| 29> #nprocs 8
| 30> #end
| 31>
| 32> * xyz 0 1
| 33> C  -21.048   26.222   46.251
| 34> C  -20.361   27.558   45.944
| 35> C  -20.329   28.222   47.341
| 36> C  -20.110   27.022   48.296
| 37> O  -20.473   25.807   47.535
| 38> H  -20.833   25.428   45.533
| 39> H  -19.344   27.382   45.576
| 40> H  -20.898   28.157   45.201
| 41> H  -19.543   28.978   47.434
| 42> H  -21.289   28.710   47.548
| 43> H  -20.733   27.082   49.195
| 44> H  -19.064   26.913   48.597
| 45> C  -23.065   27.161   47.638
| 46> H  -23.479   26.447   48.360
| 47> H  -22.223   27.682   48.113
| 48> O  -22.586   26.394   46.375
| 49> C  -24.156   28.221   47.319
| 50> C  -25.440   27.560   46.805
| 51> C  -26.086   27.066   48.121
| 52> C  -25.702   28.170   49.138
| 53> O  -24.571   28.914   48.543
| 54> H  -23.737   28.976   46.650
| 55> O  -26.343   28.618   46.114
| 56> H  -25.253   26.750   46.092
| 57> H  -27.170   26.934   48.038
| 58> H  -25.653   26.102   48.414
| 59> H  -25.392   27.760   50.105
| 60> H  -26.510   28.887   49.301
| 61> H  -26.546   29.441   46.809
| 62> *
| 63>
| 64>                          ****END OF INPUT****
 Total Charge           Charge          ....    0
 Multiplicity           Mult            ....    1
 Number of Electrons    NEL             ....  102
FINAL SINGLE POINT ENERGY      -652.817710128577
FINAL SINGLE POINT ENERGY      -652.844800862323
FINAL SINGLE POINT ENERGY      -652.856836405378
FINAL SINGLE POINT ENERGY      -652.858730967336
FINAL SINGLE POINT ENERGY      -652.859039970705
FINAL SINGLE POINT ENERGY      -652.859088341190
FINAL SINGLE POINT ENERGY      -652.859093010436
                    ***********************HURRAY********************

CARTESIAN COORDINATES (ANGSTROEM)
---------------------------------
  C    -21.219464   26.360211   46.410867
  C    -20.438528   27.592382   45.933837
  C    -20.017952   28.250179   47.279750
  C    -19.766708   27.023687   48.191854
  O    -20.453933   25.879091   47.538162
  H    -21.222880   25.553112   45.675976
  H    -19.559049   27.254953   45.374732
  H    -21.037003   28.245826   45.294511
  H    -19.119953   28.867708   47.177534
  H    -20.813817   28.893483   47.665577
  H    -20.162213   27.144125   49.204759
  H    -18.706459   26.760837   48.252373
  C    -23.127524   27.196276   47.870355
  H    -23.523266   26.424704   48.541762
  H    -22.354424   27.741822   48.413982
  O    -22.629736   26.544053   46.664800
  C    -24.220576   28.177498   47.449197
  C    -25.451606   27.537312   46.791648
  C    -26.238696   27.033885   48.027609
  C    -25.955055   28.118134   49.096922
  O    -24.753858   28.861084   48.633828
  H    -23.791437   28.946628   46.799612
  O    -26.206242   28.525569   46.035875
  H    -25.193450   26.753320   46.081903
  H    -27.301590   26.934249   47.793684
  H    -25.864403   26.054696   48.343537
  H    -25.752470   27.698460   50.086727
  H    -26.768053   28.845920   49.186142
  H    -26.286653   29.344795   46.568488

 Multiplicity           Mult            ....    1
 Number of Electrons    NEL             ....  102
 Basis Dimension        Dim             ....  149

ORBITAL ENERGIES
----------------

  NO   OCC          E(Eh)            E(eV)
   0   2.0000     -19.147274      -521.0238
   1   2.0000     -19.145730      -520.9818
   2   2.0000     -19.144663      -520.9528
   3   2.0000     -19.134368      -520.6726
   4   2.0000     -10.281150      -279.7643
   5   2.0000     -10.234548      -278.4962
   6   2.0000     -10.233486      -278.4673
   7   2.0000     -10.232888      -278.4510
   8   2.0000     -10.231891      -278.4239
   9   2.0000     -10.231850      -278.4228
  10   2.0000     -10.195363      -277.4299
  11   2.0000     -10.190491      -277.2974
  12   2.0000     -10.186372      -277.1853
  13   2.0000      -1.054891       -28.7051
  14   2.0000      -1.035566       -28.1792
  15   2.0000      -1.003778       -27.3142
  16   2.0000      -0.997406       -27.1408
  17   2.0000      -0.791204       -21.5297
  18   2.0000      -0.781654       -21.2699
  19   2.0000      -0.770726       -20.9725
  20   2.0000      -0.733941       -19.9716
  21   2.0000      -0.677769       -18.4430
  22   2.0000      -0.606801       -16.5119
  23   2.0000      -0.604101       -16.4384
  24   2.0000      -0.597412       -16.2564
  25   2.0000      -0.576350       -15.6833
  26   2.0000      -0.527154       -14.3446
  27   2.0000      -0.511613       -13.9217
  28   2.0000      -0.503382       -13.6977
  29   2.0000      -0.491746       -13.3811
  30   2.0000      -0.472922       -12.8689
  31   2.0000      -0.459127       -12.4935
  32   2.0000      -0.445736       -12.1291
  33   2.0000      -0.440079       -11.9752
  34   2.0000      -0.425428       -11.5765
  35   2.0000      -0.418757       -11.3950
  36   2.0000      -0.407498       -11.0886
  37   2.0000      -0.391992       -10.6666
  38   2.0000      -0.381721       -10.3871
  39   2.0000      -0.366734        -9.9794
  40   2.0000      -0.363058        -9.8793
  41   2.0000      -0.359023        -9.7695
  42   2.0000      -0.349270        -9.5041
  43   2.0000      -0.334281        -9.0963
  44   2.0000      -0.322215        -8.7679
  45   2.0000      -0.314690        -8.5631
  46   2.0000      -0.303145        -8.2490
  47   2.0000      -0.273180        -7.4336
  48   2.0000      -0.265204        -7.2166
  49   2.0000      -0.257073        -6.9953
  50   2.0000      -0.242238        -6.5916
  51   0.0000       0.064599         1.7578
  52   0.0000       0.065912         1.7935
  53   0.0000       0.091019         2.4768
  54   0.0000       0.096624         2.6293
  55   0.0000       0.101882         2.7723

MULLIKEN ATOMIC CHARGES
-----------------------
   0 C :    0.300636
   1 C :   -0.267890
   2 C :   -0.321615
   3 C :   -0.018926
   4 O :   -0.506161
   5 H :    0.166345
   6 H :    0.153161
   7 H :    0.154583
   8 H :    0.149038
   9 H :    0.157441
  10 H :    0.148940
  11 H :    0.151518
  12 C :   -0.011518
  13 H :    0.144859
  14 H :    0.146763
  15 O :   -0.534551
  16 C :    0.061316
  17 C :    0.088152
  18 C :   -0.297503
  19 C :   -0.034884
  20 O :   -0.530323
  21 H :    0.156946
  22 O :   -0.603451
  23 H :    0.180563
  24 H :    0.162519
  25 H :    0.148224
  26 H :    0.147144
  27 H :    0.147573
  28 H :    0.361100
Sum of atomic charges:   -0.0000000

LOEWDIN ATOMIC CHARGES
----------------------
   0 C :    0.178729
   1 C :   -0.227808
   2 C :   -0.225159
   3 C :   -0.036048
   4 O :   -0.320081
   5 H :    0.112900
   6 H :    0.119723
   7 H :    0.121650
   8 H :    0.117726
   9 H :    0.112212
  10 H :    0.103453
  11 H :    0.106960
  12 C :   -0.038273
  13 H :    0.103083
  14 H :    0.106748
  15 O :   -0.330323
  16 C :    0.013259
  17 C :    0.037926
  18 C :   -0.241006
  19 C :   -0.039324
  20 O :   -0.334608
  21 H :    0.112951
  22 O :   -0.415094
  23 H :    0.129844
  24 H :    0.126873
  25 H :    0.115922
  26 H :    0.104481
  27 H :    0.102701
  28 H :    0.280582

  Mayer bond orders larger than 0.100000
B(  0-C ,  1-C ) :   0.9162 B(  0-C ,  4-O ) :   0.9095 B(  0-C ,  5-H ) :   0.9358
B(  0-C , 15-O ) :   0.8787 B(  1-C ,  2-C ) :   0.9541 B(  1-C ,  6-H ) :   0.9344
B(  1-C ,  7-H ) :   0.9366 B(  2-C ,  3-C ) :   0.9476 B(  2-C ,  8-H ) :   0.9442
B(  2-C ,  9-H ) :   0.9394 B(  3-C ,  4-O ) :   0.8399 B(  3-C , 10-H ) :   0.9311
B(  3-C , 11-H ) :   0.9381 B( 12-C , 13-H ) :   0.9296 B( 12-C , 14-H ) :   0.9086
B( 12-C , 15-O ) :   0.8144 B( 12-C , 16-C ) :   0.8956 B( 16-C , 17-C ) :   0.9142
B( 16-C , 20-O ) :   0.8416 B( 16-C , 21-H ) :   0.9258 B( 17-C , 18-C ) :   0.9139
B( 17-C , 22-O ) :   0.8894 B( 17-C , 23-H ) :   0.9225 B( 18-C , 19-C ) :   0.9411
B( 18-C , 24-H ) :   0.9373 B( 18-C , 25-H ) :   0.9341 B( 19-C , 20-O ) :   0.8435
B( 19-C , 26-H ) :   0.9359 B( 19-C , 27-H ) :   0.9373 B( 22-O , 28-H ) :   0.7968

FINAL SINGLE POINT ENERGY      -652.859083712701

DIPOLE MOMENT
-------------
                                X             Y             Z
Electronic contribution:     -2.01834      -1.26763      -1.69746
Nuclear contribution   :      2.51098       1.69908       2.25373
                        -----------------------------------------
Total Dipole Moment    :      0.49264       0.43145       0.55627
                        -----------------------------------------
Magnitude (a.u.)       :      0.85923
Magnitude (Debye)      :      2.18398

Rotational constants in cm-1:     0.055579     0.013083     0.012541
Rotational constants in MHz :  1666.209215   392.209751   375.981516

                             ****ORCA TERMINATED NORMALLY****
TOTAL RUN TIME: 0 days 0 hours 26 minutes 5 seconds 667 msec
