                         Program Version 4.2.0 -  RELEASE  -
|  1> # Test redundant internal optimization
|  2> #
|  3> ! RKS B3LYP  Opt TightSCF SmallPrint
|  4>
|  5> %basis
|  6>         Basis "6-31G"
|  7> end
|  8>
|  9> %geom
| 10> Constraints
| 11> { D 4  0  15  12  165.0   C } # D for Dihedral angle
| 12> { D 0  15  12  16  165.0   C } # D for Dihedral angle
| 13> { D 0  4  3  2   C } # D for Dihedral angle
| 14> { D 4  3  2  1   C } # D for Dihedral angle
| 15> { D 3  2  1  0   C } # D for Dihedral angle
| 16> { D 2  1  0  4   C } # D for Dihedral angle
| 17> { D 1  0  4  3   C } # D for Dihedral angle
| 18> { D 16  20  19  18   C } # D for Dihedral angle
| 19> { D 20  19  18  17   C } # D for Dihedral angle
| 20> { D 19  18  17  16   C } # D for Dihedral angle
| 21> { D 18  17  16  20   C } # D for Dihedral angle
| 22> { D 17  16  20  19   C } # D for Dihedral angle
| 23> { D 15  12  16  20   C } # D for Dihedral angle
| 24> end
| 25> end
| 26>
| 27>
| 28> #%pal
| 29> #nprocs 8
| 30> #end
| 31>
| 32> * xyz 0 1
| 33> C  -21.048   26.222   46.251
| 34> C  -20.361   27.558   45.944
| 35> C  -20.329   28.222   47.341
| 36> C  -20.110   27.022   48.296
| 37> O  -20.473   25.807   47.535
| 38> H  -20.833   25.428   45.533
| 39> H  -19.344   27.382   45.576
| 40> H  -20.898   28.157   45.201
| 41> H  -19.543   28.978   47.434
| 42> H  -21.289   28.710   47.548
| 43> H  -20.733   27.082   49.195
| 44> H  -19.064   26.913   48.597
| 45> C  -23.260   27.170   45.210
| 46> H  -23.035   28.239   45.310
| 47> H  -22.870   26.826   44.244
| 48> O  -22.586   26.394   46.375
| 49> C  -24.804   26.996   45.187
| 50> C  -25.452   27.608   46.434
| 51> C  -25.461   29.113   46.075
| 52> C  -25.713   29.109   44.546
| 53> O  -25.387   27.748   44.070
| 54> H  -25.043   25.944   45.023
| 55> O  -26.901   27.074   46.597
| 56> H  -24.900   27.394   47.355
| 57> H  -26.225   29.675   46.622
| 58> H  -24.487   29.561   46.306
| 59> H  -25.086   29.834   44.016
| 60> H  -26.760   29.297   44.295
| 61> H  -27.474   27.278   45.684
| 62> *
| 63>
| 64>                          ****END OF INPUT****
 Total Charge           Charge          ....    0
 Multiplicity           Mult            ....    1
 Number of Electrons    NEL             ....  102
FINAL SINGLE POINT ENERGY      -652.832562933225
FINAL SINGLE POINT ENERGY      -652.855749374683
FINAL SINGLE POINT ENERGY      -652.859675452577
FINAL SINGLE POINT ENERGY      -652.860314957758
FINAL SINGLE POINT ENERGY      -652.860410401379
FINAL SINGLE POINT ENERGY      -652.860424686189
                    ***********************HURRAY********************

CARTESIAN COORDINATES (ANGSTROEM)
---------------------------------
  C    -21.156227   26.254995   46.190443
  C    -20.316798   27.501987   45.917865
  C    -20.363226   28.228484   47.286184
  C    -20.363296   27.057999   48.291008
  O    -20.768055   25.859802   47.511614
  H    -20.966029   25.409925   45.521877
  H    -19.293906   27.186849   45.681917
  H    -20.676374   28.116550   45.088702
  H    -19.514174   28.903283   47.429885
  H    -21.285031   28.813093   47.371320
  H    -21.069773   27.193537   49.113469
  H    -19.369830   26.845448   48.696185
  C    -23.179609   27.246135   45.117898
  H    -22.921765   28.313378   45.165570
  H    -22.832671   26.854974   44.151320
  O    -22.594071   26.516460   46.229758
  C    -24.691436   27.052422   45.213057
  C    -25.343438   27.622968   46.480408
  C    -25.453199   29.127658   46.124852
  C    -25.744450   29.112667   44.603643
  O    -25.347282   27.768199   44.112819
  H    -24.927759   25.991341   45.099146
  O    -26.653025   27.027963   46.697444
  H    -24.768952   27.419953   47.382252
  H    -26.246417   29.604348   46.706065
  H    -24.510936   29.641734   46.345077
  H    -25.181082   29.872218   44.053372
  H    -26.807978   29.236037   44.377895
  H    -27.122213   26.960595   45.838953

 Multiplicity           Mult            ....    1
 Number of Electrons    NEL             ....  102
 Basis Dimension        Dim             ....  149

ORBITAL ENERGIES
----------------

  NO   OCC          E(Eh)            E(eV)
   0   2.0000     -19.145643      -520.9794
   1   2.0000     -19.144997      -520.9619
   2   2.0000     -19.143655      -520.9253
   3   2.0000     -19.133576      -520.6511
   4   2.0000     -10.283710      -279.8340
   5   2.0000     -10.234925      -278.5065
   6   2.0000     -10.234767      -278.5022
   7   2.0000     -10.233294      -278.4621
   8   2.0000     -10.232536      -278.4414
   9   2.0000     -10.229186      -278.3503
  10   2.0000     -10.193993      -277.3927
  11   2.0000     -10.193868      -277.3893
  12   2.0000     -10.188175      -277.2343
  13   2.0000      -1.057162       -28.7669
  14   2.0000      -1.036185       -28.1960
  15   2.0000      -1.003569       -27.3085
  16   2.0000      -0.997863       -27.1532
  17   2.0000      -0.792594       -21.5676
  18   2.0000      -0.780811       -21.2469
  19   2.0000      -0.769916       -20.9505
  20   2.0000      -0.733875       -19.9698
  21   2.0000      -0.678765       -18.4701
  22   2.0000      -0.607027       -16.5180
  23   2.0000      -0.604106       -16.4386
  24   2.0000      -0.594406       -16.1746
  25   2.0000      -0.578714       -15.7476
  26   2.0000      -0.524731       -14.2787
  27   2.0000      -0.516571       -14.0566
  28   2.0000      -0.502939       -13.6857
  29   2.0000      -0.494067       -13.4442
  30   2.0000      -0.474519       -12.9123
  31   2.0000      -0.456417       -12.4197
  32   2.0000      -0.453499       -12.3403
  33   2.0000      -0.445903       -12.1336
  34   2.0000      -0.427470       -11.6320
  35   2.0000      -0.414197       -11.2709
  36   2.0000      -0.405104       -11.0234
  37   2.0000      -0.392083       -10.6691
  38   2.0000      -0.382310       -10.4032
  39   2.0000      -0.368668       -10.0320
  40   2.0000      -0.364111        -9.9080
  41   2.0000      -0.360314        -9.8046
  42   2.0000      -0.356669        -9.7055
  43   2.0000      -0.333752        -9.0819
  44   2.0000      -0.317829        -8.6486
  45   2.0000      -0.308527        -8.3954
  46   2.0000      -0.300414        -8.1747
  47   2.0000      -0.271409        -7.3854
  48   2.0000      -0.263976        -7.1831
  49   2.0000      -0.257452        -7.0056
  50   2.0000      -0.246716        -6.7135
  51   0.0000       0.060027         1.6334
  52   0.0000       0.066879         1.8199
  53   0.0000       0.093678         2.5491
  54   0.0000       0.099336         2.7031
  55   0.0000       0.101479         2.7614

MULLIKEN ATOMIC CHARGES
-----------------------
   0 C :    0.316871
   1 C :   -0.291849
   2 C :   -0.298348
   3 C :   -0.001113
   4 O :   -0.498644
   5 H :    0.147891
   6 H :    0.152606
   7 H :    0.145527
   8 H :    0.145496
   9 H :    0.152066
  10 H :    0.155317
  11 H :    0.144952
  12 C :   -0.007187
  13 H :    0.124587
  14 H :    0.141088
  15 O :   -0.522122
  16 C :    0.054117
  17 C :    0.092426
  18 C :   -0.300147
  19 C :   -0.030903
  20 O :   -0.528772
  21 H :    0.170743
  22 O :   -0.603309
  23 H :    0.179942
  24 H :    0.164676
  25 H :    0.139934
  26 H :    0.144652
  27 H :    0.146916
  28 H :    0.362584
Sum of atomic charges:   -0.0000000

LOEWDIN ATOMIC CHARGES
----------------------
   0 C :    0.184178
   1 C :   -0.233950
   2 C :   -0.216718
   3 C :   -0.025251
   4 O :   -0.301128
   5 H :    0.100657
   6 H :    0.119215
   7 H :    0.114923
   8 H :    0.115981
   9 H :    0.112609
  10 H :    0.109945
  11 H :    0.104268
  12 C :   -0.042678
  13 H :    0.087699
  14 H :    0.101414
  15 O :   -0.338871
  16 C :    0.018677
  17 C :    0.039602
  18 C :   -0.242021
  19 C :   -0.038923
  20 O :   -0.331848
  21 H :    0.120979
  22 O :   -0.414044
  23 H :    0.129431
  24 H :    0.127653
  25 H :    0.110758
  26 H :    0.102972
  27 H :    0.103173
  28 H :    0.281298

  Mayer bond orders larger than 0.100000
B(  0-C ,  1-C ) :   0.9281 B(  0-C ,  4-O ) :   0.9411 B(  0-C ,  5-H ) :   0.9220
B(  0-C , 15-O ) :   0.8263 B(  1-C ,  2-C ) :   0.9505 B(  1-C ,  6-H ) :   0.9339
B(  1-C ,  7-H ) :   0.9287 B(  2-C ,  3-C ) :   0.9546 B(  2-C ,  8-H ) :   0.9451
B(  2-C ,  9-H ) :   0.9455 B(  3-C ,  4-O ) :   0.8353 B(  3-C , 10-H ) :   0.9343
B(  3-C , 11-H ) :   0.9394 B( 12-C , 13-H ) :   0.9130 B( 12-C , 14-H ) :   0.9158
B( 12-C , 15-O ) :   0.8314 B( 12-C , 16-C ) :   0.9008 B( 16-C , 17-C ) :   0.9155
B( 16-C , 20-O ) :   0.8412 B( 16-C , 21-H ) :   0.9246 B( 17-C , 18-C ) :   0.9107
B( 17-C , 22-O ) :   0.8882 B( 17-C , 23-H ) :   0.9230 B( 18-C , 19-C ) :   0.9422
B( 18-C , 24-H ) :   0.9369 B( 18-C , 25-H ) :   0.9353 B( 19-C , 20-O ) :   0.8450
B( 19-C , 26-H ) :   0.9356 B( 19-C , 27-H ) :   0.9382 B( 22-O , 28-H ) :   0.7958

FINAL SINGLE POINT ENERGY      -652.860427254199

DIPOLE MOMENT
-------------
                                X             Y             Z
Electronic contribution:     -3.41819      -5.89047      -0.37393
Nuclear contribution   :      4.31707       7.39656      -0.14216
                        -----------------------------------------
Total Dipole Moment    :      0.89888       1.50609      -0.51609
                        -----------------------------------------
Magnitude (a.u.)       :      1.82829
Magnitude (Debye)      :      4.64715

Rotational constants in cm-1:     0.053037     0.012880     0.012481
Rotational constants in MHz :  1590.018937   386.138673   374.177215

                             ****ORCA TERMINATED NORMALLY****
TOTAL RUN TIME: 0 days 0 hours 17 minutes 12 seconds 793 msec
