                         Program Version 4.2.0 -  RELEASE  -
|  1> # Test redundant internal optimization
|  2> #
|  3> ! RKS B3LYP  Opt TightSCF SmallPrint
|  4>
|  5> %basis
|  6>         Basis "6-31G"
|  7> end
|  8>
|  9> %geom
| 10> Constraints
| 11> { D 4  0  15  12  15.0   C } # D for Dihedral angle
| 12> { D 0  15  12  16  165.0   C } # D for Dihedral angle
| 13> { D 0  4  3  2   C } # D for Dihedral angle
| 14> { D 4  3  2  1   C } # D for Dihedral angle
| 15> { D 3  2  1  0   C } # D for Dihedral angle
| 16> { D 2  1  0  4   C } # D for Dihedral angle
| 17> { D 1  0  4  3   C } # D for Dihedral angle
| 18> { D 16  20  19  18   C } # D for Dihedral angle
| 19> { D 20  19  18  17   C } # D for Dihedral angle
| 20> { D 19  18  17  16   C } # D for Dihedral angle
| 21> { D 18  17  16  20   C } # D for Dihedral angle
| 22> { D 17  16  20  19   C } # D for Dihedral angle
| 23> { D 15  12  16  20   C } # D for Dihedral angle
| 24> end
| 25> end
| 26>
| 27>
| 28> #%pal
| 29> #nprocs 8
| 30> #end
| 31>
| 32> * xyz 0 1
| 33> C  -21.048   26.222   46.251
| 34> C  -20.361   27.558   45.944
| 35> C  -20.329   28.222   47.341
| 36> C  -20.110   27.022   48.296
| 37> O  -20.473   25.807   47.535
| 38> H  -20.833   25.428   45.533
| 39> H  -19.344   27.382   45.576
| 40> H  -20.898   28.157   45.201
| 41> H  -19.543   28.978   47.434
| 42> H  -21.289   28.710   47.548
| 43> H  -20.733   27.082   49.195
| 44> H  -19.064   26.913   48.597
| 45> C  -23.128   26.462   47.829
| 46> H  -23.107   25.458   48.271
| 47> H  -22.499   27.120   48.443
| 48> O  -22.586   26.394   46.375
| 49> C  -24.584   26.998   47.903
| 50> C  -25.564   26.044   47.211
| 51> C  -25.749   24.948   48.288
| 52> C  -25.680   25.746   49.615
| 53> O  -25.045   27.041   49.295
| 54> H  -24.608   28.022   47.526
| 55> H  -26.513   26.556   47.014
| 56> O  -25.024   25.483   45.867
| 57> H  -26.689   24.400   48.179
| 58> H  -24.929   24.222   48.230
| 59> H  -25.088   25.235   50.381
| 60> H  -26.671   25.964   50.022
| 61> H  -24.074   24.965   46.040
| 62> *
| 63>
| 64>                          ****END OF INPUT****
 Total Charge           Charge          ....    0
 Multiplicity           Mult            ....    1
 Number of Electrons    NEL             ....  102
FINAL SINGLE POINT ENERGY      -652.827028045802
FINAL SINGLE POINT ENERGY      -652.851573352849
FINAL SINGLE POINT ENERGY      -652.858794522539
FINAL SINGLE POINT ENERGY      -652.861529680325
FINAL SINGLE POINT ENERGY      -652.862944812214
FINAL SINGLE POINT ENERGY      -652.863791006134
FINAL SINGLE POINT ENERGY      -652.864066235559
FINAL SINGLE POINT ENERGY      -652.864130024604
FINAL SINGLE POINT ENERGY      -652.864136618236
                    ***********************HURRAY********************

CARTESIAN COORDINATES (ANGSTROEM)
---------------------------------
  C    -21.126676   26.217029   46.412497
  C    -20.504465   27.536539   45.952730
  C    -20.249137   28.255465   47.300691
  C    -19.875249   27.095552   48.250179
  O    -20.365722   25.855325   47.579154
  H    -21.022972   25.397251   45.699726
  H    -19.562686   27.324560   45.433842
  H    -21.163242   28.093463   45.282935
  H    -19.454118   29.004171   47.233683
  H    -21.159435   28.763906   47.635887
  H    -20.338495   27.166482   49.237580
  H    -18.794882   26.974113   48.367819
  C    -23.097801   26.415470   48.010837
  H    -23.035387   25.434707   48.493735
  H    -22.539469   27.132520   48.617778
  O    -22.567453   26.332962   46.645116
  C    -24.547295   26.902304   47.896689
  C    -25.502493   25.955475   47.150323
  C    -25.807254   24.889145   48.243131
  C    -25.818067   25.715481   49.545030
  O    -25.111907   26.997051   49.241362
  H    -24.554997   27.910242   47.473362
  H    -26.421601   26.504849   46.915731
  O    -25.009141   25.400140   45.917474
  H    -26.754776   24.376868   48.056843
  H    -25.011458   24.136231   48.236158
  H    -25.305235   25.223167   50.376954
  H    -26.828113   25.987222   49.864110
  H    -24.033474   25.541309   45.868643

 Multiplicity           Mult            ....    1
 Number of Electrons    NEL             ....  102
 Basis Dimension        Dim             ....  149

ORBITAL ENERGIES
----------------

  NO   OCC          E(Eh)            E(eV)
   0   2.0000     -19.161542      -521.4121
   1   2.0000     -19.160556      -521.3852
   2   2.0000     -19.138968      -520.7978
   3   2.0000     -19.109751      -520.0028
   4   2.0000     -10.293210      -280.0925
   5   2.0000     -10.241725      -278.6915
   6   2.0000     -10.236818      -278.5580
   7   2.0000     -10.232544      -278.4417
   8   2.0000     -10.227550      -278.3058
   9   2.0000     -10.224509      -278.2230
  10   2.0000     -10.201020      -277.5839
  11   2.0000     -10.196466      -277.4599
  12   2.0000     -10.176391      -276.9137
  13   2.0000      -1.067816       -29.0567
  14   2.0000      -1.024699       -27.8835
  15   2.0000      -1.007370       -27.4119
  16   2.0000      -0.989362       -26.9219
  17   2.0000      -0.800329       -21.7781
  18   2.0000      -0.776974       -21.1425
  19   2.0000      -0.766419       -20.8553
  20   2.0000      -0.737969       -20.0812
  21   2.0000      -0.678413       -18.4605
  22   2.0000      -0.613966       -16.7069
  23   2.0000      -0.600708       -16.3461
  24   2.0000      -0.593396       -16.1471
  25   2.0000      -0.576565       -15.6891
  26   2.0000      -0.535008       -14.5583
  27   2.0000      -0.513076       -13.9615
  28   2.0000      -0.509185       -13.8556
  29   2.0000      -0.487274       -13.2594
  30   2.0000      -0.476668       -12.9708
  31   2.0000      -0.458485       -12.4760
  32   2.0000      -0.442370       -12.0375
  33   2.0000      -0.431449       -11.7403
  34   2.0000      -0.425172       -11.5695
  35   2.0000      -0.424172       -11.5423
  36   2.0000      -0.407709       -11.0943
  37   2.0000      -0.386848       -10.5267
  38   2.0000      -0.385907       -10.5011
  39   2.0000      -0.370997       -10.0953
  40   2.0000      -0.366226        -9.9655
  41   2.0000      -0.359993        -9.7959
  42   2.0000      -0.357427        -9.7261
  43   2.0000      -0.339925        -9.2498
  44   2.0000      -0.332594        -9.0503
  45   2.0000      -0.319685        -8.6991
  46   2.0000      -0.289262        -7.8712
  47   2.0000      -0.274906        -7.4806
  48   2.0000      -0.263845        -7.1796
  49   2.0000      -0.248971        -6.7749
  50   2.0000      -0.239063        -6.5052
  51   0.0000       0.057364         1.5609
  52   0.0000       0.071038         1.9330
  53   0.0000       0.090113         2.4521
  54   0.0000       0.098146         2.6707
  55   0.0000       0.100002         2.7212

MULLIKEN ATOMIC CHARGES
-----------------------
   0 C :    0.308816
   1 C :   -0.258333
   2 C :   -0.314232
   3 C :   -0.023374
   4 O :   -0.506029
   5 H :    0.166019
   6 H :    0.152182
   7 H :    0.162683
   8 H :    0.153856
   9 H :    0.157568
  10 H :    0.153520
  11 H :    0.157137
  12 C :   -0.003926
  13 H :    0.153308
  14 H :    0.152014
  15 O :   -0.578449
  16 C :    0.050062
  17 C :    0.121995
  18 C :   -0.302297
  19 C :   -0.019124
  20 O :   -0.523875
  21 H :    0.155379
  22 H :    0.144817
  23 O :   -0.639827
  24 H :    0.150026
  25 H :    0.148546
  26 H :    0.141108
  27 H :    0.147949
  28 H :    0.392483
Sum of atomic charges:   -0.0000000

LOEWDIN ATOMIC CHARGES
----------------------
   0 C :    0.184319
   1 C :   -0.221413
   2 C :   -0.220898
   3 C :   -0.033843
   4 O :   -0.313034
   5 H :    0.111716
   6 H :    0.118217
   7 H :    0.126377
   8 H :    0.120914
   9 H :    0.114552
  10 H :    0.106056
  11 H :    0.110237
  12 C :   -0.039381
  13 H :    0.105716
  14 H :    0.106912
  15 O :   -0.349884
  16 C :    0.017790
  17 C :    0.042300
  18 C :   -0.237318
  19 C :   -0.031894
  20 O :   -0.325985
  21 H :    0.113104
  22 H :    0.104331
  23 O :   -0.435499
  24 H :    0.120825
  25 H :    0.112460
  26 H :    0.101477
  27 H :    0.105466
  28 H :    0.286378

  Mayer bond orders larger than 0.100000
B(  0-C ,  1-C ) :   0.9290 B(  0-C ,  4-O ) :   0.9304 B(  0-C ,  5-H ) :   0.9324
B(  0-C , 15-O ) :   0.8032 B(  1-C ,  2-C ) :   0.9511 B(  1-C ,  6-H ) :   0.9339
B(  1-C ,  7-H ) :   0.9355 B(  2-C ,  3-C ) :   0.9513 B(  2-C ,  8-H ) :   0.9436
B(  2-C ,  9-H ) :   0.9431 B(  3-C ,  4-O ) :   0.8245 B(  3-C , 10-H ) :   0.9299
B(  3-C , 11-H ) :   0.9385 B( 12-C , 13-H ) :   0.9240 B( 12-C , 14-H ) :   0.9162
B( 12-C , 15-O ) :   0.7713 B( 12-C , 16-C ) :   0.9020 B( 16-C , 17-C ) :   0.9138
B( 16-C , 20-O ) :   0.8564 B( 16-C , 21-H ) :   0.9288 B( 17-C , 18-C ) :   0.9013
B( 17-C , 22-H ) :   0.9301 B( 17-C , 23-O ) :   0.9363 B( 18-C , 19-C ) :   0.9382
B( 18-C , 24-H ) :   0.9453 B( 18-C , 25-H ) :   0.9429 B( 19-C , 20-O ) :   0.8311
B( 19-C , 26-H ) :   0.9346 B( 19-C , 27-H ) :   0.9389 B( 23-O , 28-H ) :   0.7225

FINAL SINGLE POINT ENERGY      -652.864138811839

DIPOLE MOMENT
-------------
                                X             Y             Z
Electronic contribution:     -1.51428      -1.55289      -1.59910
Nuclear contribution   :      2.61314       2.15971       1.96383
                        -----------------------------------------
Total Dipole Moment    :      1.09886       0.60682       0.36473
                        -----------------------------------------
Magnitude (a.u.)       :      1.30719
Magnitude (Debye)      :      3.32261

Rotational constants in cm-1:     0.052635     0.014399     0.012984
Rotational constants in MHz :  1577.968944   431.676664   389.248931

                             ****ORCA TERMINATED NORMALLY****
TOTAL RUN TIME: 0 days 0 hours 42 minutes 52 seconds 349 msec
