                         Program Version 4.2.0 -  RELEASE  -
|  1> # Test redundant internal optimization
|  2> #
|  3> ! RKS B3LYP  Opt TightSCF SmallPrint
|  4>
|  5> %basis
|  6>         Basis "6-31G"
|  7> end
|  8>
|  9> %geom
| 10> Constraints
| 11> { D 4  0  15  12  315.0   C } # D for Dihedral angle
| 12> { D 0  15  12  16  180.0   C } # D for Dihedral angle
| 13> { D 0  4  3  2   C } # D for Dihedral angle
| 14> { D 4  3  2  1   C } # D for Dihedral angle
| 15> { D 3  2  1  0   C } # D for Dihedral angle
| 16> { D 2  1  0  4   C } # D for Dihedral angle
| 17> { D 1  0  4  3   C } # D for Dihedral angle
| 18> { D 16  20  19  18   C } # D for Dihedral angle
| 19> { D 20  19  18  17   C } # D for Dihedral angle
| 20> { D 19  18  17  16   C } # D for Dihedral angle
| 21> { D 18  17  16  20   C } # D for Dihedral angle
| 22> { D 17  16  20  19   C } # D for Dihedral angle
| 23> { D 15  12  16  20   C } # D for Dihedral angle
| 24> end
| 25> end
| 26>
| 27>
| 28> #%pal
| 29> #nprocs 8
| 30> #end
| 31>
| 32> * xyz 0 1
| 33> C  -21.048   26.222   46.251
| 34> C  -20.361   27.558   45.944
| 35> C  -20.329   28.222   47.341
| 36> C  -20.110   27.022   48.296
| 37> O  -20.473   25.807   47.535
| 38> H  -20.833   25.428   45.533
| 39> H  -19.344   27.382   45.576
| 40> H  -20.898   28.157   45.201
| 41> H  -19.543   28.978   47.434
| 42> H  -21.289   28.710   47.548
| 43> H  -20.733   27.082   49.195
| 44> H  -19.064   26.913   48.597
| 45> C  -23.319   25.255   47.135
| 46> H  -23.142   24.303   46.618
| 47> H  -22.933   25.166   48.159
| 48> O  -22.586   26.394   46.375
| 49> C  -24.853   25.483   47.226
| 50> C  -25.504   25.451   45.838
| 51> C  -25.591   23.930   45.569
| 52> C  -25.873   23.339   46.973
| 53> O  -25.493   24.381   47.951
| 54> H  -25.046   26.395   47.795
| 55> H  -26.505   25.893   45.883
| 56> O  -24.681   26.208   44.760
| 57> H  -26.369   23.671   44.843
| 58> H  -24.634   23.562   45.179
| 59> H  -25.292   22.432   47.171
| 60> H  -26.933   23.121   47.129
| 61> H  -23.674   25.781   44.699
| 62> *
| 63>
| 64>                          ****END OF INPUT****
 Total Charge           Charge          ....    0
 Multiplicity           Mult            ....    1
 Number of Electrons    NEL             ....  102
FINAL SINGLE POINT ENERGY      -652.834092080237
FINAL SINGLE POINT ENERGY      -652.859540506361
FINAL SINGLE POINT ENERGY      -652.866177641462
FINAL SINGLE POINT ENERGY      -652.868749956250
FINAL SINGLE POINT ENERGY      -652.870183688301
FINAL SINGLE POINT ENERGY      -652.871029616300
FINAL SINGLE POINT ENERGY      -652.871360707313
FINAL SINGLE POINT ENERGY      -652.871442953575
FINAL SINGLE POINT ENERGY      -652.871453154500
                    ***********************HURRAY********************

CARTESIAN COORDINATES (ANGSTROEM)
---------------------------------
  C    -21.067647   26.107898   46.288750
  C    -20.500335   27.481663   45.937831
  C    -20.494971   28.180815   47.314475
  C    -20.161891   27.036601   48.294322
  O    -20.448751   25.775373   47.547604
  H    -20.825230   25.289847   45.603131
  H    -19.483706   27.357839   45.548706
  H    -21.102964   28.005471   45.192303
  H    -19.767024   28.995987   47.367255
  H    -21.487432   28.591227   47.521382
  H    -20.769132   27.050968   49.202388
  H    -19.103652   26.997198   48.565806
  C    -23.191816   25.174247   47.164817
  H    -22.987424   24.197574   46.703719
  H    -22.812122   25.153825   48.188174
  O    -22.514116   26.231558   46.398554
  C    -24.690175   25.489122   47.158844
  C    -25.366907   25.469360   45.776674
  C    -25.559426   23.942022   45.542123
  C    -25.855261   23.406095   46.957563
  O    -25.387352   24.451688   47.914599
  H    -24.859880   26.434060   47.683142
  H    -26.349184   25.947675   45.865384
  O    -24.657488   26.132730   44.712644
  H    -26.366672   23.739190   44.833244
  H    -24.635227   23.527299   45.126362
  H    -25.339408   22.468002   47.184231
  H    -26.925168   23.272645   47.142859
  H    -23.742639   26.338020   45.017115

 Multiplicity           Mult            ....    1
 Number of Electrons    NEL             ....  102
 Basis Dimension        Dim             ....  149

ORBITAL ENERGIES
----------------

  NO   OCC          E(Eh)            E(eV)
   0   2.0000     -19.165713      -521.5256
   1   2.0000     -19.156387      -521.2718
   2   2.0000     -19.138344      -520.7808
   3   2.0000     -19.112595      -520.0802
   4   2.0000     -10.292675      -280.0779
   5   2.0000     -10.236510      -278.5496
   6   2.0000     -10.233285      -278.4618
   7   2.0000     -10.232630      -278.4440
   8   2.0000     -10.228705      -278.3372
   9   2.0000     -10.224746      -278.2295
  10   2.0000     -10.196324      -277.4561
  11   2.0000     -10.194814      -277.4150
  12   2.0000     -10.177467      -276.9429
  13   2.0000      -1.069493       -29.1024
  14   2.0000      -1.024622       -27.8814
  15   2.0000      -1.007706       -27.4211
  16   2.0000      -0.991675       -26.9849
  17   2.0000      -0.799990       -21.7688
  18   2.0000      -0.772497       -21.0207
  19   2.0000      -0.766602       -20.8603
  20   2.0000      -0.736300       -20.0358
  21   2.0000      -0.676483       -18.4080
  22   2.0000      -0.610263       -16.6061
  23   2.0000      -0.599159       -16.3040
  24   2.0000      -0.592400       -16.1200
  25   2.0000      -0.578122       -15.7315
  26   2.0000      -0.532492       -14.4898
  27   2.0000      -0.517323       -14.0771
  28   2.0000      -0.504444       -13.7266
  29   2.0000      -0.485812       -13.2196
  30   2.0000      -0.476099       -12.9553
  31   2.0000      -0.459181       -12.4950
  32   2.0000      -0.440801       -11.9948
  33   2.0000      -0.429269       -11.6810
  34   2.0000      -0.426927       -11.6173
  35   2.0000      -0.418273       -11.3818
  36   2.0000      -0.410918       -11.1816
  37   2.0000      -0.386931       -10.5289
  38   2.0000      -0.382132       -10.3983
  39   2.0000      -0.368889       -10.0380
  40   2.0000      -0.365513        -9.9461
  41   2.0000      -0.361059        -9.8249
  42   2.0000      -0.355292        -9.6680
  43   2.0000      -0.341815        -9.3013
  44   2.0000      -0.328418        -8.9367
  45   2.0000      -0.313687        -8.5359
  46   2.0000      -0.291257        -7.9255
  47   2.0000      -0.275938        -7.5087
  48   2.0000      -0.269764        -7.3407
  49   2.0000      -0.248626        -6.7655
  50   2.0000      -0.241368        -6.5679
  51   0.0000       0.061102         1.6627
  52   0.0000       0.079958         2.1758
  53   0.0000       0.090580         2.4648
  54   0.0000       0.098812         2.6888
  55   0.0000       0.105247         2.8639

MULLIKEN ATOMIC CHARGES
-----------------------
   0 C :    0.302168
   1 C :   -0.266477
   2 C :   -0.299632
   3 C :   -0.012463
   4 O :   -0.510661
   5 H :    0.155197
   6 H :    0.152112
   7 H :    0.162553
   8 H :    0.148066
   9 H :    0.163679
  10 H :    0.152726
  11 H :    0.151537
  12 C :   -0.004228
  13 H :    0.134472
  14 H :    0.176545
  15 O :   -0.566573
  16 C :    0.048918
  17 C :    0.118207
  18 C :   -0.300564
  19 C :   -0.019165
  20 O :   -0.521777
  21 H :    0.156731
  22 H :    0.145956
  23 O :   -0.641962
  24 H :    0.152556
  25 H :    0.142964
  26 H :    0.141884
  27 H :    0.147885
  28 H :    0.389346
Sum of atomic charges:    0.0000000

LOEWDIN ATOMIC CHARGES
----------------------
   0 C :    0.177502
   1 C :   -0.214427
   2 C :   -0.215885
   3 C :   -0.028353
   4 O :   -0.320020
   5 H :    0.101754
   6 H :    0.118100
   7 H :    0.126341
   8 H :    0.117520
   9 H :    0.119878
  10 H :    0.108040
  11 H :    0.107684
  12 C :   -0.043200
  13 H :    0.097151
  14 H :    0.120030
  15 O :   -0.342924
  16 C :    0.018318
  17 C :    0.041054
  18 C :   -0.236377
  19 C :   -0.031955
  20 O :   -0.323263
  21 H :    0.114062
  22 H :    0.104543
  23 O :   -0.437667
  24 H :    0.121183
  25 H :    0.110172
  26 H :    0.101851
  27 H :    0.105487
  28 H :    0.283398

  Mayer bond orders larger than 0.100000
B(  0-C ,  1-C ) :   0.9512 B(  0-C ,  4-O ) :   0.9166 B(  0-C ,  5-H ) :   0.9213
B(  0-C , 15-O ) :   0.8037 B(  1-C ,  2-C ) :   0.9528 B(  1-C ,  6-H ) :   0.9374
B(  1-C ,  7-H ) :   0.9350 B(  2-C ,  3-C ) :   0.9553 B(  2-C ,  8-H ) :   0.9442
B(  2-C ,  9-H ) :   0.9441 B(  3-C ,  4-O ) :   0.8259 B(  3-C , 10-H ) :   0.9348
B(  3-C , 11-H ) :   0.9400 B( 12-C , 13-H ) :   0.9226 B( 12-C , 14-H ) :   0.9191
B( 12-C , 15-O ) :   0.7752 B( 12-C , 16-C ) :   0.9080 B( 16-C , 17-C ) :   0.9121
B( 16-C , 20-O ) :   0.8562 B( 16-C , 21-H ) :   0.9292 B( 17-C , 18-C ) :   0.9028
B( 17-C , 22-H ) :   0.9288 B( 17-C , 23-O ) :   0.9341 B( 18-C , 19-C ) :   0.9380
B( 18-C , 24-H ) :   0.9447 B( 18-C , 25-H ) :   0.9435 B( 19-C , 20-O ) :   0.8326
B( 19-C , 26-H ) :   0.9344 B( 19-C , 27-H ) :   0.9390 B( 23-O , 28-H ) :   0.7236

FINAL SINGLE POINT ENERGY      -652.871454770246

DIPOLE MOMENT
-------------
                                X             Y             Z
Electronic contribution:     -1.46183      -0.90550       0.38045
Nuclear contribution   :      2.40608       1.17223      -0.23328
                        -----------------------------------------
Total Dipole Moment    :      0.94424       0.26673       0.14717
                        -----------------------------------------
Magnitude (a.u.)       :      0.99217
Magnitude (Debye)      :      2.52190

Rotational constants in cm-1:     0.057436     0.013602     0.012250
Rotational constants in MHz :  1721.896972   407.766769   367.234411

                             ****ORCA TERMINATED NORMALLY****
TOTAL RUN TIME: 0 days 2 hours 8 minutes 58 seconds 479 msec
