                         Program Version 4.2.0 -  RELEASE  -
|  1> # Test redundant internal optimization
|  2> #
|  3> ! RKS B3LYP  Opt TightSCF SmallPrint
|  4>
|  5> %basis
|  6>         Basis "6-31G"
|  7> end
|  8>
|  9> %geom
| 10> Constraints
| 11> { D 4  0  15  12  150.0   C } # D for Dihedral angle
| 12> { D 0  15  12  16  210.0   C } # D for Dihedral angle
| 13> { D 0  4  3  2   C } # D for Dihedral angle
| 14> { D 4  3  2  1   C } # D for Dihedral angle
| 15> { D 3  2  1  0   C } # D for Dihedral angle
| 16> { D 2  1  0  4   C } # D for Dihedral angle
| 17> { D 1  0  4  3   C } # D for Dihedral angle
| 18> { D 16  20  19  18   C } # D for Dihedral angle
| 19> { D 20  19  18  17   C } # D for Dihedral angle
| 20> { D 19  18  17  16   C } # D for Dihedral angle
| 21> { D 18  17  16  20   C } # D for Dihedral angle
| 22> { D 17  16  20  19   C } # D for Dihedral angle
| 23> { D 15  12  16  20   C } # D for Dihedral angle
| 24> end
| 25> end
| 26>
| 27>
| 28> #%pal
| 29> #nprocs 8
| 30> #end
| 31>
| 32> * xyz 0 1
| 33> C  -21.048   26.222   46.251
| 34> C  -20.361   27.558   45.944
| 35> C  -20.329   28.222   47.341
| 36> C  -20.110   27.022   48.296
| 37> O  -20.473   25.807   47.535
| 38> H  -20.833   25.428   45.533
| 39> H  -19.344   27.382   45.576
| 40> H  -20.898   28.157   45.201
| 41> H  -19.543   28.978   47.434
| 42> H  -21.289   28.710   47.548
| 43> H  -20.733   27.082   49.195
| 44> H  -19.064   26.913   48.597
| 45> C  -23.210   27.459   45.431
| 46> H  -22.470   28.244   45.232
| 47> H  -23.493   27.004   44.474
| 48> O  -22.586   26.394   46.375
| 49> C  -24.478   28.124   46.033
| 50> C  -25.132   29.082   45.031
| 51> C  -25.895   28.101   44.110
| 52> C  -26.353   26.988   45.086
| 53> O  -25.511   27.116   46.294
| 54> H  -24.224   28.579   46.992
| 55> O  -26.122   30.028   45.765
| 56> H  -24.406   29.697   44.487
| 57> H  -26.736   28.572   43.591
| 58> H  -25.218   27.694   43.350
| 59> H  -26.226   25.984   44.665
| 60> H  -27.393   27.111   45.402
| 61> H  -26.859   29.433   46.316
| 62> *
| 63>
| 64>                          ****END OF INPUT****
 Total Charge           Charge          ....    0
 Multiplicity           Mult            ....    1
 Number of Electrons    NEL             ....  102
FINAL SINGLE POINT ENERGY      -652.819131606659
FINAL SINGLE POINT ENERGY      -652.842972659851
FINAL SINGLE POINT ENERGY      -652.848044413892
FINAL SINGLE POINT ENERGY      -652.850398269605
FINAL SINGLE POINT ENERGY      -652.850680203784
FINAL SINGLE POINT ENERGY      -652.850732423500
FINAL SINGLE POINT ENERGY      -652.850737743016
                    ***********************HURRAY********************

CARTESIAN COORDINATES (ANGSTROEM)
---------------------------------
  C    -21.090532   26.294681   46.203110
  C    -20.214495   27.522988   45.954332
  C    -20.305910   28.267444   47.312744
  C    -20.373138   27.105793   48.327284
  O    -20.766496   25.908403   47.546604
  H    -20.868309   25.435629   45.564615
  H    -19.190418   27.174128   45.778828
  H    -20.500643   28.137360   45.097749
  H    -19.448694   28.924952   47.485609
  H    -21.215556   28.875889   47.354778
  H    -21.110499   27.267019   49.117627
  H    -19.401647   26.881490   48.777702
  C    -23.137380   27.490346   45.272803
  H    -22.470680   28.337291   45.064169
  H    -23.377736   27.004951   44.315573
  O    -22.533759   26.530736   46.173170
  C    -24.397594   28.040141   45.942073
  C    -25.169043   29.047283   45.076659
  C    -26.011555   28.108767   44.171999
  C    -26.346497   26.926706   45.115641
  O    -25.381103   26.997886   46.238384
  H    -24.114134   28.475311   46.905068
  O    -26.010806   29.897646   45.903148
  H    -24.533034   29.732527   44.514386
  H    -26.899265   28.626393   43.801017
  H    -25.419781   27.777720   43.311663
  H    -26.251266   25.952992   44.625922
  H    -27.349895   27.003457   45.546366
  H    -26.447135   29.345071   46.585977

 Multiplicity           Mult            ....    1
 Number of Electrons    NEL             ....  102
 Basis Dimension        Dim             ....  149

ORBITAL ENERGIES
----------------

  NO   OCC          E(Eh)            E(eV)
   0   2.0000     -19.140356      -520.8356
   1   2.0000     -19.139426      -520.8102
   2   2.0000     -19.138024      -520.7721
   3   2.0000     -19.136308      -520.7254
   4   2.0000     -10.280341      -279.7423
   5   2.0000     -10.244602      -278.7698
   6   2.0000     -10.235648      -278.5261
   7   2.0000     -10.235019      -278.5090
   8   2.0000     -10.229451      -278.3575
   9   2.0000     -10.225512      -278.2503
  10   2.0000     -10.193759      -277.3863
  11   2.0000     -10.192517      -277.3525
  12   2.0000     -10.190562      -277.2993
  13   2.0000      -1.051140       -28.6030
  14   2.0000      -1.036626       -28.2080
  15   2.0000      -1.006812       -27.3968
  16   2.0000      -0.990097       -26.9419
  17   2.0000      -0.790377       -21.5073
  18   2.0000      -0.786025       -21.3888
  19   2.0000      -0.769637       -20.9429
  20   2.0000      -0.733684       -19.9646
  21   2.0000      -0.678898       -18.4737
  22   2.0000      -0.606243       -16.4967
  23   2.0000      -0.604918       -16.4607
  24   2.0000      -0.594360       -16.1733
  25   2.0000      -0.578191       -15.7334
  26   2.0000      -0.523924       -14.2567
  27   2.0000      -0.516182       -14.0460
  28   2.0000      -0.500125       -13.6091
  29   2.0000      -0.494638       -13.4598
  30   2.0000      -0.473752       -12.8915
  31   2.0000      -0.461423       -12.5560
  32   2.0000      -0.452261       -12.3067
  33   2.0000      -0.443323       -12.0634
  34   2.0000      -0.428543       -11.6613
  35   2.0000      -0.414342       -11.2748
  36   2.0000      -0.399292       -10.8653
  37   2.0000      -0.394157       -10.7255
  38   2.0000      -0.379445       -10.3252
  39   2.0000      -0.372894       -10.1470
  40   2.0000      -0.362062        -9.8522
  41   2.0000      -0.361910        -9.8481
  42   2.0000      -0.355400        -9.6709
  43   2.0000      -0.333662        -9.0794
  44   2.0000      -0.312794        -8.5116
  45   2.0000      -0.306627        -8.3437
  46   2.0000      -0.293019        -7.9734
  47   2.0000      -0.273043        -7.4299
  48   2.0000      -0.264317        -7.1924
  49   2.0000      -0.250427        -6.8145
  50   2.0000      -0.239833        -6.5262
  51   0.0000       0.062878         1.7110
  52   0.0000       0.075371         2.0510
  53   0.0000       0.085537         2.3276
  54   0.0000       0.094441         2.5699
  55   0.0000       0.100662         2.7391

MULLIKEN ATOMIC CHARGES
-----------------------
   0 C :    0.318104
   1 C :   -0.301692
   2 C :   -0.301076
   3 C :    0.000096
   4 O :   -0.493285
   5 H :    0.148191
   6 H :    0.154767
   7 H :    0.142103
   8 H :    0.145527
   9 H :    0.152082
  10 H :    0.155603
  11 H :    0.143640
  12 C :   -0.000747
  13 H :    0.120088
  14 H :    0.128644
  15 O :   -0.509851
  16 C :    0.075156
  17 C :    0.074842
  18 C :   -0.295270
  19 C :   -0.026520
  20 O :   -0.504778
  21 H :    0.162370
  22 O :   -0.602298
  23 H :    0.147248
  24 H :    0.161860
  25 H :    0.143452
  26 H :    0.150052
  27 H :    0.144671
  28 H :    0.367020
Sum of atomic charges:    0.0000000

LOEWDIN ATOMIC CHARGES
----------------------
   0 C :    0.185768
   1 C :   -0.235413
   2 C :   -0.217683
   3 C :   -0.026552
   4 O :   -0.302448
   5 H :    0.100497
   6 H :    0.121080
   7 H :    0.112103
   8 H :    0.115927
   9 H :    0.111330
  10 H :    0.110024
  11 H :    0.103404
  12 C :   -0.042405
  13 H :    0.092394
  14 H :    0.093018
  15 O :   -0.324705
  16 C :    0.017691
  17 C :    0.033649
  18 C :   -0.241309
  19 C :   -0.037174
  20 O :   -0.316099
  21 H :    0.117182
  22 O :   -0.414773
  23 H :    0.112851
  24 H :    0.126420
  25 H :    0.112156
  26 H :    0.106408
  27 H :    0.102029
  28 H :    0.284633

  Mayer bond orders larger than 0.100000
B(  0-C ,  1-C ) :   0.9294 B(  0-C ,  4-O ) :   0.9330 B(  0-C ,  5-H ) :   0.9253
B(  0-C , 15-O ) :   0.8447 B(  1-C ,  2-C ) :   0.9495 B(  1-C ,  6-H ) :   0.9331
B(  1-C ,  7-H ) :   0.9266 B(  2-C ,  3-C ) :   0.9532 B(  2-C ,  8-H ) :   0.9453
B(  2-C ,  9-H ) :   0.9448 B(  3-C ,  4-O ) :   0.8389 B(  3-C , 10-H ) :   0.9338
B(  3-C , 11-H ) :   0.9394 B( 12-C , 13-H ) :   0.8979 B( 12-C , 14-H ) :   0.9191
B( 12-C , 15-O ) :   0.8511 B( 12-C , 16-C ) :   0.8963 B( 16-C , 17-C ) :   0.8983
B( 16-C , 20-O ) :   0.8706 B( 16-C , 21-H ) :   0.9238 B( 17-C , 18-C ) :   0.9113
B( 17-C , 22-O ) :   0.8935 B( 17-C , 23-H ) :   0.9333 B( 18-C , 19-C ) :   0.9399
B( 18-C , 24-H ) :   0.9371 B( 18-C , 25-H ) :   0.9340 B( 19-C , 20-O ) :   0.8513
B( 19-C , 26-H ) :   0.9341 B( 19-C , 27-H ) :   0.9377 B( 22-O , 28-H ) :   0.7926

FINAL SINGLE POINT ENERGY      -652.850738956898

DIPOLE MOMENT
-------------
                                X             Y             Z
Electronic contribution:     -2.36836      -3.06045       2.54595
Nuclear contribution   :      2.93973       3.83463      -3.60336
                        -----------------------------------------
Total Dipole Moment    :      0.57137       0.77417      -1.05741
                        -----------------------------------------
Magnitude (a.u.)       :      1.42966
Magnitude (Debye)      :      3.63391

Rotational constants in cm-1:     0.057346     0.012435     0.011780
Rotational constants in MHz :  1719.190401   372.806247   353.170493

                             ****ORCA TERMINATED NORMALLY****
TOTAL RUN TIME: 0 days 2 hours 24 minutes 26 seconds 322 msec
