                         Program Version 4.2.0 -  RELEASE  -
|  1> # Test redundant internal optimization
|  2> #
|  3> ! RKS B3LYP  Opt TightSCF SmallPrint
|  4>
|  5> %basis
|  6>         Basis "6-31G"
|  7> end
|  8>
|  9> %geom
| 10> Constraints
| 11> { D 4  0  15  12  210.0   C } # D for Dihedral angle
| 12> { D 0  15  12  16  15.0   C } # D for Dihedral angle
| 13> { D 0  4  3  2   C } # D for Dihedral angle
| 14> { D 4  3  2  1   C } # D for Dihedral angle
| 15> { D 3  2  1  0   C } # D for Dihedral angle
| 16> { D 2  1  0  4   C } # D for Dihedral angle
| 17> { D 1  0  4  3   C } # D for Dihedral angle
| 18> { D 16  20  19  18   C } # D for Dihedral angle
| 19> { D 20  19  18  17   C } # D for Dihedral angle
| 20> { D 19  18  17  16   C } # D for Dihedral angle
| 21> { D 18  17  16  20   C } # D for Dihedral angle
| 22> { D 17  16  20  19   C } # D for Dihedral angle
| 23> { D 15  12  16  20   C } # D for Dihedral angle
| 24> end
| 25> end
| 26>
| 27>
| 28> #%pal
| 29> #nprocs 8
| 30> #end
| 31>
| 32> * xyz 0 1
| 33> C  -21.048   26.222   46.251
| 34> C  -20.361   27.558   45.944
| 35> C  -20.329   28.222   47.341
| 36> C  -20.110   27.022   48.296
| 37> O  -20.473   25.807   47.535
| 38> H  -20.833   25.428   45.533
| 39> H  -19.344   27.382   45.576
| 40> H  -20.898   28.157   45.201
| 41> H  -19.543   28.978   47.434
| 42> H  -21.289   28.710   47.548
| 43> H  -20.733   27.082   49.195
| 44> H  -19.064   26.913   48.597
| 45> C  -23.389   26.110   45.076
| 46> H  -24.268   25.500   45.320
| 47> H  -23.737   27.049   44.627
| 48> O  -22.586   26.394   46.375
| 49> C  -22.553   25.356   44.005
| 50> C  -23.337   25.196   42.698
| 51> C  -23.174   26.596   42.061
| 52> C  -21.744   27.012   42.487
| 53> O  -21.375   26.144   43.626
| 54> H  -22.187   24.419   44.431
| 55> O  -22.674   24.109   41.809
| 56> H  -24.385   24.920   42.857
| 57> H  -23.299   26.585   40.974
| 58> H  -23.917   27.288   42.477
| 59> H  -21.689   28.060   42.803
| 60> H  -21.006   26.840   41.698
| 61> H  -21.622   24.365   41.637
| 62> *
| 63>
| 64>                          ****END OF INPUT****
 Total Charge           Charge          ....    0
 Multiplicity           Mult            ....    1
 Number of Electrons    NEL             ....  102
FINAL SINGLE POINT ENERGY      -652.825070007872
FINAL SINGLE POINT ENERGY      -652.847425885720
FINAL SINGLE POINT ENERGY      -652.853135725620
FINAL SINGLE POINT ENERGY      -652.855400321869
FINAL SINGLE POINT ENERGY      -652.855713019558
FINAL SINGLE POINT ENERGY      -652.855777486825
                    ***********************HURRAY********************

CARTESIAN COORDINATES (ANGSTROEM)
---------------------------------
  C    -20.862896   26.230436   46.248323
  C    -20.214687   27.601292   46.064662
  C    -20.414449   28.240143   47.459959
  C    -20.268604   27.034021   48.413249
  O    -20.460599   25.828507   47.568843
  H    -20.529114   25.462926   45.553673
  H    -19.149226   27.471090   45.840110
  H    -20.671186   28.171446   45.253642
  H    -19.687804   29.030252   47.672002
  H    -21.420416   28.664515   47.529782
  H    -21.013942   27.023967   49.213147
  H    -19.267840   26.955469   48.849607
  C    -23.137133   26.107276   45.082216
  H    -23.988952   25.507515   45.425711
  H    -23.523661   27.078195   44.741861
  O    -22.318270   26.347382   46.259574
  C    -22.481264   25.386817   43.902184
  C    -23.413196   25.225929   42.690290
  C    -23.267604   26.606508   41.994453
  C    -21.782623   26.972343   42.249954
  O    -21.322404   26.115905   43.371563
  H    -22.108485   24.408476   44.222133
  O    -22.975180   24.136918   41.834727
  H    -24.442658   24.983027   42.955742
  H    -23.511815   26.531612   40.932020
  H    -23.942738   27.336545   42.453124
  H    -21.646551   28.022633   42.526134
  H    -21.139625   26.751485   41.392652
  H    -22.004078   24.191372   41.710665

 Multiplicity           Mult            ....    1
 Number of Electrons    NEL             ....  102
 Basis Dimension        Dim             ....  149

ORBITAL ENERGIES
----------------

  NO   OCC          E(Eh)            E(eV)
   0   2.0000     -19.156638      -521.2786
   1   2.0000     -19.147657      -521.0342
   2   2.0000     -19.129955      -520.5525
   3   2.0000     -19.128533      -520.5139
   4   2.0000     -10.267108      -279.3822
   5   2.0000     -10.253209      -279.0040
   6   2.0000     -10.244868      -278.7770
   7   2.0000     -10.242618      -278.7158
   8   2.0000     -10.235188      -278.5136
   9   2.0000     -10.215318      -277.9729
  10   2.0000     -10.199619      -277.5457
  11   2.0000     -10.175943      -276.9015
  12   2.0000     -10.172457      -276.8066
  13   2.0000      -1.050166       -28.5765
  14   2.0000      -1.038567       -28.2609
  15   2.0000      -1.016792       -27.6683
  16   2.0000      -0.982084       -26.7239
  17   2.0000      -0.794506       -21.6196
  18   2.0000      -0.776902       -21.1406
  19   2.0000      -0.770683       -20.9713
  20   2.0000      -0.728568       -19.8253
  21   2.0000      -0.676688       -18.4136
  22   2.0000      -0.615145       -16.7389
  23   2.0000      -0.608846       -16.5675
  24   2.0000      -0.588065       -16.0021
  25   2.0000      -0.566161       -15.4060
  26   2.0000      -0.535344       -14.5675
  27   2.0000      -0.512294       -13.9402
  28   2.0000      -0.493253       -13.4221
  29   2.0000      -0.486003       -13.2248
  30   2.0000      -0.476215       -12.9585
  31   2.0000      -0.457658       -12.4535
  32   2.0000      -0.450358       -12.2549
  33   2.0000      -0.440598       -11.9893
  34   2.0000      -0.427662       -11.6373
  35   2.0000      -0.410090       -11.1591
  36   2.0000      -0.404892       -11.0177
  37   2.0000      -0.394906       -10.7460
  38   2.0000      -0.382609       -10.4113
  39   2.0000      -0.370522       -10.0824
  40   2.0000      -0.361039        -9.8244
  41   2.0000      -0.349601        -9.5131
  42   2.0000      -0.344768        -9.3816
  43   2.0000      -0.338071        -9.1994
  44   2.0000      -0.322298        -8.7702
  45   2.0000      -0.303246        -8.2517
  46   2.0000      -0.300263        -8.1706
  47   2.0000      -0.281740        -7.6665
  48   2.0000      -0.256043        -6.9673
  49   2.0000      -0.251086        -6.8324
  50   2.0000      -0.236058        -6.4235
  51   0.0000       0.052091         1.4175
  52   0.0000       0.079463         2.1623
  53   0.0000       0.086078         2.3423
  54   0.0000       0.091264         2.4834
  55   0.0000       0.099737         2.7140

MULLIKEN ATOMIC CHARGES
-----------------------
   0 C :    0.300009
   1 C :   -0.246860
   2 C :   -0.302135
   3 C :    0.000297
   4 O :   -0.506793
   5 H :    0.161490
   6 H :    0.140030
   7 H :    0.139902
   8 H :    0.135384
   9 H :    0.156222
  10 H :    0.149397
  11 H :    0.137195
  12 C :    0.034094
  13 H :    0.149554
  14 H :    0.125391
  15 O :   -0.535490
  16 C :    0.019211
  17 C :    0.080364
  18 C :   -0.298921
  19 C :   -0.030877
  20 O :   -0.527378
  21 H :    0.173487
  22 O :   -0.596726
  23 H :    0.158267
  24 H :    0.166104
  25 H :    0.150841
  26 H :    0.150385
  27 H :    0.152539
  28 H :    0.365017
Sum of atomic charges:    0.0000000

LOEWDIN ATOMIC CHARGES
----------------------
   0 C :    0.183815
   1 C :   -0.220544
   2 C :   -0.219871
   3 C :   -0.025999
   4 O :   -0.309829
   5 H :    0.106865
   6 H :    0.112261
   7 H :    0.113898
   8 H :    0.110917
   9 H :    0.116092
  10 H :    0.106272
  11 H :    0.099692
  12 C :   -0.034268
  13 H :    0.112575
  14 H :    0.092631
  15 O :   -0.338928
  16 C :   -0.001519
  17 C :    0.040472
  18 C :   -0.241008
  19 C :   -0.038066
  20 O :   -0.333104
  21 H :    0.119048
  22 O :   -0.410078
  23 H :    0.119041
  24 H :    0.128554
  25 H :    0.116090
  26 H :    0.105487
  27 H :    0.105647
  28 H :    0.283856

  Mayer bond orders larger than 0.100000
B(  0-C ,  1-C ) :   0.9363 B(  0-C ,  4-O ) :   0.9197 B(  0-C ,  5-H ) :   0.9112
B(  0-C , 15-O ) :   0.8207 B(  1-C ,  2-C ) :   0.9507 B(  1-C ,  6-H ) :   0.9371
B(  1-C ,  7-H ) :   0.9392 B(  2-C ,  3-C ) :   0.9543 B(  2-C ,  8-H ) :   0.9457
B(  2-C ,  9-H ) :   0.9448 B(  3-C ,  4-O ) :   0.8401 B(  3-C , 10-H ) :   0.9353
B(  3-C , 11-H ) :   0.9402 B( 12-C , 13-H ) :   0.9194 B( 12-C , 14-H ) :   0.9211
B( 12-C , 15-O ) :   0.8578 B( 12-C , 16-C ) :   0.9000 B( 16-C , 17-C ) :   0.8977
B( 16-C , 20-O ) :   0.8345 B( 16-C , 21-H ) :   0.9186 B( 17-C , 18-C ) :   0.9113
B( 17-C , 22-O ) :   0.8976 B( 17-C , 23-H ) :   0.9333 B( 18-C , 19-C ) :   0.9411
B( 18-C , 24-H ) :   0.9368 B( 18-C , 25-H ) :   0.9318 B( 19-C , 20-O ) :   0.8379
B( 19-C , 26-H ) :   0.9334 B( 19-C , 27-H ) :   0.9374 B( 22-O , 28-H ) :   0.7944

FINAL SINGLE POINT ENERGY      -652.855780608423

DIPOLE MOMENT
-------------
                                X             Y             Z
Electronic contribution:     -0.24740      -5.53216       0.21826
Nuclear contribution   :      0.14448       6.73053      -1.11403
                        -----------------------------------------
Total Dipole Moment    :     -0.10292       1.19837      -0.89576
                        -----------------------------------------
Magnitude (a.u.)       :      1.49969
Magnitude (Debye)      :      3.81191

Rotational constants in cm-1:     0.065217     0.013105     0.012362
Rotational constants in MHz :  1955.153372   392.888716   370.607029

                             ****ORCA TERMINATED NORMALLY****
TOTAL RUN TIME: 0 days 1 hours 5 minutes 33 seconds 452 msec
