                         Program Version 4.2.0 -  RELEASE  -
|  1> # Test redundant internal optimization
|  2> #
|  3> ! RKS B3LYP  Opt TightSCF SmallPrint
|  4>
|  5> %basis
|  6>         Basis "6-31G"
|  7> end
|  8>
|  9> %geom
| 10> Constraints
| 11> { D 4  0  15  12  285.0   C } # D for Dihedral angle
| 12> { D 0  15  12  16  195.0   C } # D for Dihedral angle
| 13> { D 0  4  3  2   C } # D for Dihedral angle
| 14> { D 4  3  2  1   C } # D for Dihedral angle
| 15> { D 3  2  1  0   C } # D for Dihedral angle
| 16> { D 2  1  0  4   C } # D for Dihedral angle
| 17> { D 1  0  4  3   C } # D for Dihedral angle
| 18> { D 16  20  19  18   C } # D for Dihedral angle
| 19> { D 20  19  18  17   C } # D for Dihedral angle
| 20> { D 19  18  17  16   C } # D for Dihedral angle
| 21> { D 18  17  16  20   C } # D for Dihedral angle
| 22> { D 17  16  20  19   C } # D for Dihedral angle
| 23> { D 15  12  16  20   C } # D for Dihedral angle
| 24> end
| 25> end
| 26>
| 27>
| 28> #%pal
| 29> #nprocs 8
| 30> #end
| 31>
| 32> * xyz 0 1
| 33> C  -21.048   26.222   46.251
| 34> C  -20.361   27.558   45.944
| 35> C  -20.329   28.222   47.341
| 36> C  -20.110   27.022   48.296
| 37> O  -20.473   25.807   47.535
| 38> H  -20.833   25.428   45.533
| 39> H  -19.344   27.382   45.576
| 40> H  -20.898   28.157   45.201
| 41> H  -19.543   28.978   47.434
| 42> H  -21.289   28.710   47.548
| 43> H  -20.733   27.082   49.195
| 44> H  -19.064   26.913   48.597
| 45> C  -23.396   25.070   46.435
| 46> H  -23.015   24.378   45.674
| 47> H  -23.282   24.595   47.418
| 48> O  -22.586   26.394   46.375
| 49> C  -24.915   25.283   46.186
| 50> C  -25.697   23.978   46.367
| 51> C  -25.806   23.888   47.908
| 52> C  -25.949   25.369   48.337
| 53> O  -25.479   26.185   47.196
| 54> H  -25.054   25.763   45.215
| 55> O  -27.105   24.106   45.724
| 56> H  -25.194   23.110   45.925
| 57> H  -26.650   23.274   48.239
| 58> H  -24.890   23.452   48.325
| 59> H  -25.348   25.610   49.221
| 60> H  -26.988   25.651   48.527
| 61> H  -27.628   24.969   46.152
| 62> *
| 63>
| 64>                          ****END OF INPUT****
 Total Charge           Charge          ....    0
 Multiplicity           Mult            ....    1
 Number of Electrons    NEL             ....  102
FINAL SINGLE POINT ENERGY      -652.835784941537
FINAL SINGLE POINT ENERGY      -652.860645158143
FINAL SINGLE POINT ENERGY      -652.864984504325
FINAL SINGLE POINT ENERGY      -652.865782352689
FINAL SINGLE POINT ENERGY      -652.865886354361
FINAL SINGLE POINT ENERGY      -652.865895722177
FINAL SINGLE POINT ENERGY      -652.865897899688
                    ***********************HURRAY********************

CARTESIAN COORDINATES (ANGSTROEM)
---------------------------------
  C    -21.114254   26.137171   46.234817
  C    -20.571318   27.534804   45.934891
  C    -20.540798   28.170480   47.343465
  C    -20.169739   26.981409   48.257433
  O    -20.455905   25.755786   47.468511
  H    -20.872764   25.357016   45.504122
  H    -19.561612   27.448125   45.517486
  H    -21.205096   28.077118   45.230480
  H    -19.822075   28.992271   47.419546
  H    -21.534864   28.551911   47.592719
  H    -20.755503   26.952442   49.179606
  H    -19.104269   26.950947   48.505135
  C    -23.261358   25.002603   46.486008
  H    -22.909810   24.308192   45.705520
  H    -23.072105   24.540995   47.463712
  O    -22.539097   26.259152   46.393964
  C    -24.742854   25.292576   46.272514
  C    -25.641869   24.054002   46.389043
  C    -25.834190   23.945760   47.925153
  C    -25.872169   25.426799   48.376846
  O    -25.277707   26.219715   47.273197
  H    -24.866158   25.785905   45.303811
  O    -26.905503   24.268477   45.702284
  H    -25.219683   23.153080   45.941930
  H    -26.752171   23.401605   48.160785
  H    -24.990538   23.411998   48.376808
  H    -25.298763   25.604360   49.291390
  H    -26.891773   25.795410   48.526975
  H    -27.223057   25.175891   45.896849

 Multiplicity           Mult            ....    1
 Number of Electrons    NEL             ....  102
 Basis Dimension        Dim             ....  149

ORBITAL ENERGIES
----------------

  NO   OCC          E(Eh)            E(eV)
   0   2.0000     -19.143107      -520.9104
   1   2.0000     -19.139945      -520.8244
   2   2.0000     -19.138968      -520.7978
   3   2.0000     -19.136780      -520.7382
   4   2.0000     -10.276394      -279.6349
   5   2.0000     -10.243130      -278.7297
   6   2.0000     -10.233962      -278.4803
   7   2.0000     -10.231171      -278.4043
   8   2.0000     -10.229341      -278.3545
   9   2.0000     -10.221969      -278.1539
  10   2.0000     -10.189423      -277.2683
  11   2.0000     -10.181926      -277.0643
  12   2.0000     -10.180731      -277.0318
  13   2.0000      -1.053882       -28.6776
  14   2.0000      -1.035545       -28.1786
  15   2.0000      -1.005870       -27.3711
  16   2.0000      -0.992171       -26.9983
  17   2.0000      -0.789467       -21.4825
  18   2.0000      -0.780215       -21.2307
  19   2.0000      -0.766401       -20.8548
  20   2.0000      -0.727983       -19.8094
  21   2.0000      -0.672446       -18.2982
  22   2.0000      -0.604655       -16.4535
  23   2.0000      -0.596539       -16.2326
  24   2.0000      -0.589162       -16.0319
  25   2.0000      -0.582407       -15.8481
  26   2.0000      -0.528117       -14.3708
  27   2.0000      -0.509541       -13.8653
  28   2.0000      -0.492443       -13.4000
  29   2.0000      -0.487188       -13.2571
  30   2.0000      -0.475072       -12.9274
  31   2.0000      -0.458230       -12.4691
  32   2.0000      -0.449123       -12.2213
  33   2.0000      -0.441908       -12.0249
  34   2.0000      -0.420913       -11.4536
  35   2.0000      -0.406473       -11.0607
  36   2.0000      -0.398137       -10.8338
  37   2.0000      -0.393377       -10.7043
  38   2.0000      -0.372786       -10.1440
  39   2.0000      -0.369341       -10.0503
  40   2.0000      -0.361104        -9.8262
  41   2.0000      -0.352946        -9.6042
  42   2.0000      -0.344838        -9.3835
  43   2.0000      -0.332256        -9.0411
  44   2.0000      -0.323166        -8.7938
  45   2.0000      -0.307463        -8.3665
  46   2.0000      -0.297757        -8.1024
  47   2.0000      -0.271297        -7.3824
  48   2.0000      -0.266575        -7.2539
  49   2.0000      -0.252456        -6.8697
  50   2.0000      -0.242090        -6.5876
  51   0.0000       0.066712         1.8153
  52   0.0000       0.085695         2.3319
  53   0.0000       0.090324         2.4578
  54   0.0000       0.099331         2.7029
  55   0.0000       0.105563         2.8725

MULLIKEN ATOMIC CHARGES
-----------------------
   0 C :    0.286801
   1 C :   -0.261205
   2 C :   -0.299432
   3 C :   -0.002387
   4 O :   -0.515787
   5 H :    0.137144
   6 H :    0.143247
   7 H :    0.157990
   8 H :    0.138835
   9 H :    0.170818
  10 H :    0.146465
  11 H :    0.140921
  12 C :    0.009326
  13 H :    0.123472
  14 H :    0.146301
  15 O :   -0.509904
  16 C :    0.064341
  17 C :    0.081123
  18 C :   -0.297077
  19 C :   -0.027065
  20 O :   -0.511229
  21 H :    0.164120
  22 O :   -0.603528
  23 H :    0.149117
  24 H :    0.163111
  25 H :    0.145665
  26 H :    0.148442
  27 H :    0.144387
  28 H :    0.365988
Sum of atomic charges:   -0.0000000

LOEWDIN ATOMIC CHARGES
----------------------
   0 C :    0.171038
   1 C :   -0.215109
   2 C :   -0.216087
   3 C :   -0.027428
   4 O :   -0.333142
   5 H :    0.093554
   6 H :    0.113115
   7 H :    0.124738
   8 H :    0.112423
   9 H :    0.123385
  10 H :    0.105153
  11 H :    0.101548
  12 C :   -0.040980
  13 H :    0.094539
  14 H :    0.102474
  15 O :   -0.314067
  16 C :    0.018055
  17 C :    0.036434
  18 C :   -0.240961
  19 C :   -0.037574
  20 O :   -0.321259
  21 H :    0.118923
  22 O :   -0.414765
  23 H :    0.114466
  24 H :    0.126803
  25 H :    0.113458
  26 H :    0.105588
  27 H :    0.101772
  28 H :    0.283906

  Mayer bond orders larger than 0.100000
B(  0-C ,  1-C ) :   0.9504 B(  0-C ,  4-O ) :   0.9036 B(  0-C ,  5-H ) :   0.9176
B(  0-C , 15-O ) :   0.8673 B(  1-C ,  2-C ) :   0.9573 B(  1-C ,  6-H ) :   0.9405
B(  1-C ,  7-H ) :   0.9358 B(  2-C ,  3-C ) :   0.9556 B(  2-C ,  8-H ) :   0.9452
B(  2-C ,  9-H ) :   0.9424 B(  3-C ,  4-O ) :   0.8374 B(  3-C , 10-H ) :   0.9361
B(  3-C , 11-H ) :   0.9404 B( 12-C , 13-H ) :   0.9103 B( 12-C , 14-H ) :   0.9166
B( 12-C , 15-O ) :   0.8338 B( 12-C , 16-C ) :   0.9010 B( 16-C , 17-C ) :   0.9016
B( 16-C , 20-O ) :   0.8666 B( 16-C , 21-H ) :   0.9245 B( 17-C , 18-C ) :   0.9109
B( 17-C , 22-O ) :   0.8923 B( 17-C , 23-H ) :   0.9337 B( 18-C , 19-C ) :   0.9392
B( 18-C , 24-H ) :   0.9374 B( 18-C , 25-H ) :   0.9336 B( 19-C , 20-O ) :   0.8511
B( 19-C , 26-H ) :   0.9346 B( 19-C , 27-H ) :   0.9380 B( 22-O , 28-H ) :   0.7935

FINAL SINGLE POINT ENERGY      -652.865898106475

DIPOLE MOMENT
-------------
                                X             Y             Z
Electronic contribution:     -2.55813      -1.09731      -2.29201
Nuclear contribution   :      2.96023       1.15646       2.64603
                        -----------------------------------------
Total Dipole Moment    :      0.40210       0.05915       0.35402
                        -----------------------------------------
Magnitude (a.u.)       :      0.53899
Magnitude (Debye)      :      1.37001

Rotational constants in cm-1:     0.062863     0.011728     0.011348
Rotational constants in MHz :  1884.599222   351.592618   340.213802

                             ****ORCA TERMINATED NORMALLY****
TOTAL RUN TIME: 0 days 0 hours 21 minutes 24 seconds 158 msec
