                         Program Version 4.2.0 -  RELEASE  -
|  1> # Test redundant internal optimization
|  2> #
|  3> ! RKS B3LYP  Opt TightSCF SmallPrint
|  4>
|  5> %basis
|  6>         Basis "6-31G"
|  7> end
|  8>
|  9> %geom
| 10> Constraints
| 11> { D 4  0  15  12  150.0   C } # D for Dihedral angle
| 12> { D 0  15  12  16  165.0   C } # D for Dihedral angle
| 13> { D 0  4  3  2   C } # D for Dihedral angle
| 14> { D 4  3  2  1   C } # D for Dihedral angle
| 15> { D 3  2  1  0   C } # D for Dihedral angle
| 16> { D 2  1  0  4   C } # D for Dihedral angle
| 17> { D 1  0  4  3   C } # D for Dihedral angle
| 18> { D 16  20  19  18   C } # D for Dihedral angle
| 19> { D 20  19  18  17   C } # D for Dihedral angle
| 20> { D 19  18  17  16   C } # D for Dihedral angle
| 21> { D 18  17  16  20   C } # D for Dihedral angle
| 22> { D 17  16  20  19   C } # D for Dihedral angle
| 23> { D 15  12  16  20   C } # D for Dihedral angle
| 24> end
| 25> end
| 26>
| 27>
| 28> #%pal
| 29> #nprocs 8
| 30> #end
| 31>
| 32> * xyz 0 1
| 33> C  -21.048   26.222   46.251
| 34> C  -20.361   27.558   45.944
| 35> C  -20.329   28.222   47.341
| 36> C  -20.110   27.022   48.296
| 37> O  -20.473   25.807   47.535
| 38> H  -20.833   25.428   45.533
| 39> H  -19.344   27.382   45.576
| 40> H  -20.898   28.157   45.201
| 41> H  -19.543   28.978   47.434
| 42> H  -21.289   28.710   47.548
| 43> H  -20.733   27.082   49.195
| 44> H  -19.064   26.913   48.597
| 45> C  -23.210   27.459   45.431
| 46> H  -22.970   28.461   45.808
| 47> H  -22.796   27.364   44.419
| 48> O  -22.586   26.394   46.375
| 49> C  -24.755   27.334   45.324
| 50> C  -25.171   25.925   44.888
| 51> C  -25.046   25.137   46.214
| 52> C  -25.478   26.173   47.281
| 53> O  -25.376   27.503   46.641
| 54> H  -25.134   28.135   44.686
| 55> H  -26.209   25.931   44.538
| 56> O  -24.277   25.346   43.757
| 57> H  -25.666   24.235   46.232
| 58> H  -24.005   24.830   46.373
| 59> H  -24.839   26.152   48.170
| 60> H  -26.520   26.044   47.590
| 61> H  -23.232   25.331   44.086
| 62> *
| 63>
| 64>                          ****END OF INPUT****
 Total Charge           Charge          ....    0
 Multiplicity           Mult            ....    1
 Number of Electrons    NEL             ....  102
FINAL SINGLE POINT ENERGY      -652.827177080197
FINAL SINGLE POINT ENERGY      -652.850400951594
FINAL SINGLE POINT ENERGY      -652.855265780278
FINAL SINGLE POINT ENERGY      -652.857027791134
FINAL SINGLE POINT ENERGY      -652.857238686457
FINAL SINGLE POINT ENERGY      -652.857275406070
                    ***********************HURRAY********************

CARTESIAN COORDINATES (ANGSTROEM)
---------------------------------
  C    -21.072052   26.307443   46.213783
  C    -20.267274   27.576463   45.934403
  C    -20.276520   28.276367   47.317930
  C    -20.216327   27.087197   48.299343
  O    -20.626635   25.895170   47.513007
  H    -20.878689   25.475664   45.530317
  H    -19.248383   27.283929   45.656513
  H    -20.667368   28.199466   45.131344
  H    -19.433791   28.962912   47.442170
  H    -21.202891   28.844806   47.450718
  H    -20.894723   27.194657   49.148899
  H    -19.204740   26.886636   48.663293
  C    -23.149802   27.508437   45.434200
  H    -22.939695   28.519620   45.804331
  H    -22.784064   27.427457   44.400270
  O    -22.518894   26.517628   46.296310
  C    -24.662094   27.303543   45.415209
  C    -25.144697   25.936123   44.902440
  C    -25.069374   25.063133   46.192928
  C    -25.458894   26.064786   47.300941
  O    -25.283240   27.424437   46.725442
  H    -25.075065   28.117382   44.806154
  H    -26.170913   26.020144   44.538269
  O    -24.386888   25.417751   43.779676
  H    -25.743000   24.202193   46.145416
  H    -24.042994   24.717424   46.331097
  H    -24.823641   25.977524   48.185802
  H    -26.509489   25.980654   47.594688
  H    -23.542864   25.046055   44.109107

 Multiplicity           Mult            ....    1
 Number of Electrons    NEL             ....  102
 Basis Dimension        Dim             ....  149

ORBITAL ENERGIES
----------------

  NO   OCC          E(Eh)            E(eV)
   0   2.0000     -19.146972      -521.0156
   1   2.0000     -19.145638      -520.9793
   2   2.0000     -19.139948      -520.8245
   3   2.0000     -19.130740      -520.5739
   4   2.0000     -10.287933      -279.9489
   5   2.0000     -10.234788      -278.5027
   6   2.0000     -10.233033      -278.4550
   7   2.0000     -10.230332      -278.3815
   8   2.0000     -10.229332      -278.3543
   9   2.0000     -10.216913      -278.0163
  10   2.0000     -10.196682      -277.4658
  11   2.0000     -10.194685      -277.4115
  12   2.0000     -10.175513      -276.8898
  13   2.0000      -1.058333       -28.7987
  14   2.0000      -1.025799       -27.9134
  15   2.0000      -1.008200       -27.4345
  16   2.0000      -0.996045       -27.1038
  17   2.0000      -0.793939       -21.6042
  18   2.0000      -0.773084       -21.0367
  19   2.0000      -0.763583       -20.7782
  20   2.0000      -0.735902       -20.0249
  21   2.0000      -0.679886       -18.5006
  22   2.0000      -0.608685       -16.5632
  23   2.0000      -0.599496       -16.3131
  24   2.0000      -0.598409       -16.2835
  25   2.0000      -0.562370       -15.3029
  26   2.0000      -0.530243       -14.4286
  27   2.0000      -0.507586       -13.8121
  28   2.0000      -0.505610       -13.7583
  29   2.0000      -0.488339       -13.2884
  30   2.0000      -0.473188       -12.8761
  31   2.0000      -0.458136       -12.4665
  32   2.0000      -0.447447       -12.1756
  33   2.0000      -0.425110       -11.5678
  34   2.0000      -0.422441       -11.4952
  35   2.0000      -0.417452       -11.3595
  36   2.0000      -0.403090       -10.9686
  37   2.0000      -0.398977       -10.8567
  38   2.0000      -0.386668       -10.5218
  39   2.0000      -0.366219        -9.9653
  40   2.0000      -0.364754        -9.9255
  41   2.0000      -0.358906        -9.7663
  42   2.0000      -0.349180        -9.5017
  43   2.0000      -0.324798        -8.8382
  44   2.0000      -0.315439        -8.5835
  45   2.0000      -0.307463        -8.3665
  46   2.0000      -0.302380        -8.2282
  47   2.0000      -0.270558        -7.3623
  48   2.0000      -0.260502        -7.0886
  49   2.0000      -0.257906        -7.0180
  50   2.0000      -0.236087        -6.4242
  51   0.0000       0.057038         1.5521
  52   0.0000       0.081168         2.2087
  53   0.0000       0.092541         2.5182
  54   0.0000       0.095420         2.5965
  55   0.0000       0.106396         2.8952

MULLIKEN ATOMIC CHARGES
-----------------------
   0 C :    0.314417
   1 C :   -0.295473
   2 C :   -0.303479
   3 C :   -0.001325
   4 O :   -0.498770
   5 H :    0.141812
   6 H :    0.154085
   7 H :    0.148754
   8 H :    0.147278
   9 H :    0.163079
  10 H :    0.157318
  11 H :    0.144829
  12 C :   -0.015870
  13 H :    0.141283
  14 H :    0.133967
  15 O :   -0.533355
  16 C :    0.092611
  17 C :    0.081718
  18 C :   -0.314354
  19 C :    0.001816
  20 O :   -0.524501
  21 H :    0.147318
  22 H :    0.161545
  23 O :   -0.607474
  24 H :    0.141960
  25 H :    0.171024
  26 H :    0.153469
  27 H :    0.137088
  28 H :    0.359230
Sum of atomic charges:   -0.0000000

LOEWDIN ATOMIC CHARGES
----------------------
   0 C :    0.181432
   1 C :   -0.233233
   2 C :   -0.216902
   3 C :   -0.025499
   4 O :   -0.305888
   5 H :    0.096750
   6 H :    0.120533
   7 H :    0.116863
   8 H :    0.117017
   9 H :    0.117088
  10 H :    0.111079
  11 H :    0.104293
  12 C :   -0.048870
  13 H :    0.100692
  14 H :    0.096987
  15 O :   -0.342411
  16 C :    0.020826
  17 C :    0.036942
  18 C :   -0.242661
  19 C :   -0.022735
  20 O :   -0.324515
  21 H :    0.112991
  22 H :    0.115616
  23 O :   -0.413000
  24 H :    0.113945
  25 H :    0.124677
  26 H :    0.109377
  27 H :    0.099331
  28 H :    0.279275

  Mayer bond orders larger than 0.100000
B(  0-C ,  1-C ) :   0.9342 B(  0-C ,  4-O ) :   0.9405 B(  0-C ,  5-H ) :   0.9249
B(  0-C , 15-O ) :   0.8319 B(  1-C ,  2-C ) :   0.9501 B(  1-C ,  6-H ) :   0.9336
B(  1-C ,  7-H ) :   0.9270 B(  2-C ,  3-C ) :   0.9542 B(  2-C ,  8-H ) :   0.9449
B(  2-C ,  9-H ) :   0.9414 B(  3-C ,  4-O ) :   0.8329 B(  3-C , 10-H ) :   0.9340
B(  3-C , 11-H ) :   0.9397 B( 12-C , 13-H ) :   0.9136 B( 12-C , 14-H ) :   0.9013
B( 12-C , 15-O ) :   0.8337 B( 12-C , 16-C ) :   0.9097 B( 16-C , 17-C ) :   0.8859
B( 16-C , 20-O ) :   0.8838 B( 16-C , 21-H ) :   0.9286 B( 17-C , 18-C ) :   0.9372
B( 17-C , 22-H ) :   0.9355 B( 17-C , 23-O ) :   0.8954 B( 18-C , 19-C ) :   0.9481
B( 18-C , 24-H ) :   0.9403 B( 18-C , 25-H ) :   0.9247 B( 19-C , 20-O ) :   0.8349
B( 19-C , 26-H ) :   0.9318 B( 19-C , 27-H ) :   0.9385 B( 23-O , 28-H ) :   0.7962

FINAL SINGLE POINT ENERGY      -652.857276861533

DIPOLE MOMENT
-------------
                                X             Y             Z
Electronic contribution:     -2.58732      -2.11243      -0.98740
Nuclear contribution   :      3.56250       2.58475       0.94069
                        -----------------------------------------
Total Dipole Moment    :      0.97518       0.47231      -0.04671
                        -----------------------------------------
Magnitude (a.u.)       :      1.08454
Magnitude (Debye)      :      2.75669

Rotational constants in cm-1:     0.048146     0.015501     0.014623
Rotational constants in MHz :  1443.367355   464.705389   438.376687

                             ****ORCA TERMINATED NORMALLY****
TOTAL RUN TIME: 0 days 0 hours 32 minutes 48 seconds 494 msec
