                         Program Version 4.2.0 -  RELEASE  -
|  1> # Test redundant internal optimization
|  2> #
|  3> ! RKS B3LYP  Opt TightSCF SmallPrint
|  4>
|  5> %basis
|  6>         Basis "6-31G"
|  7> end
|  8>
|  9> %geom
| 10> Constraints
| 11> { D 4  0  15  12  90.0   C } # D for Dihedral angle
| 12> { D 0  15  12  16  240.0   C } # D for Dihedral angle
| 13> { D 0  4  3  2   C } # D for Dihedral angle
| 14> { D 4  3  2  1   C } # D for Dihedral angle
| 15> { D 3  2  1  0   C } # D for Dihedral angle
| 16> { D 2  1  0  4   C } # D for Dihedral angle
| 17> { D 1  0  4  3   C } # D for Dihedral angle
| 18> { D 16  20  19  18   C } # D for Dihedral angle
| 19> { D 20  19  18  17   C } # D for Dihedral angle
| 20> { D 19  18  17  16   C } # D for Dihedral angle
| 21> { D 18  17  16  20   C } # D for Dihedral angle
| 22> { D 17  16  20  19   C } # D for Dihedral angle
| 23> { D 15  12  16  20   C } # D for Dihedral angle
| 24> end
| 25> end
| 26>
| 27>
| 28> #%pal
| 29> #nprocs 8
| 30> #end
| 31>
| 32> * xyz 0 1
| 33> C  -21.048   26.222   46.251
| 34> C  -20.361   27.558   45.944
| 35> C  -20.329   28.222   47.341
| 36> C  -20.110   27.022   48.296
| 37> O  -20.473   25.807   47.535
| 38> H  -20.833   25.428   45.533
| 39> H  -19.344   27.382   45.576
| 40> H  -20.898   28.157   45.201
| 41> H  -19.543   28.978   47.434
| 42> H  -21.289   28.710   47.548
| 43> H  -20.733   27.082   49.195
| 44> H  -19.064   26.913   48.597
| 45> C  -23.061   27.816   46.783
| 46> H  -22.187   28.468   46.906
| 47> H  -23.702   28.245   46.003
| 48> O  -22.586   26.394   46.375
| 49> C  -23.865   27.821   48.112
| 50> C  -24.416   29.217   48.424
| 51> C  -25.652   29.282   47.496
| 52> C  -26.175   27.824   47.506
| 53> O  -25.061   26.981   47.991
| 54> H  -23.250   27.391   48.905
| 55> H  -24.718   29.278   49.475
| 56> O  -23.393   30.353   48.144
| 57> H  -26.405   29.998   47.841
| 58> H  -25.348   29.576   46.484
| 59> H  -26.478   27.480   46.510
| 60> H  -27.011   27.685   48.198
| 61> H  -23.076   30.314   47.096
| 62> *
| 63>
| 64>                          ****END OF INPUT****
 Total Charge           Charge          ....    0
 Multiplicity           Mult            ....    1
 Number of Electrons    NEL             ....  102
FINAL SINGLE POINT ENERGY      -652.784224477958
FINAL SINGLE POINT ENERGY      -652.821696484560
FINAL SINGLE POINT ENERGY      -652.840656946037
FINAL SINGLE POINT ENERGY      -652.844876906077
FINAL SINGLE POINT ENERGY      -652.845627401266
FINAL SINGLE POINT ENERGY      -652.845874070555
FINAL SINGLE POINT ENERGY      -652.845905465977
FINAL SINGLE POINT ENERGY      -652.845911717687
FINAL SINGLE POINT ENERGY      -652.845901137485
                    ***********************HURRAY********************

CARTESIAN COORDINATES (ANGSTROEM)
---------------------------------
  C    -21.159082   26.339354   46.399055
  C    -20.168068   27.414333   45.922751
  C    -19.814217   28.148997   47.254569
  C    -19.837745   26.988001   48.283941
  O    -20.591887   25.884431   47.649792
  H    -21.164099   25.454991   45.759901
  H    -19.283583   26.913840   45.517316
  H    -20.580152   28.073584   45.153316
  H    -18.829969   28.626480   47.209498
  H    -20.540523   28.925287   47.504058
  H    -20.323119   27.261668   49.225742
  H    -18.835540   26.606291   48.499552
  C    -23.097083   27.968529   46.779478
  H    -22.318114   28.714559   46.948204
  H    -23.691496   28.281194   45.910502
  O    -22.563596   26.655911   46.456191
  C    -23.976599   27.880628   48.027297
  C    -24.623315   29.218475   48.422516
  C    -25.876586   29.254590   47.498690
  C    -26.290127   27.767573   47.430640
  O    -25.110761   26.977380   47.863433
  H    -23.376553   27.455029   48.837260
  H    -24.921734   29.182031   49.472528
  O    -23.750620   30.374726   48.321470
  H    -26.666398   29.899933   47.892662
  H    -25.591624   29.635192   46.507878
  H    -26.582567   27.452628   46.424441
  H    -27.103865   27.533434   48.123518
  H    -23.739979   30.714930   47.403799

 Multiplicity           Mult            ....    1
 Number of Electrons    NEL             ....  102
 Basis Dimension        Dim             ....  149

ORBITAL ENERGIES
----------------

  NO   OCC          E(Eh)            E(eV)
   0   2.0000     -19.153524      -521.1939
   1   2.0000     -19.137240      -520.7508
   2   2.0000     -19.134868      -520.6862
   3   2.0000     -19.134794      -520.6842
   4   2.0000     -10.274951      -279.5956
   5   2.0000     -10.246529      -278.8222
   6   2.0000     -10.230215      -278.3783
   7   2.0000     -10.229577      -278.3609
   8   2.0000     -10.228231      -278.3243
   9   2.0000     -10.225043      -278.2376
  10   2.0000     -10.198464      -277.5143
  11   2.0000     -10.192380      -277.3488
  12   2.0000     -10.192234      -277.3448
  13   2.0000      -1.045937       -28.4614
  14   2.0000      -1.034707       -28.1558
  15   2.0000      -1.015189       -27.6247
  16   2.0000      -0.991249       -26.9733
  17   2.0000      -0.786420       -21.3996
  18   2.0000      -0.784423       -21.3452
  19   2.0000      -0.770877       -20.9766
  20   2.0000      -0.731201       -19.8970
  21   2.0000      -0.684247       -18.6193
  22   2.0000      -0.613471       -16.6934
  23   2.0000      -0.604305       -16.4440
  24   2.0000      -0.596746       -16.2383
  25   2.0000      -0.567349       -15.4384
  26   2.0000      -0.522847       -14.2274
  27   2.0000      -0.515859       -14.0372
  28   2.0000      -0.503053       -13.6888
  29   2.0000      -0.494726       -13.4622
  30   2.0000      -0.465753       -12.6738
  31   2.0000      -0.456168       -12.4130
  32   2.0000      -0.440725       -11.9927
  33   2.0000      -0.433370       -11.7926
  34   2.0000      -0.429644       -11.6912
  35   2.0000      -0.421305       -11.4643
  36   2.0000      -0.414982       -11.2922
  37   2.0000      -0.400325       -10.8934
  38   2.0000      -0.380920       -10.3654
  39   2.0000      -0.378628       -10.3030
  40   2.0000      -0.360788        -9.8175
  41   2.0000      -0.356738        -9.7073
  42   2.0000      -0.344844        -9.3837
  43   2.0000      -0.329078        -8.9547
  44   2.0000      -0.319082        -8.6827
  45   2.0000      -0.309884        -8.4324
  46   2.0000      -0.288728        -7.8567
  47   2.0000      -0.273479        -7.4417
  48   2.0000      -0.267221        -7.2715
  49   2.0000      -0.250183        -6.8078
  50   2.0000      -0.234757        -6.3881
  51   0.0000       0.045815         1.2467
  52   0.0000       0.073350         1.9960
  53   0.0000       0.082693         2.2502
  54   0.0000       0.088735         2.4146
  55   0.0000       0.100572         2.7367

MULLIKEN ATOMIC CHARGES
-----------------------
   0 C :    0.305220
   1 C :   -0.291334
   2 C :   -0.320471
   3 C :   -0.007693
   4 O :   -0.498680
   5 H :    0.166019
   6 H :    0.158998
   7 H :    0.143793
   8 H :    0.144426
   9 H :    0.161189
  10 H :    0.146299
  11 H :    0.146148
  12 C :   -0.021960
  13 H :    0.128915
  14 H :    0.130630
  15 O :   -0.508792
  16 C :    0.099350
  17 C :    0.082885
  18 C :   -0.331609
  19 C :   -0.005314
  20 O :   -0.499592
  21 H :    0.166176
  22 H :    0.168464
  23 O :   -0.604486
  24 H :    0.159676
  25 H :    0.131346
  26 H :    0.145457
  27 H :    0.149434
  28 H :    0.355504
Sum of atomic charges:    0.0000000

LOEWDIN ATOMIC CHARGES
----------------------
   0 C :    0.175586
   1 C :   -0.231734
   2 C :   -0.225512
   3 C :   -0.033234
   4 O :   -0.319627
   5 H :    0.112357
   6 H :    0.124422
   7 H :    0.114965
   8 H :    0.115194
   9 H :    0.110812
  10 H :    0.103263
  11 H :    0.103983
  12 C :   -0.052286
  13 H :    0.100568
  14 H :    0.097110
  15 O :   -0.307376
  16 C :    0.018506
  17 C :    0.032734
  18 C :   -0.242381
  19 C :   -0.028481
  20 O :   -0.309163
  21 H :    0.120258
  22 H :    0.119677
  23 O :   -0.412531
  24 H :    0.122734
  25 H :    0.102500
  26 H :    0.104122
  27 H :    0.106071
  28 H :    0.277462

  Mayer bond orders larger than 0.100000
B(  0-C ,  1-C ) :   0.9209 B(  0-C ,  4-O ) :   0.8984 B(  0-C ,  5-H ) :   0.9359
B(  0-C , 15-O ) :   0.9119 B(  1-C ,  2-C ) :   0.9526 B(  1-C ,  6-H ) :   0.9351
B(  1-C ,  7-H ) :   0.9362 B(  2-C ,  3-C ) :   0.9450 B(  2-C ,  8-H ) :   0.9451
B(  2-C ,  9-H ) :   0.9335 B(  3-C ,  4-O ) :   0.8515 B(  3-C , 10-H ) :   0.9330
B(  3-C , 11-H ) :   0.9392 B( 12-C , 13-H ) :   0.8892 B( 12-C , 14-H ) :   0.9335
B( 12-C , 15-O ) :   0.8507 B( 12-C , 16-C ) :   0.8965 B( 16-C , 17-C ) :   0.8676
B( 16-C , 20-O ) :   0.8740 B( 16-C , 21-H ) :   0.9304 B( 17-C , 18-C ) :   0.9292
B( 17-C , 22-H ) :   0.9318 B( 17-C , 23-O ) :   0.8877 B( 18-C , 19-C ) :   0.9381
B( 18-C , 24-H ) :   0.9408 B( 18-C , 25-H ) :   0.9396 B( 19-C , 20-O ) :   0.8547
B( 19-C , 26-H ) :   0.9313 B( 19-C , 27-H ) :   0.9374 B( 23-O , 28-H ) :   0.7998

FINAL SINGLE POINT ENERGY      -652.845898894304

DIPOLE MOMENT
-------------
                                X             Y             Z
Electronic contribution:     -1.66334      -4.32344       1.25369
Nuclear contribution   :      1.76323       5.99075      -2.03936
                        -----------------------------------------
Total Dipole Moment    :      0.09988       1.66731      -0.78567
                        -----------------------------------------
Magnitude (a.u.)       :      1.84585
Magnitude (Debye)      :      4.69178

Rotational constants in cm-1:     0.049527     0.014630     0.013041
Rotational constants in MHz :  1484.780470   438.584198   390.953756

                             ****ORCA TERMINATED NORMALLY****
TOTAL RUN TIME: 0 days 2 hours 41 minutes 37 seconds 185 msec
