                         Program Version 4.2.0 -  RELEASE  -
|  1> # Test redundant internal optimization
|  2> #
|  3> ! RKS B3LYP  Opt TightSCF SmallPrint
|  4>
|  5> %basis
|  6>         Basis "6-31G"
|  7> end
|  8>
|  9> %geom
| 10> Constraints
| 11> { D 4  0  15  12  75.0   C } # D for Dihedral angle
| 12> { D 0  15  12  16  180.0   C } # D for Dihedral angle
| 13> { D 0  4  3  2   C } # D for Dihedral angle
| 14> { D 4  3  2  1   C } # D for Dihedral angle
| 15> { D 3  2  1  0   C } # D for Dihedral angle
| 16> { D 2  1  0  4   C } # D for Dihedral angle
| 17> { D 1  0  4  3   C } # D for Dihedral angle
| 18> { D 16  20  19  18   C } # D for Dihedral angle
| 19> { D 20  19  18  17   C } # D for Dihedral angle
| 20> { D 19  18  17  16   C } # D for Dihedral angle
| 21> { D 18  17  16  20   C } # D for Dihedral angle
| 22> { D 17  16  20  19   C } # D for Dihedral angle
| 23> { D 15  12  16  20   C } # D for Dihedral angle
| 24> end
| 25> end
| 26>
| 27>
| 28> #%pal
| 29> #nprocs 8
| 30> #end
| 31>
| 32> * xyz 0 1
| 33> C  -21.048   26.222   46.251
| 34> C  -20.361   27.558   45.944
| 35> C  -20.329   28.222   47.341
| 36> C  -20.110   27.022   48.296
| 37> O  -20.473   25.807   47.535
| 38> H  -20.833   25.428   45.533
| 39> H  -19.344   27.382   45.576
| 40> H  -20.898   28.157   45.201
| 41> H  -19.543   28.978   47.434
| 42> H  -21.289   28.710   47.548
| 43> H  -20.733   27.082   49.195
| 44> H  -19.064   26.913   48.597
| 45> C  -23.049   27.675   47.122
| 46> H  -22.643   27.666   48.141
| 47> H  -22.677   28.573   46.612
| 48> O  -22.586   26.394   46.375
| 49> C  -24.596   27.790   47.213
| 50> C  -25.243   27.718   45.825
| 51> C  -25.219   26.196   45.548
| 52> C  -25.457   25.579   46.949
| 53> O  -25.154   26.641   47.933
| 54> H  -24.855   28.683   47.786
| 55> O  -26.704   28.240   45.891
| 56> H  -24.703   28.296   45.068
| 57> H  -25.976   25.884   44.821
| 58> H  -24.238   25.900   45.157
| 59> H  -24.811   24.715   47.142
| 60> H  -26.499   25.283   47.104
| 61> H  -27.264   27.674   46.644
| 62> *
| 63>
| 64>                          ****END OF INPUT****
 Total Charge           Charge          ....    0
 Multiplicity           Mult            ....    1
 Number of Electrons    NEL             ....  102
FINAL SINGLE POINT ENERGY      -652.815661996403
FINAL SINGLE POINT ENERGY      -652.842625921188
FINAL SINGLE POINT ENERGY      -652.856251870067
FINAL SINGLE POINT ENERGY      -652.858681230622
FINAL SINGLE POINT ENERGY      -652.859024613146
FINAL SINGLE POINT ENERGY      -652.859076813160
FINAL SINGLE POINT ENERGY      -652.859082984003
                    ***********************HURRAY********************

CARTESIAN COORDINATES (ANGSTROEM)
---------------------------------
  C    -21.194570   26.357137   46.440648
  C    -20.335494   27.541703   45.975209
  C    -20.025789   28.267942   47.317545
  C    -19.899222   27.086849   48.314152
  O    -20.552770   25.926541   47.661342
  H    -21.148652   25.500088   45.767470
  H    -19.417073   27.151073   45.526150
  H    -20.840820   28.176004   45.241250
  H    -19.102650   28.853664   47.265579
  H    -20.832807   28.948072   47.598825
  H    -20.388573   27.276674   49.273977
  H    -18.857963   26.804492   48.494582
  C    -23.164626   27.733440   47.223005
  H    -22.846571   27.742512   48.272427
  H    -22.831331   28.661325   46.736455
  O    -22.618484   26.564925   46.551834
  C    -24.691735   27.685370   47.185863
  C    -25.348396   27.663872   45.797600
  C    -25.298747   26.151925   45.447179
  C    -25.515570   25.470723   46.820951
  O    -25.222830   26.498000   47.849966
  H    -25.053112   28.552181   47.753110
  O    -26.710078   28.173101   45.870602
  H    -24.846787   28.295040   45.062841
  H    -26.073575   25.899105   44.717898
  H    -24.315559   25.902183   45.046968
  H    -24.842312   24.624559   46.975178
  H    -26.549147   25.144893   46.978488
  H    -27.173759   27.734607   46.614906

 Multiplicity           Mult            ....    1
 Number of Electrons    NEL             ....  102
 Basis Dimension        Dim             ....  149

ORBITAL ENERGIES
----------------

  NO   OCC          E(Eh)            E(eV)
   0   2.0000     -19.151202      -521.1307
   1   2.0000     -19.144365      -520.9446
   2   2.0000     -19.135152      -520.6939
   3   2.0000     -19.133291      -520.6433
   4   2.0000     -10.283731      -279.8345
   5   2.0000     -10.236570      -278.5512
   6   2.0000     -10.235348      -278.5180
   7   2.0000     -10.233863      -278.4776
   8   2.0000     -10.232352      -278.4364
   9   2.0000     -10.218724      -278.0656
  10   2.0000     -10.197347      -277.4839
  11   2.0000     -10.196875      -277.4711
  12   2.0000     -10.173370      -276.8315
  13   2.0000      -1.057324       -28.7712
  14   2.0000      -1.030814       -28.0499
  15   2.0000      -1.004655       -27.3381
  16   2.0000      -0.996366       -27.1125
  17   2.0000      -0.793183       -21.5836
  18   2.0000      -0.781227       -21.2583
  19   2.0000      -0.763361       -20.7721
  20   2.0000      -0.735527       -20.0147
  21   2.0000      -0.678481       -18.4624
  22   2.0000      -0.609039       -16.5728
  23   2.0000      -0.604605       -16.4521
  24   2.0000      -0.594712       -16.1829
  25   2.0000      -0.569521       -15.4975
  26   2.0000      -0.523773       -14.2526
  27   2.0000      -0.513195       -13.9648
  28   2.0000      -0.503183       -13.6923
  29   2.0000      -0.484899       -13.1948
  30   2.0000      -0.475900       -12.9499
  31   2.0000      -0.457508       -12.4494
  32   2.0000      -0.450328       -12.2540
  33   2.0000      -0.436984       -11.8909
  34   2.0000      -0.423852       -11.5336
  35   2.0000      -0.418598       -11.3906
  36   2.0000      -0.403872       -10.9899
  37   2.0000      -0.387486       -10.5440
  38   2.0000      -0.384031       -10.4500
  39   2.0000      -0.366297        -9.9674
  40   2.0000      -0.365139        -9.9359
  41   2.0000      -0.360817        -9.8183
  42   2.0000      -0.350383        -9.5344
  43   2.0000      -0.326361        -8.8807
  44   2.0000      -0.319184        -8.6854
  45   2.0000      -0.308612        -8.3978
  46   2.0000      -0.298137        -8.1127
  47   2.0000      -0.273544        -7.4435
  48   2.0000      -0.263190        -7.1618
  49   2.0000      -0.257381        -7.0037
  50   2.0000      -0.240214        -6.5366
  51   0.0000       0.065843         1.7917
  52   0.0000       0.075877         2.0647
  53   0.0000       0.085592         2.3291
  54   0.0000       0.101874         2.7721
  55   0.0000       0.108959         2.9649

MULLIKEN ATOMIC CHARGES
-----------------------
   0 C :    0.307040
   1 C :   -0.284600
   2 C :   -0.314773
   3 C :   -0.011317
   4 O :   -0.499523
   5 H :    0.163647
   6 H :    0.158539
   7 H :    0.148036
   8 H :    0.147774
   9 H :    0.148741
  10 H :    0.149033
  11 H :    0.148519
  12 C :    0.008170
  13 H :    0.152348
  14 H :    0.121143
  15 O :   -0.524071
  16 C :    0.061884
  17 C :    0.077548
  18 C :   -0.285769
  19 C :   -0.016759
  20 O :   -0.523870
  21 H :    0.153834
  22 O :   -0.604462
  23 H :    0.146362
  24 H :    0.148040
  25 H :    0.169886
  26 H :    0.159168
  27 H :    0.132451
  28 H :    0.362982
Sum of atomic charges:    0.0000000

LOEWDIN ATOMIC CHARGES
----------------------
   0 C :    0.174489
   1 C :   -0.229895
   2 C :   -0.224647
   3 C :   -0.032890
   4 O :   -0.317734
   5 H :    0.112347
   6 H :    0.123805
   7 H :    0.117240
   8 H :    0.116937
   9 H :    0.109858
  10 H :    0.104419
  11 H :    0.105218
  12 C :   -0.039309
  13 H :    0.107156
  14 H :    0.091054
  15 O :   -0.317388
  16 C :    0.015309
  17 C :    0.038826
  18 C :   -0.241536
  19 C :   -0.031472
  20 O :   -0.327615
  21 H :    0.114867
  22 O :   -0.417796
  23 H :    0.113249
  24 H :    0.117680
  25 H :    0.128570
  26 H :    0.112260
  27 H :    0.094968
  28 H :    0.282030

  Mayer bond orders larger than 0.100000
B(  0-C ,  1-C ) :   0.9214 B(  0-C ,  4-O ) :   0.9099 B(  0-C ,  5-H ) :   0.9369
B(  0-C , 15-O ) :   0.8886 B(  1-C ,  2-C ) :   0.9545 B(  1-C ,  6-H ) :   0.9351
B(  1-C ,  7-H ) :   0.9356 B(  2-C ,  3-C ) :   0.9477 B(  2-C ,  8-H ) :   0.9453
B(  2-C ,  9-H ) :   0.9398 B(  3-C ,  4-O ) :   0.8448 B(  3-C , 10-H ) :   0.9327
B(  3-C , 11-H ) :   0.9385 B( 12-C , 13-H ) :   0.9131 B( 12-C , 14-H ) :   0.9026
B( 12-C , 15-O ) :   0.8425 B( 12-C , 16-C ) :   0.9038 B( 16-C , 17-C ) :   0.9081
B( 16-C , 20-O ) :   0.8822 B( 16-C , 21-H ) :   0.9231 B( 17-C , 18-C ) :   0.9244
B( 17-C , 22-O ) :   0.8892 B( 17-C , 23-H ) :   0.9360 B( 18-C , 19-C ) :   0.9462
B( 18-C , 24-H ) :   0.9373 B( 18-C , 25-H ) :   0.9195 B( 19-C , 20-O ) :   0.8357
B( 19-C , 26-H ) :   0.9335 B( 19-C , 27-H ) :   0.9377 B( 22-O , 28-H ) :   0.7959

FINAL SINGLE POINT ENERGY      -652.859082192643

DIPOLE MOMENT
-------------
                                X             Y             Z
Electronic contribution:     -3.88417      -2.28448       1.22769
Nuclear contribution   :      4.93196       2.93904      -1.54100
                        -----------------------------------------
Total Dipole Moment    :      1.04779       0.65456      -0.31331
                        -----------------------------------------
Magnitude (a.u.)       :      1.27455
Magnitude (Debye)      :      3.23964

Rotational constants in cm-1:     0.059390     0.013555     0.013054
Rotational constants in MHz :  1780.469112   406.372417   391.341799

                             ****ORCA TERMINATED NORMALLY****
TOTAL RUN TIME: 0 days 0 hours 26 minutes 20 seconds 476 msec
