                         Program Version 4.2.0 -  RELEASE  -
|  1> # Test redundant internal optimization
|  2> #
|  3> ! RKS B3LYP  Opt TightSCF SmallPrint
|  4>
|  5> %basis
|  6>         Basis "6-31G"
|  7> end
|  8>
|  9> %geom
| 10> Constraints
| 11> { D 4  0  15  12  45.0   C } # D for Dihedral angle
| 12> { D 0  15  12  16  135.0   C } # D for Dihedral angle
| 13> { D 0  4  3  2   C } # D for Dihedral angle
| 14> { D 4  3  2  1   C } # D for Dihedral angle
| 15> { D 3  2  1  0   C } # D for Dihedral angle
| 16> { D 2  1  0  4   C } # D for Dihedral angle
| 17> { D 1  0  4  3   C } # D for Dihedral angle
| 18> { D 16  20  19  18   C } # D for Dihedral angle
| 19> { D 20  19  18  17   C } # D for Dihedral angle
| 20> { D 19  18  17  16   C } # D for Dihedral angle
| 21> { D 18  17  16  20   C } # D for Dihedral angle
| 22> { D 17  16  20  19   C } # D for Dihedral angle
| 23> { D 15  12  16  20   C } # D for Dihedral angle
| 24> end
| 25> end
| 26>
| 27>
| 28> #%pal
| 29> #nprocs 8
| 30> #end
| 31>
| 32> * xyz 0 1
| 33> C  -21.048   26.222   46.251
| 34> C  -20.361   27.558   45.944
| 35> C  -20.329   28.222   47.341
| 36> C  -20.110   27.022   48.296
| 37> O  -20.473   25.807   47.535
| 38> H  -20.833   25.428   45.533
| 39> H  -19.344   27.382   45.576
| 40> H  -20.898   28.157   45.201
| 41> H  -19.543   28.978   47.434
| 42> H  -21.289   28.710   47.548
| 43> H  -20.733   27.082   49.195
| 44> H  -19.064   26.913   48.597
| 45> C  -23.065   27.161   47.638
| 46> H  -23.479   26.447   48.360
| 47> H  -22.223   27.682   48.113
| 48> O  -22.586   26.394   46.375
| 49> C  -24.156   28.221   47.319
| 50> C  -23.679   29.205   46.244
| 51> C  -23.884   28.380   44.951
| 52> C  -25.160   27.558   45.256
| 53> O  -25.334   27.581   46.725
| 54> H  -24.481   28.691   48.248
| 55> O  -24.584   30.467   46.238
| 56> H  -22.641   29.526   46.383
| 57> H  -23.994   29.007   44.060
| 58> H  -23.026   27.716   44.788
| 59> H  -25.081   26.519   44.920
| 60> H  -26.059   28.004   44.819
| 61> H  -25.630   30.170   46.099
| 62> *
| 63>
| 64>                          ****END OF INPUT****
 Total Charge           Charge          ....    0
 Multiplicity           Mult            ....    1
 Number of Electrons    NEL             ....  102
FINAL SINGLE POINT ENERGY      -652.810122481724
FINAL SINGLE POINT ENERGY      -652.838678963581
FINAL SINGLE POINT ENERGY      -652.852189772129
FINAL SINGLE POINT ENERGY      -652.854596186415
FINAL SINGLE POINT ENERGY      -652.854973062859
FINAL SINGLE POINT ENERGY      -652.855033016610
FINAL SINGLE POINT ENERGY      -652.855037634717
                    ***********************HURRAY********************

CARTESIAN COORDINATES (ANGSTROEM)
---------------------------------
  C    -21.145500   26.257203   46.464921
  C    -20.317850   27.452957   45.971190
  C    -20.027822   28.218431   47.296455
  C    -19.870381   27.065820   48.320037
  O    -20.493102   25.872313   47.695028
  H    -21.073025   25.396095   45.798341
  H    -19.387933   27.072863   45.535440
  H    -20.835249   28.056408   45.222450
  H    -19.122688   28.830333   47.232921
  H    -20.855595   28.885233   47.553712
  H    -20.361673   27.262478   49.277892
  H    -18.821823   26.815497   48.504296
  C    -23.188924   27.156793   47.681170
  H    -23.659151   26.411516   48.332042
  H    -22.449685   27.702905   48.274753
  O    -22.580009   26.429162   46.570875
  C    -24.275779   28.128659   47.219184
  C    -23.868241   29.251108   46.252268
  C    -23.952950   28.534055   44.877050
  C    -25.151197   27.569805   45.065780
  O    -25.363376   27.441839   46.524399
  H    -24.712154   28.564912   48.126658
  O    -24.794563   30.369466   46.347315
  H    -22.885967   29.678649   46.459130
  H    -24.108073   29.257884   44.072485
  H    -23.038917   27.969024   44.693354
  H    -24.952673   26.577203   44.653909
  H    -26.080741   27.958267   44.636518
  H    -25.711958   30.023123   46.327427

 Multiplicity           Mult            ....    1
 Number of Electrons    NEL             ....  102
 Basis Dimension        Dim             ....  149

ORBITAL ENERGIES
----------------

  NO   OCC          E(Eh)            E(eV)
   0   2.0000     -19.150510      -521.1119
   1   2.0000     -19.146452      -521.0014
   2   2.0000     -19.138179      -520.7763
   3   2.0000     -19.137355      -520.7539
   4   2.0000     -10.284851      -279.8650
   5   2.0000     -10.241207      -278.6774
   6   2.0000     -10.237072      -278.5649
   7   2.0000     -10.234970      -278.5077
   8   2.0000     -10.233453      -278.4664
   9   2.0000     -10.223064      -278.1837
  10   2.0000     -10.200470      -277.5689
  11   2.0000     -10.196168      -277.4518
  12   2.0000     -10.180804      -277.0338
  13   2.0000      -1.057823       -28.7848
  14   2.0000      -1.034793       -28.1581
  15   2.0000      -1.006146       -27.3786
  16   2.0000      -0.996555       -27.1177
  17   2.0000      -0.795475       -21.6460
  18   2.0000      -0.781836       -21.2748
  19   2.0000      -0.768807       -20.9203
  20   2.0000      -0.738689       -20.1007
  21   2.0000      -0.678802       -18.4711
  22   2.0000      -0.611883       -16.6502
  23   2.0000      -0.607215       -16.5232
  24   2.0000      -0.599743       -16.3198
  25   2.0000      -0.571100       -15.5404
  26   2.0000      -0.523496       -14.2451
  27   2.0000      -0.518504       -14.1092
  28   2.0000      -0.503746       -13.7076
  29   2.0000      -0.495103       -13.4724
  30   2.0000      -0.472104       -12.8466
  31   2.0000      -0.457063       -12.4373
  32   2.0000      -0.450821       -12.2675
  33   2.0000      -0.436250       -11.8710
  34   2.0000      -0.427203       -11.6248
  35   2.0000      -0.423471       -11.5232
  36   2.0000      -0.408912       -11.1271
  37   2.0000      -0.389417       -10.5966
  38   2.0000      -0.383691       -10.4408
  39   2.0000      -0.372774       -10.1437
  40   2.0000      -0.369519       -10.0551
  41   2.0000      -0.361549        -9.8382
  42   2.0000      -0.349445        -9.5089
  43   2.0000      -0.333566        -9.0768
  44   2.0000      -0.322709        -8.7814
  45   2.0000      -0.314460        -8.5569
  46   2.0000      -0.304036        -8.2732
  47   2.0000      -0.270730        -7.3669
  48   2.0000      -0.266188        -7.2433
  49   2.0000      -0.259605        -7.0642
  50   2.0000      -0.238465        -6.4890
  51   0.0000       0.056763         1.5446
  52   0.0000       0.072607         1.9757
  53   0.0000       0.083859         2.2819
  54   0.0000       0.095047         2.5864
  55   0.0000       0.105612         2.8738

MULLIKEN ATOMIC CHARGES
-----------------------
   0 C :    0.301792
   1 C :   -0.274853
   2 C :   -0.323259
   3 C :   -0.017227
   4 O :   -0.505257
   5 H :    0.166812
   6 H :    0.155442
   7 H :    0.152492
   8 H :    0.151097
   9 H :    0.154764
  10 H :    0.148427
  11 H :    0.152393
  12 C :    0.001982
  13 H :    0.166483
  14 H :    0.124482
  15 O :   -0.529788
  16 C :    0.071304
  17 C :    0.069386
  18 C :   -0.287178
  19 C :   -0.016016
  20 O :   -0.524127
  21 H :    0.151715
  22 O :   -0.603935
  23 H :    0.143523
  24 H :    0.149707
  25 H :    0.162227
  26 H :    0.158151
  27 H :    0.134933
  28 H :    0.364529
Sum of atomic charges:   -0.0000000

LOEWDIN ATOMIC CHARGES
----------------------
   0 C :    0.178467
   1 C :   -0.229425
   2 C :   -0.225229
   3 C :   -0.035815
   4 O :   -0.317791
   5 H :    0.113025
   6 H :    0.121338
   7 H :    0.117915
   8 H :    0.118872
   9 H :    0.107994
  10 H :    0.102706
  11 H :    0.107732
  12 C :   -0.035874
  13 H :    0.117764
  14 H :    0.098930
  15 O :   -0.326487
  16 C :    0.011553
  17 C :    0.036406
  18 C :   -0.240372
  19 C :   -0.031796
  20 O :   -0.327836
  21 H :    0.114582
  22 O :   -0.416721
  23 H :    0.109132
  24 H :    0.119156
  25 H :    0.121110
  26 H :    0.111442
  27 H :    0.096105
  28 H :    0.283117

  Mayer bond orders larger than 0.100000
B(  0-C ,  1-C ) :   0.9131 B(  0-C ,  4-O ) :   0.9051 B(  0-C ,  5-H ) :   0.9354
B(  0-C , 15-O ) :   0.8810 B(  1-C ,  2-C ) :   0.9541 B(  1-C ,  6-H ) :   0.9334
B(  1-C ,  7-H ) :   0.9302 B(  2-C ,  3-C ) :   0.9452 B(  2-C ,  8-H ) :   0.9443
B(  2-C ,  9-H ) :   0.9353 B(  3-C ,  4-O ) :   0.8409 B(  3-C , 10-H ) :   0.9308
B(  3-C , 11-H ) :   0.9381 B( 12-C , 13-H ) :   0.9252 B( 12-C , 14-H ) :   0.9032
B( 12-C , 15-O ) :   0.8352 B( 12-C , 16-C ) :   0.9012 B( 16-C , 17-C ) :   0.9069
B( 16-C , 20-O ) :   0.8718 B( 16-C , 21-H ) :   0.9199 B( 17-C , 18-C ) :   0.9239
B( 17-C , 22-O ) :   0.8890 B( 17-C , 23-H ) :   0.9314 B( 18-C , 19-C ) :   0.9441
B( 18-C , 24-H ) :   0.9373 B( 18-C , 25-H ) :   0.9158 B( 19-C , 20-O ) :   0.8378
B( 19-C , 26-H ) :   0.9330 B( 19-C , 27-H ) :   0.9376 B( 22-O , 28-H ) :   0.7948

FINAL SINGLE POINT ENERGY      -652.855035818941

DIPOLE MOMENT
-------------
                                X             Y             Z
Electronic contribution:     -4.13918      -2.78857       1.21969
Nuclear contribution   :      5.08238       3.34555      -1.46224
                        -----------------------------------------
Total Dipole Moment    :      0.94320       0.55698      -0.24256
                        -----------------------------------------
Magnitude (a.u.)       :      1.12191
Magnitude (Debye)      :      2.85167

Rotational constants in cm-1:     0.050130     0.015974     0.015017
Rotational constants in MHz :  1502.869669   478.893433   450.190346

                             ****ORCA TERMINATED NORMALLY****
TOTAL RUN TIME: 0 days 0 hours 22 minutes 39 seconds 913 msec
