                         Program Version 4.2.0 -  RELEASE  -
|  1> # Test redundant internal optimization
|  2> #
|  3> ! RKS B3LYP  Opt TightSCF SmallPrint
|  4>
|  5> %basis
|  6>         Basis "6-31G"
|  7> end
|  8>
|  9> %geom
| 10> Constraints
| 11> { D 4  0  15  12  45.0   C } # D for Dihedral angle
| 12> { D 0  15  12  16  210.0   C } # D for Dihedral angle
| 13> { D 0  4  3  2   C } # D for Dihedral angle
| 14> { D 4  3  2  1   C } # D for Dihedral angle
| 15> { D 3  2  1  0   C } # D for Dihedral angle
| 16> { D 2  1  0  4   C } # D for Dihedral angle
| 17> { D 1  0  4  3   C } # D for Dihedral angle
| 18> { D 16  20  19  18   C } # D for Dihedral angle
| 19> { D 20  19  18  17   C } # D for Dihedral angle
| 20> { D 19  18  17  16   C } # D for Dihedral angle
| 21> { D 18  17  16  20   C } # D for Dihedral angle
| 22> { D 17  16  20  19   C } # D for Dihedral angle
| 23> { D 15  12  16  20   C } # D for Dihedral angle
| 24> end
| 25> end
| 26>
| 27>
| 28> #%pal
| 29> #nprocs 8
| 30> #end
| 31>
| 32> * xyz 0 1
| 33> C  -21.048   26.222   46.251
| 34> C  -20.361   27.558   45.944
| 35> C  -20.329   28.222   47.341
| 36> C  -20.110   27.022   48.296
| 37> O  -20.473   25.807   47.535
| 38> H  -20.833   25.428   45.533
| 39> H  -19.344   27.382   45.576
| 40> H  -20.898   28.157   45.201
| 41> H  -19.543   28.978   47.434
| 42> H  -21.289   28.710   47.548
| 43> H  -20.733   27.082   49.195
| 44> H  -19.064   26.913   48.597
| 45> C  -23.065   27.161   47.638
| 46> H  -22.349   26.999   48.453
| 47> H  -23.116   28.239   47.436
| 48> O  -22.586   26.394   46.375
| 49> C  -24.469   26.704   48.122
| 50> C  -24.959   27.559   49.296
| 51> C  -25.454   28.833   48.571
| 52> C  -26.034   28.280   47.245
| 53> O  -25.470   26.924   47.073
| 54> H  -24.446   25.631   48.323
| 55> H  -25.788   27.058   49.807
| 56> O  -23.848   27.855   50.340
| 57> H  -26.196   29.391   49.151
| 58> H  -24.610   29.505   48.372
| 59> H  -25.762   28.894   46.380
| 60> H  -27.122   28.175   47.278
| 61> H  -23.006   28.358   49.852
| 62> *
| 63>
| 64>                          ****END OF INPUT****
 Total Charge           Charge          ....    0
 Multiplicity           Mult            ....    1
 Number of Electrons    NEL             ....  102
FINAL SINGLE POINT ENERGY      -652.813259849011
FINAL SINGLE POINT ENERGY      -652.839334635732
FINAL SINGLE POINT ENERGY      -652.849307105417
FINAL SINGLE POINT ENERGY      -652.851388101807
FINAL SINGLE POINT ENERGY      -652.851782593733
FINAL SINGLE POINT ENERGY      -652.851882972366
FINAL SINGLE POINT ENERGY      -652.851893879359
FINAL SINGLE POINT ENERGY      -652.851895899332
                    ***********************HURRAY********************

CARTESIAN COORDINATES (ANGSTROEM)
---------------------------------
  C    -21.167780   26.308180   46.393921
  C    -20.328417   27.494323   45.900475
  C    -19.942901   28.194826   47.234484
  C    -19.769442   27.000300   48.206119
  O    -20.464506   25.851421   47.573032
  H    -21.175698   25.469743   45.696216
  H    -19.436784   27.111857   45.391860
  H    -20.882002   28.137260   45.211991
  H    -19.026504   28.786765   47.149134
  H    -20.742699   28.866061   47.562855
  H    -20.199436   27.177199   49.196890
  H    -18.721400   26.708550   48.322725
  C    -23.042965   27.301616   47.741921
  H    -22.399805   27.106313   48.607502
  H    -23.049444   28.380379   47.525656
  O    -22.576391   26.566340   46.581063
  C    -24.445371   26.795420   48.074167
  C    -25.098734   27.511062   49.269082
  C    -25.690911   28.786107   48.594842
  C    -26.121570   28.264768   47.206115
  O    -25.398655   26.987098   46.986416
  H    -24.377735   25.714457   48.223543
  H    -25.897668   26.885632   49.672646
  O    -24.226938   27.764839   50.398741
  H    -26.519774   29.209448   49.168509
  H    -24.910298   29.554591   48.511833
  H    -25.876603   28.958144   46.395129
  H    -27.191467   28.038226   47.163636
  H    -23.623100   28.510073   50.202495

 Multiplicity           Mult            ....    1
 Number of Electrons    NEL             ....  102
 Basis Dimension        Dim             ....  149

ORBITAL ENERGIES
----------------

  NO   OCC          E(Eh)            E(eV)
   0   2.0000     -19.150624      -521.1150
   1   2.0000     -19.146055      -520.9907
   2   2.0000     -19.139083      -520.8009
   3   2.0000     -19.134350      -520.6721
   4   2.0000     -10.276646      -279.6418
   5   2.0000     -10.244892      -278.7777
   6   2.0000     -10.233244      -278.4607
   7   2.0000     -10.230517      -278.3865
   8   2.0000     -10.229264      -278.3524
   9   2.0000     -10.227803      -278.3127
  10   2.0000     -10.196112      -277.4503
  11   2.0000     -10.195803      -277.4419
  12   2.0000     -10.188375      -277.2398
  13   2.0000      -1.053488       -28.6669
  14   2.0000      -1.033419       -28.1208
  15   2.0000      -1.014684       -27.6110
  16   2.0000      -0.994116       -27.0513
  17   2.0000      -0.790218       -21.5029
  18   2.0000      -0.782521       -21.2935
  19   2.0000      -0.771459       -20.9925
  20   2.0000      -0.733253       -19.9528
  21   2.0000      -0.681804       -18.5528
  22   2.0000      -0.611270       -16.6335
  23   2.0000      -0.605634       -16.4802
  24   2.0000      -0.597899       -16.2696
  25   2.0000      -0.570750       -15.5309
  26   2.0000      -0.525992       -14.3130
  27   2.0000      -0.511392       -13.9157
  28   2.0000      -0.501788       -13.6544
  29   2.0000      -0.495734       -13.4896
  30   2.0000      -0.472398       -12.8546
  31   2.0000      -0.462870       -12.5953
  32   2.0000      -0.444641       -12.0993
  33   2.0000      -0.431976       -11.7547
  34   2.0000      -0.423642       -11.5279
  35   2.0000      -0.418589       -11.3904
  36   2.0000      -0.415175       -11.2975
  37   2.0000      -0.399837       -10.8801
  38   2.0000      -0.381181       -10.3725
  39   2.0000      -0.374876       -10.2009
  40   2.0000      -0.362197        -9.8559
  41   2.0000      -0.355700        -9.6791
  42   2.0000      -0.349123        -9.5001
  43   2.0000      -0.331071        -9.0089
  44   2.0000      -0.322038        -8.7631
  45   2.0000      -0.314698        -8.5634
  46   2.0000      -0.304625        -8.2893
  47   2.0000      -0.270773        -7.3681
  48   2.0000      -0.264459        -7.1963
  49   2.0000      -0.252742        -6.8775
  50   2.0000      -0.236967        -6.4482
  51   0.0000       0.044320         1.2060
  52   0.0000       0.071652         1.9497
  53   0.0000       0.084527         2.3001
  54   0.0000       0.091198         2.4816
  55   0.0000       0.102371         2.7856

MULLIKEN ATOMIC CHARGES
-----------------------
   0 C :    0.293094
   1 C :   -0.266496
   2 C :   -0.310265
   3 C :   -0.017450
   4 O :   -0.505923
   5 H :    0.168338
   6 H :    0.151254
   7 H :    0.154904
   8 H :    0.147132
   9 H :    0.140261
  10 H :    0.141875
  11 H :    0.151088
  12 C :   -0.022206
  13 H :    0.150295
  14 H :    0.115223
  15 O :   -0.507494
  16 C :    0.094434
  17 C :    0.077897
  18 C :   -0.326931
  19 C :   -0.012000
  20 O :   -0.501009
  21 H :    0.171282
  22 H :    0.171877
  23 O :   -0.596996
  24 H :    0.158168
  25 H :    0.131847
  26 H :    0.144847
  27 H :    0.150927
  28 H :    0.352030
Sum of atomic charges:   -0.0000000

LOEWDIN ATOMIC CHARGES
----------------------
   0 C :    0.175862
   1 C :   -0.228034
   2 C :   -0.223236
   3 C :   -0.035635
   4 O :   -0.319508
   5 H :    0.114810
   6 H :    0.118691
   7 H :    0.122003
   8 H :    0.116774
   9 H :    0.105987
  10 H :    0.099311
  11 H :    0.106256
  12 C :   -0.055322
  13 H :    0.108303
  14 H :    0.084224
  15 O :   -0.308689
  16 C :    0.021126
  17 C :    0.033685
  18 C :   -0.243475
  19 C :   -0.030827
  20 O :   -0.310783
  21 H :    0.124088
  22 H :    0.121352
  23 O :   -0.406758
  24 H :    0.122499
  25 H :    0.102612
  26 H :    0.103088
  27 H :    0.106308
  28 H :    0.275290

  Mayer bond orders larger than 0.100000
B(  0-C ,  1-C ) :   0.9131 B(  0-C ,  4-O ) :   0.8991 B(  0-C ,  5-H ) :   0.9347
B(  0-C , 15-O ) :   0.8974 B(  1-C ,  2-C ) :   0.9565 B(  1-C ,  6-H ) :   0.9351
B(  1-C ,  7-H ) :   0.9374 B(  2-C ,  3-C ) :   0.9481 B(  2-C ,  8-H ) :   0.9450
B(  2-C ,  9-H ) :   0.9434 B(  3-C ,  4-O ) :   0.8420 B(  3-C , 10-H ) :   0.9305
B(  3-C , 11-H ) :   0.9392 B( 12-C , 13-H ) :   0.8929 B( 12-C , 14-H ) :   0.9157
B( 12-C , 15-O ) :   0.8455 B( 12-C , 16-C ) :   0.9034 B( 16-C , 17-C ) :   0.8729
B( 16-C , 20-O ) :   0.8749 B( 16-C , 21-H ) :   0.9268 B( 17-C , 18-C ) :   0.9250
B( 17-C , 22-H ) :   0.9324 B( 17-C , 23-O ) :   0.8926 B( 18-C , 19-C ) :   0.9390
B( 18-C , 24-H ) :   0.9412 B( 18-C , 25-H ) :   0.9408 B( 19-C , 20-O ) :   0.8524
B( 19-C , 26-H ) :   0.9313 B( 19-C , 27-H ) :   0.9373 B( 23-O , 28-H ) :   0.8004

FINAL SINGLE POINT ENERGY      -652.851883919132

DIPOLE MOMENT
-------------
                                X             Y             Z
Electronic contribution:     -2.35904      -5.59744      -0.29314
Nuclear contribution   :      2.90915       7.39000       0.40505
                        -----------------------------------------
Total Dipole Moment    :      0.55011       1.79256       0.11191
                        -----------------------------------------
Magnitude (a.u.)       :      1.87841
Magnitude (Debye)      :      4.77453

Rotational constants in cm-1:     0.048642     0.014325     0.012898
Rotational constants in MHz :  1458.242560   429.446785   386.669641

                             ****ORCA TERMINATED NORMALLY****
TOTAL RUN TIME: 0 days 0 hours 49 minutes 1 seconds 546 msec
