                         Program Version 4.2.0 -  RELEASE  -
|  1> # Test redundant internal optimization
|  2> #
|  3> ! RKS B3LYP  Opt TightSCF SmallPrint
|  4>
|  5> %basis
|  6>         Basis "6-31G"
|  7> end
|  8>
|  9> %geom
| 10> Constraints
| 11> { D 4  0  15  12  330.0   C } # D for Dihedral angle
| 12> { D 0  15  12  16  300.0   C } # D for Dihedral angle
| 13> { D 0  4  3  2   C } # D for Dihedral angle
| 14> { D 4  3  2  1   C } # D for Dihedral angle
| 15> { D 3  2  1  0   C } # D for Dihedral angle
| 16> { D 2  1  0  4   C } # D for Dihedral angle
| 17> { D 1  0  4  3   C } # D for Dihedral angle
| 18> { D 16  20  19  18   C } # D for Dihedral angle
| 19> { D 20  19  18  17   C } # D for Dihedral angle
| 20> { D 19  18  17  16   C } # D for Dihedral angle
| 21> { D 18  17  16  20   C } # D for Dihedral angle
| 22> { D 17  16  20  19   C } # D for Dihedral angle
| 23> { D 15  12  16  20   C } # D for Dihedral angle
| 24> end
| 25> end
| 26>
| 27>
| 28> #%pal
| 29> #nprocs 8
| 30> #end
| 31>
| 32> * xyz 0 1
| 33> C  -21.048   26.222   46.251
| 34> C  -20.361   27.558   45.944
| 35> C  -20.329   28.222   47.341
| 36> C  -20.110   27.022   48.296
| 37> O  -20.473   25.807   47.535
| 38> H  -20.833   25.428   45.533
| 39> H  -19.344   27.382   45.576
| 40> H  -20.898   28.157   45.201
| 41> H  -19.543   28.978   47.434
| 42> H  -21.289   28.710   47.548
| 43> H  -20.733   27.082   49.195
| 44> H  -19.064   26.913   48.597
| 45> C  -23.271   25.476   47.424
| 46> H  -22.856   25.689   48.417
| 47> H  -24.351   25.667   47.455
| 48> O  -22.586   26.394   46.375
| 49> C  -23.067   23.965   47.124
| 50> C  -23.543   23.609   45.710
| 51> C  -22.355   24.098   44.847
| 52> C  -21.126   23.805   45.743
| 53> O  -21.639   23.631   47.119
| 54> H  -23.530   23.377   47.918
| 55> O  -23.719   22.072   45.579
| 56> H  -24.490   24.089   45.441
| 57> H  -22.297   23.591   43.879
| 58> H  -22.446   25.174   44.657
| 59> H  -20.395   24.621   45.732
| 60> H  -20.621   22.874   45.467
| 61> H  -22.782   21.569   45.844
| 62> *
| 63>
| 64>                          ****END OF INPUT****
 Total Charge           Charge          ....    0
 Multiplicity           Mult            ....    1
 Number of Electrons    NEL             ....  102
FINAL SINGLE POINT ENERGY      -652.729348910567
FINAL SINGLE POINT ENERGY      -652.827866139993
FINAL SINGLE POINT ENERGY      -652.849194306799
FINAL SINGLE POINT ENERGY      -652.853664986359
FINAL SINGLE POINT ENERGY      -652.854575612466
FINAL SINGLE POINT ENERGY      -652.854859023527
FINAL SINGLE POINT ENERGY      -652.854975349001
FINAL SINGLE POINT ENERGY      -652.855055404640
FINAL SINGLE POINT ENERGY      -652.855079047892
FINAL SINGLE POINT ENERGY      -652.855085072245
                    ***********************HURRAY********************

CARTESIAN COORDINATES (ANGSTROEM)
---------------------------------
  C    -20.926583   26.514145   46.246666
  C    -20.491231   27.973947   46.123891
  C    -20.439222   28.414502   47.604844
  C    -19.950142   27.143804   48.332853
  O    -20.193256   26.019127   47.386545
  H    -20.649609   25.879326   45.404225
  H    -19.498084   28.014697   45.661596
  H    -21.188651   28.562599   45.524280
  H    -19.773829   29.267751   47.766569
  H    -21.442740   28.692060   47.940202
  H    -20.488116   26.941943   49.262962
  H    -18.874965   27.153045   48.534056
  C    -23.060692   25.535408   47.251457
  H    -22.736651   25.688388   48.289306
  H    -24.110502   25.833688   47.169954
  O    -22.365937   26.507549   46.414899
  C    -22.976819   24.019443   46.979832
  C    -23.564248   23.542126   45.643532
  C    -22.333314   23.633991   44.700922
  C    -21.157532   23.246161   45.636052
  O    -21.655103   23.409593   47.020310
  H    -23.545806   23.565546   47.801705
  O    -24.060543   22.176896   45.754412
  H    -24.415902   24.129585   45.299873
  H    -22.442809   22.960881   43.847262
  H    -22.233653   24.659884   44.333033
  H    -20.267691   23.866599   45.507403
  H    -20.865864   22.196648   45.524872
  H    -23.389504   21.632672   46.218485

 Multiplicity           Mult            ....    1
 Number of Electrons    NEL             ....  102
 Basis Dimension        Dim             ....  149

ORBITAL ENERGIES
----------------

  NO   OCC          E(Eh)            E(eV)
   0   2.0000     -19.142912      -520.9051
   1   2.0000     -19.141865      -520.8766
   2   2.0000     -19.138893      -520.7958
   3   2.0000     -19.133861      -520.6588
   4   2.0000     -10.278653      -279.6964
   5   2.0000     -10.235989      -278.5354
   6   2.0000     -10.232397      -278.4377
   7   2.0000     -10.231760      -278.4203
   8   2.0000     -10.227205      -278.2964
   9   2.0000     -10.225439      -278.2483
  10   2.0000     -10.186498      -277.1887
  11   2.0000     -10.184723      -277.1404
  12   2.0000     -10.183358      -277.1033
  13   2.0000      -1.052791       -28.6479
  14   2.0000      -1.033066       -28.1112
  15   2.0000      -1.002027       -27.2665
  16   2.0000      -0.991251       -26.9733
  17   2.0000      -0.790016       -21.4974
  18   2.0000      -0.775564       -21.1042
  19   2.0000      -0.767340       -20.8804
  20   2.0000      -0.733042       -19.9471
  21   2.0000      -0.674733       -18.3604
  22   2.0000      -0.606502       -16.5038
  23   2.0000      -0.599782       -16.3209
  24   2.0000      -0.598746       -16.2927
  25   2.0000      -0.564281       -15.3549
  26   2.0000      -0.525226       -14.2921
  27   2.0000      -0.506261       -13.7761
  28   2.0000      -0.496585       -13.5128
  29   2.0000      -0.480278       -13.0690
  30   2.0000      -0.471562       -12.8319
  31   2.0000      -0.461784       -12.5658
  32   2.0000      -0.448710       -12.2100
  33   2.0000      -0.434813       -11.8319
  34   2.0000      -0.418565       -11.3897
  35   2.0000      -0.412114       -11.2142
  36   2.0000      -0.396796       -10.7974
  37   2.0000      -0.389940       -10.6108
  38   2.0000      -0.374751       -10.1975
  39   2.0000      -0.369397       -10.0518
  40   2.0000      -0.361576        -9.8390
  41   2.0000      -0.357405        -9.7255
  42   2.0000      -0.345599        -9.4042
  43   2.0000      -0.331230        -9.0132
  44   2.0000      -0.326188        -8.8760
  45   2.0000      -0.304610        -8.2889
  46   2.0000      -0.292636        -7.9630
  47   2.0000      -0.268681        -7.3112
  48   2.0000      -0.266448        -7.2504
  49   2.0000      -0.254948        -6.9375
  50   2.0000      -0.234562        -6.3828
  51   0.0000       0.066206         1.8016
  52   0.0000       0.081085         2.2064
  53   0.0000       0.094392         2.5685
  54   0.0000       0.102733         2.7955
  55   0.0000       0.106461         2.8969

MULLIKEN ATOMIC CHARGES
-----------------------
   0 C :    0.312810
   1 C :   -0.258465
   2 C :   -0.298081
   3 C :   -0.015025
   4 O :   -0.502776
   5 H :    0.131768
   6 H :    0.142354
   7 H :    0.157953
   8 H :    0.142095
   9 H :    0.157672
  10 H :    0.147150
  11 H :    0.148136
  12 C :   -0.001446
  13 H :    0.144212
  14 H :    0.148822
  15 O :   -0.544938
  16 C :    0.073863
  17 C :    0.073162
  18 C :   -0.298350
  19 C :   -0.027619
  20 O :   -0.512643
  21 H :    0.154820
  22 O :   -0.602583
  23 H :    0.153640
  24 H :    0.157974
  25 H :    0.156621
  26 H :    0.156606
  27 H :    0.139663
  28 H :    0.362605
Sum of atomic charges:    0.0000000

LOEWDIN ATOMIC CHARGES
----------------------
   0 C :    0.177919
   1 C :   -0.215375
   2 C :   -0.216975
   3 C :   -0.030207
   4 O :   -0.314106
   5 H :    0.091396
   6 H :    0.112122
   7 H :    0.124801
   8 H :    0.114579
   9 H :    0.116866
  10 H :    0.104032
  11 H :    0.105447
  12 C :   -0.037398
  13 H :    0.102906
  14 H :    0.116257
  15 O :   -0.340870
  16 C :    0.003993
  17 C :    0.035050
  18 C :   -0.241968
  19 C :   -0.037204
  20 O :   -0.317143
  21 H :    0.117075
  22 O :   -0.416986
  23 H :    0.116130
  24 H :    0.124041
  25 H :    0.118624
  26 H :    0.106069
  27 H :    0.099507
  28 H :    0.281418

  Mayer bond orders larger than 0.100000
B(  0-C ,  1-C ) :   0.9414 B(  0-C ,  4-O ) :   0.9148 B(  0-C ,  5-H ) :   0.9096
B(  0-C , 15-O ) :   0.8376 B(  1-C ,  2-C ) :   0.9552 B(  1-C ,  6-H ) :   0.9389
B(  1-C ,  7-H ) :   0.9357 B(  2-C ,  3-C ) :   0.9536 B(  2-C ,  8-H ) :   0.9453
B(  2-C ,  9-H ) :   0.9448 B(  3-C ,  4-O ) :   0.8347 B(  3-C , 10-H ) :   0.9339
B(  3-C , 11-H ) :   0.9399 B( 12-C , 13-H ) :   0.9230 B( 12-C , 14-H ) :   0.9302
B( 12-C , 15-O ) :   0.8603 B( 12-C , 16-C ) :   0.8809 B( 16-C , 17-C ) :   0.9041
B( 16-C , 20-O ) :   0.8753 B( 16-C , 21-H ) :   0.9137 B( 17-C , 18-C ) :   0.9193
B( 17-C , 22-O ) :   0.8925 B( 17-C , 23-H ) :   0.9349 B( 18-C , 19-C ) :   0.9426
B( 18-C , 24-H ) :   0.9368 B( 18-C , 25-H ) :   0.9255 B( 19-C , 20-O ) :   0.8424
B( 19-C , 26-H ) :   0.9198 B( 19-C , 27-H ) :   0.9377 B( 22-O , 28-H ) :   0.7958

FINAL SINGLE POINT ENERGY      -652.855086099399

DIPOLE MOMENT
-------------
                                X             Y             Z
Electronic contribution:     -2.07108      -4.42926       0.62026
Nuclear contribution   :      2.57633       5.31424      -0.67524
                        -----------------------------------------
Total Dipole Moment    :      0.50525       0.88498      -0.05498
                        -----------------------------------------
Magnitude (a.u.)       :      1.02054
Magnitude (Debye)      :      2.59400

Rotational constants in cm-1:     0.061627     0.015023     0.014743
Rotational constants in MHz :  1847.545413   450.379284   441.969742

                             ****ORCA TERMINATED NORMALLY****
TOTAL RUN TIME: 0 days 0 hours 58 minutes 40 seconds 849 msec
