                         Program Version 4.2.0 -  RELEASE  -
|  1> # Test redundant internal optimization
|  2> #
|  3> ! RKS B3LYP  Opt TightSCF SmallPrint
|  4>
|  5> %basis
|  6>         Basis "6-31G"
|  7> end
|  8>
|  9> %geom
| 10> Constraints
| 11> { D 4  0  15  12  255.0   C } # D for Dihedral angle
| 12> { D 0  15  12  16  195.0   C } # D for Dihedral angle
| 13> { D 0  4  3  2   C } # D for Dihedral angle
| 14> { D 4  3  2  1   C } # D for Dihedral angle
| 15> { D 3  2  1  0   C } # D for Dihedral angle
| 16> { D 2  1  0  4   C } # D for Dihedral angle
| 17> { D 1  0  4  3   C } # D for Dihedral angle
| 18> { D 16  20  19  18   C } # D for Dihedral angle
| 19> { D 20  19  18  17   C } # D for Dihedral angle
| 20> { D 19  18  17  16   C } # D for Dihedral angle
| 21> { D 18  17  16  20   C } # D for Dihedral angle
| 22> { D 17  16  20  19   C } # D for Dihedral angle
| 23> { D 15  12  16  20   C } # D for Dihedral angle
| 24> end
| 25> end
| 26>
| 27>
| 28> #%pal
| 29> #nprocs 8
| 30> #end
| 31>
| 32> * xyz 0 1
| 33> C  -21.048   26.222   46.251
| 34> C  -20.361   27.558   45.944
| 35> C  -20.329   28.222   47.341
| 36> C  -20.110   27.022   48.296
| 37> O  -20.473   25.807   47.535
| 38> H  -20.833   25.428   45.533
| 39> H  -19.344   27.382   45.576
| 40> H  -20.898   28.157   45.201
| 41> H  -19.543   28.978   47.434
| 42> H  -21.289   28.710   47.548
| 43> H  -20.733   27.082   49.195
| 44> H  -19.064   26.913   48.597
| 45> C  -23.431   25.260   45.734
| 46> H  -23.019   25.014   44.747
| 47> H  -23.395   24.355   46.355
| 48> O  -22.586   26.394   46.375
| 49> C  -24.924   25.651   45.555
| 50> C  -25.750   24.471   45.029
| 51> C  -25.962   23.638   46.315
| 52> C  -26.096   24.720   47.416
| 53> O  -25.531   25.965   46.853
| 54> H  -24.987   26.554   44.945
| 55> H  -26.709   24.828   44.636
| 56> O  -25.028   23.674   43.907
| 57> H  -26.841   22.988   46.260
| 58> H  -25.087   23.004   46.501
| 59> H  -25.548   24.458   48.329
| 60> H  -27.138   24.926   47.674
| 61> H  -24.065   23.306   44.277
| 62> *
| 63>
| 64>                          ****END OF INPUT****
 Total Charge           Charge          ....    0
 Multiplicity           Mult            ....    1
 Number of Electrons    NEL             ....  102
FINAL SINGLE POINT ENERGY      -652.827829669622
FINAL SINGLE POINT ENERGY      -652.852104456848
FINAL SINGLE POINT ENERGY      -652.856766386361
FINAL SINGLE POINT ENERGY      -652.857607027632
FINAL SINGLE POINT ENERGY      -652.857779811637
FINAL SINGLE POINT ENERGY      -652.857811430644
FINAL SINGLE POINT ENERGY      -652.857818628889
FINAL SINGLE POINT ENERGY      -652.857819104765
                    ***********************HURRAY********************

CARTESIAN COORDINATES (ANGSTROEM)
---------------------------------
  C    -21.032989   26.157148   46.210834
  C    -20.492134   27.561033   45.937976
  C    -20.541541   28.200668   47.346212
  C    -20.203540   27.014749   48.276692
  O    -20.435210   25.788516   47.473742
  H    -20.748011   25.388714   45.485894
  H    -19.459162   27.490043   45.576879
  H    -21.092770   28.095517   45.199319
  H    -19.838826   29.031933   47.456865
  H    -21.552307   28.568348   47.544910
  H    -20.836893   26.976031   49.166295
  H    -19.151812   26.997094   48.578827
  C    -23.238721   25.166550   45.736447
  H    -22.863045   24.924998   44.731084
  H    -23.151490   24.270551   46.369081
  O    -22.472214   26.251633   46.318048
  C    -24.688807   25.624520   45.617531
  C    -25.631145   24.548347   45.051253
  C    -25.964148   23.712328   46.322801
  C    -26.000209   24.784799   47.433777
  O    -25.286057   25.973505   46.901902
  H    -24.704369   26.543236   45.024393
  H    -26.532639   25.026833   44.662683
  O    -25.105725   23.788579   43.934824
  H    -26.906965   23.167431   46.224785
  H    -25.165560   22.979669   46.500479
  H    -25.511307   24.458953   48.356670
  H    -27.019953   25.103318   47.668428
  H    -24.494449   23.091953   44.250371

 Multiplicity           Mult            ....    1
 Number of Electrons    NEL             ....  102
 Basis Dimension        Dim             ....  149

ORBITAL ENERGIES
----------------

  NO   OCC          E(Eh)            E(eV)
   0   2.0000     -19.151009      -521.1255
   1   2.0000     -19.138110      -520.7744
   2   2.0000     -19.135158      -520.6941
   3   2.0000     -19.132746      -520.6285
   4   2.0000     -10.274739      -279.5899
   5   2.0000     -10.245753      -278.8011
   6   2.0000     -10.230222      -278.3785
   7   2.0000     -10.229971      -278.3717
   8   2.0000     -10.228717      -278.3375
   9   2.0000     -10.218500      -278.0595
  10   2.0000     -10.196319      -277.4560
  11   2.0000     -10.179637      -277.0020
  12   2.0000     -10.178597      -276.9737
  13   2.0000      -1.048597       -28.5338
  14   2.0000      -1.033626       -28.1264
  15   2.0000      -1.014851       -27.6155
  16   2.0000      -0.989975       -26.9386
  17   2.0000      -0.784918       -21.3587
  18   2.0000      -0.780385       -21.2354
  19   2.0000      -0.765533       -20.8312
  20   2.0000      -0.726245       -19.7621
  21   2.0000      -0.678077       -18.4514
  22   2.0000      -0.612047       -16.6546
  23   2.0000      -0.592320       -16.1178
  24   2.0000      -0.586109       -15.9488
  25   2.0000      -0.578819       -15.7505
  26   2.0000      -0.529796       -14.4165
  27   2.0000      -0.510529       -13.8922
  28   2.0000      -0.495677       -13.4881
  29   2.0000      -0.484802       -13.1921
  30   2.0000      -0.467480       -12.7208
  31   2.0000      -0.456179       -12.4133
  32   2.0000      -0.442728       -12.0472
  33   2.0000      -0.434477       -11.8227
  34   2.0000      -0.426252       -11.5989
  35   2.0000      -0.417198       -11.3525
  36   2.0000      -0.402181       -10.9439
  37   2.0000      -0.395862       -10.7720
  38   2.0000      -0.375994       -10.2313
  39   2.0000      -0.370747       -10.0885
  40   2.0000      -0.353483        -9.6188
  41   2.0000      -0.350004        -9.5241
  42   2.0000      -0.343280        -9.3411
  43   2.0000      -0.328503        -8.9390
  44   2.0000      -0.316560        -8.6140
  45   2.0000      -0.314949        -8.5702
  46   2.0000      -0.299233        -8.1425
  47   2.0000      -0.272095        -7.4041
  48   2.0000      -0.261077        -7.1043
  49   2.0000      -0.246743        -6.7142
  50   2.0000      -0.237497        -6.4626
  51   0.0000       0.049365         1.3433
  52   0.0000       0.079349         2.1592
  53   0.0000       0.088438         2.4065
  54   0.0000       0.095848         2.6082
  55   0.0000       0.102927         2.8008

MULLIKEN ATOMIC CHARGES
-----------------------
   0 C :    0.281775
   1 C :   -0.252372
   2 C :   -0.300050
   3 C :    0.000398
   4 O :   -0.507253
   5 H :    0.135394
   6 H :    0.140251
   7 H :    0.150042
   8 H :    0.137721
   9 H :    0.170462
  10 H :    0.151211
  11 H :    0.137856
  12 C :   -0.006428
  13 H :    0.129718
  14 H :    0.128565
  15 O :   -0.507995
  16 C :    0.094342
  17 C :    0.081078
  18 C :   -0.326077
  19 C :   -0.007883
  20 O :   -0.502930
  21 H :    0.160426
  22 H :    0.168302
  23 O :   -0.601335
  24 H :    0.157431
  25 H :    0.135453
  26 H :    0.147739
  27 H :    0.147896
  28 H :    0.356262
Sum of atomic charges:    0.0000000

LOEWDIN ATOMIC CHARGES
----------------------
   0 C :    0.173011
   1 C :   -0.218040
   2 C :   -0.216256
   3 C :   -0.026346
   4 O :   -0.324678
   5 H :    0.096088
   6 H :    0.111134
   7 H :    0.120451
   8 H :    0.112150
   9 H :    0.123270
  10 H :    0.107672
  11 H :    0.100160
  12 C :   -0.047994
  13 H :    0.096147
  14 H :    0.092155
  15 O :   -0.318032
  16 C :    0.022406
  17 C :    0.034349
  18 C :   -0.241756
  19 C :   -0.028894
  20 O :   -0.311729
  21 H :    0.118505
  22 H :    0.119602
  23 O :   -0.408883
  24 H :    0.122230
  25 H :    0.104533
  26 H :    0.105067
  27 H :    0.105406
  28 H :    0.278273

  Mayer bond orders larger than 0.100000
B(  0-C ,  1-C ) :   0.9448 B(  0-C ,  4-O ) :   0.9240 B(  0-C ,  5-H ) :   0.9188
B(  0-C , 15-O ) :   0.8546 B(  1-C ,  2-C ) :   0.9583 B(  1-C ,  6-H ) :   0.9391
B(  1-C ,  7-H ) :   0.9378 B(  2-C ,  3-C ) :   0.9549 B(  2-C ,  8-H ) :   0.9454
B(  2-C ,  9-H ) :   0.9421 B(  3-C ,  4-O ) :   0.8377 B(  3-C , 10-H ) :   0.9350
B(  3-C , 11-H ) :   0.9402 B( 12-C , 13-H ) :   0.9029 B( 12-C , 14-H ) :   0.9162
B( 12-C , 15-O ) :   0.8485 B( 12-C , 16-C ) :   0.9089 B( 16-C , 17-C ) :   0.8738
B( 16-C , 20-O ) :   0.8740 B( 16-C , 21-H ) :   0.9296 B( 17-C , 18-C ) :   0.9266
B( 17-C , 22-H ) :   0.9329 B( 17-C , 23-O ) :   0.8940 B( 18-C , 19-C ) :   0.9387
B( 18-C , 24-H ) :   0.9414 B( 18-C , 25-H ) :   0.9399 B( 19-C , 20-O ) :   0.8517
B( 19-C , 26-H ) :   0.9312 B( 19-C , 27-H ) :   0.9379 B( 23-O , 28-H ) :   0.7987

FINAL SINGLE POINT ENERGY      -652.857818822857

DIPOLE MOMENT
-------------
                                X             Y             Z
Electronic contribution:     -1.42175      -1.07761      -1.28937
Nuclear contribution   :      1.52500       0.63382       1.24971
                        -----------------------------------------
Total Dipole Moment    :      0.10325      -0.44379      -0.03966
                        -----------------------------------------
Magnitude (a.u.)       :      0.45736
Magnitude (Debye)      :      1.16253

Rotational constants in cm-1:     0.056032     0.012149     0.011278
Rotational constants in MHz :  1679.783547   364.228083   338.110386

                             ****ORCA TERMINATED NORMALLY****
TOTAL RUN TIME: 0 days 0 hours 24 minutes 35 seconds 650 msec
