                         Program Version 4.2.0 -  RELEASE  -
|  1> # Test redundant internal optimization
|  2> #
|  3> ! RKS B3LYP  Opt TightSCF SmallPrint
|  4>
|  5> %basis
|  6>         Basis "6-31G"
|  7> end
|  8>
|  9> %geom
| 10> Constraints
| 11> { D 4  0  15  12  225.0   C } # D for Dihedral angle
| 12> { D 0  15  12  16  195.0   C } # D for Dihedral angle
| 13> { D 0  4  3  2   C } # D for Dihedral angle
| 14> { D 4  3  2  1   C } # D for Dihedral angle
| 15> { D 3  2  1  0   C } # D for Dihedral angle
| 16> { D 2  1  0  4   C } # D for Dihedral angle
| 17> { D 1  0  4  3   C } # D for Dihedral angle
| 18> { D 16  20  19  18   C } # D for Dihedral angle
| 19> { D 20  19  18  17   C } # D for Dihedral angle
| 20> { D 19  18  17  16   C } # D for Dihedral angle
| 21> { D 18  17  16  20   C } # D for Dihedral angle
| 22> { D 17  16  20  19   C } # D for Dihedral angle
| 23> { D 15  12  16  20   C } # D for Dihedral angle
| 24> end
| 25> end
| 26>
| 27>
| 28> #%pal
| 29> #nprocs 8
| 30> #end
| 31>
| 32> * xyz 0 1
| 33> C  -21.048   26.222   46.251
| 34> C  -20.361   27.558   45.944
| 35> C  -20.329   28.222   47.341
| 36> C  -20.110   27.022   48.296
| 37> O  -20.473   25.807   47.535
| 38> H  -20.833   25.428   45.533
| 39> H  -19.344   27.382   45.576
| 40> H  -20.898   28.157   45.201
| 41> H  -19.543   28.978   47.434
| 42> H  -21.289   28.710   47.548
| 43> H  -20.733   27.082   49.195
| 44> H  -19.064   26.913   48.597
| 45> C  -23.415   25.773   45.218
| 46> H  -22.945   26.025   44.259
| 47> H  -23.443   24.679   45.309
| 48> O  -22.586   26.394   46.375
| 49> C  -24.883   26.282   45.190
| 50> C  -25.701   25.564   44.112
| 51> C  -26.019   24.217   44.803
| 52> C  -26.198   24.618   46.289
| 53> O  -25.566   25.946   46.444
| 54> H  -24.883   27.371   45.108
| 55> O  -27.008   26.352   43.820
| 56> H  -25.156   25.439   43.170
| 57> H  -26.909   23.728   44.393
| 58> H  -25.175   23.526   44.689
| 59> H  -25.719   23.911   46.975
| 60> H  -27.250   24.727   46.569
| 61> H  -27.571   26.488   44.750
| 62> *
| 63>
| 64>                          ****END OF INPUT****
 Total Charge           Charge          ....    0
 Multiplicity           Mult            ....    1
 Number of Electrons    NEL             ....  102
FINAL SINGLE POINT ENERGY      -652.830419824415
FINAL SINGLE POINT ENERGY      -652.853789726052
FINAL SINGLE POINT ENERGY      -652.857461815836
FINAL SINGLE POINT ENERGY      -652.858147218357
FINAL SINGLE POINT ENERGY      -652.858237617867
FINAL SINGLE POINT ENERGY      -652.858245429623
                    ***********************HURRAY********************

CARTESIAN COORDINATES (ANGSTROEM)
---------------------------------
  C    -21.077433   26.178594   46.171992
  C    -20.475927   27.556848   45.903938
  C    -20.547130   28.214068   47.302568
  C    -20.285086   27.028142   48.255560
  O    -20.538480   25.803493   47.451773
  H    -20.800371   25.393296   45.461855
  H    -19.434893   27.446018   45.576789
  H    -21.026471   28.111672   45.139669
  H    -19.818968   29.020957   47.426806
  H    -21.549847   28.620290   47.464593
  H    -20.949348   27.018553   49.122794
  H    -19.245258   26.971937   48.591398
  C    -23.277025   25.674411   45.187819
  H    -22.849383   25.944960   44.208435
  H    -23.245894   24.578995   45.285233
  O    -22.525317   26.286254   46.265198
  C    -24.707708   26.199802   45.250379
  C    -25.637054   25.600147   44.186221
  C    -26.055677   24.260295   44.848511
  C    -26.132415   24.624922   46.351900
  O    -25.367020   25.884306   46.518867
  H    -24.678291   27.291579   45.184639
  O    -26.780918   26.467247   43.954311
  H    -25.171106   25.471540   43.207862
  H    -27.008289   23.911561   44.442783
  H    -25.298404   23.490380   44.661480
  H    -25.697345   23.857192   46.998362
  H    -27.156368   24.822435   46.684308
  H    -27.114574   26.791106   44.817957

 Multiplicity           Mult            ....    1
 Number of Electrons    NEL             ....  102
 Basis Dimension        Dim             ....  149

ORBITAL ENERGIES
----------------

  NO   OCC          E(Eh)            E(eV)
   0   2.0000     -19.140315      -520.8344
   1   2.0000     -19.140181      -520.8308
   2   2.0000     -19.138095      -520.7740
   3   2.0000     -19.136003      -520.7171
   4   2.0000     -10.277581      -279.6672
   5   2.0000     -10.244835      -278.7761
   6   2.0000     -10.236055      -278.5372
   7   2.0000     -10.235674      -278.5269
   8   2.0000     -10.229410      -278.3564
   9   2.0000     -10.220815      -278.1225
  10   2.0000     -10.190641      -277.3014
  11   2.0000     -10.183782      -277.1148
  12   2.0000     -10.182278      -277.0739
  13   2.0000      -1.050669       -28.5902
  14   2.0000      -1.036492       -28.2044
  15   2.0000      -1.006924       -27.3998
  16   2.0000      -0.992048       -26.9950
  17   2.0000      -0.788398       -21.4534
  18   2.0000      -0.781450       -21.2643
  19   2.0000      -0.767985       -20.8979
  20   2.0000      -0.728913       -19.8347
  21   2.0000      -0.674504       -18.3542
  22   2.0000      -0.605541       -16.4776
  23   2.0000      -0.595871       -16.2145
  24   2.0000      -0.590863       -16.0782
  25   2.0000      -0.585802       -15.9405
  26   2.0000      -0.525943       -14.3116
  27   2.0000      -0.512155       -13.9364
  28   2.0000      -0.494838       -13.4652
  29   2.0000      -0.486680       -13.2432
  30   2.0000      -0.475633       -12.9426
  31   2.0000      -0.459187       -12.4951
  32   2.0000      -0.452799       -12.3213
  33   2.0000      -0.436678       -11.8826
  34   2.0000      -0.430584       -11.7168
  35   2.0000      -0.404978       -11.0200
  36   2.0000      -0.400163       -10.8890
  37   2.0000      -0.394382       -10.7317
  38   2.0000      -0.374130       -10.1806
  39   2.0000      -0.372619       -10.1395
  40   2.0000      -0.359140        -9.7727
  41   2.0000      -0.354510        -9.6467
  42   2.0000      -0.350145        -9.5279
  43   2.0000      -0.331633        -9.0242
  44   2.0000      -0.311270        -8.4701
  45   2.0000      -0.309920        -8.4333
  46   2.0000      -0.303135        -8.2487
  47   2.0000      -0.272565        -7.4169
  48   2.0000      -0.260415        -7.0863
  49   2.0000      -0.250676        -6.8212
  50   2.0000      -0.239742        -6.5237
  51   0.0000       0.065868         1.7924
  52   0.0000       0.082239         2.2378
  53   0.0000       0.087169         2.3720
  54   0.0000       0.099054         2.6954
  55   0.0000       0.099978         2.7205

MULLIKEN ATOMIC CHARGES
-----------------------
   0 C :    0.286076
   1 C :   -0.254560
   2 C :   -0.300083
   3 C :   -0.000642
   4 O :   -0.501451
   5 H :    0.136150
   6 H :    0.141105
   7 H :    0.142041
   8 H :    0.139938
   9 H :    0.166396
  10 H :    0.156320
  11 H :    0.139130
  12 C :    0.001019
  13 H :    0.120038
  14 H :    0.136613
  15 O :   -0.503170
  16 C :    0.067932
  17 C :    0.073874
  18 C :   -0.294490
  19 C :   -0.031627
  20 O :   -0.506377
  21 H :    0.165531
  22 O :   -0.601655
  23 H :    0.149228
  24 H :    0.162103
  25 H :    0.143560
  26 H :    0.155279
  27 H :    0.145417
  28 H :    0.366305
Sum of atomic charges:   -0.0000000

LOEWDIN ATOMIC CHARGES
----------------------
   0 C :    0.176637
   1 C :   -0.223998
   2 C :   -0.216584
   3 C :   -0.025366
   4 O :   -0.310909
   5 H :    0.097020
   6 H :    0.111411
   7 H :    0.115468
   8 H :    0.113465
   9 H :    0.121440
  10 H :    0.110454
  11 H :    0.100999
  12 C :   -0.040788
  13 H :    0.090458
  14 H :    0.096455
  15 O :   -0.324899
  16 C :    0.018425
  17 C :    0.034850
  18 C :   -0.241184
  19 C :   -0.038406
  20 O :   -0.318124
  21 H :    0.119550
  22 O :   -0.414187
  23 H :    0.113935
  24 H :    0.126639
  25 H :    0.112398
  26 H :    0.108557
  27 H :    0.102136
  28 H :    0.284149

  Mayer bond orders larger than 0.100000
B(  0-C ,  1-C ) :   0.9372 B(  0-C ,  4-O ) :   0.9356 B(  0-C ,  5-H ) :   0.9196
B(  0-C , 15-O ) :   0.8373 B(  1-C ,  2-C ) :   0.9562 B(  1-C ,  6-H ) :   0.9354
B(  1-C ,  7-H ) :   0.9389 B(  2-C ,  3-C ) :   0.9550 B(  2-C ,  8-H ) :   0.9451
B(  2-C ,  9-H ) :   0.9425 B(  3-C ,  4-O ) :   0.8363 B(  3-C , 10-H ) :   0.9340
B(  3-C , 11-H ) :   0.9398 B( 12-C , 13-H ) :   0.9099 B( 12-C , 14-H ) :   0.9141
B( 12-C , 15-O ) :   0.8469 B( 12-C , 16-C ) :   0.9004 B( 16-C , 17-C ) :   0.8999
B( 16-C , 20-O ) :   0.8730 B( 16-C , 21-H ) :   0.9238 B( 17-C , 18-C ) :   0.9118
B( 17-C , 22-O ) :   0.8962 B( 17-C , 23-H ) :   0.9332 B( 18-C , 19-C ) :   0.9389
B( 18-C , 24-H ) :   0.9375 B( 18-C , 25-H ) :   0.9341 B( 19-C , 20-O ) :   0.8503
B( 19-C , 26-H ) :   0.9329 B( 19-C , 27-H ) :   0.9378 B( 22-O , 28-H ) :   0.7928

FINAL SINGLE POINT ENERGY      -652.858247216355

DIPOLE MOMENT
-------------
                                X             Y             Z
Electronic contribution:     -2.23729      -0.56603       0.67410
Nuclear contribution   :      2.60536       0.50688      -1.19957
                        -----------------------------------------
Total Dipole Moment    :      0.36807      -0.05915      -0.52547
                        -----------------------------------------
Magnitude (a.u.)       :      0.64427
Magnitude (Debye)      :      1.63762

Rotational constants in cm-1:     0.064379     0.011257     0.010779
Rotational constants in MHz :  1930.029853   337.470836   323.152397

                             ****ORCA TERMINATED NORMALLY****
TOTAL RUN TIME: 0 days 0 hours 22 minutes 50 seconds 603 msec
