                         Program Version 4.2.0 -  RELEASE  -
|  1> # Test redundant internal optimization
|  2> #
|  3> ! RKS B3LYP  Opt TightSCF SmallPrint
|  4>
|  5> %basis
|  6>         Basis "6-31G"
|  7> end
|  8>
|  9> %geom
| 10> Constraints
| 11> { D 4  0  15  12  300.0   C } # D for Dihedral angle
| 12> { D 0  15  12  16  195.0   C } # D for Dihedral angle
| 13> { D 0  4  3  2   C } # D for Dihedral angle
| 14> { D 4  3  2  1   C } # D for Dihedral angle
| 15> { D 3  2  1  0   C } # D for Dihedral angle
| 16> { D 2  1  0  4   C } # D for Dihedral angle
| 17> { D 1  0  4  3   C } # D for Dihedral angle
| 18> { D 16  20  19  18   C } # D for Dihedral angle
| 19> { D 20  19  18  17   C } # D for Dihedral angle
| 20> { D 19  18  17  16   C } # D for Dihedral angle
| 21> { D 18  17  16  20   C } # D for Dihedral angle
| 22> { D 17  16  20  19   C } # D for Dihedral angle
| 23> { D 15  12  16  20   C } # D for Dihedral angle
| 24> end
| 25> end
| 26>
| 27>
| 28> #%pal
| 29> #nprocs 8
| 30> #end
| 31>
| 32> * xyz 0 1
| 33> C  -21.048   26.222   46.251
| 34> C  -20.361   27.558   45.944
| 35> C  -20.329   28.222   47.341
| 36> C  -20.110   27.022   48.296
| 37> O  -20.473   25.807   47.535
| 38> H  -20.833   25.428   45.533
| 39> H  -19.344   27.382   45.576
| 40> H  -20.898   28.157   45.201
| 41> H  -19.543   28.978   47.434
| 42> H  -21.289   28.710   47.548
| 43> H  -20.733   27.082   49.195
| 44> H  -19.064   26.913   48.597
| 45> C  -23.362   25.116   46.798
| 46> H  -22.984   24.258   46.227
| 47> H  -23.211   24.911   47.866
| 48> O  -22.586   26.394   46.375
| 49> C  -24.891   25.232   46.550
| 50> C  -25.205   25.351   45.054
| 51> C  -25.085   23.879   44.591
| 52> C  -25.621   23.084   45.808
| 53> O  -25.572   24.002   46.965
| 54> H  -25.292   26.042   47.162
| 55> H  -26.228   25.719   44.913
| 56> O  -24.234   26.301   44.300
| 57> H  -25.651   23.675   43.677
| 58> H  -24.035   23.630   44.398
| 59> H  -25.018   22.197   46.027
| 60> H  -26.664   22.779   45.681
| 61> H  -23.204   25.951   44.428
| 62> *
| 63>
| 64>                          ****END OF INPUT****
 Total Charge           Charge          ....    0
 Multiplicity           Mult            ....    1
 Number of Electrons    NEL             ....  102
FINAL SINGLE POINT ENERGY      -652.832397427972
FINAL SINGLE POINT ENERGY      -652.858749153283
FINAL SINGLE POINT ENERGY      -652.865496966861
FINAL SINGLE POINT ENERGY      -652.868241784602
FINAL SINGLE POINT ENERGY      -652.869745247496
FINAL SINGLE POINT ENERGY      -652.870756203596
FINAL SINGLE POINT ENERGY      -652.871277147143
FINAL SINGLE POINT ENERGY      -652.871423634427
FINAL SINGLE POINT ENERGY      -652.871450786481
FINAL SINGLE POINT ENERGY      -652.871454261169
                    ***********************HURRAY********************

CARTESIAN COORDINATES (ANGSTROEM)
---------------------------------
  C    -21.065278   26.103236   46.270499
  C    -20.459843   27.461990   45.923919
  C    -20.471808   28.172001   47.295632
  C    -20.186937   27.026210   48.289632
  O    -20.482884   25.768155   47.546611
  H    -20.830421   25.274521   45.594877
  H    -19.436567   27.312468   45.562295
  H    -21.029240   27.994180   45.158460
  H    -19.727237   28.971208   47.360254
  H    -21.459763   28.604874   47.476544
  H    -20.814976   27.061306   49.182840
  H    -19.136319   26.967747   48.586858
  C    -23.236275   25.073399   46.820384
  H    -22.839247   24.187548   46.306282
  H    -23.088761   24.942087   47.894641
  O    -22.506186   26.267315   46.359183
  C    -24.723108   25.268101   46.505831
  C    -25.076734   25.378616   45.012399
  C    -25.045670   23.885955   44.570136
  C    -25.582448   23.143135   45.811448
  O    -25.450644   24.085867   46.961064
  H    -25.105813   26.117258   47.079287
  H    -26.100959   25.760534   44.926501
  O    -24.223823   26.228988   44.221722
  H    -25.651799   23.714445   43.677017
  H    -24.013054   23.607183   44.334364
  H    -25.028161   22.228560   46.043145
  H    -26.645526   22.899915   45.730438
  H    -23.448519   26.495200   44.768737

 Multiplicity           Mult            ....    1
 Number of Electrons    NEL             ....  102
 Basis Dimension        Dim             ....  149

ORBITAL ENERGIES
----------------

  NO   OCC          E(Eh)            E(eV)
   0   2.0000     -19.167546      -521.5754
   1   2.0000     -19.153022      -521.1802
   2   2.0000     -19.139845      -520.8217
   3   2.0000     -19.114477      -520.1314
   4   2.0000     -10.292349      -280.0691
   5   2.0000     -10.234685      -278.4999
   6   2.0000     -10.234333      -278.4904
   7   2.0000     -10.234034      -278.4822
   8   2.0000     -10.230463      -278.3851
   9   2.0000     -10.226074      -278.2656
  10   2.0000     -10.195879      -277.4440
  11   2.0000     -10.193436      -277.3775
  12   2.0000     -10.179200      -276.9901
  13   2.0000      -1.069312       -29.0975
  14   2.0000      -1.025797       -27.9134
  15   2.0000      -1.008182       -27.4340
  16   2.0000      -0.993843       -27.0438
  17   2.0000      -0.798816       -21.7369
  18   2.0000      -0.772767       -21.0281
  19   2.0000      -0.767585       -20.8871
  20   2.0000      -0.736068       -20.0294
  21   2.0000      -0.677359       -18.4319
  22   2.0000      -0.609100       -16.5745
  23   2.0000      -0.600383       -16.3372
  24   2.0000      -0.593354       -16.1460
  25   2.0000      -0.580103       -15.7854
  26   2.0000      -0.531166       -14.4538
  27   2.0000      -0.520101       -14.1527
  28   2.0000      -0.502350       -13.6696
  29   2.0000      -0.486908       -13.2494
  30   2.0000      -0.474509       -12.9121
  31   2.0000      -0.459917       -12.5150
  32   2.0000      -0.440921       -11.9981
  33   2.0000      -0.432369       -11.7654
  34   2.0000      -0.428507       -11.6603
  35   2.0000      -0.417554       -11.3622
  36   2.0000      -0.410965       -11.1829
  37   2.0000      -0.388635       -10.5753
  38   2.0000      -0.381696       -10.3865
  39   2.0000      -0.367829       -10.0091
  40   2.0000      -0.366401        -9.9703
  41   2.0000      -0.358755        -9.7622
  42   2.0000      -0.354614        -9.6495
  43   2.0000      -0.342436        -9.3182
  44   2.0000      -0.329673        -8.9709
  45   2.0000      -0.313593        -8.5333
  46   2.0000      -0.295543        -8.0421
  47   2.0000      -0.277157        -7.5418
  48   2.0000      -0.268005        -7.2928
  49   2.0000      -0.248650        -6.7661
  50   2.0000      -0.243508        -6.6262
  51   0.0000       0.058960         1.6044
  52   0.0000       0.080904         2.2015
  53   0.0000       0.089304         2.4301
  54   0.0000       0.098239         2.6732
  55   0.0000       0.107950         2.9375

MULLIKEN ATOMIC CHARGES
-----------------------
   0 C :    0.292923
   1 C :   -0.268775
   2 C :   -0.299477
   3 C :   -0.007797
   4 O :   -0.510925
   5 H :    0.153725
   6 H :    0.152980
   7 H :    0.161502
   8 H :    0.146988
   9 H :    0.165044
  10 H :    0.152791
  11 H :    0.148974
  12 C :   -0.004122
  13 H :    0.136261
  14 H :    0.176155
  15 O :   -0.555525
  16 C :    0.044464
  17 C :    0.120074
  18 C :   -0.299245
  19 C :   -0.020962
  20 O :   -0.520799
  21 H :    0.160636
  22 H :    0.145575
  23 O :   -0.643626
  24 H :    0.151425
  25 H :    0.141398
  26 H :    0.142979
  27 H :    0.150139
  28 H :    0.387219
Sum of atomic charges:   -0.0000000

LOEWDIN ATOMIC CHARGES
----------------------
   0 C :    0.173601
   1 C :   -0.214763
   2 C :   -0.215607
   3 C :   -0.027148
   4 O :   -0.322784
   5 H :    0.101047
   6 H :    0.118642
   7 H :    0.125242
   8 H :    0.116724
   9 H :    0.120502
  10 H :    0.108475
  11 H :    0.106324
  12 C :   -0.043214
  13 H :    0.098884
  14 H :    0.120371
  15 O :   -0.337205
  16 C :    0.017623
  17 C :    0.041533
  18 C :   -0.235541
  19 C :   -0.032531
  20 O :   -0.322633
  21 H :    0.115605
  22 H :    0.103825
  23 O :   -0.437886
  24 H :    0.121314
  25 H :    0.109498
  26 H :    0.102272
  27 H :    0.106490
  28 H :    0.281343

  Mayer bond orders larger than 0.100000
B(  0-C ,  1-C ) :   0.9514 B(  0-C ,  4-O ) :   0.9159 B(  0-C ,  5-H ) :   0.9188
B(  0-C , 15-O ) :   0.8127 B(  1-C ,  2-C ) :   0.9533 B(  1-C ,  6-H ) :   0.9381
B(  1-C ,  7-H ) :   0.9350 B(  2-C ,  3-C ) :   0.9553 B(  2-C ,  8-H ) :   0.9445
B(  2-C ,  9-H ) :   0.9440 B(  3-C ,  4-O ) :   0.8286 B(  3-C , 10-H ) :   0.9353
B(  3-C , 11-H ) :   0.9401 B( 12-C , 13-H ) :   0.9197 B( 12-C , 14-H ) :   0.9224
B( 12-C , 15-O ) :   0.7769 B( 12-C , 16-C ) :   0.9093 B( 16-C , 17-C ) :   0.9129
B( 16-C , 20-O ) :   0.8558 B( 16-C , 21-H ) :   0.9282 B( 17-C , 18-C ) :   0.9022
B( 17-C , 22-H ) :   0.9294 B( 17-C , 23-O ) :   0.9290 B( 18-C , 19-C ) :   0.9399
B( 18-C , 24-H ) :   0.9451 B( 18-C , 25-H ) :   0.9436 B( 19-C , 20-O ) :   0.8322
B( 19-C , 26-H ) :   0.9340 B( 19-C , 27-H ) :   0.9382 B( 23-O , 28-H ) :   0.7233

FINAL SINGLE POINT ENERGY      -652.871455664513

DIPOLE MOMENT
-------------
                                X             Y             Z
Electronic contribution:     -1.98594      -0.93035       0.76277
Nuclear contribution   :      2.85673       1.17007      -0.62467
                        -----------------------------------------
Total Dipole Moment    :      0.87080       0.23972       0.13810
                        -----------------------------------------
Magnitude (a.u.)       :      0.91369
Magnitude (Debye)      :      2.32241

Rotational constants in cm-1:     0.058984     0.013392     0.012108
Rotational constants in MHz :  1768.281825   401.468561   362.975062

                             ****ORCA TERMINATED NORMALLY****
TOTAL RUN TIME: 0 days 0 hours 26 minutes 7 seconds 683 msec
