                         Program Version 4.2.0 -  RELEASE  -
|  1> # Test redundant internal optimization
|  2> #
|  3> ! RKS B3LYP  Opt TightSCF SmallPrint
|  4>
|  5> %basis
|  6>         Basis "6-31G"
|  7> end
|  8>
|  9> %geom
| 10> Constraints
| 11> { D 4  0  15  12  90.0   C } # D for Dihedral angle
| 12> { D 0  15  12  16  225.0   C } # D for Dihedral angle
| 13> { D 0  4  3  2   C } # D for Dihedral angle
| 14> { D 4  3  2  1   C } # D for Dihedral angle
| 15> { D 3  2  1  0   C } # D for Dihedral angle
| 16> { D 2  1  0  4   C } # D for Dihedral angle
| 17> { D 1  0  4  3   C } # D for Dihedral angle
| 18> { D 16  20  19  18   C } # D for Dihedral angle
| 19> { D 20  19  18  17   C } # D for Dihedral angle
| 20> { D 19  18  17  16   C } # D for Dihedral angle
| 21> { D 18  17  16  20   C } # D for Dihedral angle
| 22> { D 17  16  20  19   C } # D for Dihedral angle
| 23> { D 15  12  16  20   C } # D for Dihedral angle
| 24> end
| 25> end
| 26>
| 27>
| 28> #%pal
| 29> #nprocs 8
| 30> #end
| 31>
| 32> * xyz 0 1
| 33> C  -21.048   26.222   46.251
| 34> C  -20.361   27.558   45.944
| 35> C  -20.329   28.222   47.341
| 36> C  -20.110   27.022   48.296
| 37> O  -20.473   25.807   47.535
| 38> H  -20.833   25.428   45.533
| 39> H  -19.344   27.382   45.576
| 40> H  -20.898   28.157   45.201
| 41> H  -19.543   28.978   47.434
| 42> H  -21.289   28.710   47.548
| 43> H  -20.733   27.082   49.195
| 44> H  -19.064   26.913   48.597
| 45> C  -23.061   27.816   46.783
| 46> H  -22.205   28.387   47.164
| 47> H  -23.470   28.348   45.915
| 48> O  -22.586   26.394   46.375
| 49> C  -24.159   27.789   47.882
| 50> C  -25.354   26.929   47.455
| 51> C  -24.826   25.501   47.732
| 52> C  -23.951   25.688   48.996
| 53> O  -23.656   27.134   49.094
| 54> H  -24.415   28.814   48.156
| 55> O  -26.582   27.242   48.352
| 56> H  -25.642   27.080   46.410
| 57> H  -25.630   24.773   47.884
| 58> H  -24.217   25.155   46.888
| 59> H  -23.009   25.131   48.941
| 60> H  -24.476   25.404   49.913
| 61> H  -26.317   27.097   49.405
| 62> *
| 63>
| 64>                          ****END OF INPUT****
 Total Charge           Charge          ....    0
 Multiplicity           Mult            ....    1
 Number of Electrons    NEL             ....  102
FINAL SINGLE POINT ENERGY      -652.792238550569
FINAL SINGLE POINT ENERGY      -652.833600950767
FINAL SINGLE POINT ENERGY      -652.852826681974
FINAL SINGLE POINT ENERGY      -652.856710557186
FINAL SINGLE POINT ENERGY      -652.857253492989
FINAL SINGLE POINT ENERGY      -652.857363339732
FINAL SINGLE POINT ENERGY      -652.857383262630
FINAL SINGLE POINT ENERGY      -652.857386228652
FINAL SINGLE POINT ENERGY      -652.857372551921
                    ***********************HURRAY********************

CARTESIAN COORDINATES (ANGSTROEM)
---------------------------------
  C    -21.178839   26.411849   46.389495
  C    -20.248792   27.546200   45.931895
  C    -19.928892   28.270122   47.276261
  C    -19.885875   27.091551   48.283910
  O    -20.585321   25.961270   47.627205
  H    -21.151165   25.545016   45.727086
  H    -19.341898   27.101541   45.511163
  H    -20.700994   28.198222   45.179046
  H    -18.970736   28.798538   47.235298
  H    -20.692022   29.004643   47.539423
  H    -20.392846   27.315957   49.225774
  H    -18.865028   26.757311   48.488745
  C    -23.205334   27.931114   46.853427
  H    -22.484527   28.611447   47.308911
  H    -23.605944   28.403820   45.946102
  O    -22.594804   26.660853   46.490256
  C    -24.326204   27.707681   47.870674
  C    -25.487010   26.795380   47.447235
  C    -24.901073   25.385656   47.733277
  C    -24.035784   25.616704   48.997076
  O    -23.801106   27.081846   49.082127
  H    -24.714796   28.692771   48.157342
  O    -26.671557   27.078914   48.245109
  H    -25.799589   26.932494   46.411368
  H    -25.704645   24.661299   47.894474
  H    -24.279374   25.071456   46.894517
  H    -23.064809   25.121499   48.934385
  H    -24.542874   25.320559   49.921595
  H    -26.419161   27.087288   49.192825

 Multiplicity           Mult            ....    1
 Number of Electrons    NEL             ....  102
 Basis Dimension        Dim             ....  149

ORBITAL ENERGIES
----------------

  NO   OCC          E(Eh)            E(eV)
   0   2.0000     -19.146462      -521.0017
   1   2.0000     -19.141699      -520.8721
   2   2.0000     -19.132617      -520.6250
   3   2.0000     -19.130341      -520.5631
   4   2.0000     -10.283457      -279.8271
   5   2.0000     -10.235107      -278.5114
   6   2.0000     -10.231735      -278.4197
   7   2.0000     -10.230289      -278.3803
   8   2.0000     -10.227680      -278.3093
   9   2.0000     -10.213609      -277.9264
  10   2.0000     -10.197119      -277.4777
  11   2.0000     -10.195961      -277.4462
  12   2.0000     -10.168840      -276.7082
  13   2.0000      -1.053576       -28.6693
  14   2.0000      -1.027319       -27.9548
  15   2.0000      -1.001311       -27.2471
  16   2.0000      -0.992532       -27.0082
  17   2.0000      -0.791339       -21.5334
  18   2.0000      -0.778174       -21.1752
  19   2.0000      -0.759462       -20.6660
  20   2.0000      -0.732741       -19.9389
  21   2.0000      -0.676739       -18.4150
  22   2.0000      -0.608744       -16.5648
  23   2.0000      -0.601146       -16.3580
  24   2.0000      -0.590353       -16.0643
  25   2.0000      -0.566596       -15.4179
  26   2.0000      -0.524551       -14.2738
  27   2.0000      -0.508628       -13.8405
  28   2.0000      -0.497310       -13.5325
  29   2.0000      -0.485123       -13.2009
  30   2.0000      -0.470577       -12.8050
  31   2.0000      -0.458440       -12.4748
  32   2.0000      -0.444767       -12.1027
  33   2.0000      -0.433035       -11.7835
  34   2.0000      -0.426659       -11.6100
  35   2.0000      -0.414062       -11.2672
  36   2.0000      -0.401085       -10.9141
  37   2.0000      -0.387606       -10.5473
  38   2.0000      -0.380386       -10.3508
  39   2.0000      -0.362773        -9.8716
  40   2.0000      -0.360865        -9.8196
  41   2.0000      -0.355566        -9.6754
  42   2.0000      -0.349762        -9.5175
  43   2.0000      -0.324482        -8.8296
  44   2.0000      -0.313642        -8.5346
  45   2.0000      -0.301955        -8.2166
  46   2.0000      -0.291761        -7.9392
  47   2.0000      -0.275902        -7.5077
  48   2.0000      -0.260779        -7.0961
  49   2.0000      -0.254341        -6.9210
  50   2.0000      -0.236362        -6.4318
  51   0.0000       0.068627         1.8674
  52   0.0000       0.080405         2.1879
  53   0.0000       0.092089         2.5059
  54   0.0000       0.106308         2.8928
  55   0.0000       0.108150         2.9429

MULLIKEN ATOMIC CHARGES
-----------------------
   0 C :    0.313938
   1 C :   -0.290229
   2 C :   -0.317741
   3 C :   -0.008694
   4 O :   -0.501202
   5 H :    0.163550
   6 H :    0.159697
   7 H :    0.148409
   8 H :    0.145831
   9 H :    0.156584
  10 H :    0.163200
  11 H :    0.145023
  12 C :   -0.003190
  13 H :    0.140579
  14 H :    0.133010
  15 O :   -0.534356
  16 C :    0.076417
  17 C :    0.077645
  18 C :   -0.285292
  19 C :   -0.028228
  20 O :   -0.532481
  21 H :    0.148743
  22 O :   -0.604596
  23 H :    0.147980
  24 H :    0.145340
  25 H :    0.177436
  26 H :    0.172938
  27 H :    0.128418
  28 H :    0.361268
Sum of atomic charges:    0.0000000

LOEWDIN ATOMIC CHARGES
----------------------
   0 C :    0.177670
   1 C :   -0.229324
   2 C :   -0.223169
   3 C :   -0.032178
   4 O :   -0.320300
   5 H :    0.110683
   6 H :    0.124778
   7 H :    0.117587
   8 H :    0.115891
   9 H :    0.109950
  10 H :    0.112983
  11 H :    0.103959
  12 C :   -0.038124
  13 H :    0.104073
  14 H :    0.099252
  15 O :   -0.323835
  16 C :    0.012578
  17 C :    0.039271
  18 C :   -0.241321
  19 C :   -0.035847
  20 O :   -0.334360
  21 H :    0.112631
  22 O :   -0.418218
  23 H :    0.114363
  24 H :    0.116489
  25 H :    0.131970
  26 H :    0.118578
  27 H :    0.092975
  28 H :    0.280993

  Mayer bond orders larger than 0.100000
B(  0-C ,  1-C ) :   0.9255 B(  0-C ,  4-O ) :   0.9051 B(  0-C ,  5-H ) :   0.9359
B(  0-C , 15-O ) :   0.8871 B(  1-C ,  2-C ) :   0.9544 B(  1-C ,  6-H ) :   0.9346
B(  1-C ,  7-H ) :   0.9360 B(  2-C ,  3-C ) :   0.9474 B(  2-C ,  8-H ) :   0.9444
B(  2-C ,  9-H ) :   0.9333 B(  3-C ,  4-O ) :   0.8411 B(  3-C , 10-H ) :   0.9305
B(  3-C , 11-H ) :   0.9388 B( 12-C , 13-H ) :   0.9023 B( 12-C , 14-H ) :   0.9209
B( 12-C , 15-O ) :   0.8410 B( 12-C , 16-C ) :   0.8954 B( 16-C , 17-C ) :   0.9125
B( 16-C , 20-O ) :   0.8754 B( 16-C , 21-H ) :   0.9206 B( 17-C , 18-C ) :   0.9251
B( 17-C , 22-O ) :   0.8868 B( 17-C , 23-H ) :   0.9365 B( 18-C , 19-C ) :   0.9486
B( 18-C , 24-H ) :   0.9374 B( 18-C , 25-H ) :   0.9176 B( 19-C , 20-O ) :   0.8279
B( 19-C , 26-H ) :   0.9250 B( 19-C , 27-H ) :   0.9379 B( 22-O , 28-H ) :   0.7971

FINAL SINGLE POINT ENERGY      -652.857368265527

DIPOLE MOMENT
-------------
                                X             Y             Z
Electronic contribution:     -3.56610      -1.63204       1.02031
Nuclear contribution   :      4.66976       2.31041      -1.51034
                        -----------------------------------------
Total Dipole Moment    :      1.10367       0.67837      -0.49002
                        -----------------------------------------
Magnitude (a.u.)       :      1.38506
Magnitude (Debye)      :      3.52054

Rotational constants in cm-1:     0.058243     0.015330     0.014742
Rotational constants in MHz :  1746.079238   459.596397   441.950155

                             ****ORCA TERMINATED NORMALLY****
TOTAL RUN TIME: 0 days 1 hours 1 minutes 14 seconds 176 msec
