                         Program Version 4.2.0 -  RELEASE  -
|  1> # Test redundant internal optimization
|  2> #
|  3> ! RKS B3LYP  Opt TightSCF SmallPrint
|  4>
|  5> %basis
|  6>         Basis "6-31G"
|  7> end
|  8>
|  9> %geom
| 10> Constraints
| 11> { D 4  0  15  12  255.0   C } # D for Dihedral angle
| 12> { D 0  15  12  16  30.0   C } # D for Dihedral angle
| 13> { D 0  4  3  2   C } # D for Dihedral angle
| 14> { D 4  3  2  1   C } # D for Dihedral angle
| 15> { D 3  2  1  0   C } # D for Dihedral angle
| 16> { D 2  1  0  4   C } # D for Dihedral angle
| 17> { D 1  0  4  3   C } # D for Dihedral angle
| 18> { D 16  20  19  18   C } # D for Dihedral angle
| 19> { D 20  19  18  17   C } # D for Dihedral angle
| 20> { D 19  18  17  16   C } # D for Dihedral angle
| 21> { D 18  17  16  20   C } # D for Dihedral angle
| 22> { D 17  16  20  19   C } # D for Dihedral angle
| 23> { D 15  12  16  20   C } # D for Dihedral angle
| 24> end
| 25> end
| 26>
| 27>
| 28> #%pal
| 29> #nprocs 8
| 30> #end
| 31>
| 32> * xyz 0 1
| 33> C  -21.048   26.222   46.251
| 34> C  -20.361   27.558   45.944
| 35> C  -20.329   28.222   47.341
| 36> C  -20.110   27.022   48.296
| 37> O  -20.473   25.807   47.535
| 38> H  -20.833   25.428   45.533
| 39> H  -19.344   27.382   45.576
| 40> H  -20.898   28.157   45.201
| 41> H  -19.543   28.978   47.434
| 42> H  -21.289   28.710   47.548
| 43> H  -20.733   27.082   49.195
| 44> H  -19.064   26.913   48.597
| 45> C  -23.431   25.260   45.734
| 46> H  -24.377   25.160   46.280
| 47> H  -23.663   25.498   44.687
| 48> O  -22.586   26.394   46.375
| 49> C  -22.707   23.885   45.756
| 50> C  -23.518   22.817   45.014
| 51> C  -23.187   23.141   43.538
| 52> C  -21.712   23.609   43.603
| 53> O  -21.444   23.959   45.014
| 54> H  -22.458   23.628   46.787
| 55> H  -23.157   21.817   45.280
| 56> O  -25.039   22.885   45.318
| 57> H  -23.323   22.281   42.873
| 58> H  -23.833   23.949   43.176
| 59> H  -21.522   24.486   42.974
| 60> H  -21.009   22.817   43.328
| 61> H  -25.424   23.877   45.059
| 62> *
| 63>
| 64>                          ****END OF INPUT****
 Total Charge           Charge          ....    0
 Multiplicity           Mult            ....    1
 Number of Electrons    NEL             ....  102
FINAL SINGLE POINT ENERGY      -652.818399866793
FINAL SINGLE POINT ENERGY      -652.840400825538
FINAL SINGLE POINT ENERGY      -652.852984449611
FINAL SINGLE POINT ENERGY      -652.854984825886
FINAL SINGLE POINT ENERGY      -652.855358775642
FINAL SINGLE POINT ENERGY      -652.855402960591
FINAL SINGLE POINT ENERGY      -652.855409404902
FINAL SINGLE POINT ENERGY      -652.855409226212
                    ***********************HURRAY********************

CARTESIAN COORDINATES (ANGSTROEM)
---------------------------------
  C    -20.843121   26.257087   46.229511
  C    -20.349324   27.690252   46.024998
  C    -20.491599   28.283468   47.448164
  C    -20.147584   27.081274   48.356782
  O    -20.289272   25.874539   47.509420
  H    -20.518115   25.511846   45.508520
  H    -19.298189   27.669946   45.713465
  H    -20.933595   28.225666   45.273551
  H    -19.829949   29.138077   47.618588
  H    -21.524907   28.604209   47.608771
  H    -20.817009   26.991630   49.216815
  H    -19.111139   27.100000   48.708663
  C    -23.163571   25.303607   45.737281
  H    -24.055608   25.301893   46.371518
  H    -23.460402   25.640834   44.730462
  O    -22.294845   26.318373   46.308171
  C    -22.639402   23.865427   45.661215
  C    -23.634107   22.884192   45.011987
  C    -23.335139   23.084404   43.493758
  C    -21.810806   23.337608   43.475639
  O    -21.422394   23.717901   44.861033
  H    -22.355834   23.548479   46.669423
  H    -23.386023   21.866209   45.318533
  O    -25.018811   23.052928   45.393424
  H    -23.628408   22.216160   42.897704
  H    -23.890221   23.955118   43.121261
  H    -21.520404   24.140876   42.790848
  H    -21.242656   22.437760   43.224178
  H    -25.402567   23.844236   44.963318

 Multiplicity           Mult            ....    1
 Number of Electrons    NEL             ....  102
 Basis Dimension        Dim             ....  149

ORBITAL ENERGIES
----------------

  NO   OCC          E(Eh)            E(eV)
   0   2.0000     -19.154794      -521.2284
   1   2.0000     -19.148945      -521.0693
   2   2.0000     -19.130398      -520.5646
   3   2.0000     -19.123212      -520.3690
   4   2.0000     -10.258769      -279.1553
   5   2.0000     -10.251201      -278.9494
   6   2.0000     -10.238581      -278.6060
   7   2.0000     -10.235144      -278.5124
   8   2.0000     -10.231303      -278.4079
   9   2.0000     -10.211964      -277.8817
  10   2.0000     -10.201655      -277.6011
  11   2.0000     -10.173496      -276.8349
  12   2.0000     -10.172654      -276.8120
  13   2.0000      -1.042936       -28.3797
  14   2.0000      -1.034252       -28.1434
  15   2.0000      -1.022392       -27.8207
  16   2.0000      -0.979613       -26.6566
  17   2.0000      -0.789426       -21.4814
  18   2.0000      -0.777166       -21.1478
  19   2.0000      -0.764321       -20.7982
  20   2.0000      -0.725180       -19.7331
  21   2.0000      -0.678513       -18.4633
  22   2.0000      -0.618653       -16.8344
  23   2.0000      -0.597724       -16.2649
  24   2.0000      -0.585250       -15.9255
  25   2.0000      -0.562617       -15.3096
  26   2.0000      -0.534079       -14.5330
  27   2.0000      -0.510173       -13.8825
  28   2.0000      -0.495121       -13.4729
  29   2.0000      -0.475068       -12.9273
  30   2.0000      -0.468425       -12.7465
  31   2.0000      -0.453121       -12.3300
  32   2.0000      -0.439143       -11.9497
  33   2.0000      -0.434951       -11.8356
  34   2.0000      -0.429672       -11.6920
  35   2.0000      -0.418446       -11.3865
  36   2.0000      -0.406058       -11.0494
  37   2.0000      -0.390077       -10.6145
  38   2.0000      -0.386055       -10.5051
  39   2.0000      -0.366440        -9.9713
  40   2.0000      -0.357924        -9.7396
  41   2.0000      -0.344412        -9.3719
  42   2.0000      -0.337642        -9.1877
  43   2.0000      -0.330823        -9.0021
  44   2.0000      -0.324637        -8.8338
  45   2.0000      -0.308692        -8.3999
  46   2.0000      -0.293541        -7.9876
  47   2.0000      -0.277441        -7.5495
  48   2.0000      -0.254927        -6.9369
  49   2.0000      -0.250877        -6.8267
  50   2.0000      -0.229286        -6.2392
  51   0.0000       0.046034         1.2526
  52   0.0000       0.070980         1.9315
  53   0.0000       0.087479         2.3804
  54   0.0000       0.096708         2.6316
  55   0.0000       0.106975         2.9109

MULLIKEN ATOMIC CHARGES
-----------------------
   0 C :    0.258764
   1 C :   -0.249477
   2 C :   -0.296039
   3 C :    0.000623
   4 O :   -0.507545
   5 H :    0.196650
   6 H :    0.139143
   7 H :    0.140929
   8 H :    0.133165
   9 H :    0.159337
  10 H :    0.143582
  11 H :    0.135926
  12 C :    0.010551
  13 H :    0.155335
  14 H :    0.109756
  15 O :   -0.542457
  16 C :    0.066565
  17 C :    0.088471
  18 C :   -0.323088
  19 C :   -0.015339
  20 O :   -0.515733
  21 H :    0.179879
  22 H :    0.170405
  23 O :   -0.597471
  24 H :    0.161025
  25 H :    0.135977
  26 H :    0.145361
  27 H :    0.157064
  28 H :    0.358642
Sum of atomic charges:    0.0000000

LOEWDIN ATOMIC CHARGES
----------------------
   0 C :    0.163897
   1 C :   -0.217207
   2 C :   -0.216644
   3 C :   -0.028765
   4 O :   -0.322402
   5 H :    0.124019
   6 H :    0.110195
   7 H :    0.115956
   8 H :    0.109521
   9 H :    0.117704
  10 H :    0.103311
  11 H :    0.099019
  12 C :   -0.042766
  13 H :    0.117137
  14 H :    0.082007
  15 O :   -0.335345
  16 C :    0.006024
  17 C :    0.039911
  18 C :   -0.241412
  19 C :   -0.031571
  20 O :   -0.318546
  21 H :    0.125838
  22 H :    0.121251
  23 O :   -0.403855
  24 H :    0.124323
  25 H :    0.105361
  26 H :    0.103363
  27 H :    0.109743
  28 H :    0.279934

  Mayer bond orders larger than 0.100000
B(  0-C ,  1-C ) :   0.9425 B(  0-C ,  4-O ) :   0.9114 B(  0-C ,  5-H ) :   0.8888
B(  0-C , 15-O ) :   0.8222 B(  1-C ,  2-C ) :   0.9567 B(  1-C ,  6-H ) :   0.9408
B(  1-C ,  7-H ) :   0.9398 B(  2-C ,  3-C ) :   0.9551 B(  2-C ,  8-H ) :   0.9465
B(  2-C ,  9-H ) :   0.9442 B(  3-C ,  4-O ) :   0.8455 B(  3-C , 10-H ) :   0.9357
B(  3-C , 11-H ) :   0.9404 B( 12-C , 13-H ) :   0.9160 B( 12-C , 14-H ) :   0.9226
B( 12-C , 15-O ) :   0.8660 B( 12-C , 16-C ) :   0.9052 B( 16-C , 17-C ) :   0.8673
B( 16-C , 20-O ) :   0.8357 B( 16-C , 21-H ) :   0.9232 B( 17-C , 18-C ) :   0.9220
B( 17-C , 22-H ) :   0.9331 B( 17-C , 23-O ) :   0.9042 B( 18-C , 19-C ) :   0.9411
B( 18-C , 24-H ) :   0.9412 B( 18-C , 25-H ) :   0.9395 B( 19-C , 20-O ) :   0.8380
B( 19-C , 26-H ) :   0.9320 B( 19-C , 27-H ) :   0.9374 B( 23-O , 28-H ) :   0.7967

FINAL SINGLE POINT ENERGY      -652.855408872823

DIPOLE MOMENT
-------------
                                X             Y             Z
Electronic contribution:     -0.98008      -3.55775       1.71950
Nuclear contribution   :      0.65255       3.94191      -3.00028
                        -----------------------------------------
Total Dipole Moment    :     -0.32753       0.38415      -1.28078
                        -----------------------------------------
Magnitude (a.u.)       :      1.37668
Magnitude (Debye)      :      3.49923

Rotational constants in cm-1:     0.059363     0.013125     0.012278
Rotational constants in MHz :  1779.668388   393.484234   368.096794

                             ****ORCA TERMINATED NORMALLY****
TOTAL RUN TIME: 0 days 1 hours 59 minutes 0 seconds 98 msec
