                         Program Version 4.2.1 -  RELEASE  -
|  1> # Test redundant internal optimization
|  2> #
|  3> ! RKS B3LYP  Opt TightSCF SmallPrint
|  4>
|  5> %basis
|  6>         Basis "6-31G"
|  7> end
|  8>
|  9> %geom
| 10> Constraints
| 11> { D 4  0  19  14  285.0   C } # D for Dihedral angle
| 12> { D 0  19  14  12  240.0   C } # D for Dihedral angle
| 13> { D 0  4  3  2   C } # D for Dihedral angle
| 14> { D 4  3  2  1   C } # D for Dihedral angle
| 15> { D 3  2  1  0   C } # D for Dihedral angle
| 16> { D 2  1  0  4   C } # D for Dihedral angle
| 17> { D 1  0  4  3   C } # D for Dihedral angle
| 18> { D 14  15  16  17   C } # D for Dihedral angle
| 19> { D 15  16  17  12   C } # D for Dihedral angle
| 20> { D 16  17  12  14   C } # D for Dihedral angle
| 21> { D 17  12  14  15   C } # D for Dihedral angle
| 22> { D 12  14  15  16   C } # D for Dihedral angle
| 23> end
| 24> end
| 25>
| 26>
| 27> #%pal
| 28> #nprocs 8
| 29> #end
| 30>
| 31> * xyz 0 1
| 32> C  -21.048   26.222   46.251
| 33> C  -20.361   27.558   45.944
| 34> C  -20.329   28.222   47.341
| 35> C  -20.110   27.022   48.296
| 36> O  -20.473   25.807   47.535
| 37> H  -20.833   25.428   45.533
| 38> H  -19.344   27.382   45.576
| 39> H  -20.898   28.157   45.201
| 40> H  -19.543   28.978   47.434
| 41> H  -21.289   28.710   47.548
| 42> H  -20.733   27.082   49.195
| 43> H  -19.064   26.913   48.597
| 44> C  -24.188   25.066   45.248
| 45> H  -24.951   24.290   45.418
| 46> C  -23.203   25.146   46.420
| 47> C  -22.272   23.946   46.131
| 48> C  -22.199   23.922   44.583
| 49> O  -23.350   24.715   44.096
| 50> H  -24.683   26.008   45.007
| 51> O  -22.472   26.381   46.366
| 52> H  -23.693   25.077   47.398
| 53> H  -21.286   24.052   46.593
| 54> H  -22.721   23.019   46.510
| 55> H  -22.264   22.908   44.175
| 56> H  -21.293   24.401   44.200
| 57> *
| 58>
| 59>                          ****END OF INPUT****
 Total Charge           Charge          ....    0
 Multiplicity           Mult            ....    1
 Number of Electrons    NEL             ....   86
FINAL SINGLE POINT ENERGY      -538.418799618402
FINAL SINGLE POINT ENERGY      -538.431935919317
FINAL SINGLE POINT ENERGY      -538.433720819981
FINAL SINGLE POINT ENERGY      -538.434090729504
FINAL SINGLE POINT ENERGY      -538.434112740637
FINAL SINGLE POINT ENERGY      -538.434117005302
                    ***********************HURRAY********************

CARTESIAN COORDINATES (ANGSTROEM)
---------------------------------
  C    -20.877961   26.280892   46.208151
  C    -20.395353   27.716642   45.990775
  C    -20.427879   28.283003   47.430092
  C    -20.021035   27.065952   48.293268
  O    -20.229626   25.870449   47.439589
  H    -20.565579   25.566478   45.445385
  H    -19.372355   27.696853   45.598048
  H    -21.035980   28.261578   45.295207
  H    -19.750303   29.131469   47.564701
  H    -21.443763   28.606225   47.673622
  H    -20.624261   26.964551   49.199350
  H    -18.961333   27.075245   48.566174
  C    -24.098810   25.148608   45.193969
  H    -24.970824   24.510705   45.398130
  C    -23.118209   25.118500   46.366687
  C    -22.389209   23.784692   46.126509
  C    -22.314956   23.686341   44.583177
  O    -23.327513   24.630240   44.057304
  H    -24.424137   26.157729   44.940948
  O    -22.306974   26.340278   46.334673
  H    -23.632444   25.125622   47.333501
  H    -21.416762   23.739950   46.621630
  H    -23.009791   22.980043   46.536299
  H    -22.540986   22.678038   44.218368
  H    -21.343958   23.991919   44.180442

 Multiplicity           Mult            ....    1
 Number of Electrons    NEL             ....   86
 Basis Dimension        Dim             ....  127

ORBITAL ENERGIES
----------------

  NO   OCC          E(Eh)            E(eV)
   0   2.0000     -19.140328      -520.8348
   1   2.0000     -19.137472      -520.7571
   2   2.0000     -19.130194      -520.5590
   3   2.0000     -10.276613      -279.6409
   4   2.0000     -10.238784      -278.6115
   5   2.0000     -10.223947      -278.2078
   6   2.0000     -10.223416      -278.1933
   7   2.0000     -10.219167      -278.0777
   8   2.0000     -10.186988      -277.2020
   9   2.0000     -10.182352      -277.0759
  10   2.0000     -10.181777      -277.0602
  11   2.0000      -1.051290       -28.6070
  12   2.0000      -1.013439       -27.5771
  13   2.0000      -0.987372       -26.8678
  14   2.0000      -0.791628       -21.5413
  15   2.0000      -0.773990       -21.0613
  16   2.0000      -0.745689       -20.2912
  17   2.0000      -0.717711       -19.5299
  18   2.0000      -0.614099       -16.7105
  19   2.0000      -0.602231       -16.3875
  20   2.0000      -0.593638       -16.1537
  21   2.0000      -0.564595       -15.3634
  22   2.0000      -0.526045       -14.3144
  23   2.0000      -0.498307       -13.5596
  24   2.0000      -0.483560       -13.1583
  25   2.0000      -0.476588       -12.9686
  26   2.0000      -0.454078       -12.3561
  27   2.0000      -0.441322       -12.0090
  28   2.0000      -0.420395       -11.4395
  29   2.0000      -0.415679       -11.3112
  30   2.0000      -0.404560       -11.0086
  31   2.0000      -0.393198       -10.6995
  32   2.0000      -0.368461       -10.0263
  33   2.0000      -0.365492        -9.9455
  34   2.0000      -0.357370        -9.7245
  35   2.0000      -0.353442        -9.6176
  36   2.0000      -0.342765        -9.3271
  37   2.0000      -0.323385        -8.7998
  38   2.0000      -0.305955        -8.3255
  39   2.0000      -0.293294        -7.9809
  40   2.0000      -0.264954        -7.2098
  41   2.0000      -0.249919        -6.8007
  42   2.0000      -0.236123        -6.4252
  43   0.0000       0.076120         2.0713
  44   0.0000       0.101222         2.7544
  45   0.0000       0.103841         2.8257
  46   0.0000       0.107550         2.9266
  47   0.0000       0.115738         3.1494

MULLIKEN ATOMIC CHARGES
-----------------------
   0 C :    0.289055
   1 C :   -0.256338
   2 C :   -0.296182
   3 C :   -0.002397
   4 O :   -0.520041
   5 H :    0.145813
   6 H :    0.143029
   7 H :    0.160279
   8 H :    0.138718
   9 H :    0.161504
  10 H :    0.144753
  11 H :    0.141475
  12 C :    0.000162
  13 H :    0.123467
  14 C :    0.101348
  15 C :   -0.344013
  16 C :    0.000344
  17 O :   -0.525132
  18 H :    0.165063
  19 O :   -0.531128
  20 H :    0.141005
  21 H :    0.188017
  22 H :    0.149789
  23 H :    0.137380
  24 H :    0.144027
Sum of atomic charges:   -0.0000000

LOEWDIN ATOMIC CHARGES
----------------------
   0 C :    0.171727
   1 C :   -0.211612
   2 C :   -0.215379
   3 C :   -0.027810
   4 O :   -0.337126
   5 H :    0.098338
   6 H :    0.112763
   7 H :    0.125891
   8 H :    0.112390
   9 H :    0.118875
  10 H :    0.103891
  11 H :    0.101843
  12 C :   -0.039046
  13 H :    0.090699
  14 C :    0.045642
  15 C :   -0.243374
  16 C :   -0.032419
  17 O :   -0.334680
  18 H :    0.121545
  19 O :   -0.322729
  20 H :    0.105271
  21 H :    0.136810
  22 H :    0.120383
  23 H :    0.099629
  24 H :    0.098477

  Mayer bond orders larger than 0.100000
B(  0-C ,  1-C ) :   0.9481 B(  0-C ,  4-O ) :   0.8900 B(  0-C ,  5-H ) :   0.9097
B(  0-C , 19-O ) :   0.8654 B(  1-C ,  2-C ) :   0.9569 B(  1-C ,  6-H ) :   0.9412
B(  1-C ,  7-H ) :   0.9362 B(  2-C ,  3-C ) :   0.9548 B(  2-C ,  8-H ) :   0.9455
B(  2-C ,  9-H ) :   0.9442 B(  3-C ,  4-O ) :   0.8368 B(  3-C , 10-H ) :   0.9362
B(  3-C , 11-H ) :   0.9405 B( 12-C , 13-H ) :   0.9134 B( 12-C , 14-C ) :   0.9206
B( 12-C , 17-O ) :   0.8658 B( 12-C , 18-H ) :   0.9319 B( 14-C , 15-C ) :   0.9434
B( 14-C , 19-O ) :   0.8355 B( 14-C , 20-H ) :   0.9312 B( 15-C , 16-C ) :   0.9385
B( 15-C , 21-H ) :   0.9184 B( 15-C , 22-H ) :   0.9367 B( 16-C , 17-O ) :   0.8592
B( 16-C , 23-H ) :   0.9326 B( 16-C , 24-H ) :   0.9290

FINAL SINGLE POINT ENERGY      -538.434117216163

DIPOLE MOMENT
-------------
                                X             Y             Z
Electronic contribution:     -1.43442      -1.06391      -1.29363
Nuclear contribution   :      1.65493       1.15064       1.93332
                        -----------------------------------------
Total Dipole Moment    :      0.22051       0.08673       0.63969
                        -----------------------------------------
Magnitude (a.u.)       :      0.68217
Magnitude (Debye)      :      1.73393

Rotational constants in cm-1:     0.082919     0.021739     0.020659
Rotational constants in MHz :  2485.855321   651.721554   619.350129

                             ****ORCA TERMINATED NORMALLY****
TOTAL RUN TIME: 0 days 0 hours 7 minutes 20 seconds 466 msec
