                         Program Version 4.2.0 -  RELEASE  -
|  1> # Test redundant internal optimization
|  2> #
|  3> ! RKS B3LYP  Opt TightSCF SmallPrint
|  4>
|  5> %basis
|  6>         Basis "6-31G"
|  7> end
|  8>
|  9> %geom
| 10> Constraints
| 11> { D 4  0  15  12  270.0   C } # D for Dihedral angle
| 12> { D 0  15  12  16  135.0   C } # D for Dihedral angle
| 13> { D 0  4  3  2   C } # D for Dihedral angle
| 14> { D 4  3  2  1   C } # D for Dihedral angle
| 15> { D 3  2  1  0   C } # D for Dihedral angle
| 16> { D 2  1  0  4   C } # D for Dihedral angle
| 17> { D 1  0  4  3   C } # D for Dihedral angle
| 18> { D 16  20  19  18   C } # D for Dihedral angle
| 19> { D 20  19  18  17   C } # D for Dihedral angle
| 20> { D 19  18  17  16   C } # D for Dihedral angle
| 21> { D 18  17  16  20   C } # D for Dihedral angle
| 22> { D 17  16  20  19   C } # D for Dihedral angle
| 23> { D 15  12  16  20   C } # D for Dihedral angle
| 24> end
| 25> end
| 26>
| 27>
| 28> #%pal
| 29> #nprocs 8
| 30> #end
| 31>
| 32> * xyz 0 1
| 33> C  -21.048   26.222   46.251
| 34> C  -20.361   27.558   45.944
| 35> C  -20.329   28.222   47.341
| 36> C  -20.110   27.022   48.296
| 37> O  -20.473   25.807   47.535
| 38> H  -20.833   25.428   45.533
| 39> H  -19.344   27.382   45.576
| 40> H  -20.898   28.157   45.201
| 41> H  -19.543   28.978   47.434
| 42> H  -21.289   28.710   47.548
| 43> H  -20.733   27.082   49.195
| 44> H  -19.064   26.913   48.597
| 45> C  -23.420   25.119   46.072
| 46> H  -23.881   25.215   45.082
| 47> H  -22.774   24.231   46.066
| 48> O  -22.586   26.394   46.375
| 49> C  -24.546   24.876   47.115
| 50> C  -25.272   23.552   46.852
| 51> C  -24.282   22.527   47.455
| 52> C  -23.695   23.281   48.674
| 53> O  -23.977   24.716   48.457
| 54> H  -25.199   25.751   47.146
| 55> H  -26.226   23.532   47.391
| 56> O  -25.556   23.301   45.346
| 57> H  -24.765   21.587   47.739
| 58> H  -23.494   22.293   46.729
| 59> H  -22.612   23.140   48.773
| 60> H  -24.177   22.996   49.613
| 61> H  -24.615   23.316   44.785
| 62> *
| 63>
| 64>                          ****END OF INPUT****
 Total Charge           Charge          ....    0
 Multiplicity           Mult            ....    1
 Number of Electrons    NEL             ....  102
FINAL SINGLE POINT ENERGY      -652.828976502737
FINAL SINGLE POINT ENERGY      -652.853270512888
FINAL SINGLE POINT ENERGY      -652.857907421601
FINAL SINGLE POINT ENERGY      -652.858725579763
FINAL SINGLE POINT ENERGY      -652.858854348757
FINAL SINGLE POINT ENERGY      -652.858883548398
FINAL SINGLE POINT ENERGY      -652.858889844832
FINAL SINGLE POINT ENERGY      -652.858891134588
                    ***********************HURRAY********************

CARTESIAN COORDINATES (ANGSTROEM)
---------------------------------
  C    -21.017313   26.163044   46.188914
  C    -20.471674   27.575763   45.981047
  C    -20.526208   28.152544   47.415431
  C    -20.195671   26.925426   48.294584
  O    -20.426810   25.737315   47.436752
  H    -20.735912   25.419792   45.436791
  H    -19.437253   27.517034   45.622307
  H    -21.066788   28.143670   45.263314
  H    -19.820781   28.975463   47.565071
  H    -21.536328   28.514384   47.626447
  H    -20.837403   26.846129   49.174771
  H    -19.145530   26.891393   48.600959
  C    -23.239813   25.103642   45.971970
  H    -23.712315   25.239426   44.990221
  H    -22.589228   24.218797   45.938117
  O    -22.452597   26.281945   46.287325
  C    -24.321920   24.937834   47.040236
  C    -25.192069   23.684476   46.848740
  C    -24.305444   22.577463   47.494533
  C    -23.628713   23.325276   48.664828
  O    -23.759988   24.775761   48.375471
  H    -24.915055   25.855844   47.072574
  H    -26.123147   23.799584   47.407609
  O    -25.614846   23.419151   45.488084
  H    -24.893201   21.715489   47.821092
  H    -23.565902   22.222740   46.763944
  H    -22.566922   23.084594   48.770262
  H    -24.132264   23.141893   49.618452
  H    -24.870906   23.062129   44.961156

 Multiplicity           Mult            ....    1
 Number of Electrons    NEL             ....  102
 Basis Dimension        Dim             ....  149

ORBITAL ENERGIES
----------------

  NO   OCC          E(Eh)            E(eV)
   0   2.0000     -19.148398      -521.0544
   1   2.0000     -19.137477      -520.7572
   2   2.0000     -19.132648      -520.6258
   3   2.0000     -19.130365      -520.5637
   4   2.0000     -10.274481      -279.5829
   5   2.0000     -10.243035      -278.7271
   6   2.0000     -10.229033      -278.3461
   7   2.0000     -10.226926      -278.2888
   8   2.0000     -10.225466      -278.2491
   9   2.0000     -10.215710      -277.9836
  10   2.0000     -10.193606      -277.3821
  11   2.0000     -10.178959      -276.9835
  12   2.0000     -10.177308      -276.9386
  13   2.0000      -1.047775       -28.5114
  14   2.0000      -1.031028       -28.0557
  15   2.0000      -1.012269       -27.5452
  16   2.0000      -0.987730       -26.8775
  17   2.0000      -0.783615       -21.3233
  18   2.0000      -0.778438       -21.1824
  19   2.0000      -0.762515       -20.7491
  20   2.0000      -0.724588       -19.7170
  21   2.0000      -0.676461       -18.4074
  22   2.0000      -0.608777       -16.5657
  23   2.0000      -0.590746       -16.0750
  24   2.0000      -0.585450       -15.9309
  25   2.0000      -0.578041       -15.7293
  26   2.0000      -0.527426       -14.3520
  27   2.0000      -0.509191       -13.8558
  28   2.0000      -0.492514       -13.4020
  29   2.0000      -0.482314       -13.1244
  30   2.0000      -0.466622       -12.6974
  31   2.0000      -0.454563       -12.3693
  32   2.0000      -0.442556       -12.0426
  33   2.0000      -0.429529       -11.6881
  34   2.0000      -0.421868       -11.4796
  35   2.0000      -0.417228       -11.3533
  36   2.0000      -0.399768       -10.8782
  37   2.0000      -0.394146       -10.7253
  38   2.0000      -0.377470       -10.2715
  39   2.0000      -0.368553       -10.0288
  40   2.0000      -0.349413        -9.5080
  41   2.0000      -0.346263        -9.4223
  42   2.0000      -0.340595        -9.2681
  43   2.0000      -0.328279        -8.9329
  44   2.0000      -0.318129        -8.6567
  45   2.0000      -0.311966        -8.4890
  46   2.0000      -0.296879        -8.0785
  47   2.0000      -0.269784        -7.3412
  48   2.0000      -0.262442        -7.1414
  49   2.0000      -0.244289        -6.6474
  50   2.0000      -0.233786        -6.3616
  51   0.0000       0.051378         1.3981
  52   0.0000       0.079285         2.1574
  53   0.0000       0.090816         2.4712
  54   0.0000       0.101241         2.7549
  55   0.0000       0.109724         2.9857

MULLIKEN ATOMIC CHARGES
-----------------------
   0 C :    0.282769
   1 C :   -0.256413
   2 C :   -0.298363
   3 C :    0.000661
   4 O :   -0.507782
   5 H :    0.133782
   6 H :    0.139986
   7 H :    0.151324
   8 H :    0.136462
   9 H :    0.167248
  10 H :    0.159754
  11 H :    0.135281
  12 C :   -0.009619
  13 H :    0.135467
  14 H :    0.123771
  15 O :   -0.512622
  16 C :    0.103204
  17 C :    0.080119
  18 C :   -0.327298
  19 C :   -0.007141
  20 O :   -0.505095
  21 H :    0.162643
  22 H :    0.168608
  23 O :   -0.600540
  24 H :    0.156888
  25 H :    0.132193
  26 H :    0.155504
  27 H :    0.144737
  28 H :    0.354472
Sum of atomic charges:   -0.0000000

LOEWDIN ATOMIC CHARGES
----------------------
   0 C :    0.173714
   1 C :   -0.216676
   2 C :   -0.215419
   3 C :   -0.026030
   4 O :   -0.326244
   5 H :    0.093809
   6 H :    0.111005
   7 H :    0.121139
   8 H :    0.111191
   9 H :    0.121685
  10 H :    0.112170
  11 H :    0.099070
  12 C :   -0.048053
  13 H :    0.100765
  14 H :    0.092962
  15 O :   -0.320165
  16 C :    0.020224
  17 C :    0.033554
  18 C :   -0.242111
  19 C :   -0.029126
  20 O :   -0.312599
  21 H :    0.118923
  22 H :    0.119634
  23 O :   -0.408402
  24 H :    0.122137
  25 H :    0.103052
  26 H :    0.108821
  27 H :    0.104210
  28 H :    0.276763

  Mayer bond orders larger than 0.100000
B(  0-C ,  1-C ) :   0.9493 B(  0-C ,  4-O ) :   0.9181 B(  0-C ,  5-H ) :   0.9206
B(  0-C , 15-O ) :   0.8630 B(  1-C ,  2-C ) :   0.9585 B(  1-C ,  6-H ) :   0.9405
B(  1-C ,  7-H ) :   0.9374 B(  2-C ,  3-C ) :   0.9557 B(  2-C ,  8-H ) :   0.9457
B(  2-C ,  9-H ) :   0.9429 B(  3-C ,  4-O ) :   0.8355 B(  3-C , 10-H ) :   0.9331
B(  3-C , 11-H ) :   0.9404 B( 12-C , 13-H ) :   0.9132 B( 12-C , 14-H ) :   0.9190
B( 12-C , 15-O ) :   0.8446 B( 12-C , 16-C ) :   0.9021 B( 16-C , 17-C ) :   0.8732
B( 16-C , 20-O ) :   0.8744 B( 16-C , 21-H ) :   0.9308 B( 17-C , 18-C ) :   0.9240
B( 17-C , 22-H ) :   0.9324 B( 17-C , 23-O ) :   0.8937 B( 18-C , 19-C ) :   0.9379
B( 18-C , 24-H ) :   0.9424 B( 18-C , 25-H ) :   0.9407 B( 19-C , 20-O ) :   0.8487
B( 19-C , 26-H ) :   0.9293 B( 19-C , 27-H ) :   0.9385 B( 23-O , 28-H ) :   0.7991

FINAL SINGLE POINT ENERGY      -652.858891350718

DIPOLE MOMENT
-------------
                                X             Y             Z
Electronic contribution:     -2.72167      -0.83276      -0.56656
Nuclear contribution   :      3.28155       0.40131       0.19922
                        -----------------------------------------
Total Dipole Moment    :      0.55989      -0.43144      -0.36735
                        -----------------------------------------
Magnitude (a.u.)       :      0.79659
Magnitude (Debye)      :      2.02478

Rotational constants in cm-1:     0.055744     0.014058     0.012493
Rotational constants in MHz :  1671.177268   421.447808   374.534105

                             ****ORCA TERMINATED NORMALLY****
TOTAL RUN TIME: 0 days 0 hours 30 minutes 10 seconds 447 msec
