                         Program Version 4.2.1 -  RELEASE  -
|  1> # Test redundant internal optimization
|  2> #
|  3> ! RKS B3LYP  Opt TightSCF SmallPrint
|  4>
|  5> %basis
|  6>         Basis "6-31G"
|  7> end
|  8>
|  9> %geom
| 10> Constraints
| 11> { D 4  0  19  14  315.0   C } # D for Dihedral angle
| 12> { D 0  19  14  12  225.0   C } # D for Dihedral angle
| 13> { D 0  4  3  2   C } # D for Dihedral angle
| 14> { D 4  3  2  1   C } # D for Dihedral angle
| 15> { D 3  2  1  0   C } # D for Dihedral angle
| 16> { D 2  1  0  4   C } # D for Dihedral angle
| 17> { D 1  0  4  3   C } # D for Dihedral angle
| 18> { D 14  15  16  17   C } # D for Dihedral angle
| 19> { D 15  16  17  12   C } # D for Dihedral angle
| 20> { D 16  17  12  14   C } # D for Dihedral angle
| 21> { D 17  12  14  15   C } # D for Dihedral angle
| 22> { D 12  14  15  16   C } # D for Dihedral angle
| 23> end
| 24> end
| 25>
| 26>
| 27> #%pal
| 28> #nprocs 8
| 29> #end
| 30>
| 31> * xyz 0 1
| 32> C  -21.048   26.222   46.251
| 33> C  -20.361   27.558   45.944
| 34> C  -20.329   28.222   47.341
| 35> C  -20.110   27.022   48.296
| 36> O  -20.473   25.807   47.535
| 37> H  -20.833   25.428   45.533
| 38> H  -19.344   27.382   45.576
| 39> H  -20.898   28.157   45.201
| 40> H  -19.543   28.978   47.434
| 41> H  -21.289   28.710   47.548
| 42> H  -20.733   27.082   49.195
| 43> H  -19.064   26.913   48.597
| 44> C  -24.396   24.890   46.317
| 45> H  -25.065   24.298   46.959
| 46> C  -23.132   25.318   47.072
| 47> C  -22.286   24.024   47.025
| 48> C  -22.636   23.423   45.641
| 49> O  -23.894   24.071   45.208
| 50> H  -24.959   25.714   45.875
| 51> O  -22.472   26.381   46.366
| 52> H  -23.335   25.656   48.094
| 53> H  -21.214   24.213   47.139
| 54> H  -22.592   23.343   47.830
| 55> H  -22.785   22.339   45.678
| 56> H  -21.879   23.651   44.883
| 57> *
| 58>
| 59>                          ****END OF INPUT****
 Total Charge           Charge          ....    0
 Multiplicity           Mult            ....    1
 Number of Electrons    NEL             ....   86
FINAL SINGLE POINT ENERGY      -538.418681412348
FINAL SINGLE POINT ENERGY      -538.431411681520
FINAL SINGLE POINT ENERGY      -538.433116509318
FINAL SINGLE POINT ENERGY      -538.433533344747
FINAL SINGLE POINT ENERGY      -538.433560008672
FINAL SINGLE POINT ENERGY      -538.433565957760
                    ***********************HURRAY********************

CARTESIAN COORDINATES (ANGSTROEM)
---------------------------------
  C    -20.926065   26.264713   46.224372
  C    -20.444923   27.693307   45.963635
  C    -20.386795   28.271466   47.395619
  C    -19.940137   27.062135   48.248898
  O    -20.209992   25.856573   47.419465
  H    -20.658355   25.531451   45.458033
  H    -19.449476   27.659971   45.506474
  H    -21.124250   28.238001   45.305183
  H    -19.695732   29.115479   47.481664
  H    -21.383507   28.607681   47.694850
  H    -20.489342   26.974449   49.190264
  H    -18.866301   27.062267   48.458296
  C    -24.328484   24.958681   46.198719
  H    -25.117769   24.472902   46.791736
  C    -23.101022   25.246970   47.063645
  C    -22.423383   23.864800   47.108125
  C    -22.710267   23.276459   45.707588
  O    -23.834097   24.061803   45.148806
  H    -24.721550   25.852122   45.713083
  O    -22.355928   26.318010   46.388013
  H    -23.359068   25.609147   48.064614
  H    -21.363761   23.924221   47.355112
  H    -22.921306   23.272360   47.884832
  H    -22.993880   22.218596   45.746292
  H    -21.864609   23.388436   45.020682

 Multiplicity           Mult            ....    1
 Number of Electrons    NEL             ....   86
 Basis Dimension        Dim             ....  127

ORBITAL ENERGIES
----------------

  NO   OCC          E(Eh)            E(eV)
   0   2.0000     -19.145459      -520.9744
   1   2.0000     -19.138025      -520.7721
   2   2.0000     -19.124653      -520.4083
   3   2.0000     -10.278932      -279.7039
   4   2.0000     -10.236923      -278.5608
   5   2.0000     -10.229090      -278.3477
   6   2.0000     -10.218430      -278.0576
   7   2.0000     -10.216491      -278.0048
   8   2.0000     -10.186817      -277.1974
   9   2.0000     -10.185015      -277.1484
  10   2.0000     -10.178516      -276.9715
  11   2.0000      -1.052899       -28.6508
  12   2.0000      -1.010509       -27.4973
  13   2.0000      -0.986451       -26.8427
  14   2.0000      -0.793319       -21.5873
  15   2.0000      -0.773452       -21.0467
  16   2.0000      -0.742975       -20.2174
  17   2.0000      -0.717880       -19.5345
  18   2.0000      -0.613601       -16.6969
  19   2.0000      -0.601769       -16.3750
  20   2.0000      -0.592970       -16.1355
  21   2.0000      -0.561857       -15.2889
  22   2.0000      -0.523711       -14.2509
  23   2.0000      -0.492446       -13.4001
  24   2.0000      -0.489358       -13.3161
  25   2.0000      -0.478616       -13.0238
  26   2.0000      -0.453689       -12.3455
  27   2.0000      -0.443252       -12.0615
  28   2.0000      -0.415789       -11.3142
  29   2.0000      -0.412684       -11.2297
  30   2.0000      -0.406022       -11.0484
  31   2.0000      -0.389978       -10.6119
  32   2.0000      -0.367744       -10.0068
  33   2.0000      -0.362013        -9.8509
  34   2.0000      -0.358272        -9.7491
  35   2.0000      -0.357383        -9.7249
  36   2.0000      -0.345978        -9.4145
  37   2.0000      -0.326611        -8.8875
  38   2.0000      -0.303348        -8.2545
  39   2.0000      -0.291427        -7.9301
  40   2.0000      -0.262338        -7.1386
  41   2.0000      -0.252527        -6.8716
  42   2.0000      -0.232562        -6.3283
  43   0.0000       0.075802         2.0627
  44   0.0000       0.100049         2.7225
  45   0.0000       0.104022         2.8306
  46   0.0000       0.107131         2.9152
  47   0.0000       0.117845         3.2067

MULLIKEN ATOMIC CHARGES
-----------------------
   0 C :    0.300434
   1 C :   -0.259695
   2 C :   -0.299034
   3 C :   -0.008203
   4 O :   -0.521104
   5 H :    0.150000
   6 H :    0.144688
   7 H :    0.164024
   8 H :    0.142230
   9 H :    0.159994
  10 H :    0.144111
  11 H :    0.146589
  12 C :    0.004714
  13 H :    0.119313
  14 C :    0.098736
  15 C :   -0.336283
  16 C :   -0.008168
  17 O :   -0.522834
  18 H :    0.165536
  19 O :   -0.539087
  20 H :    0.131858
  21 H :    0.197696
  22 H :    0.142086
  23 H :    0.137997
  24 H :    0.144403
Sum of atomic charges:   -0.0000000

LOEWDIN ATOMIC CHARGES
----------------------
   0 C :    0.177626
   1 C :   -0.212012
   2 C :   -0.216005
   3 C :   -0.029879
   4 O :   -0.332601
   5 H :    0.097261
   6 H :    0.113750
   7 H :    0.127954
   8 H :    0.114380
   9 H :    0.118158
  10 H :    0.103210
  11 H :    0.104370
  12 C :   -0.035673
  13 H :    0.088473
  14 C :    0.046739
  15 C :   -0.246005
  16 C :   -0.033363
  17 O :   -0.333210
  18 H :    0.121490
  19 O :   -0.330909
  20 H :    0.100101
  21 H :    0.140874
  22 H :    0.116074
  23 H :    0.099335
  24 H :    0.099862

  Mayer bond orders larger than 0.100000
B(  0-C ,  1-C ) :   0.9467 B(  0-C ,  4-O ) :   0.8812 B(  0-C ,  5-H ) :   0.9174
B(  0-C , 19-O ) :   0.8611 B(  1-C ,  2-C ) :   0.9550 B(  1-C ,  6-H ) :   0.9393
B(  1-C ,  7-H ) :   0.9354 B(  2-C ,  3-C ) :   0.9555 B(  2-C ,  8-H ) :   0.9448
B(  2-C ,  9-H ) :   0.9446 B(  3-C ,  4-O ) :   0.8315 B(  3-C , 10-H ) :   0.9360
B(  3-C , 11-H ) :   0.9404 B( 12-C , 13-H ) :   0.9148 B( 12-C , 14-C ) :   0.9271
B( 12-C , 17-O ) :   0.8687 B( 12-C , 18-H ) :   0.9312 B( 14-C , 15-C ) :   0.9441
B( 14-C , 19-O ) :   0.8233 B( 14-C , 20-H ) :   0.9290 B( 15-C , 16-C ) :   0.9414
B( 15-C , 21-H ) :   0.9086 B( 15-C , 22-H ) :   0.9368 B( 16-C , 17-O ) :   0.8574
B( 16-C , 23-H ) :   0.9325 B( 16-C , 24-H ) :   0.9339

FINAL SINGLE POINT ENERGY      -538.433566066958

DIPOLE MOMENT
-------------
                                X             Y             Z
Electronic contribution:     -1.66099      -1.43765      -1.91149
Nuclear contribution   :      2.19648       1.91609       2.79498
                        -----------------------------------------
Total Dipole Moment    :      0.53550       0.47843       0.88349
                        -----------------------------------------
Magnitude (a.u.)       :      1.13851
Magnitude (Debye)      :      2.89386

Rotational constants in cm-1:     0.083669     0.022140     0.020852
Rotational constants in MHz :  2508.318726   663.733541   625.120831

                             ****ORCA TERMINATED NORMALLY****
TOTAL RUN TIME: 0 days 0 hours 7 minutes 19 seconds 534 msec
