                         Program Version 4.2.0 -  RELEASE  -
|  1> # Test redundant internal optimization
|  2> #
|  3> ! RKS B3LYP  Opt TightSCF SmallPrint
|  4>
|  5> %basis
|  6>         Basis "6-31G"
|  7> end
|  8>
|  9> %geom
| 10> Constraints
| 11> { D 4  0  15  12  345.0   C } # D for Dihedral angle
| 12> { D 0  15  12  16  165.0   C } # D for Dihedral angle
| 13> { D 0  4  3  2   C } # D for Dihedral angle
| 14> { D 4  3  2  1   C } # D for Dihedral angle
| 15> { D 3  2  1  0   C } # D for Dihedral angle
| 16> { D 2  1  0  4   C } # D for Dihedral angle
| 17> { D 1  0  4  3   C } # D for Dihedral angle
| 18> { D 16  20  19  18   C } # D for Dihedral angle
| 19> { D 20  19  18  17   C } # D for Dihedral angle
| 20> { D 19  18  17  16   C } # D for Dihedral angle
| 21> { D 18  17  16  20   C } # D for Dihedral angle
| 22> { D 17  16  20  19   C } # D for Dihedral angle
| 23> { D 15  12  16  20   C } # D for Dihedral angle
| 24> end
| 25> end
| 26>
| 27>
| 28> #%pal
| 29> #nprocs 8
| 30> #end
| 31>
| 32> * xyz 0 1
| 33> C  -21.048   26.222   46.251
| 34> C  -20.361   27.558   45.944
| 35> C  -20.329   28.222   47.341
| 36> C  -20.110   27.022   48.296
| 37> O  -20.473   25.807   47.535
| 38> H  -20.833   25.428   45.533
| 39> H  -19.344   27.382   45.576
| 40> H  -20.898   28.157   45.201
| 41> H  -19.543   28.978   47.434
| 42> H  -21.289   28.710   47.548
| 43> H  -20.733   27.082   49.195
| 44> H  -19.064   26.913   48.597
| 45> C  -23.221   25.764   47.645
| 46> H  -23.254   24.674   47.530
| 47> H  -22.617   25.997   48.532
| 48> O  -22.586   26.394   46.375
| 49> C  -24.665   26.272   47.910
| 50> C  -24.711   27.803   47.993
| 51> C  -24.681   28.198   46.497
| 52> C  -25.496   27.069   45.818
| 53> O  -25.539   25.945   46.779
| 54> H  -25.070   25.761   48.785
| 55> H  -25.648   28.126   48.459
| 56> O  -23.528   28.406   48.798
| 57> H  -25.106   29.190   46.311
| 58> H  -23.647   28.203   46.129
| 59> H  -25.040   26.726   44.883
| 60> H  -26.531   27.363   45.620
| 61> H  -22.579   28.095   48.348
| 62> *
| 63>
| 64>                          ****END OF INPUT****
 Total Charge           Charge          ....    0
 Multiplicity           Mult            ....    1
 Number of Electrons    NEL             ....  102
FINAL SINGLE POINT ENERGY      -652.829598333797
FINAL SINGLE POINT ENERGY      -652.852668619753
FINAL SINGLE POINT ENERGY      -652.856949527805
FINAL SINGLE POINT ENERGY      -652.859544142455
FINAL SINGLE POINT ENERGY      -652.859751869421
FINAL SINGLE POINT ENERGY      -652.859801367910
FINAL SINGLE POINT ENERGY      -652.859802998349
                    ***********************HURRAY********************

CARTESIAN COORDINATES (ANGSTROEM)
---------------------------------
  C    -21.067342   26.166003   46.355882
  C    -20.421976   27.495076   45.961673
  C    -20.273633   28.194255   47.333274
  C    -19.963469   27.024156   48.293868
  O    -20.391787   25.789877   47.574932
  H    -20.876700   25.349384   45.653053
  H    -19.441141   27.294157   45.517577
  H    -21.026934   28.058479   45.247845
  H    -19.480783   28.948627   47.336438
  H    -21.204241   28.705508   47.600253
  H    -20.500132   27.084554   49.245064
  H    -18.894293   26.912784   48.492046
  C    -23.167695   25.731994   47.659792
  H    -23.218253   24.640678   47.560492
  H    -22.595497   25.959996   48.565493
  O    -22.514765   26.296871   46.477321
  C    -24.588616   26.270349   47.806113
  C    -24.748140   27.791541   47.975915
  C    -24.751501   28.281076   46.495994
  C    -25.481644   27.134723   45.763271
  O    -25.435161   25.955861   46.663785
  H    -25.022641   25.739135   48.662622
  H    -25.706363   28.003124   48.456084
  O    -23.764910   28.415321   48.834128
  H    -25.255429   29.245404   46.383435
  H    -23.720006   28.366111   46.146319
  H    -25.002716   26.869756   44.817045
  H    -26.538283   27.356749   45.585309
  H    -22.889950   28.385449   48.397976

 Multiplicity           Mult            ....    1
 Number of Electrons    NEL             ....  102
 Basis Dimension        Dim             ....  149

ORBITAL ENERGIES
----------------

  NO   OCC          E(Eh)            E(eV)
   0   2.0000     -19.158381      -521.3261
   1   2.0000     -19.146979      -521.0158
   2   2.0000     -19.142678      -520.8988
   3   2.0000     -19.129400      -520.5374
   4   2.0000     -10.287084      -279.9258
   5   2.0000     -10.241844      -278.6947
   6   2.0000     -10.236075      -278.5378
   7   2.0000     -10.228167      -278.3226
   8   2.0000     -10.226932      -278.2890
   9   2.0000     -10.218413      -278.0572
  10   2.0000     -10.205518      -277.7063
  11   2.0000     -10.197998      -277.5016
  12   2.0000     -10.178277      -276.9650
  13   2.0000      -1.062521       -28.9127
  14   2.0000      -1.027730       -27.9659
  15   2.0000      -1.010006       -27.4837
  16   2.0000      -0.996570       -27.1180
  17   2.0000      -0.802971       -21.8499
  18   2.0000      -0.773034       -21.0353
  19   2.0000      -0.766055       -20.8454
  20   2.0000      -0.738868       -20.1056
  21   2.0000      -0.676745       -18.4152
  22   2.0000      -0.615737       -16.7551
  23   2.0000      -0.600840       -16.3497
  24   2.0000      -0.600120       -16.3301
  25   2.0000      -0.565801       -15.3962
  26   2.0000      -0.525977       -14.3126
  27   2.0000      -0.518448       -14.1077
  28   2.0000      -0.507199       -13.8016
  29   2.0000      -0.491841       -13.3837
  30   2.0000      -0.472683       -12.8624
  31   2.0000      -0.460243       -12.5238
  32   2.0000      -0.445104       -12.1119
  33   2.0000      -0.426731       -11.6119
  34   2.0000      -0.422943       -11.5089
  35   2.0000      -0.417223       -11.3532
  36   2.0000      -0.406238       -11.0543
  37   2.0000      -0.398908       -10.8548
  38   2.0000      -0.384106       -10.4521
  39   2.0000      -0.373046       -10.1511
  40   2.0000      -0.369137       -10.0447
  41   2.0000      -0.361403        -9.8343
  42   2.0000      -0.352164        -9.5829
  43   2.0000      -0.340721        -9.2715
  44   2.0000      -0.324178        -8.8213
  45   2.0000      -0.310273        -8.4430
  46   2.0000      -0.306096        -8.3293
  47   2.0000      -0.273225        -7.4348
  48   2.0000      -0.262587        -7.1453
  49   2.0000      -0.256095        -6.9687
  50   2.0000      -0.235847        -6.4177
  51   0.0000       0.038072         1.0360
  52   0.0000       0.080009         2.1772
  53   0.0000       0.090110         2.4520
  54   0.0000       0.095482         2.5982
  55   0.0000       0.098952         2.6926

MULLIKEN ATOMIC CHARGES
-----------------------
   0 C :    0.308555
   1 C :   -0.265537
   2 C :   -0.317381
   3 C :   -0.021865
   4 O :   -0.508343
   5 H :    0.158705
   6 H :    0.153927
   7 H :    0.160993
   8 H :    0.157579
   9 H :    0.139634
  10 H :    0.152275
  11 H :    0.157786
  12 C :   -0.008073
  13 H :    0.155161
  14 H :    0.144316
  15 O :   -0.549767
  16 C :    0.086351
  17 C :    0.077808
  18 C :   -0.307657
  19 C :   -0.000046
  20 O :   -0.520498
  21 H :    0.149396
  22 H :    0.161441
  23 O :   -0.619713
  24 H :    0.139579
  25 H :    0.155566
  26 H :    0.147449
  27 H :    0.140091
  28 H :    0.372268
Sum of atomic charges:   -0.0000000

LOEWDIN ATOMIC CHARGES
----------------------
   0 C :    0.181879
   1 C :   -0.218192
   2 C :   -0.218359
   3 C :   -0.033921
   4 O :   -0.317157
   5 H :    0.103118
   6 H :    0.119432
   7 H :    0.124940
   8 H :    0.122358
   9 H :    0.101502
  10 H :    0.105612
  11 H :    0.111155
  12 C :   -0.042655
  13 H :    0.109959
  14 H :    0.104224
  15 O :   -0.347079
  16 C :    0.017936
  17 C :    0.038391
  18 C :   -0.241846
  19 C :   -0.023893
  20 O :   -0.322661
  21 H :    0.114505
  22 H :    0.115896
  23 O :   -0.410585
  24 H :    0.113125
  25 H :    0.116179
  26 H :    0.106206
  27 H :    0.100180
  28 H :    0.269750

  Mayer bond orders larger than 0.100000
B(  0-C ,  1-C ) :   0.9350 B(  0-C ,  4-O ) :   0.9057 B(  0-C ,  5-H ) :   0.9255
B(  0-C , 15-O ) :   0.8438 B(  1-C ,  2-C ) :   0.9518 B(  1-C ,  6-H ) :   0.9351
B(  1-C ,  7-H ) :   0.9347 B(  2-C ,  3-C ) :   0.9514 B(  2-C ,  8-H ) :   0.9421
B(  2-C ,  9-H ) :   0.9260 B(  3-C ,  4-O ) :   0.8323 B(  3-C , 10-H ) :   0.9297
B(  3-C , 11-H ) :   0.9389 B( 12-C , 13-H ) :   0.9233 B( 12-C , 14-H ) :   0.8997
B( 12-C , 15-O ) :   0.8187 B( 12-C , 16-C ) :   0.9168 B( 16-C , 17-C ) :   0.8847
B( 16-C , 20-O ) :   0.8746 B( 16-C , 21-H ) :   0.9274 B( 17-C , 18-C ) :   0.9321
B( 17-C , 22-H ) :   0.9364 B( 17-C , 23-O ) :   0.9014 B( 18-C , 19-C ) :   0.9455
B( 18-C , 24-H ) :   0.9422 B( 18-C , 25-H ) :   0.9286 B( 19-C , 20-O ) :   0.8387
B( 19-C , 26-H ) :   0.9322 B( 19-C , 27-H ) :   0.9377 B( 23-O , 28-H ) :   0.7621

FINAL SINGLE POINT ENERGY      -652.859801784672

DIPOLE MOMENT
-------------
                                X             Y             Z
Electronic contribution:     -2.35164      -4.25011       0.79671
Nuclear contribution   :      3.37841       5.12377      -1.15434
                        -----------------------------------------
Total Dipole Moment    :      1.02677       0.87366      -0.35763
                        -----------------------------------------
Magnitude (a.u.)       :      1.39479
Magnitude (Debye)      :      3.54528

Rotational constants in cm-1:     0.046100     0.017517     0.016478
Rotational constants in MHz :  1382.047052   525.136707   493.997187

                             ****ORCA TERMINATED NORMALLY****
TOTAL RUN TIME: 0 days 0 hours 38 minutes 31 seconds 221 msec
