                         Program Version 4.2.0 -  RELEASE  -
|  1> # Test redundant internal optimization
|  2> #
|  3> ! RKS B3LYP  Opt TightSCF SmallPrint
|  4>
|  5> %basis
|  6>         Basis "6-31G"
|  7> end
|  8>
|  9> %geom
| 10> Constraints
| 11> { D 4  0  15  12  105.0   C } # D for Dihedral angle
| 12> { D 0  15  12  16  210.0   C } # D for Dihedral angle
| 13> { D 0  4  3  2   C } # D for Dihedral angle
| 14> { D 4  3  2  1   C } # D for Dihedral angle
| 15> { D 3  2  1  0   C } # D for Dihedral angle
| 16> { D 2  1  0  4   C } # D for Dihedral angle
| 17> { D 1  0  4  3   C } # D for Dihedral angle
| 18> { D 16  20  19  18   C } # D for Dihedral angle
| 19> { D 20  19  18  17   C } # D for Dihedral angle
| 20> { D 19  18  17  16   C } # D for Dihedral angle
| 21> { D 18  17  16  20   C } # D for Dihedral angle
| 22> { D 17  16  20  19   C } # D for Dihedral angle
| 23> { D 15  12  16  20   C } # D for Dihedral angle
| 24> end
| 25> end
| 26>
| 27>
| 28> #%pal
| 29> #nprocs 8
| 30> #end
| 31>
| 32> * xyz 0 1
| 33> C  -21.048   26.222   46.251
| 34> C  -20.361   27.558   45.944
| 35> C  -20.329   28.222   47.341
| 36> C  -20.110   27.022   48.296
| 37> O  -20.473   25.807   47.535
| 38> H  -20.833   25.428   45.533
| 39> H  -19.344   27.382   45.576
| 40> H  -20.898   28.157   45.201
| 41> H  -19.543   28.978   47.434
| 42> H  -21.289   28.710   47.548
| 43> H  -20.733   27.082   49.195
| 44> H  -19.064   26.913   48.597
| 45> C  -23.085   27.864   46.420
| 46> H  -22.309   28.496   46.872
| 47> H  -23.280   28.235   45.406
| 48> O  -22.586   26.394   46.375
| 49> C  -24.391   28.030   47.245
| 50> C  -24.916   29.468   47.172
| 51> C  -25.606   29.481   45.787
| 52> C  -26.187   28.050   45.670
| 53> O  -25.469   27.223   46.664
| 54> H  -24.224   27.661   48.258
| 55> O  -25.952   29.716   48.302
| 56> H  -24.124   30.220   47.259
| 57> H  -26.378   30.253   45.704
| 58> H  -24.865   29.662   44.999
| 59> H  -26.043   27.618   44.674
| 60> H  -27.250   28.009   45.924
| 61> H  -26.756   28.974   48.234
| 62> *
| 63>
| 64>                          ****END OF INPUT****
 Total Charge           Charge          ....    0
 Multiplicity           Mult            ....    1
 Number of Electrons    NEL             ....  102
FINAL SINGLE POINT ENERGY      -652.801062002325
FINAL SINGLE POINT ENERGY      -652.831012775034
FINAL SINGLE POINT ENERGY      -652.846098610902
FINAL SINGLE POINT ENERGY      -652.848764710294
FINAL SINGLE POINT ENERGY      -652.849225812518
FINAL SINGLE POINT ENERGY      -652.849283997631
FINAL SINGLE POINT ENERGY      -652.849290681189
                    ***********************HURRAY********************

CARTESIAN COORDINATES (ANGSTROEM)
---------------------------------
  C    -21.204513   26.375233   46.380881
  C    -20.180667   27.445133   45.973101
  C    -19.909630   28.172143   47.324863
  C    -20.004164   27.011065   48.347888
  O    -20.722362   25.913225   47.662200
  H    -21.180048   25.490357   45.742595
  H    -19.274788   26.940607   45.623239
  H    -20.532629   28.111975   45.180480
  H    -18.925297   28.650800   47.343220
  H    -20.652842   28.947780   47.525048
  H    -20.548138   27.283817   49.257079
  H    -19.020298   26.622038   48.625222
  C    -23.115216   28.079147   46.385957
  H    -22.447860   28.780382   46.898518
  H    -23.238379   28.417608   45.348184
  O    -22.607531   26.720383   46.390184
  C    -24.453443   28.076052   47.125448
  C    -25.142141   29.447708   47.168822
  C    -25.857128   29.488318   45.791622
  C    -26.271620   28.012027   45.572534
  O    -25.443069   27.200718   46.494383
  H    -24.288299   27.677190   48.130218
  O    -26.089343   29.515449   48.269239
  H    -24.460140   30.285326   47.325501
  H    -26.708285   30.173155   45.820365
  H    -25.165287   29.829624   45.013661
  H    -26.100846   27.671863   44.546546
  H    -27.319301   27.826788   45.830835
  H    -26.582735   28.669090   48.318164

 Multiplicity           Mult            ....    1
 Number of Electrons    NEL             ....  102
 Basis Dimension        Dim             ....  149

ORBITAL ENERGIES
----------------

  NO   OCC          E(Eh)            E(eV)
   0   2.0000     -19.139658      -520.8166
   1   2.0000     -19.139347      -520.8081
   2   2.0000     -19.139076      -520.8007
   3   2.0000     -19.137807      -520.7662
   4   2.0000     -10.278359      -279.6884
   5   2.0000     -10.244539      -278.7681
   6   2.0000     -10.236526      -278.5500
   7   2.0000     -10.234134      -278.4849
   8   2.0000     -10.229437      -278.3571
   9   2.0000     -10.228145      -278.3220
  10   2.0000     -10.196701      -277.4663
  11   2.0000     -10.196353      -277.4569
  12   2.0000     -10.190699      -277.3030
  13   2.0000      -1.049322       -28.5535
  14   2.0000      -1.036007       -28.1912
  15   2.0000      -1.006710       -27.3940
  16   2.0000      -0.993596       -27.0371
  17   2.0000      -0.791059       -21.5258
  18   2.0000      -0.787057       -21.4169
  19   2.0000      -0.771186       -20.9850
  20   2.0000      -0.733684       -19.9646
  21   2.0000      -0.680783       -18.5250
  22   2.0000      -0.608451       -16.5568
  23   2.0000      -0.604844       -16.4586
  24   2.0000      -0.598221       -16.2784
  25   2.0000      -0.576590       -15.6898
  26   2.0000      -0.524054       -14.2602
  27   2.0000      -0.515756       -14.0344
  28   2.0000      -0.501840       -13.6558
  29   2.0000      -0.491705       -13.3800
  30   2.0000      -0.476294       -12.9606
  31   2.0000      -0.462025       -12.5723
  32   2.0000      -0.447471       -12.1763
  33   2.0000      -0.443108       -12.0576
  34   2.0000      -0.429221       -11.6797
  35   2.0000      -0.418415       -11.3856
  36   2.0000      -0.403767       -10.9871
  37   2.0000      -0.393980       -10.7208
  38   2.0000      -0.384941       -10.4748
  39   2.0000      -0.373371       -10.1600
  40   2.0000      -0.366096        -9.9620
  41   2.0000      -0.360868        -9.8197
  42   2.0000      -0.350866        -9.5475
  43   2.0000      -0.332621        -9.0511
  44   2.0000      -0.313634        -8.5344
  45   2.0000      -0.307243        -8.3605
  46   2.0000      -0.289785        -7.8855
  47   2.0000      -0.272927        -7.4267
  48   2.0000      -0.267903        -7.2900
  49   2.0000      -0.251770        -6.8510
  50   2.0000      -0.241238        -6.5644
  51   0.0000       0.061351         1.6695
  52   0.0000       0.074570         2.0291
  53   0.0000       0.081080         2.2063
  54   0.0000       0.095756         2.6057
  55   0.0000       0.100459         2.7336

MULLIKEN ATOMIC CHARGES
-----------------------
   0 C :    0.309298
   1 C :   -0.296547
   2 C :   -0.314124
   3 C :   -0.005594
   4 O :   -0.495074
   5 H :    0.165456
   6 H :    0.160035
   7 H :    0.145184
   8 H :    0.146282
   9 H :    0.150602
  10 H :    0.146359
  11 H :    0.146963
  12 C :    0.001078
  13 H :    0.121424
  14 H :    0.128867
  15 O :   -0.511955
  16 C :    0.071363
  17 C :    0.076964
  18 C :   -0.298039
  19 C :   -0.024882
  20 O :   -0.506041
  21 H :    0.172375
  22 O :   -0.603119
  23 H :    0.146845
  24 H :    0.164190
  25 H :    0.141602
  26 H :    0.147941
  27 H :    0.145142
  28 H :    0.367404
Sum of atomic charges:   -0.0000000

LOEWDIN ATOMIC CHARGES
----------------------
   0 C :    0.178157
   1 C :   -0.231393
   2 C :   -0.223078
   3 C :   -0.032267
   4 O :   -0.316077
   5 H :    0.110829
   6 H :    0.125052
   7 H :    0.115290
   8 H :    0.116253
   9 H :    0.106605
  10 H :    0.104157
  11 H :    0.104650
  12 C :   -0.040778
  13 H :    0.094467
  14 H :    0.094074
  15 O :   -0.313474
  16 C :    0.018063
  17 C :    0.034161
  18 C :   -0.242460
  19 C :   -0.037252
  20 O :   -0.316548
  21 H :    0.123043
  22 O :   -0.414499
  23 H :    0.112303
  24 H :    0.127103
  25 H :    0.111243
  26 H :    0.105182
  27 H :    0.102256
  28 H :    0.284938

  Mayer bond orders larger than 0.100000
B(  0-C ,  1-C ) :   0.9249 B(  0-C ,  4-O ) :   0.9050 B(  0-C ,  5-H ) :   0.9339
B(  0-C , 15-O ) :   0.8973 B(  1-C ,  2-C ) :   0.9519 B(  1-C ,  6-H ) :   0.9348
B(  1-C ,  7-H ) :   0.9344 B(  2-C ,  3-C ) :   0.9463 B(  2-C ,  8-H ) :   0.9450
B(  2-C ,  9-H ) :   0.9361 B(  3-C ,  4-O ) :   0.8510 B(  3-C , 10-H ) :   0.9341
B(  3-C , 11-H ) :   0.9388 B( 12-C , 13-H ) :   0.8944 B( 12-C , 14-H ) :   0.9221
B( 12-C , 15-O ) :   0.8445 B( 12-C , 16-C ) :   0.8974 B( 16-C , 17-C ) :   0.8978
B( 16-C , 20-O ) :   0.8698 B( 16-C , 21-H ) :   0.9227 B( 17-C , 18-C ) :   0.9110
B( 17-C , 22-O ) :   0.8938 B( 17-C , 23-H ) :   0.9334 B( 18-C , 19-C ) :   0.9400
B( 18-C , 24-H ) :   0.9367 B( 18-C , 25-H ) :   0.9344 B( 19-C , 20-O ) :   0.8509
B( 19-C , 26-H ) :   0.9345 B( 19-C , 27-H ) :   0.9378 B( 22-O , 28-H ) :   0.7926

FINAL SINGLE POINT ENERGY      -652.849290060977

DIPOLE MOMENT
-------------
                                X             Y             Z
Electronic contribution:     -3.36053      -4.81688       2.05747
Nuclear contribution   :      4.12892       6.14977      -2.90796
                        -----------------------------------------
Total Dipole Moment    :      0.76839       1.33289      -0.85049
                        -----------------------------------------
Magnitude (a.u.)       :      1.75793
Magnitude (Debye)      :      4.46832

Rotational constants in cm-1:     0.056288     0.012384     0.011806
Rotational constants in MHz :  1687.482257   371.262705   353.934011

                             ****ORCA TERMINATED NORMALLY****
TOTAL RUN TIME: 0 days 1 hours 10 minutes 4 seconds 668 msec
