                         Program Version 4.2.0 -  RELEASE  -
|  1> # Test redundant internal optimization
|  2> #
|  3> ! RKS B3LYP  Opt TightSCF SmallPrint
|  4>
|  5> %basis
|  6>         Basis "6-31G"
|  7> end
|  8>
|  9> %geom
| 10> Constraints
| 11> { D 4  0  15  12  15.0   C } # D for Dihedral angle
| 12> { D 0  15  12  16  90.0   C } # D for Dihedral angle
| 13> { D 0  4  3  2   C } # D for Dihedral angle
| 14> { D 4  3  2  1   C } # D for Dihedral angle
| 15> { D 3  2  1  0   C } # D for Dihedral angle
| 16> { D 2  1  0  4   C } # D for Dihedral angle
| 17> { D 1  0  4  3   C } # D for Dihedral angle
| 18> { D 16  20  19  18   C } # D for Dihedral angle
| 19> { D 20  19  18  17   C } # D for Dihedral angle
| 20> { D 19  18  17  16   C } # D for Dihedral angle
| 21> { D 18  17  16  20   C } # D for Dihedral angle
| 22> { D 17  16  20  19   C } # D for Dihedral angle
| 23> { D 15  12  16  20   C } # D for Dihedral angle
| 24> end
| 25> end
| 26>
| 27>
| 28> #%pal
| 29> #nprocs 8
| 30> #end
| 31>
| 32> * xyz 0 1
| 33> C  -21.048   26.222   46.251
| 34> C  -20.361   27.558   45.944
| 35> C  -20.329   28.222   47.341
| 36> C  -20.110   27.022   48.296
| 37> O  -20.473   25.807   47.535
| 38> H  -20.833   25.428   45.533
| 39> H  -19.344   27.382   45.576
| 40> H  -20.898   28.157   45.201
| 41> H  -19.543   28.978   47.434
| 42> H  -21.289   28.710   47.548
| 43> H  -20.733   27.082   49.195
| 44> H  -19.064   26.913   48.597
| 45> C  -23.128   26.462   47.829
| 46> H  -24.143   26.047   47.857
| 47> H  -22.496   25.869   48.503
| 48> O  -22.586   26.394   46.375
| 49> C  -23.179   27.913   48.384
| 50> C  -24.176   28.773   47.600
| 51> C  -25.525   28.327   48.213
| 52> C  -25.167   28.066   49.698
| 53> O  -23.697   27.919   49.756
| 54> H  -22.165   28.317   48.422
| 55> O  -23.916   30.279   47.882
| 56> H  -24.127   28.613   46.518
| 57> H  -26.312   29.079   48.100
| 58> H  -25.870   27.406   47.730
| 59> H  -25.634   27.155   50.087
| 60> H  -25.433   28.905   50.345
| 61> H  -23.961   30.465   48.962
| 62> *
| 63>
| 64>                          ****END OF INPUT****
 Total Charge           Charge          ....    0
 Multiplicity           Mult            ....    1
 Number of Electrons    NEL             ....  102
FINAL SINGLE POINT ENERGY      -652.814874778659
FINAL SINGLE POINT ENERGY      -652.839351167892
FINAL SINGLE POINT ENERGY      -652.855226672693
FINAL SINGLE POINT ENERGY      -652.857757287650
FINAL SINGLE POINT ENERGY      -652.858115527881
FINAL SINGLE POINT ENERGY      -652.858172779276
FINAL SINGLE POINT ENERGY      -652.858172291697
                    ***********************HURRAY********************

CARTESIAN COORDINATES (ANGSTROEM)
---------------------------------
  C    -21.117881   26.274140   46.412049
  C    -20.385794   27.523011   45.910222
  C    -20.054140   28.255187   47.238091
  C    -19.774185   27.089831   48.215440
  O    -20.377295   25.879708   47.584616
  H    -21.031935   25.438129   45.712566
  H    -19.471927   27.202833   45.398623
  H    -20.991780   28.119323   45.224284
  H    -19.184786   28.913464   47.139730
  H    -20.895190   28.876074   47.553222
  H    -20.218402   27.229123   49.205529
  H    -18.706769   26.881280   48.327183
  C    -23.174097   26.469411   47.918217
  H    -24.157699   26.010696   47.782831
  H    -22.605512   25.862079   48.629807
  O    -22.558429   26.403591   46.597972
  C    -23.321481   27.882054   48.485976
  C    -24.229974   28.822607   47.683232
  C    -25.635129   28.371908   48.151005
  C    -25.414893   27.998540   49.639245
  O    -23.952146   27.806006   49.812071
  H    -22.343906   28.334396   48.652849
  O    -23.956548   30.214919   48.009300
  H    -24.081653   28.739454   46.607045
  H    -26.364919   29.174736   48.016324
  H    -25.967255   27.506308   47.567954
  H    -25.932085   27.078592   49.928670
  H    -25.717173   28.797650   50.323839
  H    -23.917016   30.314951   48.984105

 Multiplicity           Mult            ....    1
 Number of Electrons    NEL             ....  102
 Basis Dimension        Dim             ....  149

ORBITAL ENERGIES
----------------

  NO   OCC          E(Eh)            E(eV)
   0   2.0000     -19.150737      -521.1180
   1   2.0000     -19.146287      -520.9970
   2   2.0000     -19.140366      -520.8358
   3   2.0000     -19.139830      -520.8213
   4   2.0000     -10.279153      -279.7100
   5   2.0000     -10.238570      -278.6057
   6   2.0000     -10.233471      -278.4669
   7   2.0000     -10.233091      -278.4566
   8   2.0000     -10.231649      -278.4173
   9   2.0000     -10.226799      -278.2853
  10   2.0000     -10.191458      -277.3237
  11   2.0000     -10.189992      -277.2838
  12   2.0000     -10.187908      -277.2271
  13   2.0000      -1.053102       -28.6564
  14   2.0000      -1.037127       -28.2217
  15   2.0000      -1.006984       -27.4014
  16   2.0000      -0.993199       -27.0263
  17   2.0000      -0.790513       -21.5110
  18   2.0000      -0.782288       -21.2871
  19   2.0000      -0.770167       -20.9573
  20   2.0000      -0.734617       -19.9899
  21   2.0000      -0.675753       -18.3882
  22   2.0000      -0.606141       -16.4939
  23   2.0000      -0.604979       -16.4623
  24   2.0000      -0.602913       -16.4061
  25   2.0000      -0.571614       -15.5544
  26   2.0000      -0.527655       -14.3582
  27   2.0000      -0.505915       -13.7666
  28   2.0000      -0.499962       -13.6047
  29   2.0000      -0.492941       -13.4136
  30   2.0000      -0.475471       -12.9382
  31   2.0000      -0.460662       -12.5353
  32   2.0000      -0.454519       -12.3681
  33   2.0000      -0.432714       -11.7747
  34   2.0000      -0.424545       -11.5524
  35   2.0000      -0.417316       -11.3557
  36   2.0000      -0.403991       -10.9931
  37   2.0000      -0.393660       -10.7120
  38   2.0000      -0.377220       -10.2647
  39   2.0000      -0.369260       -10.0481
  40   2.0000      -0.361518        -9.8374
  41   2.0000      -0.358467        -9.7544
  42   2.0000      -0.348681        -9.4881
  43   2.0000      -0.335903        -9.1404
  44   2.0000      -0.326782        -8.8922
  45   2.0000      -0.312949        -8.5158
  46   2.0000      -0.303894        -8.2694
  47   2.0000      -0.273565        -7.4441
  48   2.0000      -0.266714        -7.2577
  49   2.0000      -0.262739        -7.1495
  50   2.0000      -0.236605        -6.4384
  51   0.0000       0.061217         1.6658
  52   0.0000       0.074217         2.0195
  53   0.0000       0.086788         2.3616
  54   0.0000       0.094044         2.5591
  55   0.0000       0.099270         2.7013

MULLIKEN ATOMIC CHARGES
-----------------------
   0 C :    0.309518
   1 C :   -0.263908
   2 C :   -0.327062
   3 C :   -0.024415
   4 O :   -0.510807
   5 H :    0.160238
   6 H :    0.150447
   7 H :    0.158533
   8 H :    0.148942
   9 H :    0.171092
  10 H :    0.154092
  11 H :    0.153693
  12 C :   -0.024946
  13 H :    0.146958
  14 H :    0.173606
  15 O :   -0.538780
  16 C :    0.044695
  17 C :    0.087281
  18 C :   -0.308519
  19 C :   -0.030837
  20 O :   -0.526759
  21 H :    0.154747
  22 O :   -0.604427
  23 H :    0.172958
  24 H :    0.162921
  25 H :    0.154283
  26 H :    0.148382
  27 H :    0.146760
  28 H :    0.361314
Sum of atomic charges:   -0.0000000

LOEWDIN ATOMIC CHARGES
----------------------
   0 C :    0.182170
   1 C :   -0.222786
   2 C :   -0.226338
   3 C :   -0.035020
   4 O :   -0.316929
   5 H :    0.106008
   6 H :    0.118184
   7 H :    0.124720
   8 H :    0.118371
   9 H :    0.116672
  10 H :    0.105965
  11 H :    0.108851
  12 C :   -0.042281
  13 H :    0.109343
  14 H :    0.119127
  15 O :   -0.340777
  16 C :   -0.000166
  17 C :    0.035246
  18 C :   -0.242717
  19 C :   -0.038586
  20 O :   -0.330335
  21 H :    0.108826
  22 O :   -0.416516
  23 H :    0.125332
  24 H :    0.126817
  25 H :    0.118226
  26 H :    0.105145
  27 H :    0.102280
  28 H :    0.281168

  Mayer bond orders larger than 0.100000
B(  0-C ,  1-C ) :   0.9197 B(  0-C ,  4-O ) :   0.9119 B(  0-C ,  5-H ) :   0.9341
B(  0-C , 15-O ) :   0.8538 B(  1-C ,  2-C ) :   0.9536 B(  1-C ,  6-H ) :   0.9346
B(  1-C ,  7-H ) :   0.9359 B(  2-C ,  3-C ) :   0.9511 B(  2-C ,  8-H ) :   0.9436
B(  2-C ,  9-H ) :   0.9237 B(  3-C ,  4-O ) :   0.8304 B(  3-C , 10-H ) :   0.9293
B(  3-C , 11-H ) :   0.9385 B( 12-C , 13-H ) :   0.9388 B( 12-C , 14-H ) :   0.9118
B( 12-C , 15-O ) :   0.8418 B( 12-C , 16-C ) :   0.8768 B( 16-C , 17-C ) :   0.9067
B( 16-C , 20-O ) :   0.8335 B( 16-C , 21-H ) :   0.9132 B( 17-C , 18-C ) :   0.9162
B( 17-C , 22-O ) :   0.8879 B( 17-C , 23-H ) :   0.9248 B( 18-C , 19-C ) :   0.9420
B( 18-C , 24-H ) :   0.9373 B( 18-C , 25-H ) :   0.9324 B( 19-C , 20-O ) :   0.8438
B( 19-C , 26-H ) :   0.9351 B( 19-C , 27-H ) :   0.9373 B( 22-O , 28-H ) :   0.7974

FINAL SINGLE POINT ENERGY      -652.858171779544

DIPOLE MOMENT
-------------
                                X             Y             Z
Electronic contribution:     -0.33254      -1.97361       0.35746
Nuclear contribution   :      0.29178       2.31431      -0.27410
                        -----------------------------------------
Total Dipole Moment    :     -0.04077       0.34069       0.08336
                        -----------------------------------------
Magnitude (a.u.)       :      0.35310
Magnitude (Debye)      :      0.89752

Rotational constants in cm-1:     0.048644     0.015703     0.014949
Rotational constants in MHz :  1458.311750   470.753827   448.174722

                             ****ORCA TERMINATED NORMALLY****
TOTAL RUN TIME: 0 days 0 hours 17 minutes 47 seconds 525 msec
