                         Program Version 4.2.0 -  RELEASE  -
|  1> # Test redundant internal optimization
|  2> #
|  3> ! RKS B3LYP  Opt TightSCF SmallPrint
|  4>
|  5> %basis
|  6>         Basis "6-31G"
|  7> end
|  8>
|  9> %geom
| 10> Constraints
| 11> { D 4  0  15  12  135.0   C } # D for Dihedral angle
| 12> { D 0  15  12  16  240.0   C } # D for Dihedral angle
| 13> { D 0  4  3  2   C } # D for Dihedral angle
| 14> { D 4  3  2  1   C } # D for Dihedral angle
| 15> { D 3  2  1  0   C } # D for Dihedral angle
| 16> { D 2  1  0  4   C } # D for Dihedral angle
| 17> { D 1  0  4  3   C } # D for Dihedral angle
| 18> { D 16  20  19  18   C } # D for Dihedral angle
| 19> { D 20  19  18  17   C } # D for Dihedral angle
| 20> { D 19  18  17  16   C } # D for Dihedral angle
| 21> { D 18  17  16  20   C } # D for Dihedral angle
| 22> { D 17  16  20  19   C } # D for Dihedral angle
| 23> { D 15  12  16  20   C } # D for Dihedral angle
| 24> end
| 25> end
| 26>
| 27>
| 28> #%pal
| 29> #nprocs 8
| 30> #end
| 31>
| 32> * xyz 0 1
| 33> C  -21.048   26.222   46.251
| 34> C  -20.361   27.558   45.944
| 35> C  -20.329   28.222   47.341
| 36> C  -20.110   27.022   48.296
| 37> O  -20.473   25.807   47.535
| 38> H  -20.833   25.428   45.533
| 39> H  -19.344   27.382   45.576
| 40> H  -20.898   28.157   45.201
| 41> H  -19.543   28.978   47.434
| 42> H  -21.289   28.710   47.548
| 43> H  -20.733   27.082   49.195
| 44> H  -19.064   26.913   48.597
| 45> C  -23.162   27.680   45.721
| 46> H  -22.344   28.251   45.264
| 47> H  -23.881   27.421   44.933
| 48> O  -22.586   26.394   46.375
| 49> C  -23.889   28.599   46.741
| 50> C  -24.992   27.839   47.487
| 51> C  -24.175   27.056   48.542
| 52> C  -23.027   28.034   48.895
| 53> O  -22.965   29.024   47.797
| 54> H  -24.229   29.502   46.230
| 55> O  -25.957   28.842   48.175
| 56> H  -25.581   27.185   46.835
| 57> H  -24.769   26.776   49.418
| 58> H  -23.775   26.135   48.101
| 59> H  -22.058   27.532   48.980
| 60> H  -23.220   28.589   49.818
| 61> H  -25.389   29.508   48.834
| 62> *
| 63>
| 64>                          ****END OF INPUT****
 Total Charge           Charge          ....    0
 Multiplicity           Mult            ....    1
 Number of Electrons    NEL             ....  102
FINAL SINGLE POINT ENERGY      -652.798244944161
FINAL SINGLE POINT ENERGY      -652.833608852799
FINAL SINGLE POINT ENERGY      -652.850408396839
FINAL SINGLE POINT ENERGY      -652.854012709312
FINAL SINGLE POINT ENERGY      -652.854615686022
FINAL SINGLE POINT ENERGY      -652.854741666104
FINAL SINGLE POINT ENERGY      -652.854786090633
FINAL SINGLE POINT ENERGY      -652.854791088433
                    ***********************HURRAY********************

CARTESIAN COORDINATES (ANGSTROEM)
---------------------------------
  C    -21.045391   26.353261   46.186875
  C    -20.151361   27.551457   45.853684
  C    -19.952246   28.207909   47.248925
  C    -19.909876   26.983526   48.191205
  O    -20.511310   25.861661   47.425135
  H    -20.926317   25.525045   45.482855
  H    -19.204435   27.152935   45.473754
  H    -20.544503   28.239448   45.101955
  H    -19.034121   28.800585   47.300645
  H    -20.803728   28.853159   47.486005
  H    -20.463447   27.127584   49.120762
  H    -18.888891   26.673956   48.434570
  C    -23.182619   27.726206   45.779496
  H    -22.480690   28.412560   45.295364
  H    -23.897859   27.392455   45.015446
  O    -22.496376   26.545262   46.276336
  C    -23.957521   28.513579   46.840057
  C    -25.109647   27.773464   47.534989
  C    -24.372586   27.075780   48.706503
  C    -23.280496   28.095992   49.096789
  O    -23.139098   29.024463   47.939778
  H    -24.360868   29.395516   46.324977
  O    -26.125660   28.710842   47.992305
  H    -25.637289   27.077459   46.882531
  H    -25.061614   26.850409   49.524536
  H    -23.914327   26.152405   48.344505
  H    -22.321898   27.619414   49.292330
  H    -23.556472   28.712350   49.958833
  H    -25.693352   29.439316   48.485853

 Multiplicity           Mult            ....    1
 Number of Electrons    NEL             ....  102
 Basis Dimension        Dim             ....  149

ORBITAL ENERGIES
----------------

  NO   OCC          E(Eh)            E(eV)
   0   2.0000     -19.148623      -521.0605
   1   2.0000     -19.143816      -520.9297
   2   2.0000     -19.143017      -520.9080
   3   2.0000     -19.135748      -520.7102
   4   2.0000     -10.282312      -279.7959
   5   2.0000     -10.237757      -278.5835
   6   2.0000     -10.237200      -278.5684
   7   2.0000     -10.236281      -278.5434
   8   2.0000     -10.227855      -278.3141
   9   2.0000     -10.226602      -278.2800
  10   2.0000     -10.193383      -277.3761
  11   2.0000     -10.184116      -277.1239
  12   2.0000     -10.177274      -276.9377
  13   2.0000      -1.050956       -28.5980
  14   2.0000      -1.036071       -28.1929
  15   2.0000      -1.005628       -27.3645
  16   2.0000      -0.994854       -27.0714
  17   2.0000      -0.787617       -21.4321
  18   2.0000      -0.780520       -21.2390
  19   2.0000      -0.767936       -20.8966
  20   2.0000      -0.736641       -20.0450
  21   2.0000      -0.680439       -18.5157
  22   2.0000      -0.606546       -16.5050
  23   2.0000      -0.600935       -16.3523
  24   2.0000      -0.598711       -16.2918
  25   2.0000      -0.568825       -15.4785
  26   2.0000      -0.526479       -14.3262
  27   2.0000      -0.506835       -13.7917
  28   2.0000      -0.497574       -13.5397
  29   2.0000      -0.496260       -13.5039
  30   2.0000      -0.472854       -12.8670
  31   2.0000      -0.460499       -12.5308
  32   2.0000      -0.447150       -12.1676
  33   2.0000      -0.442986       -12.0543
  34   2.0000      -0.425000       -11.5648
  35   2.0000      -0.413941       -11.2639
  36   2.0000      -0.405097       -11.0232
  37   2.0000      -0.389968       -10.6116
  38   2.0000      -0.380155       -10.3445
  39   2.0000      -0.366754        -9.9799
  40   2.0000      -0.360205        -9.8017
  41   2.0000      -0.357926        -9.7397
  42   2.0000      -0.350529        -9.5384
  43   2.0000      -0.329526        -8.9669
  44   2.0000      -0.317204        -8.6316
  45   2.0000      -0.309110        -8.4113
  46   2.0000      -0.293563        -7.9883
  47   2.0000      -0.276316        -7.5189
  48   2.0000      -0.265925        -7.2362
  49   2.0000      -0.258566        -7.0360
  50   2.0000      -0.241497        -6.5715
  51   0.0000       0.062565         1.7025
  52   0.0000       0.080375         2.1871
  53   0.0000       0.095099         2.5878
  54   0.0000       0.098176         2.6715
  55   0.0000       0.101131         2.7519

MULLIKEN ATOMIC CHARGES
-----------------------
   0 C :    0.328730
   1 C :   -0.307894
   2 C :   -0.324512
   3 C :   -0.011111
   4 O :   -0.502094
   5 H :    0.155229
   6 H :    0.156269
   7 H :    0.146840
   8 H :    0.140328
   9 H :    0.195243
  10 H :    0.144364
  11 H :    0.144033
  12 C :   -0.012095
  13 H :    0.136729
  14 H :    0.143736
  15 O :   -0.535371
  16 C :    0.082702
  17 C :    0.075575
  18 C :   -0.293000
  19 C :   -0.036160
  20 O :   -0.529327
  21 H :    0.152385
  22 O :   -0.603836
  23 H :    0.157070
  24 H :    0.152361
  25 H :    0.187706
  26 H :    0.156480
  27 H :    0.138404
  28 H :    0.361218
Sum of atomic charges:    0.0000000

LOEWDIN ATOMIC CHARGES
----------------------
   0 C :    0.185642
   1 C :   -0.231361
   2 C :   -0.229872
   3 C :   -0.029888
   4 O :   -0.309575
   5 H :    0.101745
   6 H :    0.122011
   7 H :    0.114562
   8 H :    0.114151
   9 H :    0.131093
  10 H :    0.099079
  11 H :    0.102798
  12 C :   -0.037580
  13 H :    0.101679
  14 H :    0.106516
  15 O :   -0.339584
  16 C :    0.007915
  17 C :    0.038087
  18 C :   -0.240266
  19 C :   -0.035329
  20 O :   -0.331812
  21 H :    0.114518
  22 O :   -0.417336
  23 H :    0.118661
  24 H :    0.121173
  25 H :    0.137192
  26 H :    0.107105
  27 H :    0.097761
  28 H :    0.280911

  Mayer bond orders larger than 0.100000
B(  0-C ,  1-C ) :   0.9299 B(  0-C ,  4-O ) :   0.9249 B(  0-C ,  5-H ) :   0.9321
B(  0-C , 15-O ) :   0.8470 B(  1-C ,  2-C ) :   0.9526 B(  1-C ,  6-H ) :   0.9328
B(  1-C ,  7-H ) :   0.9250 B(  2-C ,  3-C ) :   0.9548 B(  2-C ,  8-H ) :   0.9451
B(  2-C ,  9-H ) :   0.9116 B(  3-C ,  4-O ) :   0.8380 B(  3-C , 10-H ) :   0.9187
B(  3-C , 11-H ) :   0.9394 B( 12-C , 13-H ) :   0.9094 B( 12-C , 14-H ) :   0.9191
B( 12-C , 15-O ) :   0.8651 B( 12-C , 16-C ) :   0.8915 B( 16-C , 17-C ) :   0.9109
B( 16-C , 20-O ) :   0.8632 B( 16-C , 21-H ) :   0.9174 B( 17-C , 18-C ) :   0.9241
B( 17-C , 22-O ) :   0.8898 B( 17-C , 23-H ) :   0.9350 B( 18-C , 19-C ) :   0.9476
B( 18-C , 24-H ) :   0.9365 B( 18-C , 25-H ) :   0.9164 B( 19-C , 20-O ) :   0.8328
B( 19-C , 26-H ) :   0.9161 B( 19-C , 27-H ) :   0.9384 B( 22-O , 28-H ) :   0.7976

FINAL SINGLE POINT ENERGY      -652.854790863132

DIPOLE MOMENT
-------------
                                X             Y             Z
Electronic contribution:     -3.32490      -1.38233      -0.58791
Nuclear contribution   :      4.15065       2.00519       0.32410
                        -----------------------------------------
Total Dipole Moment    :      0.82575       0.62286      -0.26381
                        -----------------------------------------
Magnitude (a.u.)       :      1.06744
Magnitude (Debye)      :      2.71321

Rotational constants in cm-1:     0.051834     0.017108     0.016076
Rotational constants in MHz :  1553.952016   512.885615   481.946332

                             ****ORCA TERMINATED NORMALLY****
TOTAL RUN TIME: 0 days 0 hours 53 minutes 25 seconds 458 msec
