                         Program Version 4.2.0 -  RELEASE  -
|  1> # Test redundant internal optimization
|  2> #
|  3> ! RKS B3LYP  Opt TightSCF SmallPrint
|  4>
|  5> %basis
|  6>         Basis "6-31G"
|  7> end
|  8>
|  9> %geom
| 10> Constraints
| 11> { D 4  0  15  12  195.0   C } # D for Dihedral angle
| 12> { D 0  15  12  16  120.0   C } # D for Dihedral angle
| 13> { D 0  4  3  2   C } # D for Dihedral angle
| 14> { D 4  3  2  1   C } # D for Dihedral angle
| 15> { D 3  2  1  0   C } # D for Dihedral angle
| 16> { D 2  1  0  4   C } # D for Dihedral angle
| 17> { D 1  0  4  3   C } # D for Dihedral angle
| 18> { D 16  20  19  18   C } # D for Dihedral angle
| 19> { D 20  19  18  17   C } # D for Dihedral angle
| 20> { D 19  18  17  16   C } # D for Dihedral angle
| 21> { D 18  17  16  20   C } # D for Dihedral angle
| 22> { D 17  16  20  19   C } # D for Dihedral angle
| 23> { D 15  12  16  20   C } # D for Dihedral angle
| 24> end
| 25> end
| 26>
| 27>
| 28> #%pal
| 29> #nprocs 8
| 30> #end
| 31>
| 32> * xyz 0 1
| 33> C  -21.048   26.222   46.251
| 34> C  -20.361   27.558   45.944
| 35> C  -20.329   28.222   47.341
| 36> C  -20.110   27.022   48.296
| 37> O  -20.473   25.807   47.535
| 38> H  -20.833   25.428   45.533
| 39> H  -19.344   27.382   45.576
| 40> H  -20.898   28.157   45.201
| 41> H  -19.543   28.978   47.434
| 42> H  -21.289   28.710   47.548
| 43> H  -20.733   27.082   49.195
| 44> H  -19.064   26.913   48.597
| 45> C  -23.353   26.472   45.026
| 46> H  -23.872   27.437   44.960
| 47> H  -22.654   26.400   44.183
| 48> O  -22.586   26.394   46.375
| 49> C  -24.405   25.340   44.867
| 50> C  -25.521   25.467   45.910
| 51> C  -26.400   26.581   45.294
| 52> C  -26.289   26.315   43.771
| 53> O  -25.097   25.461   43.580
| 54> H  -23.894   24.375   44.866
| 55> H  -26.080   24.526   45.978
| 56> O  -24.995   25.827   47.326
| 57> H  -27.435   26.549   45.648
| 58> H  -25.990   27.566   45.546
| 59> H  -26.166   27.237   43.193
| 60> H  -27.148   25.764   43.380
| 61> H  -24.432   26.766   47.281
| 62> *
| 63>
| 64>                          ****END OF INPUT****
 Total Charge           Charge          ....    0
 Multiplicity           Mult            ....    1
 Number of Electrons    NEL             ....  102
FINAL SINGLE POINT ENERGY      -652.829028890952
FINAL SINGLE POINT ENERGY      -652.853238238223
FINAL SINGLE POINT ENERGY      -652.859315258074
FINAL SINGLE POINT ENERGY      -652.861731449664
FINAL SINGLE POINT ENERGY      -652.863274724412
FINAL SINGLE POINT ENERGY      -652.864262685957
FINAL SINGLE POINT ENERGY      -652.864847190354
FINAL SINGLE POINT ENERGY      -652.865026399411
FINAL SINGLE POINT ENERGY      -652.865051926361
FINAL SINGLE POINT ENERGY      -652.865057045991
                    ***********************HURRAY********************

CARTESIAN COORDINATES (ANGSTROEM)
---------------------------------
  C    -21.115591   26.223751   46.185633
  C    -20.352306   27.516992   45.915269
  C    -20.415054   28.220142   47.291749
  C    -20.333042   27.044444   48.285189
  O    -20.686504   25.831547   47.491007
  H    -20.910919   25.397044   45.499105
  H    -19.318463   27.272681   45.644437
  H    -20.787602   28.113896   45.108764
  H    -19.603911   28.940916   47.430385
  H    -21.367568   28.748089   47.395417
  H    -21.034165   27.127100   49.118616
  H    -19.323933   26.876259   48.670798
  C    -23.271370   26.541274   44.955925
  H    -23.719801   27.537147   44.880014
  H    -22.579408   26.409037   44.115870
  O    -22.560425   26.459462   46.238908
  C    -24.333840   25.437579   44.915382
  C    -25.432015   25.562205   45.984571
  C    -26.364210   26.635677   45.353622
  C    -26.282029   26.330168   43.844076
  O    -25.055457   25.498197   43.646626
  H    -23.836721   24.463251   44.950308
  H    -25.966154   24.606124   46.045175
  O    -24.991477   25.910667   47.310547
  H    -27.382398   26.571468   45.745501
  H    -25.970988   27.628069   45.598740
  H    -26.199675   27.227229   43.222811
  H    -27.123822   25.729696   43.487390
  H    -24.023151   26.097890   47.303165

 Multiplicity           Mult            ....    1
 Number of Electrons    NEL             ....  102
 Basis Dimension        Dim             ....  149

ORBITAL ENERGIES
----------------

  NO   OCC          E(Eh)            E(eV)
   0   2.0000     -19.161705      -521.4165
   1   2.0000     -19.153037      -521.1806
   2   2.0000     -19.140394      -520.8366
   3   2.0000     -19.108930      -519.9804
   4   2.0000     -10.294128      -280.1175
   5   2.0000     -10.240889      -278.6688
   6   2.0000     -10.234074      -278.4833
   7   2.0000     -10.233494      -278.4675
   8   2.0000     -10.228260      -278.3251
   9   2.0000     -10.226240      -278.2701
  10   2.0000     -10.197073      -277.4765
  11   2.0000     -10.195038      -277.4211
  12   2.0000     -10.177655      -276.9481
  13   2.0000      -1.067012       -29.0349
  14   2.0000      -1.025327       -27.9006
  15   2.0000      -1.007991       -27.4288
  16   2.0000      -0.988892       -26.9091
  17   2.0000      -0.796770       -21.6812
  18   2.0000      -0.773361       -21.0442
  19   2.0000      -0.767077       -20.8732
  20   2.0000      -0.738420       -20.0934
  21   2.0000      -0.680934       -18.5292
  22   2.0000      -0.610379       -16.6092
  23   2.0000      -0.601455       -16.3664
  24   2.0000      -0.595372       -16.2009
  25   2.0000      -0.578348       -15.7377
  26   2.0000      -0.529134       -14.3985
  27   2.0000      -0.523285       -14.2393
  28   2.0000      -0.500644       -13.6232
  29   2.0000      -0.489110       -13.3094
  30   2.0000      -0.474254       -12.9051
  31   2.0000      -0.461435       -12.5563
  32   2.0000      -0.449064       -12.2197
  33   2.0000      -0.433719       -11.8021
  34   2.0000      -0.427253       -11.6262
  35   2.0000      -0.413073       -11.2403
  36   2.0000      -0.412639       -11.2285
  37   2.0000      -0.385758       -10.4970
  38   2.0000      -0.383468       -10.4347
  39   2.0000      -0.370400       -10.0791
  40   2.0000      -0.366019        -9.9599
  41   2.0000      -0.364303        -9.9132
  42   2.0000      -0.347832        -9.4650
  43   2.0000      -0.342629        -9.3234
  44   2.0000      -0.321965        -8.7611
  45   2.0000      -0.321381        -8.7452
  46   2.0000      -0.281712        -7.6658
  47   2.0000      -0.279705        -7.6112
  48   2.0000      -0.268932        -7.3180
  49   2.0000      -0.245032        -6.6677
  50   2.0000      -0.239999        -6.5307
  51   0.0000       0.058239         1.5848
  52   0.0000       0.078019         2.1230
  53   0.0000       0.088210         2.4003
  54   0.0000       0.097726         2.6593
  55   0.0000       0.105240         2.8637

MULLIKEN ATOMIC CHARGES
-----------------------
   0 C :    0.305254
   1 C :   -0.269403
   2 C :   -0.299792
   3 C :   -0.008099
   4 O :   -0.501417
   5 H :    0.151206
   6 H :    0.151089
   7 H :    0.148259
   8 H :    0.147350
   9 H :    0.162628
  10 H :    0.161382
  11 H :    0.148520
  12 C :   -0.031027
  13 H :    0.152334
  14 H :    0.150982
  15 O :   -0.551087
  16 C :    0.057880
  17 C :    0.127226
  18 C :   -0.296771
  19 C :   -0.023218
  20 O :   -0.523296
  21 H :    0.154181
  22 H :    0.142866
  23 O :   -0.643912
  24 H :    0.151357
  25 H :    0.143987
  26 H :    0.141791
  27 H :    0.149415
  28 H :    0.400316
Sum of atomic charges:   -0.0000000

LOEWDIN ATOMIC CHARGES
----------------------
   0 C :    0.183134
   1 C :   -0.228352
   2 C :   -0.216358
   3 C :   -0.024863
   4 O :   -0.300690
   5 H :    0.102569
   6 H :    0.117398
   7 H :    0.116986
   8 H :    0.117319
   9 H :    0.119338
  10 H :    0.112915
  11 H :    0.106293
  12 C :   -0.047324
  13 H :    0.107487
  14 H :    0.109585
  15 O :   -0.347969
  16 C :    0.013496
  17 C :    0.043203
  18 C :   -0.234020
  19 C :   -0.032972
  20 O :   -0.326749
  21 H :    0.112671
  22 H :    0.102345
  23 O :   -0.436097
  24 H :    0.121495
  25 H :    0.110856
  26 H :    0.101477
  27 H :    0.106086
  28 H :    0.290740

  Mayer bond orders larger than 0.100000
B(  0-C ,  1-C ) :   0.9328 B(  0-C ,  4-O ) :   0.9530 B(  0-C ,  5-H ) :   0.9205
B(  0-C , 15-O ) :   0.7887 B(  1-C ,  2-C ) :   0.9507 B(  1-C ,  6-H ) :   0.9332
B(  1-C ,  7-H ) :   0.9353 B(  2-C ,  3-C ) :   0.9553 B(  2-C ,  8-H ) :   0.9444
B(  2-C ,  9-H ) :   0.9441 B(  3-C ,  4-O ) :   0.8263 B(  3-C , 10-H ) :   0.9339
B(  3-C , 11-H ) :   0.9395 B( 12-C , 13-H ) :   0.9299 B( 12-C , 14-H ) :   0.9250
B( 12-C , 15-O ) :   0.7926 B( 12-C , 16-C ) :   0.8917 B( 16-C , 17-C ) :   0.9157
B( 16-C , 20-O ) :   0.8534 B( 16-C , 21-H ) :   0.9314 B( 17-C , 18-C ) :   0.9031
B( 17-C , 22-H ) :   0.9291 B( 17-C , 23-O ) :   0.9353 B( 18-C , 19-C ) :   0.9386
B( 18-C , 24-H ) :   0.9450 B( 18-C , 25-H ) :   0.9433 B( 19-C , 20-O ) :   0.8330
B( 19-C , 26-H ) :   0.9343 B( 19-C , 27-H ) :   0.9386 B( 23-O , 28-H ) :   0.7211

FINAL SINGLE POINT ENERGY      -652.865057960214

DIPOLE MOMENT
-------------
                                X             Y             Z
Electronic contribution:     -0.64435      -4.81128       0.57243
Nuclear contribution   :      1.51825       6.00839      -1.17933
                        -----------------------------------------
Total Dipole Moment    :      0.87390       1.19710      -0.60689
                        -----------------------------------------
Magnitude (a.u.)       :      1.60158
Magnitude (Debye)      :      4.07090

Rotational constants in cm-1:     0.059833     0.013006     0.012083
Rotational constants in MHz :  1793.752580   389.923859   362.252608

                             ****ORCA TERMINATED NORMALLY****
TOTAL RUN TIME: 0 days 0 hours 56 minutes 7 seconds 406 msec
