                         Program Version 4.2.0 -  RELEASE  -
|  1> # Test redundant internal optimization
|  2> #
|  3> ! RKS B3LYP  Opt TightSCF SmallPrint
|  4>
|  5> %basis
|  6>         Basis "6-31G"
|  7> end
|  8>
|  9> %geom
| 10> Constraints
| 11> { D 4  0  15  12  240.0   C } # D for Dihedral angle
| 12> { D 0  15  12  16  255.0   C } # D for Dihedral angle
| 13> { D 0  4  3  2   C } # D for Dihedral angle
| 14> { D 4  3  2  1   C } # D for Dihedral angle
| 15> { D 3  2  1  0   C } # D for Dihedral angle
| 16> { D 2  1  0  4   C } # D for Dihedral angle
| 17> { D 1  0  4  3   C } # D for Dihedral angle
| 18> { D 16  20  19  18   C } # D for Dihedral angle
| 19> { D 20  19  18  17   C } # D for Dihedral angle
| 20> { D 19  18  17  16   C } # D for Dihedral angle
| 21> { D 18  17  16  20   C } # D for Dihedral angle
| 22> { D 17  16  20  19   C } # D for Dihedral angle
| 23> { D 15  12  16  20   C } # D for Dihedral angle
| 24> end
| 25> end
| 26>
| 27>
| 28> #%pal
| 29> #nprocs 8
| 30> #end
| 31>
| 32> * xyz 0 1
| 33> C  -21.048   26.222   46.251
| 34> C  -20.361   27.558   45.944
| 35> C  -20.329   28.222   47.341
| 36> C  -20.110   27.022   48.296
| 37> O  -20.473   25.807   47.535
| 38> H  -20.833   25.428   45.533
| 39> H  -19.344   27.382   45.576
| 40> H  -20.898   28.157   45.201
| 41> H  -19.543   28.978   47.434
| 42> H  -21.289   28.710   47.548
| 43> H  -20.733   27.082   49.195
| 44> H  -19.064   26.913   48.597
| 45> C  -23.430   25.483   45.442
| 46> H  -22.795   24.678   45.051
| 47> H  -24.259   25.026   45.998
| 48> O  -22.586   26.394   46.375
| 49> C  -24.037   26.254   44.238
| 50> C  -24.955   25.353   43.405
| 51> C  -26.248   25.351   44.255
| 52> C  -26.286   26.786   44.839
| 53> O  -24.917   27.329   44.709
| 54> H  -23.231   26.725   43.671
| 55> O  -25.214   25.994   42.014
| 56> H  -24.547   24.348   43.252
| 57> H  -27.142   25.116   43.668
| 58> H  -26.170   24.609   45.058
| 59> H  -26.579   26.801   45.895
| 60> H  -26.951   27.448   44.277
| 61> H  -25.624   27.002   42.144
| 62> *
| 63>
| 64>                          ****END OF INPUT****
 Total Charge           Charge          ....    0
 Multiplicity           Mult            ....    1
 Number of Electrons    NEL             ....  102
FINAL SINGLE POINT ENERGY      -652.832113982913
FINAL SINGLE POINT ENERGY      -652.854760770392
FINAL SINGLE POINT ENERGY      -652.858700089717
FINAL SINGLE POINT ENERGY      -652.859380247310
FINAL SINGLE POINT ENERGY      -652.859463736621
FINAL SINGLE POINT ENERGY      -652.859474362144
FINAL SINGLE POINT ENERGY      -652.859475592740
                    ***********************HURRAY********************

CARTESIAN COORDINATES (ANGSTROEM)
---------------------------------
  C    -21.069618   26.174892   46.170547
  C    -20.473738   27.552466   45.882207
  C    -20.491961   28.208220   47.283937
  C    -20.198804   27.019083   48.224835
  O    -20.484069   25.796261   47.431861
  H    -20.817652   25.388882   45.450978
  H    -19.445247   27.436415   45.519226
  H    -21.053492   28.107134   45.141350
  H    -19.756290   29.011868   47.383649
  H    -21.486746   28.618570   47.480543
  H    -20.829664   27.011867   49.116942
  H    -19.147543   26.960748   48.522982
  C    -23.348645   25.445592   45.479183
  H    -22.766144   24.603535   45.073035
  H    -24.120223   25.038595   46.141336
  O    -22.508920   26.294663   46.300482
  C    -23.983714   26.228035   44.327044
  C    -24.926543   25.386927   43.454761
  C    -26.238501   25.422123   44.283056
  C    -26.222904   26.843399   44.899825
  O    -24.824436   27.327970   44.806807
  H    -23.194525   26.685696   43.721621
  O    -25.097264   25.990042   42.142743
  H    -24.567791   24.375331   43.259136
  H    -27.104000   25.242543   43.640392
  H    -26.219974   24.648689   45.059195
  H    -26.533388   26.853443   45.948739
  H    -26.847318   27.550160   44.344441
  H    -25.236887   26.954852   42.251149

 Multiplicity           Mult            ....    1
 Number of Electrons    NEL             ....  102
 Basis Dimension        Dim             ....  149

ORBITAL ENERGIES
----------------

  NO   OCC          E(Eh)            E(eV)
   0   2.0000     -19.142933      -520.9057
   1   2.0000     -19.141578      -520.8688
   2   2.0000     -19.139055      -520.8002
   3   2.0000     -19.134722      -520.6822
   4   2.0000     -10.277667      -279.6695
   5   2.0000     -10.245911      -278.8054
   6   2.0000     -10.235784      -278.5299
   7   2.0000     -10.235546      -278.5234
   8   2.0000     -10.232223      -278.4329
   9   2.0000     -10.220069      -278.1022
  10   2.0000     -10.192703      -277.3576
  11   2.0000     -10.180802      -277.0337
  12   2.0000     -10.180100      -277.0146
  13   2.0000      -1.050153       -28.5761
  14   2.0000      -1.037940       -28.2438
  15   2.0000      -1.008614       -27.4458
  16   2.0000      -0.991610       -26.9831
  17   2.0000      -0.788623       -21.4595
  18   2.0000      -0.780520       -21.2390
  19   2.0000      -0.767754       -20.8916
  20   2.0000      -0.730108       -19.8672
  21   2.0000      -0.675046       -18.3689
  22   2.0000      -0.607578       -16.5330
  23   2.0000      -0.598919       -16.2974
  24   2.0000      -0.593391       -16.1470
  25   2.0000      -0.580583       -15.7985
  26   2.0000      -0.527010       -14.3407
  27   2.0000      -0.513453       -13.9718
  28   2.0000      -0.494569       -13.4579
  29   2.0000      -0.488940       -13.3047
  30   2.0000      -0.472534       -12.8583
  31   2.0000      -0.456522       -12.4226
  32   2.0000      -0.450402       -12.2561
  33   2.0000      -0.445029       -12.1098
  34   2.0000      -0.425613       -11.5815
  35   2.0000      -0.412450       -11.2233
  36   2.0000      -0.397960       -10.8290
  37   2.0000      -0.394813       -10.7434
  38   2.0000      -0.375272       -10.2117
  39   2.0000      -0.366537        -9.9740
  40   2.0000      -0.361523        -9.8375
  41   2.0000      -0.352494        -9.5919
  42   2.0000      -0.347623        -9.4593
  43   2.0000      -0.333302        -9.0696
  44   2.0000      -0.314652        -8.5621
  45   2.0000      -0.310644        -8.4530
  46   2.0000      -0.301370        -8.2007
  47   2.0000      -0.273930        -7.4540
  48   2.0000      -0.267445        -7.2776
  49   2.0000      -0.253137        -6.8882
  50   2.0000      -0.235735        -6.4147
  51   0.0000       0.063403         1.7253
  52   0.0000       0.080083         2.1792
  53   0.0000       0.087602         2.3838
  54   0.0000       0.093557         2.5458
  55   0.0000       0.102106         2.7784

MULLIKEN ATOMIC CHARGES
-----------------------
   0 C :    0.278062
   1 C :   -0.253214
   2 C :   -0.300956
   3 C :   -0.000664
   4 O :   -0.502909
   5 H :    0.136600
   6 H :    0.140205
   7 H :    0.152783
   8 H :    0.139216
   9 H :    0.169764
  10 H :    0.150733
  11 H :    0.139085
  12 C :   -0.006660
  13 H :    0.123946
  14 H :    0.150036
  15 O :   -0.501236
  16 C :    0.070932
  17 C :    0.073744
  18 C :   -0.297283
  19 C :   -0.030606
  20 O :   -0.510372
  21 H :    0.155508
  22 O :   -0.598938
  23 H :    0.150447
  24 H :    0.162408
  25 H :    0.146389
  26 H :    0.151189
  27 H :    0.147478
  28 H :    0.364313
Sum of atomic charges:   -0.0000000

LOEWDIN ATOMIC CHARGES
----------------------
   0 C :    0.174612
   1 C :   -0.221489
   2 C :   -0.216397
   3 C :   -0.026420
   4 O :   -0.317750
   5 H :    0.095473
   6 H :    0.111140
   7 H :    0.120473
   8 H :    0.112961
   9 H :    0.123030
  10 H :    0.107469
  11 H :    0.100850
  12 C :   -0.036973
  13 H :    0.096255
  14 H :    0.109172
  15 O :   -0.318866
  16 C :    0.007004
  17 C :    0.033685
  18 C :   -0.241326
  19 C :   -0.038501
  20 O :   -0.322530
  21 H :    0.112779
  22 O :   -0.413116
  23 H :    0.114731
  24 H :    0.126853
  25 H :    0.113879
  26 H :    0.106976
  27 H :    0.102883
  28 H :    0.283145

  Mayer bond orders larger than 0.100000
B(  0-C ,  1-C ) :   0.9421 B(  0-C ,  4-O ) :   0.9310 B(  0-C ,  5-H ) :   0.9163
B(  0-C , 15-O ) :   0.8478 B(  1-C ,  2-C ) :   0.9578 B(  1-C ,  6-H ) :   0.9369
B(  1-C ,  7-H ) :   0.9362 B(  2-C ,  3-C ) :   0.9545 B(  2-C ,  8-H ) :   0.9453
B(  2-C ,  9-H ) :   0.9422 B(  3-C ,  4-O ) :   0.8376 B(  3-C , 10-H ) :   0.9351
B(  3-C , 11-H ) :   0.9399 B( 12-C , 13-H ) :   0.9121 B( 12-C , 14-H ) :   0.9340
B( 12-C , 15-O ) :   0.8616 B( 12-C , 16-C ) :   0.8805 B( 16-C , 17-C ) :   0.8956
B( 16-C , 20-O ) :   0.8675 B( 16-C , 21-H ) :   0.9271 B( 17-C , 18-C ) :   0.9114
B( 17-C , 22-O ) :   0.8944 B( 17-C , 23-H ) :   0.9330 B( 18-C , 19-C ) :   0.9407
B( 18-C , 24-H ) :   0.9376 B( 18-C , 25-H ) :   0.9338 B( 19-C , 20-O ) :   0.8496
B( 19-C , 26-H ) :   0.9337 B( 19-C , 27-H ) :   0.9372 B( 22-O , 28-H ) :   0.7942

FINAL SINGLE POINT ENERGY      -652.859475382907

DIPOLE MOMENT
-------------
                                X             Y             Z
Electronic contribution:     -0.36951      -1.24676      -1.27969
Nuclear contribution   :      0.14805       1.37797       1.22984
                        -----------------------------------------
Total Dipole Moment    :     -0.22146       0.13120      -0.04985
                        -----------------------------------------
Magnitude (a.u.)       :      0.26219
Magnitude (Debye)      :      0.66643

Rotational constants in cm-1:     0.064890     0.011270     0.011158
Rotational constants in MHz :  1945.359995   337.854328   334.498184

                             ****ORCA TERMINATED NORMALLY****
TOTAL RUN TIME: 0 days 0 hours 23 minutes 39 seconds 363 msec
