                         Program Version 4.2.0 -  RELEASE  -
|  1> # Test redundant internal optimization
|  2> #
|  3> ! RKS B3LYP  Opt TightSCF SmallPrint
|  4>
|  5> %basis
|  6>         Basis "6-31G"
|  7> end
|  8>
|  9> %geom
| 10> Constraints
| 11> { D 4  0  15  12  240.0   C } # D for Dihedral angle
| 12> { D 0  15  12  16  300.0   C } # D for Dihedral angle
| 13> { D 0  4  3  2   C } # D for Dihedral angle
| 14> { D 4  3  2  1   C } # D for Dihedral angle
| 15> { D 3  2  1  0   C } # D for Dihedral angle
| 16> { D 2  1  0  4   C } # D for Dihedral angle
| 17> { D 1  0  4  3   C } # D for Dihedral angle
| 18> { D 16  20  19  18   C } # D for Dihedral angle
| 19> { D 20  19  18  17   C } # D for Dihedral angle
| 20> { D 19  18  17  16   C } # D for Dihedral angle
| 21> { D 18  17  16  20   C } # D for Dihedral angle
| 22> { D 17  16  20  19   C } # D for Dihedral angle
| 23> { D 15  12  16  20   C } # D for Dihedral angle
| 24> end
| 25> end
| 26>
| 27>
| 28> #%pal
| 29> #nprocs 8
| 30> #end
| 31>
| 32> * xyz 0 1
| 33> C  -21.048   26.222   46.251
| 34> C  -20.361   27.558   45.944
| 35> C  -20.329   28.222   47.341
| 36> C  -20.110   27.022   48.296
| 37> O  -20.473   25.807   47.535
| 38> H  -20.833   25.428   45.533
| 39> H  -19.344   27.382   45.576
| 40> H  -20.898   28.157   45.201
| 41> H  -19.543   28.978   47.434
| 42> H  -21.289   28.710   47.548
| 43> H  -20.733   27.082   49.195
| 44> H  -19.064   26.913   48.597
| 45> C  -23.430   25.483   45.442
| 46> H  -23.218   24.432   45.675
| 47> H  -24.502   25.659   45.600
| 48> O  -22.586   26.394   46.375
| 49> C  -23.128   25.720   43.937
| 50> C  -23.316   27.194   43.557
| 51> C  -22.001   27.822   44.078
| 52> C  -20.955   26.706   43.830
| 53> O  -21.716   25.450   43.648
| 54> H  -23.716   25.022   43.339
| 55> H  -23.387   27.295   42.468
| 56> O  -24.581   27.832   44.193
| 57> H  -21.744   28.755   43.567
| 58> H  -22.086   28.039   45.150
| 59> H  -20.261   26.588   44.668
| 60> H  -20.380   26.869   42.914
| 61> H  -24.530   27.741   45.283
| 62> *
| 63>
| 64>                          ****END OF INPUT****
 Total Charge           Charge          ....    0
 Multiplicity           Mult            ....    1
 Number of Electrons    NEL             ....  102
FINAL SINGLE POINT ENERGY      -652.686109545198
FINAL SINGLE POINT ENERGY      -652.817800063295
FINAL SINGLE POINT ENERGY      -652.842540675828
FINAL SINGLE POINT ENERGY      -652.850117133243
FINAL SINGLE POINT ENERGY      -652.851644891771
FINAL SINGLE POINT ENERGY      -652.852046925032
FINAL SINGLE POINT ENERGY      -652.852155303542
FINAL SINGLE POINT ENERGY      -652.852223026516
FINAL SINGLE POINT ENERGY      -652.852242598451
FINAL SINGLE POINT ENERGY      -652.852246104631
                    ***********************HURRAY********************

CARTESIAN COORDINATES (ANGSTROEM)
---------------------------------
  C    -20.888509   26.229033   46.475575
  C    -20.227137   27.604924   46.367671
  C    -20.353678   28.142746   47.819578
  C    -20.182203   26.858582   48.662867
  O    -20.429526   25.728905   47.744069
  H    -20.621052   25.497559   45.711875
  H    -19.171417   27.472772   46.100482
  H    -20.692027   28.262104   45.636440
  H    -19.603427   28.903100   48.053951
  H    -21.348828   28.573149   47.966928
  H    -20.888358   26.796365   49.495063
  H    -19.163743   26.738867   49.045695
  C    -23.174715   25.630864   45.605523
  H    -23.034783   24.562086   45.822986
  H    -24.199556   25.893601   45.887018
  O    -22.342750   26.382793   46.540681
  C    -23.075689   25.774176   44.079685
  C    -23.497239   27.097427   43.418676
  C    -22.144136   27.862651   43.353041
  C    -21.119175   26.738818   43.090732
  O    -21.790418   25.458857   43.463026
  H    -23.752765   24.981123   43.731510
  H    -23.888556   26.902526   42.418712
  O    -24.556766   27.803099   44.102768
  H    -22.134998   28.631399   42.574907
  H    -21.981687   28.351837   44.317598
  H    -20.200329   26.842811   43.674201
  H    -20.856831   26.655861   42.032643
  H    -24.241701   28.103966   44.981096

 Multiplicity           Mult            ....    1
 Number of Electrons    NEL             ....  102
 Basis Dimension        Dim             ....  149

ORBITAL ENERGIES
----------------

  NO   OCC          E(Eh)            E(eV)
   0   2.0000     -19.150857      -521.1213
   1   2.0000     -19.149187      -521.0759
   2   2.0000     -19.142954      -520.9063
   3   2.0000     -19.136659      -520.7350
   4   2.0000     -10.277294      -279.6594
   5   2.0000     -10.246981      -278.8345
   6   2.0000     -10.238568      -278.6056
   7   2.0000     -10.237590      -278.5790
   8   2.0000     -10.233112      -278.4571
   9   2.0000     -10.223478      -278.1950
  10   2.0000     -10.195947      -277.4458
  11   2.0000     -10.188478      -277.2426
  12   2.0000     -10.187276      -277.2099
  13   2.0000      -1.050831       -28.5946
  14   2.0000      -1.037072       -28.2202
  15   2.0000      -1.020489       -27.7689
  16   2.0000      -0.991196       -26.9718
  17   2.0000      -0.788788       -21.4640
  18   2.0000      -0.784929       -21.3590
  19   2.0000      -0.772563       -21.0225
  20   2.0000      -0.733665       -19.9640
  21   2.0000      -0.685900       -18.6643
  22   2.0000      -0.615991       -16.7620
  23   2.0000      -0.602558       -16.3964
  24   2.0000      -0.600011       -16.3271
  25   2.0000      -0.571128       -15.5412
  26   2.0000      -0.530827       -14.4445
  27   2.0000      -0.510781       -13.8990
  28   2.0000      -0.509663       -13.8686
  29   2.0000      -0.483539       -13.1578
  30   2.0000      -0.465873       -12.6771
  31   2.0000      -0.461694       -12.5633
  32   2.0000      -0.452163       -12.3040
  33   2.0000      -0.439533       -11.9603
  34   2.0000      -0.429781       -11.6949
  35   2.0000      -0.418340       -11.3836
  36   2.0000      -0.411800       -11.2056
  37   2.0000      -0.398868       -10.8537
  38   2.0000      -0.385179       -10.4813
  39   2.0000      -0.372823       -10.1450
  40   2.0000      -0.365013        -9.9325
  41   2.0000      -0.352554        -9.5935
  42   2.0000      -0.348708        -9.4888
  43   2.0000      -0.339320        -9.2334
  44   2.0000      -0.318665        -8.6713
  45   2.0000      -0.313952        -8.5431
  46   2.0000      -0.311591        -8.4788
  47   2.0000      -0.271948        -7.4001
  48   2.0000      -0.270309        -7.3555
  49   2.0000      -0.251611        -6.8467
  50   2.0000      -0.242427        -6.5968
  51   0.0000       0.058555         1.5934
  52   0.0000       0.069613         1.8943
  53   0.0000       0.078590         2.1386
  54   0.0000       0.093100         2.5334
  55   0.0000       0.100682         2.7397

MULLIKEN ATOMIC CHARGES
-----------------------
   0 C :    0.272132
   1 C :   -0.268683
   2 C :   -0.303557
   3 C :    0.003166
   4 O :   -0.502257
   5 H :    0.176738
   6 H :    0.146283
   7 H :    0.140336
   8 H :    0.141492
   9 H :    0.158174
  10 H :    0.151529
  11 H :    0.139779
  12 C :   -0.038829
  13 H :    0.154525
  14 H :    0.155898
  15 O :   -0.529519
  16 C :    0.083781
  17 C :    0.087897
  18 C :   -0.323715
  19 C :   -0.019515
  20 O :   -0.521822
  21 H :    0.156871
  22 H :    0.169388
  23 O :   -0.601117
  24 H :    0.158810
  25 H :    0.148109
  26 H :    0.144101
  27 H :    0.153249
  28 H :    0.366756
Sum of atomic charges:   -0.0000000

LOEWDIN ATOMIC CHARGES
----------------------
   0 C :    0.172111
   1 C :   -0.225984
   2 C :   -0.217207
   3 C :   -0.026045
   4 O :   -0.311441
   5 H :    0.115763
   6 H :    0.113562
   7 H :    0.111494
   8 H :    0.113798
   9 H :    0.116930
  10 H :    0.107472
  11 H :    0.101081
  12 C :   -0.052094
  13 H :    0.107962
  14 H :    0.120472
  15 O :   -0.344917
  16 C :    0.000259
  17 C :    0.036130
  18 C :   -0.242525
  19 C :   -0.031309
  20 O :   -0.325085
  21 H :    0.119789
  22 H :    0.119502
  23 O :   -0.406225
  24 H :    0.123109
  25 H :    0.109508
  26 H :    0.101354
  27 H :    0.108523
  28 H :    0.284012

  Mayer bond orders larger than 0.100000
B(  0-C ,  1-C ) :   0.9380 B(  0-C ,  4-O ) :   0.9186 B(  0-C ,  5-H ) :   0.9063
B(  0-C , 15-O ) :   0.8258 B(  1-C ,  2-C ) :   0.9519 B(  1-C ,  6-H ) :   0.9350
B(  1-C ,  7-H ) :   0.9210 B(  2-C ,  3-C ) :   0.9541 B(  2-C ,  8-H ) :   0.9451
B(  2-C ,  9-H ) :   0.9440 B(  3-C ,  4-O ) :   0.8391 B(  3-C , 10-H ) :   0.9348
B(  3-C , 11-H ) :   0.9397 B( 12-C , 13-H ) :   0.9228 B( 12-C , 14-H ) :   0.9215
B( 12-C , 15-O ) :   0.8721 B( 12-C , 16-C ) :   0.8973 B( 16-C , 17-C ) :   0.8807
B( 16-C , 20-O ) :   0.8589 B( 16-C , 21-H ) :   0.9164 B( 17-C , 18-C ) :   0.9220
B( 17-C , 22-H ) :   0.9341 B( 17-C , 23-O ) :   0.9090 B( 18-C , 19-C ) :   0.9460
B( 18-C , 24-H ) :   0.9407 B( 18-C , 25-H ) :   0.9201 B( 19-C , 20-O ) :   0.8372
B( 19-C , 26-H ) :   0.9221 B( 19-C , 27-H ) :   0.9377 B( 23-O , 28-H ) :   0.7908

FINAL SINGLE POINT ENERGY      -652.852246194974

DIPOLE MOMENT
-------------
                                X             Y             Z
Electronic contribution:     -2.96691      -4.30261      -0.55925
Nuclear contribution   :      3.54130       5.34798       0.32120
                        -----------------------------------------
Total Dipole Moment    :      0.57439       1.04536      -0.23806
                        -----------------------------------------
Magnitude (a.u.)       :      1.21630
Magnitude (Debye)      :      3.09158

Rotational constants in cm-1:     0.046687     0.016118     0.015812
Rotational constants in MHz :  1399.649184   483.217629   474.019314

                             ****ORCA TERMINATED NORMALLY****
TOTAL RUN TIME: 0 days 1 hours 3 minutes 28 seconds 62 msec
