                         Program Version 4.2.0 -  RELEASE  -
|  1> # Test redundant internal optimization
|  2> #
|  3> ! RKS B3LYP  Opt TightSCF SmallPrint
|  4>
|  5> %basis
|  6>         Basis "6-31G"
|  7> end
|  8>
|  9> %geom
| 10> Constraints
| 11> { D 4  0  15  12  75.0   C } # D for Dihedral angle
| 12> { D 0  15  12  16  75.0   C } # D for Dihedral angle
| 13> { D 0  4  3  2   C } # D for Dihedral angle
| 14> { D 4  3  2  1   C } # D for Dihedral angle
| 15> { D 3  2  1  0   C } # D for Dihedral angle
| 16> { D 2  1  0  4   C } # D for Dihedral angle
| 17> { D 1  0  4  3   C } # D for Dihedral angle
| 18> { D 16  20  19  18   C } # D for Dihedral angle
| 19> { D 20  19  18  17   C } # D for Dihedral angle
| 20> { D 19  18  17  16   C } # D for Dihedral angle
| 21> { D 18  17  16  20   C } # D for Dihedral angle
| 22> { D 17  16  20  19   C } # D for Dihedral angle
| 23> { D 15  12  16  20   C } # D for Dihedral angle
| 24> end
| 25> end
| 26>
| 27>
| 28> #%pal
| 29> #nprocs 8
| 30> #end
| 31>
| 32> * xyz 0 1
| 33> C  -21.048   26.222   46.251
| 34> C  -20.361   27.558   45.944
| 35> C  -20.329   28.222   47.341
| 36> C  -20.110   27.022   48.296
| 37> O  -20.473   25.807   47.535
| 38> H  -20.833   25.428   45.533
| 39> H  -19.344   27.382   45.576
| 40> H  -20.898   28.157   45.201
| 41> H  -19.543   28.978   47.434
| 42> H  -21.289   28.710   47.548
| 43> H  -20.733   27.082   49.195
| 44> H  -19.064   26.913   48.597
| 45> C  -23.049   27.675   47.122
| 46> H  -24.106   27.570   47.398
| 47> H  -22.466   27.815   48.042
| 48> O  -22.586   26.394   46.375
| 49> C  -22.894   28.960   46.263
| 50> C  -23.810   28.923   45.035
| 51> C  -25.175   29.314   45.650
| 52> C  -24.786   30.333   46.750
| 53> O  -23.345   30.136   47.015
| 54> H  -21.837   29.112   46.035
| 55> H  -23.487   29.672   44.303
| 56> O  -23.838   27.536   44.336
| 57> H  -25.866   29.737   44.914
| 58> H  -25.654   28.432   46.091
| 59> H  -25.345   30.180   47.679
| 60> H  -24.916   31.368   46.425
| 61> H  -24.159   26.771   45.051
| 62> *
| 63>
| 64>                          ****END OF INPUT****
 Total Charge           Charge          ....    0
 Multiplicity           Mult            ....    1
 Number of Electrons    NEL             ....  102
FINAL SINGLE POINT ENERGY      -652.789138136686
FINAL SINGLE POINT ENERGY      -652.830487169289
FINAL SINGLE POINT ENERGY      -652.850510655874
FINAL SINGLE POINT ENERGY      -652.855548253033
FINAL SINGLE POINT ENERGY      -652.856803906470
FINAL SINGLE POINT ENERGY      -652.857236566071
FINAL SINGLE POINT ENERGY      -652.857348991110
FINAL SINGLE POINT ENERGY      -652.857374710291
                    ***********************HURRAY********************

CARTESIAN COORDINATES (ANGSTROEM)
---------------------------------
  C    -21.200902   26.292383   46.441373
  C    -20.241171   27.377305   45.934401
  C    -19.870958   28.127216   47.248042
  C    -19.850090   26.980665   48.289906
  O    -20.602500   25.858198   47.677777
  H    -21.229505   25.413134   45.796959
  H    -19.359074   26.877556   45.521258
  H    -20.676121   28.007111   45.155555
  H    -18.901089   28.628694   47.176592
  H    -20.613427   28.885411   47.506358
  H    -20.323017   27.249340   49.238729
  H    -18.839235   26.612764   48.486520
  C    -23.202204   27.775714   47.196129
  H    -24.248991   27.502394   47.347377
  H    -22.755993   27.941381   48.184061
  O    -22.621180   26.584720   46.561785
  C    -23.095254   29.068485   46.370933
  C    -23.877927   29.037902   45.047254
  C    -25.334088   29.283067   45.537464
  C    -25.150010   30.253297   46.722045
  O    -23.714689   30.152390   47.133331
  H    -22.057634   29.362773   46.220121
  H    -23.558670   29.873074   44.415978
  O    -23.691333   27.845183   44.256873
  H    -25.963575   29.697244   44.745187
  H    -25.776610   28.330117   45.848931
  H    -25.779497   30.012420   47.584315
  H    -25.318771   31.297146   46.442292
  H    -23.490484   27.081916   44.847453

 Multiplicity           Mult            ....    1
 Number of Electrons    NEL             ....  102
 Basis Dimension        Dim             ....  149

ORBITAL ENERGIES
----------------

  NO   OCC          E(Eh)            E(eV)
   0   2.0000     -19.161196      -521.4026
   1   2.0000     -19.148665      -521.0617
   2   2.0000     -19.146712      -521.0085
   3   2.0000     -19.126957      -520.4710
   4   2.0000     -10.289122      -279.9813
   5   2.0000     -10.240865      -278.6681
   6   2.0000     -10.238498      -278.6037
   7   2.0000     -10.238355      -278.5998
   8   2.0000     -10.234397      -278.4921
   9   2.0000     -10.232577      -278.4426
  10   2.0000     -10.198310      -277.5101
  11   2.0000     -10.198035      -277.5026
  12   2.0000     -10.186140      -277.1790
  13   2.0000      -1.060303       -28.8523
  14   2.0000      -1.030925       -28.0529
  15   2.0000      -1.008601       -27.4454
  16   2.0000      -1.000371       -27.2215
  17   2.0000      -0.795317       -21.6417
  18   2.0000      -0.780810       -21.2469
  19   2.0000      -0.774080       -21.0638
  20   2.0000      -0.741206       -20.1692
  21   2.0000      -0.686933       -18.6924
  22   2.0000      -0.611617       -16.6429
  23   2.0000      -0.606959       -16.5162
  24   2.0000      -0.603384       -16.4189
  25   2.0000      -0.578126       -15.7316
  26   2.0000      -0.538396       -14.6505
  27   2.0000      -0.511017       -13.9055
  28   2.0000      -0.505758       -13.7624
  29   2.0000      -0.491117       -13.3640
  30   2.0000      -0.474990       -12.9251
  31   2.0000      -0.460746       -12.5375
  32   2.0000      -0.451433       -12.2841
  33   2.0000      -0.436905       -11.8888
  34   2.0000      -0.426785       -11.6134
  35   2.0000      -0.421265       -11.4632
  36   2.0000      -0.416496       -11.3334
  37   2.0000      -0.398983       -10.8569
  38   2.0000      -0.391759       -10.6603
  39   2.0000      -0.371504       -10.1091
  40   2.0000      -0.367724       -10.0063
  41   2.0000      -0.356573        -9.7028
  42   2.0000      -0.354282        -9.6405
  43   2.0000      -0.342088        -9.3087
  44   2.0000      -0.322576        -8.7777
  45   2.0000      -0.319204        -8.6860
  46   2.0000      -0.297160        -8.0861
  47   2.0000      -0.284876        -7.7519
  48   2.0000      -0.264555        -7.1989
  49   2.0000      -0.257874        -7.0171
  50   2.0000      -0.243911        -6.6372
  51   0.0000       0.053366         1.4522
  52   0.0000       0.068067         1.8522
  53   0.0000       0.083519         2.2727
  54   0.0000       0.092430         2.5152
  55   0.0000       0.101577         2.7641

MULLIKEN ATOMIC CHARGES
-----------------------
   0 C :    0.309125
   1 C :   -0.292278
   2 C :   -0.326202
   3 C :   -0.012508
   4 O :   -0.500624
   5 H :    0.172440
   6 H :    0.161287
   7 H :    0.161833
   8 H :    0.151147
   9 H :    0.165352
  10 H :    0.149843
  11 H :    0.150519
  12 C :   -0.046545
  13 H :    0.167105
  14 H :    0.161250
  15 O :   -0.541227
  16 C :    0.048625
  17 C :    0.109199
  18 C :   -0.309235
  19 C :   -0.022980
  20 O :   -0.522571
  21 H :    0.158408
  22 H :    0.151991
  23 O :   -0.631348
  24 H :    0.156779
  25 H :    0.147589
  26 H :    0.146869
  27 H :    0.151748
  28 H :    0.384409
Sum of atomic charges:   -0.0000000

LOEWDIN ATOMIC CHARGES
----------------------
   0 C :    0.177844
   1 C :   -0.232814
   2 C :   -0.226570
   3 C :   -0.031692
   4 O :   -0.313756
   5 H :    0.116593
   6 H :    0.126232
   7 H :    0.122178
   8 H :    0.119236
   9 H :    0.114897
  10 H :    0.104826
  11 H :    0.106054
  12 C :   -0.052165
  13 H :    0.118800
  14 H :    0.111713
  15 O :   -0.328398
  16 C :   -0.000287
  17 C :    0.039455
  18 C :   -0.239735
  19 C :   -0.032213
  20 O :   -0.324441
  21 H :    0.111817
  22 H :    0.109168
  23 O :   -0.427887
  24 H :    0.123535
  25 H :    0.112107
  26 H :    0.104164
  27 H :    0.107410
  28 H :    0.283931

  Mayer bond orders larger than 0.100000
B(  0-C ,  1-C ) :   0.9209 B(  0-C ,  4-O ) :   0.9195 B(  0-C ,  5-H ) :   0.9341
B(  0-C , 15-O ) :   0.8513 B(  1-C ,  2-C ) :   0.9522 B(  1-C ,  6-H ) :   0.9311
B(  1-C ,  7-H ) :   0.9243 B(  2-C ,  3-C ) :   0.9434 B(  2-C ,  8-H ) :   0.9450
B(  2-C ,  9-H ) :   0.9302 B(  3-C ,  4-O ) :   0.8403 B(  3-C , 10-H ) :   0.9337
B(  3-C , 11-H ) :   0.9384 B( 12-C , 13-H ) :   0.9367 B( 12-C , 14-H ) :   0.9220
B( 12-C , 15-O ) :   0.8065 B( 12-C , 16-C ) :   0.8774 B( 16-C , 17-C ) :   0.9046
B( 16-C , 20-O ) :   0.8458 B( 16-C , 21-H ) :   0.9158 B( 17-C , 18-C ) :   0.9023
B( 17-C , 22-H ) :   0.9339 B( 17-C , 23-O ) :   0.9294 B( 18-C , 19-C ) :   0.9382
B( 18-C , 24-H ) :   0.9431 B( 18-C , 25-H ) :   0.9423 B( 19-C , 20-O ) :   0.8306
B( 19-C , 26-H ) :   0.9335 B( 19-C , 27-H ) :   0.9384 B( 23-O , 28-H ) :   0.7327

FINAL SINGLE POINT ENERGY      -652.857375131585

DIPOLE MOMENT
-------------
                                X             Y             Z
Electronic contribution:     -0.75901      -3.24509      -0.36415
Nuclear contribution   :      1.09622       3.95503       0.63616
                        -----------------------------------------
Total Dipole Moment    :      0.33722       0.70994       0.27201
                        -----------------------------------------
Magnitude (a.u.)       :      0.83170
Magnitude (Debye)      :      2.11401

Rotational constants in cm-1:     0.051679     0.015945     0.014488
Rotational constants in MHz :  1549.307404   478.028817   434.346401

                             ****ORCA TERMINATED NORMALLY****
TOTAL RUN TIME: 0 days 1 hours 33 minutes 42 seconds 483 msec
