                         Program Version 4.2.0 -  RELEASE  -
|  1> # Test redundant internal optimization
|  2> #
|  3> ! RKS B3LYP  Opt TightSCF SmallPrint
|  4>
|  5> %basis
|  6>         Basis "6-31G"
|  7> end
|  8>
|  9> %geom
| 10> Constraints
| 11> { D 4  0  15  12  60.0   C } # D for Dihedral angle
| 12> { D 0  15  12  16  165.0   C } # D for Dihedral angle
| 13> { D 0  4  3  2   C } # D for Dihedral angle
| 14> { D 4  3  2  1   C } # D for Dihedral angle
| 15> { D 3  2  1  0   C } # D for Dihedral angle
| 16> { D 2  1  0  4   C } # D for Dihedral angle
| 17> { D 1  0  4  3   C } # D for Dihedral angle
| 18> { D 16  20  19  18   C } # D for Dihedral angle
| 19> { D 20  19  18  17   C } # D for Dihedral angle
| 20> { D 19  18  17  16   C } # D for Dihedral angle
| 21> { D 18  17  16  20   C } # D for Dihedral angle
| 22> { D 17  16  20  19   C } # D for Dihedral angle
| 23> { D 15  12  16  20   C } # D for Dihedral angle
| 24> end
| 25> end
| 26>
| 27>
| 28> #%pal
| 29> #nprocs 8
| 30> #end
| 31>
| 32> * xyz 0 1
| 33> C  -21.048   26.222   46.251
| 34> C  -20.361   27.558   45.944
| 35> C  -20.329   28.222   47.341
| 36> C  -20.110   27.022   48.296
| 37> O  -20.473   25.807   47.535
| 38> H  -20.833   25.428   45.533
| 39> H  -19.344   27.382   45.576
| 40> H  -20.898   28.157   45.201
| 41> H  -19.543   28.978   47.434
| 42> H  -21.289   28.710   47.548
| 43> H  -20.733   27.082   49.195
| 44> H  -19.064   26.913   48.597
| 45> C  -23.051   27.452   47.413
| 46> H  -22.917   27.049   48.425
| 47> H  -22.449   28.366   47.326
| 48> O  -22.586   26.394   46.375
| 49> C  -24.543   27.849   47.239
| 50> C  -24.826   28.339   45.814
| 51> C  -24.932   27.003   45.040
| 52> C  -25.590   26.050   46.068
| 53> O  -25.407   26.675   47.397
| 54> H  -24.818   28.557   48.023
| 55> H  -25.779   28.878   45.786
| 56> O  -23.717   29.272   45.257
| 57> H  -25.517   27.092   44.119
| 58> H  -23.931   26.646   44.767
| 59> H  -25.131   25.056   46.073
| 60> H  -26.667   25.943   45.909
| 61> H  -22.753   28.751   45.278
| 62> *
| 63>
| 64>                          ****END OF INPUT****
 Total Charge           Charge          ....    0
 Multiplicity           Mult            ....    1
 Number of Electrons    NEL             ....  102
FINAL SINGLE POINT ENERGY      -652.800784223901
FINAL SINGLE POINT ENERGY      -652.833466207100
FINAL SINGLE POINT ENERGY      -652.851205402599
FINAL SINGLE POINT ENERGY      -652.855108397576
FINAL SINGLE POINT ENERGY      -652.855750484590
FINAL SINGLE POINT ENERGY      -652.855886052861
FINAL SINGLE POINT ENERGY      -652.855907181929
FINAL SINGLE POINT ENERGY      -652.855909287460
                    ***********************HURRAY********************

CARTESIAN COORDINATES (ANGSTROEM)
---------------------------------
  C    -21.163699   26.328472   46.476468
  C    -20.312837   27.515185   45.996465
  C    -19.984502   28.246598   47.335142
  C    -19.842083   27.065769   48.329268
  O    -20.502765   25.903143   47.687700
  H    -21.115137   25.476542   45.795888
  H    -19.400127   27.124339   45.535893
  H    -20.826171   28.149665   45.267992
  H    -19.059741   28.828589   47.268105
  H    -20.782385   28.933144   47.624631
  H    -20.317522   27.255518   49.295868
  H    -18.797997   26.784875   48.493632
  C    -23.169207   27.472179   47.534330
  H    -23.090636   27.072274   48.551227
  H    -22.661072   28.441070   47.484430
  O    -22.591562   26.512762   46.597808
  C    -24.637173   27.726951   47.199893
  C    -24.916018   28.309087   45.803172
  C    -24.985236   27.020835   44.925526
  C    -25.632966   25.996504   45.882823
  O    -25.473323   26.538248   47.255725
  H    -25.012495   28.398719   47.982390
  H    -25.873487   28.834578   45.808357
  O    -23.948954   29.294153   45.358814
  H    -25.569547   27.174954   44.013473
  H    -23.970832   26.714914   44.661687
  H    -25.151375   25.016413   45.837570
  H    -26.707582   25.882341   45.710053
  H    -23.142566   28.835179   45.045673

 Multiplicity           Mult            ....    1
 Number of Electrons    NEL             ....  102
 Basis Dimension        Dim             ....  149

ORBITAL ENERGIES
----------------

  NO   OCC          E(Eh)            E(eV)
   0   2.0000     -19.151265      -521.1324
   1   2.0000     -19.148440      -521.0555
   2   2.0000     -19.144262      -520.9419
   3   2.0000     -19.131088      -520.5834
   4   2.0000     -10.286344      -279.9056
   5   2.0000     -10.237892      -278.5872
   6   2.0000     -10.235086      -278.5109
   7   2.0000     -10.230803      -278.3943
   8   2.0000     -10.230321      -278.3812
   9   2.0000     -10.219507      -278.0869
  10   2.0000     -10.200925      -277.5813
  11   2.0000     -10.199702      -277.5480
  12   2.0000     -10.180228      -277.0181
  13   2.0000      -1.058604       -28.8061
  14   2.0000      -1.028407       -27.9844
  15   2.0000      -1.010819       -27.5058
  16   2.0000      -0.999694       -27.2030
  17   2.0000      -0.795713       -21.6525
  18   2.0000      -0.777526       -21.1575
  19   2.0000      -0.767224       -20.8772
  20   2.0000      -0.737088       -20.0572
  21   2.0000      -0.681767       -18.5518
  22   2.0000      -0.611842       -16.6491
  23   2.0000      -0.604369       -16.4457
  24   2.0000      -0.602297       -16.3893
  25   2.0000      -0.563028       -15.3208
  26   2.0000      -0.524427       -14.2704
  27   2.0000      -0.517460       -14.0808
  28   2.0000      -0.504898       -13.7390
  29   2.0000      -0.492846       -13.4110
  30   2.0000      -0.473001       -12.8710
  31   2.0000      -0.456107       -12.4113
  32   2.0000      -0.444076       -12.0839
  33   2.0000      -0.433151       -11.7866
  34   2.0000      -0.425676       -11.5832
  35   2.0000      -0.422625       -11.5002
  36   2.0000      -0.404183       -10.9984
  37   2.0000      -0.400545       -10.8994
  38   2.0000      -0.386456       -10.5160
  39   2.0000      -0.372671       -10.1409
  40   2.0000      -0.369364       -10.0509
  41   2.0000      -0.360913        -9.8209
  42   2.0000      -0.347135        -9.4460
  43   2.0000      -0.325301        -8.8519
  44   2.0000      -0.322441        -8.7741
  45   2.0000      -0.310832        -8.4582
  46   2.0000      -0.308829        -8.4037
  47   2.0000      -0.271337        -7.3835
  48   2.0000      -0.263684        -7.1752
  49   2.0000      -0.258434        -7.0323
  50   2.0000      -0.237107        -6.4520
  51   0.0000       0.041451         1.1279
  52   0.0000       0.074711         2.0330
  53   0.0000       0.090521         2.4632
  54   0.0000       0.097678         2.6580
  55   0.0000       0.098187         2.6718

MULLIKEN ATOMIC CHARGES
-----------------------
   0 C :    0.306426
   1 C :   -0.281879
   2 C :   -0.316321
   3 C :   -0.011223
   4 O :   -0.503351
   5 H :    0.165397
   6 H :    0.160841
   7 H :    0.135837
   8 H :    0.149244
   9 H :    0.156734
  10 H :    0.148938
  11 H :    0.151013
  12 C :   -0.018826
  13 H :    0.160532
  14 H :    0.133405
  15 O :   -0.532546
  16 C :    0.091900
  17 C :    0.079659
  18 C :   -0.310897
  19 C :   -0.001054
  20 O :   -0.519118
  21 H :    0.149444
  22 H :    0.163004
  23 O :   -0.611450
  24 H :    0.141887
  25 H :    0.157708
  26 H :    0.152112
  27 H :    0.140808
  28 H :    0.361775
Sum of atomic charges:   -0.0000000

LOEWDIN ATOMIC CHARGES
----------------------
   0 C :    0.174172
   1 C :   -0.229687
   2 C :   -0.223630
   3 C :   -0.032606
   4 O :   -0.317010
   5 H :    0.112659
   6 H :    0.124611
   7 H :    0.109613
   8 H :    0.117383
   9 H :    0.111616
  10 H :    0.104983
  11 H :    0.106573
  12 C :   -0.049535
  13 H :    0.113507
  14 H :    0.097630
  15 O :   -0.325314
  16 C :    0.020543
  17 C :    0.036723
  18 C :   -0.242434
  19 C :   -0.023530
  20 O :   -0.320634
  21 H :    0.113818
  22 H :    0.116190
  23 O :   -0.413091
  24 H :    0.113922
  25 H :    0.118439
  26 H :    0.108649
  27 H :    0.100598
  28 H :    0.275842

  Mayer bond orders larger than 0.100000
B(  0-C ,  1-C ) :   0.9150 B(  0-C ,  4-O ) :   0.9074 B(  0-C ,  5-H ) :   0.9366
B(  0-C , 15-O ) :   0.8887 B(  1-C ,  2-C ) :   0.9550 B(  1-C ,  6-H ) :   0.9336
B(  1-C ,  7-H ) :   0.9343 B(  2-C ,  3-C ) :   0.9467 B(  2-C ,  8-H ) :   0.9443
B(  2-C ,  9-H ) :   0.9363 B(  3-C ,  4-O ) :   0.8423 B(  3-C , 10-H ) :   0.9331
B(  3-C , 11-H ) :   0.9386 B( 12-C , 13-H ) :   0.9216 B( 12-C , 14-H ) :   0.8867
B( 12-C , 15-O ) :   0.8242 B( 12-C , 16-C ) :   0.9190 B( 16-C , 17-C ) :   0.8832
B( 16-C , 20-O ) :   0.8831 B( 16-C , 21-H ) :   0.9286 B( 17-C , 18-C ) :   0.9380
B( 17-C , 22-H ) :   0.9353 B( 17-C , 23-O ) :   0.8942 B( 18-C , 19-C ) :   0.9478
B( 18-C , 24-H ) :   0.9407 B( 18-C , 25-H ) :   0.9276 B( 19-C , 20-O ) :   0.8385
B( 19-C , 26-H ) :   0.9316 B( 19-C , 27-H ) :   0.9376 B( 23-O , 28-H ) :   0.7885

FINAL SINGLE POINT ENERGY      -652.855908594834

DIPOLE MOMENT
-------------
                                X             Y             Z
Electronic contribution:     -2.99589      -2.45371       1.24019
Nuclear contribution   :      3.98003       3.04322      -1.76184
                        -----------------------------------------
Total Dipole Moment    :      0.98414       0.58951      -0.52165
                        -----------------------------------------
Magnitude (a.u.)       :      1.26022
Magnitude (Debye)      :      3.20323

Rotational constants in cm-1:     0.049718     0.015988     0.014600
Rotational constants in MHz :  1490.516740   479.313737   437.689547

                             ****ORCA TERMINATED NORMALLY****
TOTAL RUN TIME: 0 days 0 hours 32 minutes 0 seconds 639 msec
