                         Program Version 4.2.0 -  RELEASE  -
|  1> # Test redundant internal optimization
|  2> #
|  3> ! RKS B3LYP  Opt TightSCF SmallPrint
|  4>
|  5> %basis
|  6>         Basis "6-31G"
|  7> end
|  8>
|  9> %geom
| 10> Constraints
| 11> { D 4  0  15  12  165.0   C } # D for Dihedral angle
| 12> { D 0  15  12  16  135.0   C } # D for Dihedral angle
| 13> { D 0  4  3  2   C } # D for Dihedral angle
| 14> { D 4  3  2  1   C } # D for Dihedral angle
| 15> { D 3  2  1  0   C } # D for Dihedral angle
| 16> { D 2  1  0  4   C } # D for Dihedral angle
| 17> { D 1  0  4  3   C } # D for Dihedral angle
| 18> { D 16  20  19  18   C } # D for Dihedral angle
| 19> { D 20  19  18  17   C } # D for Dihedral angle
| 20> { D 19  18  17  16   C } # D for Dihedral angle
| 21> { D 18  17  16  20   C } # D for Dihedral angle
| 22> { D 17  16  20  19   C } # D for Dihedral angle
| 23> { D 15  12  16  20   C } # D for Dihedral angle
| 24> end
| 25> end
| 26>
| 27>
| 28> #%pal
| 29> #nprocs 8
| 30> #end
| 31>
| 32> * xyz 0 1
| 33> C  -21.048   26.222   46.251
| 34> C  -20.361   27.558   45.944
| 35> C  -20.329   28.222   47.341
| 36> C  -20.110   27.022   48.296
| 37> O  -20.473   25.807   47.535
| 38> H  -20.833   25.428   45.533
| 39> H  -19.344   27.382   45.576
| 40> H  -20.898   28.157   45.201
| 41> H  -19.543   28.978   47.434
| 42> H  -21.289   28.710   47.548
| 43> H  -20.733   27.082   49.195
| 44> H  -19.064   26.913   48.597
| 45> C  -23.260   27.170   45.210
| 46> H  -23.512   28.183   45.548
| 47> H  -22.574   27.254   44.357
| 48> O  -22.586   26.394   46.375
| 49> C  -24.561   26.486   44.706
| 50> C  -24.302   25.030   44.299
| 51> C  -24.279   24.320   45.674
| 52> C  -25.335   25.104   46.493
| 53> O  -25.543   26.390   45.791
| 54> H  -25.008   27.101   43.923
| 55> H  -25.131   24.659   43.687
| 56> O  -22.982   24.844   43.503
| 57> H  -24.513   23.253   45.605
| 58> H  -23.287   24.417   46.131
| 59> H  -25.007   25.304   47.519
| 60> H  -26.302   24.594   46.524
| 61> H  -22.139   25.209   44.098
| 62> *
| 63>
| 64>                          ****END OF INPUT****
 Total Charge           Charge          ....    0
 Multiplicity           Mult            ....    1
 Number of Electrons    NEL             ....  102
FINAL SINGLE POINT ENERGY      -652.824868052706
FINAL SINGLE POINT ENERGY      -652.848153231010
FINAL SINGLE POINT ENERGY      -652.852971509483
FINAL SINGLE POINT ENERGY      -652.855161063406
FINAL SINGLE POINT ENERGY      -652.855538673957
FINAL SINGLE POINT ENERGY      -652.855663617101
FINAL SINGLE POINT ENERGY      -652.855685939054
FINAL SINGLE POINT ENERGY      -652.855681055442
                    ***********************HURRAY********************

CARTESIAN COORDINATES (ANGSTROEM)
---------------------------------
  C    -21.045886   26.300054   46.221512
  C    -20.285058   27.595312   45.941479
  C    -20.314333   28.293282   47.325688
  C    -20.211905   27.106719   48.305473
  O    -20.584407   25.902031   47.517547
  H    -20.826687   25.478572   45.530294
  H    -19.257165   27.342818   45.656103
  H    -20.715189   28.206655   45.145153
  H    -19.495735   29.008694   47.447939
  H    -21.260901   28.826135   47.457820
  H    -20.892942   27.188234   49.155652
  H    -19.193753   26.937868   48.667219
  C    -23.180533   27.210510   45.259121
  H    -23.425809   28.215034   45.621373
  H    -22.547431   27.297774   44.366743
  O    -22.491109   26.488864   46.328617
  C    -24.467728   26.505254   44.839265
  C    -24.308885   25.072862   44.300545
  C    -24.308627   24.232951   45.614896
  C    -25.297641   25.010420   46.510715
  O    -25.429367   26.367435   45.922879
  H    -24.944099   27.151980   44.090973
  H    -25.170215   24.823191   43.675777
  O    -23.148621   24.881828   43.449211
  H    -24.619642   23.198168   45.443079
  H    -23.308071   24.245460   46.054386
  H    -24.939616   25.108261   47.538577
  H    -26.298696   24.567705   46.512782
  H    -22.375948   24.628929   43.993183

 Multiplicity           Mult            ....    1
 Number of Electrons    NEL             ....  102
 Basis Dimension        Dim             ....  149

ORBITAL ENERGIES
----------------

  NO   OCC          E(Eh)            E(eV)
   0   2.0000     -19.146795      -521.0108
   1   2.0000     -19.145059      -520.9635
   2   2.0000     -19.144256      -520.9417
   3   2.0000     -19.130445      -520.5659
   4   2.0000     -10.289330      -279.9869
   5   2.0000     -10.237664      -278.5810
   6   2.0000     -10.230399      -278.3833
   7   2.0000     -10.230063      -278.3742
   8   2.0000     -10.228168      -278.3226
   9   2.0000     -10.218535      -278.0605
  10   2.0000     -10.195132      -277.4237
  11   2.0000     -10.193332      -277.3747
  12   2.0000     -10.180205      -277.0175
  13   2.0000      -1.058927       -28.8149
  14   2.0000      -1.027624       -27.9631
  15   2.0000      -1.009995       -27.4834
  16   2.0000      -0.995136       -27.0790
  17   2.0000      -0.792970       -21.5778
  18   2.0000      -0.772913       -21.0320
  19   2.0000      -0.765487       -20.8300
  20   2.0000      -0.736242       -20.0342
  21   2.0000      -0.679568       -18.4920
  22   2.0000      -0.608406       -16.5556
  23   2.0000      -0.602553       -16.3963
  24   2.0000      -0.599718       -16.3192
  25   2.0000      -0.561912       -15.2904
  26   2.0000      -0.528744       -14.3879
  27   2.0000      -0.507737       -13.8162
  28   2.0000      -0.504935       -13.7400
  29   2.0000      -0.494035       -13.4434
  30   2.0000      -0.472109       -12.8467
  31   2.0000      -0.458880       -12.4868
  32   2.0000      -0.443599       -12.0710
  33   2.0000      -0.428305       -11.6548
  34   2.0000      -0.424125       -11.5410
  35   2.0000      -0.417085       -11.3495
  36   2.0000      -0.407461       -11.0876
  37   2.0000      -0.399523       -10.8716
  38   2.0000      -0.385063       -10.4781
  39   2.0000      -0.365880        -9.9561
  40   2.0000      -0.363156        -9.8820
  41   2.0000      -0.358762        -9.7624
  42   2.0000      -0.350221        -9.5300
  43   2.0000      -0.323934        -8.8147
  44   2.0000      -0.314374        -8.5546
  45   2.0000      -0.312190        -8.4951
  46   2.0000      -0.304526        -8.2866
  47   2.0000      -0.267340        -7.2747
  48   2.0000      -0.263342        -7.1659
  49   2.0000      -0.261269        -7.1095
  50   2.0000      -0.233851        -6.3634
  51   0.0000       0.045732         1.2444
  52   0.0000       0.077981         2.1220
  53   0.0000       0.094587         2.5738
  54   0.0000       0.095724         2.6048
  55   0.0000       0.106682         2.9030

MULLIKEN ATOMIC CHARGES
-----------------------
   0 C :    0.308195
   1 C :   -0.285833
   2 C :   -0.300484
   3 C :   -0.000531
   4 O :   -0.502662
   5 H :    0.123739
   6 H :    0.151502
   7 H :    0.149395
   8 H :    0.146217
   9 H :    0.162253
  10 H :    0.157779
  11 H :    0.144470
  12 C :   -0.021246
  13 H :    0.150044
  14 H :    0.139489
  15 O :   -0.521536
  16 C :    0.093557
  17 C :    0.082615
  18 C :   -0.322835
  19 C :   -0.002441
  20 O :   -0.520364
  21 H :    0.146685
  22 H :    0.160107
  23 O :   -0.613452
  24 H :    0.143865
  25 H :    0.171730
  26 H :    0.157832
  27 H :    0.139466
  28 H :    0.362443
Sum of atomic charges:   -0.0000000

LOEWDIN ATOMIC CHARGES
----------------------
   0 C :    0.179308
   1 C :   -0.232830
   2 C :   -0.216051
   3 C :   -0.024086
   4 O :   -0.304568
   5 H :    0.084908
   6 H :    0.118381
   7 H :    0.116805
   8 H :    0.116516
   9 H :    0.118127
  10 H :    0.111530
  11 H :    0.104074
  12 C :   -0.048514
  13 H :    0.108381
  14 H :    0.103268
  15 O :   -0.339651
  16 C :    0.017304
  17 C :    0.036619
  18 C :   -0.243144
  19 C :   -0.022943
  20 O :   -0.322461
  21 H :    0.112505
  22 H :    0.114598
  23 O :   -0.414554
  24 H :    0.114314
  25 H :    0.123622
  26 H :    0.111198
  27 H :    0.099824
  28 H :    0.277518

  Mayer bond orders larger than 0.100000
B(  0-C ,  1-C ) :   0.9333 B(  0-C ,  4-O ) :   0.9388 B(  0-C ,  5-H ) :   0.9146
B(  0-C , 15-O ) :   0.8372 B(  1-C ,  2-C ) :   0.9500 B(  1-C ,  6-H ) :   0.9334
B(  1-C ,  7-H ) :   0.9283 B(  2-C ,  3-C ) :   0.9556 B(  2-C ,  8-H ) :   0.9447
B(  2-C ,  9-H ) :   0.9444 B(  3-C ,  4-O ) :   0.8305 B(  3-C , 10-H ) :   0.9342
B(  3-C , 11-H ) :   0.9397 B( 12-C , 13-H ) :   0.9246 B( 12-C , 14-H ) :   0.9018
B( 12-C , 15-O ) :   0.8382 B( 12-C , 16-C ) :   0.9068 B( 16-C , 17-C ) :   0.8852
B( 16-C , 20-O ) :   0.8813 B( 16-C , 21-H ) :   0.9260 B( 17-C , 18-C ) :   0.9433
B( 17-C , 22-H ) :   0.9341 B( 17-C , 23-O ) :   0.8913 B( 18-C , 19-C ) :   0.9457
B( 18-C , 24-H ) :   0.9395 B( 18-C , 25-H ) :   0.9237 B( 19-C , 20-O ) :   0.8382
B( 19-C , 26-H ) :   0.9305 B( 19-C , 27-H ) :   0.9378 B( 23-O , 28-H ) :   0.7909

FINAL SINGLE POINT ENERGY      -652.855678782530

DIPOLE MOMENT
-------------
                                X             Y             Z
Electronic contribution:     -2.67753      -2.12169      -0.97209
Nuclear contribution   :      3.60323       2.59401       0.98951
                        -----------------------------------------
Total Dipole Moment    :      0.92569       0.47232       0.01741
                        -----------------------------------------
Magnitude (a.u.)       :      1.03937
Magnitude (Debye)      :      2.64188

Rotational constants in cm-1:     0.048802     0.015355     0.014669
Rotational constants in MHz :  1463.062078   460.320200   439.766000

                             ****ORCA TERMINATED NORMALLY****
TOTAL RUN TIME: 0 days 0 hours 36 minutes 10 seconds 653 msec
