                         Program Version 4.2.1 -  RELEASE  -
|  1> # Test redundant internal optimization
|  2> #
|  3> ! RKS B3LYP  Opt TightSCF SmallPrint
|  4>
|  5> %basis
|  6>         Basis "6-31G"
|  7> end
|  8>
|  9> %geom
| 10> Constraints
| 11> { D 4  0  19  14  225.0   C } # D for Dihedral angle
| 12> { D 0  19  14  12  30.0   C } # D for Dihedral angle
| 13> { D 0  4  3  2   C } # D for Dihedral angle
| 14> { D 4  3  2  1   C } # D for Dihedral angle
| 15> { D 3  2  1  0   C } # D for Dihedral angle
| 16> { D 2  1  0  4   C } # D for Dihedral angle
| 17> { D 1  0  4  3   C } # D for Dihedral angle
| 18> { D 14  15  16  17   C } # D for Dihedral angle
| 19> { D 15  16  17  12   C } # D for Dihedral angle
| 20> { D 16  17  12  14   C } # D for Dihedral angle
| 21> { D 17  12  14  15   C } # D for Dihedral angle
| 22> { D 12  14  15  16   C } # D for Dihedral angle
| 23> end
| 24> end
| 25>
| 26>
| 27> #%pal
| 28> #nprocs 8
| 29> #end
| 30>
| 31> * xyz 0 1
| 32> C  -21.048   26.222   46.251
| 33> C  -20.361   27.558   45.944
| 34> C  -20.329   28.222   47.341
| 35> C  -20.110   27.022   48.296
| 36> O  -20.473   25.807   47.535
| 37> H  -20.833   25.428   45.533
| 38> H  -19.344   27.382   45.576
| 39> H  -20.898   28.157   45.201
| 40> H  -19.543   28.978   47.434
| 41> H  -21.289   28.710   47.548
| 42> H  -20.733   27.082   49.195
| 43> H  -19.064   26.913   48.597
| 44> C  -22.475   24.587   44.721
| 45> H  -22.864   24.303   43.731
| 46> C  -23.222   25.800   45.287
| 47> C  -24.523   25.151   45.813
| 48> C  -24.045   23.768   46.324
| 49> O  -22.728   23.520   45.696
| 50> H  -21.393   24.711   44.658
| 51> O  -22.472   26.381   46.366
| 52> H  -23.408   26.578   44.538
| 53> H  -25.006   25.741   46.598
| 54> H  -25.243   25.031   44.994
| 55> H  -24.730   22.959   46.052
| 56> H  -23.892   23.754   47.408
| 57> *
| 58>
| 59>                          ****END OF INPUT****
 Total Charge           Charge          ....    0
 Multiplicity           Mult            ....    1
 Number of Electrons    NEL             ....   86
FINAL SINGLE POINT ENERGY      -538.402552000418
FINAL SINGLE POINT ENERGY      -538.425261404165
FINAL SINGLE POINT ENERGY      -538.427035286200
FINAL SINGLE POINT ENERGY      -538.427293721036
FINAL SINGLE POINT ENERGY      -538.427355005774
FINAL SINGLE POINT ENERGY      -538.427365787737
                    ***********************HURRAY********************

CARTESIAN COORDINATES (ANGSTROEM)
---------------------------------
  C    -20.871944   26.198264   46.237833
  C    -20.244440   27.570779   45.993743
  C    -20.422521   28.253711   47.371809
  C    -20.241210   27.082138   48.361823
  O    -20.435324   25.844725   47.565568
  H    -20.529836   25.403079   45.576949
  H    -19.181193   27.450474   45.753207
  H    -20.730516   28.113719   45.178932
  H    -19.702088   29.059644   47.539985
  H    -21.432456   28.667434   47.446860
  H    -20.969144   27.092927   49.177540
  H    -19.230857   27.031723   48.779440
  C    -22.654096   24.470873   44.510251
  H    -23.262491   24.279672   43.612729
  C    -23.171493   25.735558   45.193168
  C    -24.412911   25.204467   45.931885
  C    -23.996063   23.776832   46.355711
  O    -22.834217   23.417608   45.508020
  H    -21.603959   24.471869   44.216702
  O    -22.316095   26.310074   46.236556
  H    -23.411459   26.523102   44.467610
  H    -24.653723   25.849827   46.778832
  H    -25.271726   25.181433   45.250027
  H    -24.791956   23.040717   46.199378
  H    -23.654281   23.734349   47.392443

 Multiplicity           Mult            ....    1
 Number of Electrons    NEL             ....   86
 Basis Dimension        Dim             ....  127

ORBITAL ENERGIES
----------------

  NO   OCC          E(Eh)            E(eV)
   0   2.0000     -19.135943      -520.7155
   1   2.0000     -19.132552      -520.6232
   2   2.0000     -19.130057      -520.5553
   3   2.0000     -10.274722      -279.5894
   4   2.0000     -10.243247      -278.7329
   5   2.0000     -10.228620      -278.3349
   6   2.0000     -10.219533      -278.0876
   7   2.0000     -10.218345      -278.0553
   8   2.0000     -10.183107      -277.0964
   9   2.0000     -10.181948      -277.0649
  10   2.0000     -10.181740      -277.0592
  11   2.0000      -1.046899       -28.4876
  12   2.0000      -1.014396       -27.6031
  13   2.0000      -0.984202       -26.7815
  14   2.0000      -0.788961       -21.4687
  15   2.0000      -0.775466       -21.1015
  16   2.0000      -0.737768       -20.0757
  17   2.0000      -0.722697       -19.6656
  18   2.0000      -0.618582       -16.8325
  19   2.0000      -0.596386       -16.2285
  20   2.0000      -0.591740       -16.1021
  21   2.0000      -0.564260       -15.3543
  22   2.0000      -0.527085       -14.3427
  23   2.0000      -0.498590       -13.5673
  24   2.0000      -0.485418       -13.2089
  25   2.0000      -0.476016       -12.9530
  26   2.0000      -0.449616       -12.2347
  27   2.0000      -0.447035       -12.1644
  28   2.0000      -0.426749       -11.6124
  29   2.0000      -0.415467       -11.3054
  30   2.0000      -0.397990       -10.8299
  31   2.0000      -0.376204       -10.2370
  32   2.0000      -0.372369       -10.1327
  33   2.0000      -0.364303        -9.9132
  34   2.0000      -0.360803        -9.8180
  35   2.0000      -0.352592        -9.5945
  36   2.0000      -0.345500        -9.4015
  37   2.0000      -0.313843        -8.5401
  38   2.0000      -0.306606        -8.3432
  39   2.0000      -0.292872        -7.9695
  40   2.0000      -0.258438        -7.0325
  41   2.0000      -0.242349        -6.5946
  42   2.0000      -0.237080        -6.4513
  43   0.0000       0.079056         2.1512
  44   0.0000       0.098769         2.6876
  45   0.0000       0.104774         2.8510
  46   0.0000       0.109154         2.9702
  47   0.0000       0.115274         3.1368

MULLIKEN ATOMIC CHARGES
-----------------------
   0 C :    0.289356
   1 C :   -0.254207
   2 C :   -0.298047
   3 C :   -0.001305
   4 O :   -0.497709
   5 H :    0.149080
   6 H :    0.141591
   7 H :    0.139065
   8 H :    0.138770
   9 H :    0.159935
  10 H :    0.149288
  11 H :    0.139443
  12 C :   -0.027360
  13 H :    0.130831
  14 C :    0.092850
  15 C :   -0.292051
  16 C :    0.000125
  17 O :   -0.518981
  18 H :    0.153708
  19 O :   -0.530702
  20 H :    0.130156
  21 H :    0.170098
  22 H :    0.135474
  23 H :    0.136637
  24 H :    0.163953
Sum of atomic charges:    0.0000000

LOEWDIN ATOMIC CHARGES
----------------------
   0 C :    0.178186
   1 C :   -0.224700
   2 C :   -0.216733
   3 C :   -0.027414
   4 O :   -0.310069
   5 H :    0.102614
   6 H :    0.111542
   7 H :    0.114034
   8 H :    0.112588
   9 H :    0.117977
  10 H :    0.106382
  11 H :    0.100948
  12 C :   -0.050874
  13 H :    0.096663
  14 C :    0.044700
  15 C :   -0.225184
  16 C :   -0.027194
  17 O :   -0.329498
  18 H :    0.111086
  19 O :   -0.334146
  20 H :    0.096611
  21 H :    0.131208
  22 H :    0.108302
  23 H :    0.098975
  24 H :    0.113995

  Mayer bond orders larger than 0.100000
B(  0-C ,  1-C ) :   0.9346 B(  0-C ,  4-O ) :   0.9299 B(  0-C ,  5-H ) :   0.9121
B(  0-C , 19-O ) :   0.8365 B(  1-C ,  2-C ) :   0.9565 B(  1-C ,  6-H ) :   0.9361
B(  1-C ,  7-H ) :   0.9400 B(  2-C ,  3-C ) :   0.9537 B(  2-C ,  8-H ) :   0.9456
B(  2-C ,  9-H ) :   0.9441 B(  3-C ,  4-O ) :   0.8419 B(  3-C , 10-H ) :   0.9349
B(  3-C , 11-H ) :   0.9397 B( 12-C , 13-H ) :   0.9087 B( 12-C , 14-C ) :   0.9198
B( 12-C , 17-O ) :   0.8725 B( 12-C , 18-H ) :   0.9239 B( 14-C , 15-C ) :   0.9475
B( 14-C , 19-O ) :   0.8419 B( 14-C , 20-H ) :   0.9230 B( 15-C , 16-C ) :   0.9479
B( 15-C , 21-H ) :   0.9348 B( 15-C , 22-H ) :   0.9404 B( 16-C , 17-O ) :   0.8460
B( 16-C , 23-H ) :   0.9339 B( 16-C , 24-H ) :   0.9348

FINAL SINGLE POINT ENERGY      -538.427366926226

DIPOLE MOMENT
-------------
                                X             Y             Z
Electronic contribution:      0.58001      -3.39004       0.19403
Nuclear contribution   :     -0.89508       4.52981      -0.80499
                        -----------------------------------------
Total Dipole Moment    :     -0.31507       1.13977      -0.61096
                        -----------------------------------------
Magnitude (a.u.)       :      1.33102
Magnitude (Debye)      :      3.38318

Rotational constants in cm-1:     0.079271     0.021236     0.020646
Rotational constants in MHz :  2376.489218   636.651553   618.948650

                             ****ORCA TERMINATED NORMALLY****
TOTAL RUN TIME: 0 days 0 hours 8 minutes 52 seconds 572 msec
