                         Program Version 4.2.1 -  RELEASE  -
|  1> # Test redundant internal optimization
|  2> #
|  3> ! RKS B3LYP  Opt TightSCF SmallPrint
|  4>
|  5> %basis
|  6>         Basis "6-31G"
|  7> end
|  8>
|  9> %geom
| 10> Constraints
| 11> { D 4  0  19  14  165.0   C } # D for Dihedral angle
| 12> { D 0  19  14  12  75.0   C } # D for Dihedral angle
| 13> { D 0  4  3  2   C } # D for Dihedral angle
| 14> { D 4  3  2  1   C } # D for Dihedral angle
| 15> { D 3  2  1  0   C } # D for Dihedral angle
| 16> { D 2  1  0  4   C } # D for Dihedral angle
| 17> { D 1  0  4  3   C } # D for Dihedral angle
| 18> { D 14  15  16  17   C } # D for Dihedral angle
| 19> { D 15  16  17  12   C } # D for Dihedral angle
| 20> { D 16  17  12  14   C } # D for Dihedral angle
| 21> { D 17  12  14  15   C } # D for Dihedral angle
| 22> { D 12  14  15  16   C } # D for Dihedral angle
| 23> end
| 24> end
| 25>
| 26>
| 27> #%pal
| 28> #nprocs 8
| 29> #end
| 30>
| 31> * xyz 0 1
| 32> C  -21.048   26.222   46.251
| 33> C  -20.361   27.558   45.944
| 34> C  -20.329   28.222   47.341
| 35> C  -20.110   27.022   48.296
| 36> O  -20.473   25.807   47.535
| 37> H  -20.833   25.428   45.533
| 38> H  -19.344   27.382   45.576
| 39> H  -20.898   28.157   45.201
| 40> H  -19.543   28.978   47.434
| 41> H  -21.289   28.710   47.548
| 42> H  -20.733   27.082   49.195
| 43> H  -19.064   26.913   48.597
| 44> C  -23.153   26.209   44.036
| 45> H  -23.336   26.803   43.127
| 46> C  -23.077   27.101   45.280
| 47> C  -24.573   27.367   45.567
| 48> C  -25.253   26.036   45.162
| 49> O  -24.288   25.317   44.300
| 50> H  -22.279   25.575   43.879
| 51> O  -22.472   26.381   46.366
| 52> H  -22.506   28.021   45.115
| 53> H  -24.765   27.633   46.612
| 54> H  -24.937   28.192   44.941
| 55> H  -26.184   26.190   44.606
| 56> H  -25.456   25.391   46.023
| 57> *
| 58>
| 59>                          ****END OF INPUT****
 Total Charge           Charge          ....    0
 Multiplicity           Mult            ....    1
 Number of Electrons    NEL             ....   86
FINAL SINGLE POINT ENERGY      -538.418630027313
FINAL SINGLE POINT ENERGY      -538.426117546265
FINAL SINGLE POINT ENERGY      -538.427395965337
FINAL SINGLE POINT ENERGY      -538.427678829858
FINAL SINGLE POINT ENERGY      -538.427700328866
FINAL SINGLE POINT ENERGY      -538.427711033286
                    ***********************HURRAY********************

CARTESIAN COORDINATES (ANGSTROEM)
---------------------------------
  C    -21.003635   26.234643   46.232082
  C    -20.193653   27.502208   45.960321
  C    -20.270889   28.234582   47.325216
  C    -20.249748   27.068074   48.335094
  O    -20.616054   25.856304   47.560612
  H    -20.777038   25.388706   45.577887
  H    -19.161042   27.209296   45.737894
  H    -20.553307   28.107703   45.124952
  H    -19.439884   28.930874   47.472622
  H    -21.207837   28.795490   47.398975
  H    -20.966152   27.191325   49.151161
  H    -19.254368   26.884724   48.750347
  C    -23.253045   26.297765   43.924852
  H    -23.549566   26.923992   43.069364
  C    -23.109820   27.153695   45.183050
  C    -24.579067   27.313758   45.619952
  C    -25.216542   25.957464   45.237519
  O    -24.296180   25.329614   44.261197
  H    -22.357683   25.731432   43.659058
  O    -22.449093   26.450130   46.273224
  H    -22.629078   28.119494   44.985703
  H    -24.639378   27.526702   46.689468
  H    -25.039794   28.140530   45.067623
  H    -26.203648   26.070376   44.776354
  H    -25.287499   25.278119   46.090473

 Multiplicity           Mult            ....    1
 Number of Electrons    NEL             ....   86
 Basis Dimension        Dim             ....  127

ORBITAL ENERGIES
----------------

  NO   OCC          E(Eh)            E(eV)
   0   2.0000     -19.139698      -520.8177
   1   2.0000     -19.138538      -520.7861
   2   2.0000     -19.127473      -520.4850
   3   2.0000     -10.279793      -279.7274
   4   2.0000     -10.241877      -278.6956
   5   2.0000     -10.226110      -278.2666
   6   2.0000     -10.224220      -278.2152
   7   2.0000     -10.218011      -278.0462
   8   2.0000     -10.192293      -277.3464
   9   2.0000     -10.191129      -277.3147
  10   2.0000     -10.185111      -277.1510
  11   2.0000      -1.053216       -28.6595
  12   2.0000      -1.014321       -27.6011
  13   2.0000      -0.987708       -26.8769
  14   2.0000      -0.790429       -21.5087
  15   2.0000      -0.782316       -21.2879
  16   2.0000      -0.737608       -20.0713
  17   2.0000      -0.727184       -19.7877
  18   2.0000      -0.619631       -16.8610
  19   2.0000      -0.603634       -16.4257
  20   2.0000      -0.593165       -16.1408
  21   2.0000      -0.565017       -15.3749
  22   2.0000      -0.527882       -14.3644
  23   2.0000      -0.499722       -13.5981
  24   2.0000      -0.493165       -13.4197
  25   2.0000      -0.480971       -13.0879
  26   2.0000      -0.452192       -12.3048
  27   2.0000      -0.449893       -12.2422
  28   2.0000      -0.429352       -11.6833
  29   2.0000      -0.421114       -11.4591
  30   2.0000      -0.402994       -10.9660
  31   2.0000      -0.382194       -10.4000
  32   2.0000      -0.373243       -10.1565
  33   2.0000      -0.366457        -9.9718
  34   2.0000      -0.364524        -9.9192
  35   2.0000      -0.356736        -9.7073
  36   2.0000      -0.352602        -9.5948
  37   2.0000      -0.313220        -8.5232
  38   2.0000      -0.306482        -8.3398
  39   2.0000      -0.296492        -8.0680
  40   2.0000      -0.258698        -7.0395
  41   2.0000      -0.253311        -6.8930
  42   2.0000      -0.233885        -6.3643
  43   0.0000       0.070718         1.9243
  44   0.0000       0.096106         2.6152
  45   0.0000       0.100627         2.7382
  46   0.0000       0.106236         2.8908
  47   0.0000       0.113263         3.0821

MULLIKEN ATOMIC CHARGES
-----------------------
   0 C :    0.314096
   1 C :   -0.295543
   2 C :   -0.297040
   3 C :    0.000193
   4 O :   -0.498792
   5 H :    0.150546
   6 H :    0.152838
   7 H :    0.141211
   8 H :    0.143711
   9 H :    0.154537
  10 H :    0.153156
  11 H :    0.143077
  12 C :    0.005962
  13 H :    0.121149
  14 C :    0.051762
  15 C :   -0.284500
  16 C :   -0.002774
  17 O :   -0.516823
  18 H :    0.150200
  19 O :   -0.508547
  20 H :    0.121984
  21 H :    0.163941
  22 H :    0.137604
  23 H :    0.134630
  24 H :    0.163421
Sum of atomic charges:    0.0000000

LOEWDIN ATOMIC CHARGES
----------------------
   0 C :    0.183226
   1 C :   -0.235033
   2 C :   -0.216794
   3 C :   -0.025547
   4 O :   -0.301608
   5 H :    0.100528
   6 H :    0.119168
   7 H :    0.111660
   8 H :    0.114990
   9 H :    0.113912
  10 H :    0.108843
  11 H :    0.103126
  12 C :   -0.046687
  13 H :    0.090648
  14 C :    0.031686
  15 C :   -0.221614
  16 C :   -0.027849
  17 O :   -0.328814
  18 H :    0.111483
  19 O :   -0.326674
  20 H :    0.091515
  21 H :    0.128958
  22 H :    0.110078
  23 H :    0.097734
  24 H :    0.113064

  Mayer bond orders larger than 0.100000
B(  0-C ,  1-C ) :   0.9271 B(  0-C ,  4-O ) :   0.9332 B(  0-C ,  5-H ) :   0.9209
B(  0-C , 19-O ) :   0.8354 B(  1-C ,  2-C ) :   0.9500 B(  1-C ,  6-H ) :   0.9339
B(  1-C ,  7-H ) :   0.9284 B(  2-C ,  3-C ) :   0.9549 B(  2-C ,  8-H ) :   0.9451
B(  2-C ,  9-H ) :   0.9457 B(  3-C ,  4-O ) :   0.8377 B(  3-C , 10-H ) :   0.9344
B(  3-C , 11-H ) :   0.9396 B( 12-C , 13-H ) :   0.9103 B( 12-C , 14-C ) :   0.9070
B( 12-C , 17-O ) :   0.8795 B( 12-C , 18-H ) :   0.9332 B( 14-C , 15-C ) :   0.9558
B( 14-C , 19-O ) :   0.8469 B( 14-C , 20-H ) :   0.9097 B( 15-C , 16-C ) :   0.9485
B( 15-C , 21-H ) :   0.9363 B( 15-C , 22-H ) :   0.9427 B( 16-C , 17-O ) :   0.8516
B( 16-C , 23-H ) :   0.9330 B( 16-C , 24-H ) :   0.9346

FINAL SINGLE POINT ENERGY      -538.427711296905

DIPOLE MOMENT
-------------
                                X             Y             Z
Electronic contribution:     -0.58875      -4.90471       0.10752
Nuclear contribution   :      1.05256       6.63536      -0.32602
                        -----------------------------------------
Total Dipole Moment    :      0.46381       1.73065      -0.21850
                        -----------------------------------------
Magnitude (a.u.)       :      1.80499
Magnitude (Debye)      :      4.58793

Rotational constants in cm-1:     0.084934     0.019974     0.019828
Rotational constants in MHz :  2546.256913   598.809485   594.422211

                             ****ORCA TERMINATED NORMALLY****
TOTAL RUN TIME: 0 days 0 hours 8 minutes 0 seconds 691 msec
