                         Program Version 4.2.0 -  RELEASE  -
|  1> # Test redundant internal optimization
|  2> #
|  3> ! RKS B3LYP  Opt TightSCF SmallPrint
|  4>
|  5> %basis
|  6>         Basis "6-31G"
|  7> end
|  8>
|  9> %geom
| 10> Constraints
| 11> { D 4  0  15  12  300.0   C } # D for Dihedral angle
| 12> { D 0  15  12  16  60.0   C } # D for Dihedral angle
| 13> { D 0  4  3  2   C } # D for Dihedral angle
| 14> { D 4  3  2  1   C } # D for Dihedral angle
| 15> { D 3  2  1  0   C } # D for Dihedral angle
| 16> { D 2  1  0  4   C } # D for Dihedral angle
| 17> { D 1  0  4  3   C } # D for Dihedral angle
| 18> { D 16  20  19  18   C } # D for Dihedral angle
| 19> { D 20  19  18  17   C } # D for Dihedral angle
| 20> { D 19  18  17  16   C } # D for Dihedral angle
| 21> { D 18  17  16  20   C } # D for Dihedral angle
| 22> { D 17  16  20  19   C } # D for Dihedral angle
| 23> { D 15  12  16  20   C } # D for Dihedral angle
| 24> end
| 25> end
| 26>
| 27>
| 28> #%pal
| 29> #nprocs 8
| 30> #end
| 31>
| 32> * xyz 0 1
| 33> C  -21.048   26.222   46.251
| 34> C  -20.361   27.558   45.944
| 35> C  -20.329   28.222   47.341
| 36> C  -20.110   27.022   48.296
| 37> O  -20.473   25.807   47.535
| 38> H  -20.833   25.428   45.533
| 39> H  -19.344   27.382   45.576
| 40> H  -20.898   28.157   45.201
| 41> H  -19.543   28.978   47.434
| 42> H  -21.289   28.710   47.548
| 43> H  -20.733   27.082   49.195
| 44> H  -19.064   26.913   48.597
| 45> C  -23.362   25.116   46.798
| 46> H  -24.434   25.343   46.847
| 47> H  -23.214   24.316   46.061
| 48> O  -22.586   26.394   46.375
| 49> C  -22.914   24.573   48.183
| 50> C  -23.242   25.566   49.303
| 51> C  -24.753   25.308   49.518
| 52> C  -24.888   23.784   49.271
| 53> O  -23.676   23.369   48.532
| 54> H  -21.863   24.282   48.130
| 55> O  -22.438   25.210   50.583
| 56> H  -23.022   26.605   49.036
| 57> H  -25.096   25.601   50.515
| 58> H  -25.339   25.872   48.783
| 59> H  -25.773   23.532   48.678
| 60> H  -24.910   23.211   50.201
| 61> H  -22.643   24.172   50.871
| 62> *
| 63>
| 64>                          ****END OF INPUT****
 Total Charge           Charge          ....    0
 Multiplicity           Mult            ....    1
 Number of Electrons    NEL             ....  102
FINAL SINGLE POINT ENERGY      -652.840548729571
FINAL SINGLE POINT ENERGY      -652.863562652968
FINAL SINGLE POINT ENERGY      -652.867902732874
FINAL SINGLE POINT ENERGY      -652.868681721220
FINAL SINGLE POINT ENERGY      -652.868848344352
FINAL SINGLE POINT ENERGY      -652.868874882800
FINAL SINGLE POINT ENERGY      -652.868880131251
                    ***********************HURRAY********************

CARTESIAN COORDINATES (ANGSTROEM)
---------------------------------
  C    -21.034775   26.150316   46.306323
  C    -20.483426   27.535936   45.964960
  C    -20.439260   28.210914   47.356499
  C    -20.070593   27.044270   48.302696
  O    -20.373612   25.798323   47.542643
  H    -20.781107   25.350704   45.600623
  H    -19.476779   27.428033   45.546149
  H    -21.115891   28.063049   45.248161
  H    -19.711859   29.026920   47.405927
  H    -21.426579   28.613616   47.601158
  H    -20.638256   27.029231   49.235149
  H    -19.001755   27.008974   48.532778
  C    -23.243261   25.103082   46.819872
  H    -24.282323   25.437818   46.771116
  H    -23.110866   24.289062   46.092088
  O    -22.471860   26.272248   46.399476
  C    -22.902965   24.552149   48.212142
  C    -23.205422   25.524421   49.361182
  C    -24.739979   25.358733   49.516449
  C    -24.965643   23.856910   49.205458
  O    -23.754129   23.387784   48.488365
  H    -21.869112   24.211426   48.245946
  O    -22.487093   25.170173   50.573562
  H    -22.915222   26.549299   49.134758
  H    -25.058197   25.636105   50.524341
  H    -25.265710   26.001293   48.802268
  H    -25.844044   23.679604   48.576763
  H    -25.057446   23.250336   50.111428
  H    -22.450835   24.194271   50.657719

 Multiplicity           Mult            ....    1
 Number of Electrons    NEL             ....  102
 Basis Dimension        Dim             ....  149

ORBITAL ENERGIES
----------------

  NO   OCC          E(Eh)            E(eV)
   0   2.0000     -19.147865      -521.0399
   1   2.0000     -19.145541      -520.9766
   2   2.0000     -19.140582      -520.8417
   3   2.0000     -19.134546      -520.6775
   4   2.0000     -10.280351      -279.7426
   5   2.0000     -10.233662      -278.4721
   6   2.0000     -10.229101      -278.3480
   7   2.0000     -10.227836      -278.3136
   8   2.0000     -10.224880      -278.2331
   9   2.0000     -10.224098      -278.2118
  10   2.0000     -10.186477      -277.1881
  11   2.0000     -10.186168      -277.1797
  12   2.0000     -10.184511      -277.1346
  13   2.0000      -1.055427       -28.7196
  14   2.0000      -1.031486       -28.0682
  15   2.0000      -1.002668       -27.2840
  16   2.0000      -0.996460       -27.1151
  17   2.0000      -0.790762       -21.5177
  18   2.0000      -0.775844       -21.1118
  19   2.0000      -0.761766       -20.7287
  20   2.0000      -0.730819       -19.8866
  21   2.0000      -0.672962       -18.3122
  22   2.0000      -0.600403       -16.3378
  23   2.0000      -0.599462       -16.3122
  24   2.0000      -0.597280       -16.2528
  25   2.0000      -0.574221       -15.6254
  26   2.0000      -0.519746       -14.1430
  27   2.0000      -0.517877       -14.0922
  28   2.0000      -0.491042       -13.3619
  29   2.0000      -0.486371       -13.2348
  30   2.0000      -0.469763       -12.7829
  31   2.0000      -0.458392       -12.4735
  32   2.0000      -0.443921       -12.0797
  33   2.0000      -0.436931       -11.8895
  34   2.0000      -0.415427       -11.3043
  35   2.0000      -0.412579       -11.2269
  36   2.0000      -0.402572       -10.9545
  37   2.0000      -0.388818       -10.5803
  38   2.0000      -0.374235       -10.1835
  39   2.0000      -0.365857        -9.9555
  40   2.0000      -0.357637        -9.7318
  41   2.0000      -0.356363        -9.6971
  42   2.0000      -0.349193        -9.5020
  43   2.0000      -0.335959        -9.1419
  44   2.0000      -0.324821        -8.8388
  45   2.0000      -0.304258        -8.2793
  46   2.0000      -0.300735        -8.1834
  47   2.0000      -0.271505        -7.3880
  48   2.0000      -0.266578        -7.2540
  49   2.0000      -0.260634        -7.0922
  50   2.0000      -0.237889        -6.4733
  51   0.0000       0.067908         1.8479
  52   0.0000       0.078011         2.1228
  53   0.0000       0.095489         2.5984
  54   0.0000       0.100182         2.7261
  55   0.0000       0.105268         2.8645

MULLIKEN ATOMIC CHARGES
-----------------------
   0 C :    0.291453
   1 C :   -0.262104
   2 C :   -0.301760
   3 C :   -0.020249
   4 O :   -0.514508
   5 H :    0.144834
   6 H :    0.147110
   7 H :    0.160371
   8 H :    0.143807
   9 H :    0.159008
  10 H :    0.170632
  11 H :    0.146860
  12 C :   -0.019232
  13 H :    0.147401
  14 H :    0.145315
  15 O :   -0.523633
  16 C :    0.038808
  17 C :    0.103926
  18 C :   -0.301794
  19 C :   -0.025864
  20 O :   -0.529860
  21 H :    0.195606
  22 O :   -0.613072
  23 H :    0.156667
  24 H :    0.158196
  25 H :    0.146989
  26 H :    0.141700
  27 H :    0.147639
  28 H :    0.365753
Sum of atomic charges:   -0.0000000

LOEWDIN ATOMIC CHARGES
----------------------
   0 C :    0.172284
   1 C :   -0.213336
   2 C :   -0.216312
   3 C :   -0.032050
   4 O :   -0.324739
   5 H :    0.095822
   6 H :    0.115196
   7 H :    0.125794
   8 H :    0.115028
   9 H :    0.116482
  10 H :    0.114842
  11 H :    0.105236
  12 C :   -0.040585
  13 H :    0.110710
  14 H :    0.103165
  15 O :   -0.328995
  16 C :   -0.002023
  17 C :    0.037893
  18 C :   -0.241125
  19 C :   -0.037905
  20 O :   -0.331801
  21 H :    0.129791
  22 O :   -0.417179
  23 H :    0.115081
  24 H :    0.125613
  25 H :    0.113857
  26 H :    0.101721
  27 H :    0.103306
  28 H :    0.284232

  Mayer bond orders larger than 0.100000
B(  0-C ,  1-C ) :   0.9487 B(  0-C ,  4-O ) :   0.8974 B(  0-C ,  5-H ) :   0.9199
B(  0-C , 15-O ) :   0.8610 B(  1-C ,  2-C ) :   0.9556 B(  1-C ,  6-H ) :   0.9400
B(  1-C ,  7-H ) :   0.9362 B(  2-C ,  3-C ) :   0.9536 B(  2-C ,  8-H ) :   0.9448
B(  2-C ,  9-H ) :   0.9446 B(  3-C ,  4-O ) :   0.8231 B(  3-C , 10-H ) :   0.9227
B(  3-C , 11-H ) :   0.9409 B( 12-C , 13-H ) :   0.9413 B( 12-C , 14-H ) :   0.9198
B( 12-C , 15-O ) :   0.8405 B( 12-C , 16-C ) :   0.8821 B( 16-C , 17-C ) :   0.9142
B( 16-C , 20-O ) :   0.8223 B( 16-C , 21-H ) :   0.9071 B( 17-C , 18-C ) :   0.9114
B( 17-C , 22-O ) :   0.8801 B( 17-C , 23-H ) :   0.9252 B( 18-C , 19-C ) :   0.9437
B( 18-C , 24-H ) :   0.9386 B( 18-C , 25-H ) :   0.9345 B( 19-C , 20-O ) :   0.8470
B( 19-C , 26-H ) :   0.9356 B( 19-C , 27-H ) :   0.9382 B( 22-O , 28-H ) :   0.7952

FINAL SINGLE POINT ENERGY      -652.868881665873

DIPOLE MOMENT
-------------
                                X             Y             Z
Electronic contribution:      0.59067      -4.11082       0.00930
Nuclear contribution   :     -0.80701       4.70923      -0.27941
                        -----------------------------------------
Total Dipole Moment    :     -0.21634       0.59841      -0.27011
                        -----------------------------------------
Magnitude (a.u.)       :      0.69127
Magnitude (Debye)      :      1.75706

Rotational constants in cm-1:     0.051098     0.016793     0.014829
Rotational constants in MHz :  1531.883219   503.445615   444.553679

                             ****ORCA TERMINATED NORMALLY****
TOTAL RUN TIME: 0 days 0 hours 28 minutes 5 seconds 568 msec
