                         Program Version 4.2.0 -  RELEASE  -
|  1> # Test redundant internal optimization
|  2> #
|  3> ! RKS B3LYP  Opt TightSCF SmallPrint
|  4>
|  5> %basis
|  6>         Basis "6-31G"
|  7> end
|  8>
|  9> %geom
| 10> Constraints
| 11> { D 4  0  15  12  225.0   C } # D for Dihedral angle
| 12> { D 0  15  12  16  255.0   C } # D for Dihedral angle
| 13> { D 0  4  3  2   C } # D for Dihedral angle
| 14> { D 4  3  2  1   C } # D for Dihedral angle
| 15> { D 3  2  1  0   C } # D for Dihedral angle
| 16> { D 2  1  0  4   C } # D for Dihedral angle
| 17> { D 1  0  4  3   C } # D for Dihedral angle
| 18> { D 16  20  19  18   C } # D for Dihedral angle
| 19> { D 20  19  18  17   C } # D for Dihedral angle
| 20> { D 19  18  17  16   C } # D for Dihedral angle
| 21> { D 18  17  16  20   C } # D for Dihedral angle
| 22> { D 17  16  20  19   C } # D for Dihedral angle
| 23> { D 15  12  16  20   C } # D for Dihedral angle
| 24> end
| 25> end
| 26>
| 27>
| 28> #%pal
| 29> #nprocs 8
| 30> #end
| 31>
| 32> * xyz 0 1
| 33> C  -21.048   26.222   46.251
| 34> C  -20.361   27.558   45.944
| 35> C  -20.329   28.222   47.341
| 36> C  -20.110   27.022   48.296
| 37> O  -20.473   25.807   47.535
| 38> H  -20.833   25.428   45.533
| 39> H  -19.344   27.382   45.576
| 40> H  -20.898   28.157   45.201
| 41> H  -19.543   28.978   47.434
| 42> H  -21.289   28.710   47.548
| 43> H  -20.733   27.082   49.195
| 44> H  -19.064   26.913   48.597
| 45> C  -23.415   25.773   45.218
| 46> H  -22.782   25.080   44.650
| 47> H  -24.269   25.209   45.617
| 48> O  -22.586   26.394   46.375
| 49> C  -23.972   26.842   44.237
| 50> C  -24.797   27.901   44.977
| 51> C  -23.688   28.802   45.572
| 52> C  -22.587   28.772   44.483
| 53> O  -22.874   27.599   43.627
| 54> H  -24.503   26.341   43.426
| 55> H  -25.411   28.463   44.265
| 56> O  -25.731   27.300   46.062
| 57> H  -24.036   29.818   45.786
| 58> H  -23.316   28.371   46.509
| 59> H  -21.582   28.672   44.905
| 60> H  -22.614   29.655   43.837
| 61> H  -25.136   26.731   46.785
| 62> *
| 63>
| 64>                          ****END OF INPUT****
 Total Charge           Charge          ....    0
 Multiplicity           Mult            ....    1
 Number of Electrons    NEL             ....  102
FINAL SINGLE POINT ENERGY      -652.774362258893
FINAL SINGLE POINT ENERGY      -652.830015536735
FINAL SINGLE POINT ENERGY      -652.850762498741
FINAL SINGLE POINT ENERGY      -652.856189953796
FINAL SINGLE POINT ENERGY      -652.856949295975
FINAL SINGLE POINT ENERGY      -652.857076467939
FINAL SINGLE POINT ENERGY      -652.857111290301
FINAL SINGLE POINT ENERGY      -652.857121867915
FINAL SINGLE POINT ENERGY      -652.857127390170
FINAL SINGLE POINT ENERGY      -652.857129567760
                    ***********************HURRAY********************

CARTESIAN COORDINATES (ANGSTROEM)
---------------------------------
  C    -20.960562   26.147596   46.276634
  C    -20.203382   27.455232   46.055401
  C    -20.189143   28.064249   47.478437
  C    -20.062643   26.816437   48.380433
  O    -20.461357   25.666970   47.534720
  H    -20.763998   25.374738   45.526760
  H    -19.183561   27.213928   45.731879
  H    -20.662731   28.082928   45.296417
  H    -19.367189   28.770850   47.626993
  H    -21.130797   28.588331   47.672465
  H    -20.715056   26.849689   49.256615
  H    -19.033765   26.630276   48.702568
  C    -23.239044   25.829471   45.312160
  H    -22.661799   25.100579   44.725870
  H    -24.076659   25.296557   45.777028
  O    -22.405317   26.324046   46.400774
  C    -23.847375   26.848913   44.347583
  C    -24.865107   27.825173   44.962869
  C    -23.953761   29.024678   45.364710
  C    -22.897688   29.043857   44.241797
  O    -22.950392   27.707241   43.583853
  H    -24.350831   26.226795   43.594081
  H    -25.596570   28.123348   44.209304
  O    -25.648858   27.280419   46.047779
  H    -24.507504   29.963647   45.445448
  H    -23.491076   28.798242   46.331836
  H    -21.888488   29.240197   44.605610
  H    -23.134603   29.775792   43.463091
  H    -25.074743   27.133820   46.828882

 Multiplicity           Mult            ....    1
 Number of Electrons    NEL             ....  102
 Basis Dimension        Dim             ....  149

ORBITAL ENERGIES
----------------

  NO   OCC          E(Eh)            E(eV)
   0   2.0000     -19.147440      -521.0283
   1   2.0000     -19.145917      -520.9869
   2   2.0000     -19.143196      -520.9128
   3   2.0000     -19.141200      -520.8585
   4   2.0000     -10.282731      -279.8073
   5   2.0000     -10.240968      -278.6709
   6   2.0000     -10.233880      -278.4780
   7   2.0000     -10.233730      -278.4740
   8   2.0000     -10.231866      -278.4232
   9   2.0000     -10.227263      -278.2980
  10   2.0000     -10.190282      -277.2917
  11   2.0000     -10.188842      -277.2525
  12   2.0000     -10.186973      -277.2016
  13   2.0000      -1.054861       -28.7042
  14   2.0000      -1.032688       -28.1009
  15   2.0000      -1.015282       -27.6272
  16   2.0000      -0.996224       -27.1086
  17   2.0000      -0.789845       -21.4928
  18   2.0000      -0.778872       -21.1942
  19   2.0000      -0.771519       -20.9941
  20   2.0000      -0.735063       -20.0021
  21   2.0000      -0.684135       -18.6163
  22   2.0000      -0.609559       -16.5869
  23   2.0000      -0.602786       -16.4026
  24   2.0000      -0.597915       -16.2701
  25   2.0000      -0.576978       -15.7004
  26   2.0000      -0.527579       -14.3561
  27   2.0000      -0.510237       -13.8842
  28   2.0000      -0.502828       -13.6826
  29   2.0000      -0.490682       -13.3521
  30   2.0000      -0.470234       -12.7957
  31   2.0000      -0.464216       -12.6320
  32   2.0000      -0.447226       -12.1696
  33   2.0000      -0.437409       -11.9025
  34   2.0000      -0.427370       -11.6293
  35   2.0000      -0.420904       -11.4534
  36   2.0000      -0.408673       -11.1206
  37   2.0000      -0.393676       -10.7125
  38   2.0000      -0.385348       -10.4859
  39   2.0000      -0.369178       -10.0459
  40   2.0000      -0.361087        -9.8257
  41   2.0000      -0.354553        -9.6479
  42   2.0000      -0.352071        -9.5803
  43   2.0000      -0.333408        -9.0725
  44   2.0000      -0.316355        -8.6085
  45   2.0000      -0.313905        -8.5418
  46   2.0000      -0.309287        -8.4161
  47   2.0000      -0.276387        -7.5209
  48   2.0000      -0.266919        -7.2632
  49   2.0000      -0.257867        -7.0169
  50   2.0000      -0.239291        -6.5114
  51   0.0000       0.061666         1.6780
  52   0.0000       0.070043         1.9060
  53   0.0000       0.083489         2.2718
  54   0.0000       0.093295         2.5387
  55   0.0000       0.100033         2.7220

MULLIKEN ATOMIC CHARGES
-----------------------
   0 C :    0.298678
   1 C :   -0.272415
   2 C :   -0.306996
   3 C :    0.000522
   4 O :   -0.500105
   5 H :    0.146106
   6 H :    0.147918
   7 H :    0.161769
   8 H :    0.143871
   9 H :    0.154776
  10 H :    0.150803
  11 H :    0.142620
  12 C :   -0.041735
  13 H :    0.139049
  14 H :    0.159166
  15 O :   -0.530372
  16 C :    0.103870
  17 C :    0.090924
  18 C :   -0.316051
  19 C :   -0.013081
  20 O :   -0.525498
  21 H :    0.149040
  22 H :    0.164417
  23 O :   -0.606263
  24 H :    0.149954
  25 H :    0.157212
  26 H :    0.133268
  27 H :    0.149127
  28 H :    0.369425
Sum of atomic charges:   -0.0000000

LOEWDIN ATOMIC CHARGES
----------------------
   0 C :    0.182990
   1 C :   -0.225620
   2 C :   -0.218442
   3 C :   -0.025898
   4 O :   -0.308741
   5 H :    0.100146
   6 H :    0.116676
   7 H :    0.121932
   8 H :    0.114960
   9 H :    0.113034
  10 H :    0.107326
  11 H :    0.102601
  12 C :   -0.049010
  13 H :    0.102830
  14 H :    0.116910
  15 O :   -0.345674
  16 C :    0.007138
  17 C :    0.036483
  18 C :   -0.240630
  19 C :   -0.028580
  20 O :   -0.325155
  21 H :    0.115087
  22 H :    0.116922
  23 O :   -0.408160
  24 H :    0.119262
  25 H :    0.115550
  26 H :    0.095785
  27 H :    0.104359
  28 H :    0.285917

  Mayer bond orders larger than 0.100000
B(  0-C ,  1-C ) :   0.9363 B(  0-C ,  4-O ) :   0.9325 B(  0-C ,  5-H ) :   0.9157
B(  0-C , 15-O ) :   0.8313 B(  1-C ,  2-C ) :   0.9565 B(  1-C ,  6-H ) :   0.9338
B(  1-C ,  7-H ) :   0.9154 B(  2-C ,  3-C ) :   0.9530 B(  2-C ,  8-H ) :   0.9448
B(  2-C ,  9-H ) :   0.9430 B(  3-C ,  4-O ) :   0.8391 B(  3-C , 10-H ) :   0.9348
B(  3-C , 11-H ) :   0.9394 B( 12-C , 13-H ) :   0.9230 B( 12-C , 14-H ) :   0.9140
B( 12-C , 15-O ) :   0.8594 B( 12-C , 16-C ) :   0.8931 B( 16-C , 17-C ) :   0.8836
B( 16-C , 20-O ) :   0.8716 B( 16-C , 21-H ) :   0.9203 B( 17-C , 18-C ) :   0.9291
B( 17-C , 22-H ) :   0.9363 B( 17-C , 23-O ) :   0.9048 B( 18-C , 19-C ) :   0.9443
B( 18-C , 24-H ) :   0.9411 B( 18-C , 25-H ) :   0.9302 B( 19-C , 20-O ) :   0.8447
B( 19-C , 26-H ) :   0.9128 B( 19-C , 27-H ) :   0.9389 B( 23-O , 28-H ) :   0.7897

FINAL SINGLE POINT ENERGY      -652.857129091244

DIPOLE MOMENT
-------------
                                X             Y             Z
Electronic contribution:     -2.77018      -4.32854      -0.98022
Nuclear contribution   :      3.40140       5.25584       1.03410
                        -----------------------------------------
Total Dipole Moment    :      0.63121       0.92729       0.05387
                        -----------------------------------------
Magnitude (a.u.)       :      1.12303
Magnitude (Debye)      :      2.85453

Rotational constants in cm-1:     0.045036     0.016562     0.015421
Rotational constants in MHz :  1350.149512   496.501505   462.323038

                             ****ORCA TERMINATED NORMALLY****
TOTAL RUN TIME: 0 days 0 hours 39 minutes 48 seconds 531 msec
