                         Program Version 4.2.0 -  RELEASE  -
|  1> # Test redundant internal optimization
|  2> #
|  3> ! RKS B3LYP  Opt TightSCF SmallPrint
|  4>
|  5> %basis
|  6>         Basis "6-31G"
|  7> end
|  8>
|  9> %geom
| 10> Constraints
| 11> { D 4  0  15  12  300.0   C } # D for Dihedral angle
| 12> { D 0  15  12  16  255.0   C } # D for Dihedral angle
| 13> { D 0  4  3  2   C } # D for Dihedral angle
| 14> { D 4  3  2  1   C } # D for Dihedral angle
| 15> { D 3  2  1  0   C } # D for Dihedral angle
| 16> { D 2  1  0  4   C } # D for Dihedral angle
| 17> { D 1  0  4  3   C } # D for Dihedral angle
| 18> { D 16  20  19  18   C } # D for Dihedral angle
| 19> { D 20  19  18  17   C } # D for Dihedral angle
| 20> { D 19  18  17  16   C } # D for Dihedral angle
| 21> { D 18  17  16  20   C } # D for Dihedral angle
| 22> { D 17  16  20  19   C } # D for Dihedral angle
| 23> { D 15  12  16  20   C } # D for Dihedral angle
| 24> end
| 25> end
| 26>
| 27>
| 28> #%pal
| 29> #nprocs 8
| 30> #end
| 31>
| 32> * xyz 0 1
| 33> C  -21.048   26.222   46.251
| 34> C  -20.361   27.558   45.944
| 35> C  -20.329   28.222   47.341
| 36> C  -20.110   27.022   48.296
| 37> O  -20.473   25.807   47.535
| 38> H  -20.833   25.428   45.533
| 39> H  -19.344   27.382   45.576
| 40> H  -20.898   28.157   45.201
| 41> H  -19.543   28.978   47.434
| 42> H  -21.289   28.710   47.548
| 43> H  -20.733   27.082   49.195
| 44> H  -19.064   26.913   48.597
| 45> C  -23.362   25.116   46.798
| 46> H  -22.655   24.381   47.202
| 47> H  -24.095   25.353   47.580
| 48> O  -22.586   26.394   46.375
| 49> C  -24.127   24.460   45.616
| 50> C  -25.073   25.460   44.941
| 51> C  -24.094   26.270   44.058
| 52> C  -23.056   25.208   43.617
| 53> O  -23.194   24.071   44.553
| 54> H  -24.611   23.546   45.966
| 55> H  -25.802   24.927   44.320
| 56> O  -25.846   26.348   45.953
| 57> H  -24.587   26.750   43.206
| 58> H  -23.613   27.056   44.653
| 59> H  -22.028   25.583   43.657
| 60> H  -23.253   24.823   42.612
| 61> H  -25.135   26.891   46.585
| 62> *
| 63>
| 64>                          ****END OF INPUT****
 Total Charge           Charge          ....    0
 Multiplicity           Mult            ....    1
 Number of Electrons    NEL             ....  102
FINAL SINGLE POINT ENERGY      -652.837539302181
FINAL SINGLE POINT ENERGY      -652.862100806523
FINAL SINGLE POINT ENERGY      -652.866675426070
FINAL SINGLE POINT ENERGY      -652.868776993145
FINAL SINGLE POINT ENERGY      -652.868940569018
FINAL SINGLE POINT ENERGY      -652.868968880583
FINAL SINGLE POINT ENERGY      -652.868970178112
                    ***********************HURRAY********************

CARTESIAN COORDINATES (ANGSTROEM)
---------------------------------
  C    -21.028119   26.189284   46.292046
  C    -20.389146   27.550231   46.018766
  C    -20.362618   28.176133   47.431242
  C    -20.096471   26.962808   48.349014
  O    -20.436335   25.761769   47.539385
  H    -20.826739   25.393471   45.571447
  H    -19.374671   27.398892   45.633270
  H    -20.958269   28.140572   45.297114
  H    -19.595568   28.949827   47.534423
  H    -21.336521   28.621818   47.653494
  H    -20.709573   26.964168   49.253627
  H    -19.043436   26.861188   48.626680
  C    -23.219980   25.208516   46.814067
  H    -22.537342   24.477283   47.257037
  H    -23.927639   25.528607   47.586466
  O    -22.460869   26.397012   46.411488
  C    -23.993830   24.578209   45.661811
  C    -25.049319   25.473313   44.986827
  C    -24.189837   26.248788   43.942036
  C    -23.147075   25.196237   43.509452
  O    -23.144391   24.140053   44.557074
  H    -24.461362   23.668706   46.059825
  H    -25.803475   24.853962   44.497246
  O    -25.791831   26.318232   45.897444
  H    -24.789453   26.617212   43.104892
  H    -23.708787   27.093303   44.441727
  H    -22.138037   25.609828   43.419976
  H    -23.412956   24.704784   42.568545
  H    -25.208351   27.033794   46.226581

 Multiplicity           Mult            ....    1
 Number of Electrons    NEL             ....  102
 Basis Dimension        Dim             ....  149

ORBITAL ENERGIES
----------------

  NO   OCC          E(Eh)            E(eV)
   0   2.0000     -19.148717      -521.0631
   1   2.0000     -19.144826      -520.9572
   2   2.0000     -19.140036      -520.8269
   3   2.0000     -19.137728      -520.7641
   4   2.0000     -10.279655      -279.7236
   5   2.0000     -10.236670      -278.5540
   6   2.0000     -10.228749      -278.3384
   7   2.0000     -10.227862      -278.3143
   8   2.0000     -10.226081      -278.2658
   9   2.0000     -10.224431      -278.2209
  10   2.0000     -10.189673      -277.2751
  11   2.0000     -10.189117      -277.2600
  12   2.0000     -10.181385      -277.0496
  13   2.0000      -1.057097       -28.7651
  14   2.0000      -1.027548       -27.9610
  15   2.0000      -1.010520       -27.4977
  16   2.0000      -0.993831       -27.0435
  17   2.0000      -0.792498       -21.5650
  18   2.0000      -0.772302       -21.0154
  19   2.0000      -0.765468       -20.8294
  20   2.0000      -0.732449       -19.9309
  21   2.0000      -0.676426       -18.4065
  22   2.0000      -0.603591       -16.4245
  23   2.0000      -0.603102       -16.4113
  24   2.0000      -0.596497       -16.2315
  25   2.0000      -0.567047       -15.4301
  26   2.0000      -0.526809       -14.3352
  27   2.0000      -0.508695       -13.8423
  28   2.0000      -0.497347       -13.5335
  29   2.0000      -0.491499       -13.3744
  30   2.0000      -0.462492       -12.5850
  31   2.0000      -0.460068       -12.5191
  32   2.0000      -0.444521       -12.0960
  33   2.0000      -0.433459       -11.7950
  34   2.0000      -0.423465       -11.5231
  35   2.0000      -0.410627       -11.1737
  36   2.0000      -0.403629       -10.9833
  37   2.0000      -0.396317       -10.7843
  38   2.0000      -0.383231       -10.4282
  39   2.0000      -0.363184        -9.8827
  40   2.0000      -0.360766        -9.8169
  41   2.0000      -0.356087        -9.6896
  42   2.0000      -0.348042        -9.4707
  43   2.0000      -0.333937        -9.0869
  44   2.0000      -0.325504        -8.8574
  45   2.0000      -0.309102        -8.4111
  46   2.0000      -0.300610        -8.1800
  47   2.0000      -0.277974        -7.5641
  48   2.0000      -0.262070        -7.1313
  49   2.0000      -0.259258        -7.0548
  50   2.0000      -0.237420        -6.4605
  51   0.0000       0.068039         1.8514
  52   0.0000       0.075715         2.0603
  53   0.0000       0.093244         2.5373
  54   0.0000       0.100936         2.7466
  55   0.0000       0.103813         2.8249

MULLIKEN ATOMIC CHARGES
-----------------------
   0 C :    0.283846
   1 C :   -0.267010
   2 C :   -0.298586
   3 C :   -0.005248
   4 O :   -0.512341
   5 H :    0.169870
   6 H :    0.148877
   7 H :    0.152580
   8 H :    0.143335
   9 H :    0.158773
  10 H :    0.147928
  11 H :    0.145854
  12 C :   -0.048157
  13 H :    0.177195
  14 H :    0.146913
  15 O :   -0.539295
  16 C :    0.099760
  17 C :    0.091292
  18 C :   -0.309013
  19 C :   -0.005503
  20 O :   -0.525766
  21 H :    0.146474
  22 H :    0.160327
  23 O :   -0.606940
  24 H :    0.143695
  25 H :    0.157993
  26 H :    0.133948
  27 H :    0.143667
  28 H :    0.365531
Sum of atomic charges:   -0.0000000

LOEWDIN ATOMIC CHARGES
----------------------
   0 C :    0.171343
   1 C :   -0.215731
   2 C :   -0.215988
   3 C :   -0.027872
   4 O :   -0.324927
   5 H :    0.108540
   6 H :    0.116216
   7 H :    0.120795
   8 H :    0.114457
   9 H :    0.117410
  10 H :    0.105898
  11 H :    0.104557
  12 C :   -0.054469
  13 H :    0.123151
  14 H :    0.111383
  15 O :   -0.343580
  16 C :    0.012400
  17 C :    0.037843
  18 C :   -0.241748
  19 C :   -0.026410
  20 O :   -0.327949
  21 H :    0.113474
  22 H :    0.115736
  23 O :   -0.410495
  24 H :    0.115264
  25 H :    0.117852
  26 H :    0.097008
  27 H :    0.102335
  28 H :    0.283508

  Mayer bond orders larger than 0.100000
B(  0-C ,  1-C ) :   0.9484 B(  0-C ,  4-O ) :   0.8999 B(  0-C ,  5-H ) :   0.9122
B(  0-C , 15-O ) :   0.8406 B(  1-C ,  2-C ) :   0.9540 B(  1-C ,  6-H ) :   0.9396
B(  1-C ,  7-H ) :   0.9367 B(  2-C ,  3-C ) :   0.9563 B(  2-C ,  8-H ) :   0.9450
B(  2-C ,  9-H ) :   0.9450 B(  3-C ,  4-O ) :   0.8342 B(  3-C , 10-H ) :   0.9357
B(  3-C , 11-H ) :   0.9403 B( 12-C , 13-H ) :   0.9156 B( 12-C , 14-H ) :   0.9207
B( 12-C , 15-O ) :   0.8388 B( 12-C , 16-C ) :   0.9002 B( 16-C , 17-C ) :   0.8868
B( 16-C , 20-O ) :   0.8678 B( 16-C , 21-H ) :   0.9250 B( 17-C , 18-C ) :   0.9285
B( 17-C , 22-H ) :   0.9368 B( 17-C , 23-O ) :   0.9032 B( 18-C , 19-C ) :   0.9453
B( 18-C , 24-H ) :   0.9414 B( 18-C , 25-H ) :   0.9287 B( 19-C , 20-O ) :   0.8400
B( 19-C , 26-H ) :   0.9311 B( 19-C , 27-H ) :   0.9388 B( 23-O , 28-H ) :   0.7926

FINAL SINGLE POINT ENERGY      -652.868968675587

DIPOLE MOMENT
-------------
                                X             Y             Z
Electronic contribution:     -2.56710      -4.24687       0.51610
Nuclear contribution   :      3.19590       5.30223      -0.64367
                        -----------------------------------------
Total Dipole Moment    :      0.62881       1.05536      -0.12757
                        -----------------------------------------
Magnitude (a.u.)       :      1.23510
Magnitude (Debye)      :      3.13936

Rotational constants in cm-1:     0.049603     0.015391     0.014847
Rotational constants in MHz :  1487.070676   461.401036   445.091748

                             ****ORCA TERMINATED NORMALLY****
TOTAL RUN TIME: 0 days 0 hours 19 minutes 56 seconds 582 msec
