                         Program Version 4.2.0 -  RELEASE  -
|  1> # Test redundant internal optimization
|  2> #
|  3> ! RKS B3LYP  Opt TightSCF SmallPrint
|  4>
|  5> %basis
|  6>         Basis "6-31G"
|  7> end
|  8>
|  9> %geom
| 10> Constraints
| 11> { D 4  0  15  12  60.0   C } # D for Dihedral angle
| 12> { D 0  15  12  16  120.0   C } # D for Dihedral angle
| 13> { D 0  4  3  2   C } # D for Dihedral angle
| 14> { D 4  3  2  1   C } # D for Dihedral angle
| 15> { D 3  2  1  0   C } # D for Dihedral angle
| 16> { D 2  1  0  4   C } # D for Dihedral angle
| 17> { D 1  0  4  3   C } # D for Dihedral angle
| 18> { D 16  20  19  18   C } # D for Dihedral angle
| 19> { D 20  19  18  17   C } # D for Dihedral angle
| 20> { D 19  18  17  16   C } # D for Dihedral angle
| 21> { D 18  17  16  20   C } # D for Dihedral angle
| 22> { D 17  16  20  19   C } # D for Dihedral angle
| 23> { D 15  12  16  20   C } # D for Dihedral angle
| 24> end
| 25> end
| 26>
| 27>
| 28> #%pal
| 29> #nprocs 8
| 30> #end
| 31>
| 32> * xyz 0 1
| 33> C  -21.048   26.222   46.251
| 34> C  -20.361   27.558   45.944
| 35> C  -20.329   28.222   47.341
| 36> C  -20.110   27.022   48.296
| 37> O  -20.473   25.807   47.535
| 38> H  -20.833   25.428   45.533
| 39> H  -19.344   27.382   45.576
| 40> H  -20.898   28.157   45.201
| 41> H  -19.543   28.978   47.434
| 42> H  -21.289   28.710   47.548
| 43> H  -20.733   27.082   49.195
| 44> H  -19.064   26.913   48.597
| 45> C  -23.051   27.452   47.413
| 46> H  -23.665   26.962   48.179
| 47> H  -22.185   27.909   47.909
| 48> O  -22.586   26.394   46.375
| 49> C  -23.887   28.594   46.774
| 50> C  -24.229   29.677   47.803
| 51> C  -22.905   30.475   47.871
| 52> C  -22.383   30.414   46.414
| 53> O  -23.099   29.299   45.757
| 54> H  -24.752   28.163   46.266
| 55> H  -25.043   30.309   47.429
| 56> O  -24.654   29.097   49.180
| 57> H  -23.047   31.503   48.221
| 58> H  -22.203   29.982   48.554
| 59> H  -21.304   30.228   46.362
| 60> H  -22.613   31.322   45.850
| 61> H  -23.854   28.461   49.575
| 62> *
| 63>
| 64>                          ****END OF INPUT****
 Total Charge           Charge          ....    0
 Multiplicity           Mult            ....    1
 Number of Electrons    NEL             ....  102
FINAL SINGLE POINT ENERGY      -652.786253287488
FINAL SINGLE POINT ENERGY      -652.825575260390
FINAL SINGLE POINT ENERGY      -652.845967684655
FINAL SINGLE POINT ENERGY      -652.850203769496
FINAL SINGLE POINT ENERGY      -652.850811791799
FINAL SINGLE POINT ENERGY      -652.850999661718
FINAL SINGLE POINT ENERGY      -652.851025742076
FINAL SINGLE POINT ENERGY      -652.851029711459
                    ***********************HURRAY********************

CARTESIAN COORDINATES (ANGSTROEM)
---------------------------------
  C    -21.148696   26.282899   46.357595
  C    -20.228501   27.426480   45.906234
  C    -19.790149   28.045511   47.264409
  C    -19.698717   26.801997   48.186989
  O    -20.473253   25.731907   47.515773
  H    -21.193718   25.471813   45.628986
  H    -19.368201   26.998853   45.380897
  H    -20.748267   28.131750   45.255157
  H    -18.830147   28.567645   47.195777
  H    -20.529764   28.764336   47.623525
  H    -20.112675   26.970506   49.186692
  H    -18.672172   26.436982   48.287535
  C    -23.073463   27.493766   47.525299
  H    -23.772525   26.931688   48.154944
  H    -22.283898   27.897110   48.168352
  O    -22.545730   26.567849   46.538612
  C    -23.843529   28.601534   46.803585
  C    -24.466033   29.672640   47.716492
  C    -23.271626   30.652449   47.918763
  C    -22.551333   30.602450   46.553933
  O    -23.020667   29.367511   45.867880
  H    -24.599582   28.112163   46.182448
  H    -25.280092   30.170335   47.185850
  O    -25.074432   29.183505   48.934432
  H    -23.602086   31.658070   48.190405
  H    -22.627870   30.280190   48.727863
  H    -21.461242   30.570828   46.644334
  H    -22.825463   31.444249   45.911187
  H    -24.391169   28.884984   49.569048

 Multiplicity           Mult            ....    1
 Number of Electrons    NEL             ....  102
 Basis Dimension        Dim             ....  149

ORBITAL ENERGIES
----------------

  NO   OCC          E(Eh)            E(eV)
   0   2.0000     -19.154105      -521.2097
   1   2.0000     -19.147100      -521.0191
   2   2.0000     -19.139639      -520.8160
   3   2.0000     -19.138311      -520.7799
   4   2.0000     -10.274128      -279.5732
   5   2.0000     -10.250071      -278.9186
   6   2.0000     -10.238162      -278.5946
   7   2.0000     -10.233677      -278.4725
   8   2.0000     -10.233142      -278.4580
   9   2.0000     -10.229715      -278.3647
  10   2.0000     -10.201854      -277.6066
  11   2.0000     -10.192550      -277.3534
  12   2.0000     -10.181153      -277.0432
  13   2.0000      -1.049196       -28.5501
  14   2.0000      -1.037981       -28.2449
  15   2.0000      -1.021416       -27.7942
  16   2.0000      -0.992791       -27.0152
  17   2.0000      -0.789094       -21.4723
  18   2.0000      -0.785300       -21.3691
  19   2.0000      -0.775213       -21.0946
  20   2.0000      -0.733480       -19.9590
  21   2.0000      -0.686102       -18.6698
  22   2.0000      -0.617608       -16.8060
  23   2.0000      -0.602401       -16.3922
  24   2.0000      -0.599890       -16.3238
  25   2.0000      -0.573717       -15.6116
  26   2.0000      -0.529601       -14.4112
  27   2.0000      -0.515012       -14.0142
  28   2.0000      -0.505512       -13.7557
  29   2.0000      -0.490160       -13.3379
  30   2.0000      -0.466837       -12.7033
  31   2.0000      -0.462600       -12.5880
  32   2.0000      -0.450842       -12.2680
  33   2.0000      -0.439169       -11.9504
  34   2.0000      -0.432638       -11.7727
  35   2.0000      -0.415793       -11.3143
  36   2.0000      -0.413553       -11.2534
  37   2.0000      -0.405015       -11.0210
  38   2.0000      -0.385563       -10.4917
  39   2.0000      -0.375955       -10.2303
  40   2.0000      -0.361902        -9.8479
  41   2.0000      -0.356047        -9.6885
  42   2.0000      -0.343936        -9.3590
  43   2.0000      -0.338085        -9.1998
  44   2.0000      -0.320166        -8.7122
  45   2.0000      -0.314120        -8.5476
  46   2.0000      -0.303255        -8.2520
  47   2.0000      -0.275836        -7.5059
  48   2.0000      -0.264145        -7.1877
  49   2.0000      -0.258330        -7.0295
  50   2.0000      -0.238893        -6.5006
  51   0.0000       0.043404         1.1811
  52   0.0000       0.057181         1.5560
  53   0.0000       0.082058         2.2329
  54   0.0000       0.089333         2.4309
  55   0.0000       0.099042         2.6951

MULLIKEN ATOMIC CHARGES
-----------------------
   0 C :    0.301387
   1 C :   -0.276337
   2 C :   -0.326094
   3 C :   -0.011644
   4 O :   -0.506834
   5 H :    0.167071
   6 H :    0.147134
   7 H :    0.181546
   8 H :    0.142592
   9 H :    0.145321
  10 H :    0.136603
  11 H :    0.148156
  12 C :   -0.016689
  13 H :    0.154697
  14 H :    0.114510
  15 O :   -0.518145
  16 C :    0.098359
  17 C :    0.082144
  18 C :   -0.318923
  19 C :   -0.022622
  20 O :   -0.511589
  21 H :    0.170789
  22 H :    0.170024
  23 O :   -0.596929
  24 H :    0.159071
  25 H :    0.129699
  26 H :    0.145677
  27 H :    0.154744
  28 H :    0.356284
Sum of atomic charges:   -0.0000000

LOEWDIN ATOMIC CHARGES
----------------------
   0 C :    0.179526
   1 C :   -0.230908
   2 C :   -0.226048
   3 C :   -0.036299
   4 O :   -0.323656
   5 H :    0.114268
   6 H :    0.117454
   7 H :    0.134215
   8 H :    0.114541
   9 H :    0.103512
  10 H :    0.097192
  11 H :    0.105041
  12 C :   -0.046674
  13 H :    0.113195
  14 H :    0.089333
  15 O :   -0.312406
  16 C :    0.014760
  17 C :    0.035391
  18 C :   -0.240453
  19 C :   -0.035422
  20 O :   -0.317968
  21 H :    0.122388
  22 H :    0.120873
  23 O :   -0.404390
  24 H :    0.124035
  25 H :    0.101536
  26 H :    0.100362
  27 H :    0.108368
  28 H :    0.278235

  Mayer bond orders larger than 0.100000
B(  0-C ,  1-C ) :   0.9176 B(  0-C ,  4-O ) :   0.8972 B(  0-C ,  5-H ) :   0.9362
B(  0-C , 15-O ) :   0.8990 B(  1-C ,  2-C ) :   0.9577 B(  1-C ,  6-H ) :   0.9337
B(  1-C ,  7-H ) :   0.9208 B(  2-C ,  3-C ) :   0.9443 B(  2-C ,  8-H ) :   0.9458
B(  2-C ,  9-H ) :   0.9342 B(  3-C ,  4-O ) :   0.8505 B(  3-C , 10-H ) :   0.9335
B(  3-C , 11-H ) :   0.9382 B( 12-C , 13-H ) :   0.9166 B( 12-C , 14-H ) :   0.9159
B( 12-C , 15-O ) :   0.8448 B( 12-C , 16-C ) :   0.8999 B( 16-C , 17-C ) :   0.8688
B( 16-C , 20-O ) :   0.8592 B( 16-C , 21-H ) :   0.9279 B( 17-C , 18-C ) :   0.9205
B( 17-C , 22-H ) :   0.9328 B( 17-C , 23-O ) :   0.9008 B( 18-C , 19-C ) :   0.9401
B( 18-C , 24-H ) :   0.9422 B( 18-C , 25-H ) :   0.9409 B( 19-C , 20-O ) :   0.8477
B( 19-C , 26-H ) :   0.9233 B( 19-C , 27-H ) :   0.9365 B( 23-O , 28-H ) :   0.7980

FINAL SINGLE POINT ENERGY      -652.851028929778

DIPOLE MOMENT
-------------
                                X             Y             Z
Electronic contribution:     -4.50358      -4.56170      -1.62739
Nuclear contribution   :      5.47089       5.97985       2.26787
                        -----------------------------------------
Total Dipole Moment    :      0.96731       1.41815       0.64048
                        -----------------------------------------
Magnitude (a.u.)       :      1.83222
Magnitude (Debye)      :      4.65714

Rotational constants in cm-1:     0.045080     0.016674     0.015501
Rotational constants in MHz :  1351.467531   499.886745   464.707509

                             ****ORCA TERMINATED NORMALLY****
TOTAL RUN TIME: 0 days 0 hours 31 minutes 42 seconds 557 msec
