                         Program Version 4.2.0 -  RELEASE  -
|  1> # Test redundant internal optimization
|  2> #
|  3> ! RKS B3LYP  Opt TightSCF SmallPrint
|  4>
|  5> %basis
|  6>         Basis "6-31G"
|  7> end
|  8>
|  9> %geom
| 10> Constraints
| 11> { D 4  0  15  12  135.0   C } # D for Dihedral angle
| 12> { D 0  15  12  16  180.0   C } # D for Dihedral angle
| 13> { D 0  4  3  2   C } # D for Dihedral angle
| 14> { D 4  3  2  1   C } # D for Dihedral angle
| 15> { D 3  2  1  0   C } # D for Dihedral angle
| 16> { D 2  1  0  4   C } # D for Dihedral angle
| 17> { D 1  0  4  3   C } # D for Dihedral angle
| 18> { D 16  20  19  18   C } # D for Dihedral angle
| 19> { D 20  19  18  17   C } # D for Dihedral angle
| 20> { D 19  18  17  16   C } # D for Dihedral angle
| 21> { D 18  17  16  20   C } # D for Dihedral angle
| 22> { D 17  16  20  19   C } # D for Dihedral angle
| 23> { D 15  12  16  20   C } # D for Dihedral angle
| 24> end
| 25> end
| 26>
| 27>
| 28> #%pal
| 29> #nprocs 8
| 30> #end
| 31>
| 32> * xyz 0 1
| 33> C  -21.048   26.222   46.251
| 34> C  -20.361   27.558   45.944
| 35> C  -20.329   28.222   47.341
| 36> C  -20.110   27.022   48.296
| 37> O  -20.473   25.807   47.535
| 38> H  -20.833   25.428   45.533
| 39> H  -19.344   27.382   45.576
| 40> H  -20.898   28.157   45.201
| 41> H  -19.543   28.978   47.434
| 42> H  -21.289   28.710   47.548
| 43> H  -20.733   27.082   49.195
| 44> H  -19.064   26.913   48.597
| 45> C  -23.162   27.680   45.721
| 46> H  -22.701   28.560   46.186
| 47> H  -22.933   27.700   44.647
| 48> O  -22.586   26.394   46.375
| 49> C  -24.703   27.795   45.878
| 50> C  -25.250   29.012   45.123
| 51> C  -25.283   28.489   43.667
| 52> C  -25.654   26.995   43.838
| 53> O  -25.370   26.650   45.248
| 54> H  -24.958   27.770   46.939
| 55> H  -26.262   29.248   45.471
| 56> O  -24.367   30.279   45.288
| 57> H  -26.000   29.027   43.038
| 58> H  -24.292   28.591   43.208
| 59> H  -25.067   26.339   43.184
| 60> H  -26.717   26.806   43.668
| 61> H  -23.349   30.067   44.944
| 62> *
| 63>
| 64>                          ****END OF INPUT****
 Total Charge           Charge          ....    0
 Multiplicity           Mult            ....    1
 Number of Electrons    NEL             ....  102
FINAL SINGLE POINT ENERGY      -652.816477508484
FINAL SINGLE POINT ENERGY      -652.840787179637
FINAL SINGLE POINT ENERGY      -652.845819784956
FINAL SINGLE POINT ENERGY      -652.847345242649
FINAL SINGLE POINT ENERGY      -652.847560489606
FINAL SINGLE POINT ENERGY      -652.847633781556
FINAL SINGLE POINT ENERGY      -652.847642376501
FINAL SINGLE POINT ENERGY      -652.847645296728
                    ***********************HURRAY********************

CARTESIAN COORDINATES (ANGSTROEM)
---------------------------------
  C    -21.105635   26.295481   46.260043
  C    -20.174737   27.480086   45.988449
  C    -20.147743   28.195400   47.367255
  C    -20.225152   27.011838   48.358459
  O    -20.728647   25.858019   47.577399
  H    -20.954911   25.436689   45.601968
  H    -19.182296   27.087905   45.741343
  H    -20.493123   28.128213   45.167826
  H    -19.244061   28.796553   47.505901
  H    -21.013260   28.856786   47.478532
  H    -20.904324   27.196498   49.194846
  H    -19.243928   26.724344   48.747264
  C    -23.049530   27.787177   45.626193
  H    -22.662484   28.698268   46.102348
  H    -22.784966   27.812326   44.557255
  O    -22.533764   26.587440   46.249555
  C    -24.566845   27.764522   45.803502
  C    -25.284933   28.961188   45.157372
  C    -25.423598   28.491404   43.677755
  C    -25.653425   26.971502   43.824855
  O    -25.199285   26.602702   45.189918
  H    -24.775221   27.683720   46.873936
  H    -26.269820   29.079963   45.613583
  O    -24.641411   30.247932   45.335312
  H    -26.239759   28.999585   43.157471
  H    -24.491668   28.704724   43.136656
  H    -25.095378   26.382028   43.091051
  H    -26.712237   26.705273   43.757762
  H    -23.876857   30.335433   44.730189

 Multiplicity           Mult            ....    1
 Number of Electrons    NEL             ....  102
 Basis Dimension        Dim             ....  149

ORBITAL ENERGIES
----------------

  NO   OCC          E(Eh)            E(eV)
   0   2.0000     -19.152784      -521.1738
   1   2.0000     -19.136866      -520.7406
   2   2.0000     -19.135681      -520.7084
   3   2.0000     -19.135318      -520.6985
   4   2.0000     -10.277573      -279.6670
   5   2.0000     -10.246597      -278.8241
   6   2.0000     -10.233493      -278.4675
   7   2.0000     -10.230204      -278.3780
   8   2.0000     -10.229589      -278.3613
   9   2.0000     -10.225403      -278.2474
  10   2.0000     -10.197322      -277.4832
  11   2.0000     -10.194179      -277.3977
  12   2.0000     -10.193186      -277.3707
  13   2.0000      -1.049339       -28.5540
  14   2.0000      -1.035031       -28.1646
  15   2.0000      -1.015876       -27.6434
  16   2.0000      -0.990677       -26.9577
  17   2.0000      -0.789944       -21.4955
  18   2.0000      -0.784060       -21.3354
  19   2.0000      -0.770595       -20.9690
  20   2.0000      -0.732144       -19.9226
  21   2.0000      -0.684628       -18.6297
  22   2.0000      -0.612753       -16.6739
  23   2.0000      -0.605333       -16.4720
  24   2.0000      -0.592729       -16.1290
  25   2.0000      -0.572273       -15.5723
  26   2.0000      -0.527667       -14.3585
  27   2.0000      -0.512300       -13.9404
  28   2.0000      -0.500796       -13.6274
  29   2.0000      -0.497788       -13.5455
  30   2.0000      -0.470052       -12.7908
  31   2.0000      -0.461123       -12.5478
  32   2.0000      -0.444802       -12.1037
  33   2.0000      -0.437422       -11.9029
  34   2.0000      -0.429937       -11.6992
  35   2.0000      -0.414529       -11.2799
  36   2.0000      -0.413825       -11.2607
  37   2.0000      -0.399532       -10.8718
  38   2.0000      -0.381631       -10.3847
  39   2.0000      -0.378880       -10.3098
  40   2.0000      -0.363690        -9.8965
  41   2.0000      -0.356534        -9.7018
  42   2.0000      -0.351283        -9.5589
  43   2.0000      -0.331691        -9.0258
  44   2.0000      -0.316360        -8.6086
  45   2.0000      -0.311436        -8.4746
  46   2.0000      -0.291654        -7.9363
  47   2.0000      -0.272654        -7.4193
  48   2.0000      -0.262667        -7.1475
  49   2.0000      -0.246774        -6.7151
  50   2.0000      -0.240597        -6.5470
  51   0.0000       0.044874         1.2211
  52   0.0000       0.071163         1.9365
  53   0.0000       0.085112         2.3160
  54   0.0000       0.090863         2.4725
  55   0.0000       0.101681         2.7669

MULLIKEN ATOMIC CHARGES
-----------------------
   0 C :    0.319467
   1 C :   -0.297968
   2 C :   -0.308509
   3 C :   -0.000699
   4 O :   -0.493975
   5 H :    0.155104
   6 H :    0.154278
   7 H :    0.138447
   8 H :    0.145270
   9 H :    0.156578
  10 H :    0.152852
  11 H :    0.143508
  12 C :   -0.007983
  13 H :    0.125139
  14 H :    0.112149
  15 O :   -0.513046
  16 C :    0.095857
  17 C :    0.078396
  18 C :   -0.325126
  19 C :   -0.008423
  20 O :   -0.498695
  21 H :    0.169357
  22 H :    0.170033
  23 O :   -0.598059
  24 H :    0.158739
  25 H :    0.129920
  26 H :    0.145303
  27 H :    0.148818
  28 H :    0.353269
Sum of atomic charges:    0.0000000

LOEWDIN ATOMIC CHARGES
----------------------
   0 C :    0.183745
   1 C :   -0.233305
   2 C :   -0.219856
   3 C :   -0.028139
   4 O :   -0.306953
   5 H :    0.104707
   6 H :    0.121463
   7 H :    0.111594
   8 H :    0.115886
   9 H :    0.111583
  10 H :    0.108173
  11 H :    0.103368
  12 C :   -0.049603
  13 H :    0.092324
  14 H :    0.081733
  15 O :   -0.320467
  16 C :    0.024030
  17 C :    0.033887
  18 C :   -0.242167
  19 C :   -0.029798
  20 O :   -0.308173
  21 H :    0.122851
  22 H :    0.120725
  23 O :   -0.407845
  24 H :    0.122707
  25 H :    0.101843
  26 H :    0.103480
  27 H :    0.106039
  28 H :    0.276169

  Mayer bond orders larger than 0.100000
B(  0-C ,  1-C ) :   0.9297 B(  0-C ,  4-O ) :   0.9256 B(  0-C ,  5-H ) :   0.9275
B(  0-C , 15-O ) :   0.8574 B(  1-C ,  2-C ) :   0.9509 B(  1-C ,  6-H ) :   0.9344
B(  1-C ,  7-H ) :   0.9296 B(  2-C ,  3-C ) :   0.9509 B(  2-C ,  8-H ) :   0.9455
B(  2-C ,  9-H ) :   0.9392 B(  3-C ,  4-O ) :   0.8434 B(  3-C , 10-H ) :   0.9339
B(  3-C , 11-H ) :   0.9394 B( 12-C , 13-H ) :   0.8874 B( 12-C , 14-H ) :   0.9142
B( 12-C , 15-O ) :   0.8573 B( 12-C , 16-C ) :   0.9008 B( 16-C , 17-C ) :   0.8727
B( 16-C , 20-O ) :   0.8763 B( 16-C , 21-H ) :   0.9279 B( 17-C , 18-C ) :   0.9251
B( 17-C , 22-H ) :   0.9330 B( 17-C , 23-O ) :   0.8937 B( 18-C , 19-C ) :   0.9387
B( 18-C , 24-H ) :   0.9414 B( 18-C , 25-H ) :   0.9405 B( 19-C , 20-O ) :   0.8541
B( 19-C , 26-H ) :   0.9310 B( 19-C , 27-H ) :   0.9378 B( 23-O , 28-H ) :   0.7997

FINAL SINGLE POINT ENERGY      -652.847646010722

DIPOLE MOMENT
-------------
                                X             Y             Z
Electronic contribution:     -2.79540      -3.85119       2.10333
Nuclear contribution   :      3.55844       5.17218      -3.33621
                        -----------------------------------------
Total Dipole Moment    :      0.76304       1.32099      -1.23288
                        -----------------------------------------
Magnitude (a.u.)       :      1.96144
Magnitude (Debye)      :      4.98558

Rotational constants in cm-1:     0.053409     0.013170     0.011804
Rotational constants in MHz :  1601.155082   394.839498   353.877164

                             ****ORCA TERMINATED NORMALLY****
TOTAL RUN TIME: 0 days 0 hours 25 minutes 35 seconds 851 msec
