                         Program Version 4.2.1 -  RELEASE  -
|  1> # Test redundant internal optimization
|  2> #
|  3> ! RKS B3LYP  Opt TightSCF SmallPrint
|  4>
|  5> %basis
|  6>         Basis "6-31G"
|  7> end
|  8>
|  9> %geom
| 10> Constraints
| 11> { D 4  0  19  14  315.0   C } # D for Dihedral angle
| 12> { D 0  19  14  12  30.0   C } # D for Dihedral angle
| 13> { D 0  4  3  2   C } # D for Dihedral angle
| 14> { D 4  3  2  1   C } # D for Dihedral angle
| 15> { D 3  2  1  0   C } # D for Dihedral angle
| 16> { D 2  1  0  4   C } # D for Dihedral angle
| 17> { D 1  0  4  3   C } # D for Dihedral angle
| 18> { D 14  15  16  17   C } # D for Dihedral angle
| 19> { D 15  16  17  12   C } # D for Dihedral angle
| 20> { D 16  17  12  14   C } # D for Dihedral angle
| 21> { D 17  12  14  15   C } # D for Dihedral angle
| 22> { D 12  14  15  16   C } # D for Dihedral angle
| 23> end
| 24> end
| 25>
| 26>
| 27> #%pal
| 28> #nprocs 8
| 29> #end
| 30>
| 31> * xyz 0 1
| 32> C  -21.048   26.222   46.251
| 33> C  -20.361   27.558   45.944
| 34> C  -20.329   28.222   47.341
| 35> C  -20.110   27.022   48.296
| 36> O  -20.473   25.807   47.535
| 37> H  -20.833   25.428   45.533
| 38> H  -19.344   27.382   45.576
| 39> H  -20.898   28.157   45.201
| 40> H  -19.543   28.978   47.434
| 41> H  -21.289   28.710   47.548
| 42> H  -20.733   27.082   49.195
| 43> H  -19.064   26.913   48.597
| 44> C  -22.186   24.715   48.117
| 45> H  -22.545   23.733   48.464
| 46> C  -23.132   25.318   47.072
| 47> C  -24.269   25.874   47.960
| 48> C  -23.521   26.354   49.229
| 49> O  -22.202   25.684   49.219
| 50> H  -21.150   24.621   47.790
| 51> O  -22.472   26.381   46.366
| 52> H  -23.485   24.584   46.339
| 53> H  -24.830   26.680   47.477
| 54> H  -24.978   25.075   48.209
| 55> H  -24.049   26.092   50.153
| 56> H  -23.334   27.432   49.222
| 57> *
| 58>
| 59>                          ****END OF INPUT****
 Total Charge           Charge          ....    0
 Multiplicity           Mult            ....    1
 Number of Electrons    NEL             ....   86
FINAL SINGLE POINT ENERGY      -538.359729168199
FINAL SINGLE POINT ENERGY      -538.429085389844
FINAL SINGLE POINT ENERGY      -538.432037099820
FINAL SINGLE POINT ENERGY      -538.432524513158
FINAL SINGLE POINT ENERGY      -538.432600568471
FINAL SINGLE POINT ENERGY      -538.432622985805
FINAL SINGLE POINT ENERGY      -538.432625735059
FINAL SINGLE POINT ENERGY      -538.432626441267
                    ***********************HURRAY********************

CARTESIAN COORDINATES (ANGSTROEM)
---------------------------------
  C    -20.871509   26.221800   46.248053
  C    -20.458082   27.657811   45.928254
  C    -20.371071   28.285330   47.339030
  C    -19.845682   27.120900   48.209576
  O    -20.102899   25.884059   47.417493
  H    -20.612245   25.471220   45.493732
  H    -19.477411   27.649389   45.438088
  H    -21.178881   28.155983   45.276922
  H    -19.711281   29.157755   47.370544
  H    -21.368619   28.592366   47.665165
  H    -20.364187   27.014724   49.163262
  H    -18.764365   27.163896   48.370326
  C    -22.407516   24.484043   48.287187
  H    -23.014260   23.599127   48.533142
  C    -23.087581   25.237201   47.142298
  C    -24.223685   25.966450   47.882596
  C    -23.595157   26.313844   49.254167
  O    -22.413607   25.436548   49.407224
  H    -21.373716   24.202888   48.112751
  O    -22.313344   26.255177   46.428318
  H    -23.472755   24.533256   46.391115
  H    -24.548089   26.846434   47.323148
  H    -25.077532   25.289435   47.999361
  H    -24.283836   26.136673   50.087902
  H    -23.240690   27.347690   49.298346

 Multiplicity           Mult            ....    1
 Number of Electrons    NEL             ....   86
 Basis Dimension        Dim             ....  127

ORBITAL ENERGIES
----------------

  NO   OCC          E(Eh)            E(eV)
   0   2.0000     -19.138289      -520.7793
   1   2.0000     -19.136285      -520.7248
   2   2.0000     -19.127261      -520.4792
   3   2.0000     -10.276433      -279.6360
   4   2.0000     -10.237638      -278.5803
   5   2.0000     -10.219468      -278.0859
   6   2.0000     -10.216625      -278.0085
   7   2.0000     -10.213946      -277.9356
   8   2.0000     -10.182138      -277.0701
   9   2.0000     -10.180864      -277.0354
  10   2.0000     -10.180630      -277.0290
  11   2.0000      -1.047344       -28.4997
  12   2.0000      -1.008579       -27.4448
  13   2.0000      -0.985194       -26.8085
  14   2.0000      -0.790268       -21.5043
  15   2.0000      -0.773026       -21.0351
  16   2.0000      -0.733725       -19.9657
  17   2.0000      -0.718731       -19.5577
  18   2.0000      -0.611530       -16.6406
  19   2.0000      -0.597273       -16.2526
  20   2.0000      -0.589425       -16.0391
  21   2.0000      -0.563537       -15.3346
  22   2.0000      -0.512913       -13.9571
  23   2.0000      -0.497920       -13.5491
  24   2.0000      -0.483344       -13.1525
  25   2.0000      -0.478659       -13.0250
  26   2.0000      -0.444199       -12.0873
  27   2.0000      -0.440929       -11.9983
  28   2.0000      -0.424154       -11.5418
  29   2.0000      -0.406102       -11.0506
  30   2.0000      -0.398043       -10.8313
  31   2.0000      -0.380791       -10.3619
  32   2.0000      -0.368650       -10.0315
  33   2.0000      -0.362502        -9.8642
  34   2.0000      -0.355935        -9.6855
  35   2.0000      -0.351030        -9.5520
  36   2.0000      -0.339538        -9.2393
  37   2.0000      -0.325600        -8.8600
  38   2.0000      -0.302280        -8.2254
  39   2.0000      -0.291490        -7.9318
  40   2.0000      -0.255768        -6.9598
  41   2.0000      -0.248564        -6.7638
  42   2.0000      -0.233716        -6.3597
  43   0.0000       0.076398         2.0789
  44   0.0000       0.095319         2.5938
  45   0.0000       0.102587         2.7915
  46   0.0000       0.115184         3.1343
  47   0.0000       0.118872         3.2347

MULLIKEN ATOMIC CHARGES
-----------------------
   0 C :    0.303550
   1 C :   -0.260821
   2 C :   -0.300705
   3 C :   -0.015491
   4 O :   -0.513406
   5 H :    0.141178
   6 H :    0.142573
   7 H :    0.157413
   8 H :    0.139209
   9 H :    0.155744
  10 H :    0.176754
  11 H :    0.140785
  12 C :   -0.018607
  13 H :    0.120749
  14 C :    0.095133
  15 C :   -0.296281
  16 C :   -0.001481
  17 O :   -0.525263
  18 H :    0.193789
  19 O :   -0.545580
  20 H :    0.129299
  21 H :    0.163187
  22 H :    0.140531
  23 H :    0.135635
  24 H :    0.142107
Sum of atomic charges:   -0.0000000

LOEWDIN ATOMIC CHARGES
----------------------
   0 C :    0.180627
   1 C :   -0.214450
   2 C :   -0.215915
   3 C :   -0.031915
   4 O :   -0.318801
   5 H :    0.093918
   6 H :    0.112313
   7 H :    0.124024
   8 H :    0.112963
   9 H :    0.114615
  10 H :    0.119962
  11 H :    0.101892
  12 C :   -0.053180
  13 H :    0.091309
  14 C :    0.046310
  15 C :   -0.227107
  16 C :   -0.031218
  17 O :   -0.332013
  18 H :    0.134257
  19 O :   -0.341921
  20 H :    0.096631
  21 H :    0.127730
  22 H :    0.111490
  23 H :    0.098056
  24 H :    0.100425

  Mayer bond orders larger than 0.100000
B(  0-C ,  1-C ) :   0.9459 B(  0-C ,  4-O ) :   0.9110 B(  0-C ,  5-H ) :   0.9241
B(  0-C , 19-O ) :   0.8410 B(  1-C ,  2-C ) :   0.9571 B(  1-C ,  6-H ) :   0.9393
B(  1-C ,  7-H ) :   0.9368 B(  2-C ,  3-C ) :   0.9576 B(  2-C ,  8-H ) :   0.9448
B(  2-C ,  9-H ) :   0.9434 B(  3-C ,  4-O ) :   0.8179 B(  3-C , 10-H ) :   0.9203
B(  3-C , 11-H ) :   0.9400 B( 12-C , 13-H ) :   0.9093 B( 12-C , 14-C ) :   0.9255
B( 12-C , 17-O ) :   0.8492 B( 12-C , 18-H ) :   0.9108 B( 14-C , 15-C ) :   0.9476
B( 14-C , 19-O ) :   0.8372 B( 14-C , 20-H ) :   0.9259 B( 15-C , 16-C ) :   0.9478
B( 15-C , 21-H ) :   0.9365 B( 15-C , 22-H ) :   0.9406 B( 16-C , 17-O ) :   0.8578
B( 16-C , 23-H ) :   0.9337 B( 16-C , 24-H ) :   0.9357

FINAL SINGLE POINT ENERGY      -538.432626566508

DIPOLE MOMENT
-------------
                                X             Y             Z
Electronic contribution:      1.02101      -3.00636      -0.44647
Nuclear contribution   :     -1.39102       3.38661       0.01778
                        -----------------------------------------
Total Dipole Moment    :     -0.37001       0.38025      -0.42869
                        -----------------------------------------
Magnitude (a.u.)       :      0.68211
Magnitude (Debye)      :      1.73378

Rotational constants in cm-1:     0.063414     0.028893     0.026835
Rotational constants in MHz :  1901.109590   866.196037   804.479406

                             ****ORCA TERMINATED NORMALLY****
TOTAL RUN TIME: 0 days 0 hours 10 minutes 37 seconds 873 msec
