                         Program Version 4.2.0 -  RELEASE  -
|  1> # Test redundant internal optimization
|  2> #
|  3> ! RKS B3LYP  Opt TightSCF SmallPrint
|  4>
|  5> %basis
|  6>         Basis "6-31G"
|  7> end
|  8>
|  9> %geom
| 10> Constraints
| 11> { D 4  0  15  12  30.0   C } # D for Dihedral angle
| 12> { D 0  15  12  16  150.0   C } # D for Dihedral angle
| 13> { D 0  4  3  2   C } # D for Dihedral angle
| 14> { D 4  3  2  1   C } # D for Dihedral angle
| 15> { D 3  2  1  0   C } # D for Dihedral angle
| 16> { D 2  1  0  4   C } # D for Dihedral angle
| 17> { D 1  0  4  3   C } # D for Dihedral angle
| 18> { D 16  20  19  18   C } # D for Dihedral angle
| 19> { D 20  19  18  17   C } # D for Dihedral angle
| 20> { D 19  18  17  16   C } # D for Dihedral angle
| 21> { D 18  17  16  20   C } # D for Dihedral angle
| 22> { D 17  16  20  19   C } # D for Dihedral angle
| 23> { D 15  12  16  20   C } # D for Dihedral angle
| 24> end
| 25> end
| 26>
| 27>
| 28> #%pal
| 29> #nprocs 8
| 30> #end
| 31>
| 32> * xyz 0 1
| 33> C  -21.048   26.222   46.251
| 34> C  -20.361   27.558   45.944
| 35> C  -20.329   28.222   47.341
| 36> C  -20.110   27.022   48.296
| 37> O  -20.473   25.807   47.535
| 38> H  -20.833   25.428   45.533
| 39> H  -19.344   27.382   45.576
| 40> H  -20.898   28.157   45.201
| 41> H  -19.543   28.978   47.434
| 42> H  -21.289   28.710   47.548
| 43> H  -20.733   27.082   49.195
| 44> H  -19.064   26.913   48.597
| 45> C  -23.091   26.824   47.779
| 46> H  -23.290   25.929   48.382
| 47> H  -22.329   27.423   48.295
| 48> O  -22.586   26.394   46.375
| 49> C  -24.394   27.669   47.716
| 50> C  -24.798   28.172   49.106
| 51> C  -23.844   29.375   49.295
| 52> C  -23.724   29.957   47.864
| 53> O  -24.173   28.894   46.939
| 54> H  -25.167   27.097   47.200
| 55> O  -26.278   28.644   49.092
| 56> H  -24.685   27.414   49.888
| 57> H  -24.222   30.110   50.013
| 58> H  -22.867   29.028   49.654
| 59> H  -22.696   30.241   47.611
| 60> H  -24.379   30.818   47.707
| 61> H  -26.415   29.405   48.316
| 62> *
| 63>
| 64>                          ****END OF INPUT****
 Total Charge           Charge          ....    0
 Multiplicity           Mult            ....    1
 Number of Electrons    NEL             ....  102
FINAL SINGLE POINT ENERGY      -652.820326126650
FINAL SINGLE POINT ENERGY      -652.845269965710
FINAL SINGLE POINT ENERGY      -652.852910104665
FINAL SINGLE POINT ENERGY      -652.855380569588
FINAL SINGLE POINT ENERGY      -652.855731006729
FINAL SINGLE POINT ENERGY      -652.855774389354
FINAL SINGLE POINT ENERGY      -652.855781231750
FINAL SINGLE POINT ENERGY      -652.855771718571
                    ***********************HURRAY********************

CARTESIAN COORDINATES (ANGSTROEM)
---------------------------------
  C    -21.188779   26.295442   46.357862
  C    -20.418302   27.548262   45.926026
  C    -20.010615   28.160563   47.292777
  C    -19.751111   26.909381   48.166722
  O    -20.424308   25.779686   47.473328
  H    -21.192879   25.510634   45.598872
  H    -19.535562   27.246156   45.351431
  H    -21.035949   28.215927   45.321898
  H    -19.124267   28.798576   47.221423
  H    -20.828632   28.769464   47.689838
  H    -20.150681   26.992507   49.182341
  H    -18.688749   26.653624   48.224575
  C    -23.078676   26.866319   47.940009
  H    -23.333562   25.953843   48.495958
  H    -22.330427   27.415360   48.520844
  O    -22.592798   26.516934   46.619759
  C    -24.328519   27.720837   47.744298
  C    -24.976624   28.219425   49.043792
  C    -24.124764   29.476733   49.359561
  C    -23.806317   30.046035   47.954656
  O    -24.047512   28.946681   46.988538
  H    -25.041823   27.152341   47.139695
  O    -26.374218   28.557342   48.831324
  H    -24.975792   27.484768   49.851032
  H    -24.685945   30.173876   49.986951
  H    -23.211092   29.192721   49.894252
  H    -22.770456   30.386629   47.860231
  H    -24.469111   30.871459   47.676982
  H    -26.465531   29.013477   47.968027

 Multiplicity           Mult            ....    1
 Number of Electrons    NEL             ....  102
 Basis Dimension        Dim             ....  149

ORBITAL ENERGIES
----------------

  NO   OCC          E(Eh)            E(eV)
   0   2.0000     -19.147316      -521.0250
   1   2.0000     -19.144241      -520.9413
   2   2.0000     -19.140366      -520.8358
   3   2.0000     -19.136760      -520.7377
   4   2.0000     -10.277201      -279.6569
   5   2.0000     -10.245390      -278.7912
   6   2.0000     -10.234487      -278.4945
   7   2.0000     -10.234172      -278.4860
   8   2.0000     -10.233681      -278.4726
   9   2.0000     -10.233519      -278.4682
  10   2.0000     -10.193614      -277.3823
  11   2.0000     -10.193412      -277.3769
  12   2.0000     -10.183956      -277.1195
  13   2.0000      -1.053426       -28.6652
  14   2.0000      -1.037996       -28.2453
  15   2.0000      -1.008462       -27.4416
  16   2.0000      -0.992893       -27.0180
  17   2.0000      -0.790714       -21.5164
  18   2.0000      -0.786055       -21.3896
  19   2.0000      -0.772863       -21.0307
  20   2.0000      -0.734508       -19.9870
  21   2.0000      -0.677313       -18.4306
  22   2.0000      -0.607610       -16.5339
  23   2.0000      -0.604945       -16.4614
  24   2.0000      -0.596874       -16.2418
  25   2.0000      -0.579992       -15.7824
  26   2.0000      -0.528269       -14.3749
  27   2.0000      -0.509998       -13.8777
  28   2.0000      -0.501548       -13.6478
  29   2.0000      -0.491999       -13.3880
  30   2.0000      -0.477622       -12.9968
  31   2.0000      -0.462363       -12.5815
  32   2.0000      -0.454047       -12.3552
  33   2.0000      -0.442517       -12.0415
  34   2.0000      -0.418213       -11.3802
  35   2.0000      -0.416826       -11.3424
  36   2.0000      -0.406411       -11.0590
  37   2.0000      -0.396960       -10.8018
  38   2.0000      -0.377685       -10.2773
  39   2.0000      -0.374318       -10.1857
  40   2.0000      -0.362472        -9.8634
  41   2.0000      -0.359667        -9.7870
  42   2.0000      -0.348693        -9.4884
  43   2.0000      -0.337899        -9.1947
  44   2.0000      -0.323436        -8.8011
  45   2.0000      -0.310910        -8.4603
  46   2.0000      -0.307331        -8.3629
  47   2.0000      -0.273342        -7.4380
  48   2.0000      -0.262705        -7.1486
  49   2.0000      -0.252392        -6.8679
  50   2.0000      -0.242090        -6.5876
  51   0.0000       0.047302         1.2871
  52   0.0000       0.076248         2.0748
  53   0.0000       0.087705         2.3866
  54   0.0000       0.097725         2.6592
  55   0.0000       0.101513         2.7623

MULLIKEN ATOMIC CHARGES
-----------------------
   0 C :    0.297179
   1 C :   -0.258393
   2 C :   -0.321827
   3 C :   -0.019048
   4 O :   -0.508893
   5 H :    0.163772
   6 H :    0.145723
   7 H :    0.169226
   8 H :    0.146606
   9 H :    0.155015
  10 H :    0.140931
  11 H :    0.151430
  12 C :    0.010455
  13 H :    0.143452
  14 H :    0.122088
  15 O :   -0.525090
  16 C :    0.067460
  17 C :    0.073258
  18 C :   -0.299126
  19 C :   -0.029868
  20 O :   -0.514186
  21 H :    0.173087
  22 O :   -0.601641
  23 H :    0.154509
  24 H :    0.166509
  25 H :    0.140359
  26 H :    0.141448
  27 H :    0.148502
  28 H :    0.367062
Sum of atomic charges:   -0.0000000

LOEWDIN ATOMIC CHARGES
----------------------
   0 C :    0.181370
   1 C :   -0.224687
   2 C :   -0.223732
   3 C :   -0.036661
   4 O :   -0.321187
   5 H :    0.110991
   6 H :    0.115382
   7 H :    0.129926
   8 H :    0.116824
   9 H :    0.109618
  10 H :    0.098723
  11 H :    0.106857
  12 C :   -0.034416
  13 H :    0.104690
  14 H :    0.092331
  15 O :   -0.322975
  16 C :    0.016349
  17 C :    0.034660
  18 C :   -0.242646
  19 C :   -0.039347
  20 O :   -0.323118
  21 H :    0.122136
  22 O :   -0.413512
  23 H :    0.116484
  24 H :    0.128230
  25 H :    0.110325
  26 H :    0.099408
  27 H :    0.103461
  28 H :    0.284518

  Mayer bond orders larger than 0.100000
B(  0-C ,  1-C ) :   0.9178 B(  0-C ,  4-O ) :   0.9055 B(  0-C ,  5-H ) :   0.9348
B(  0-C , 15-O ) :   0.8735 B(  1-C ,  2-C ) :   0.9547 B(  1-C ,  6-H ) :   0.9348
B(  1-C ,  7-H ) :   0.9333 B(  2-C ,  3-C ) :   0.9485 B(  2-C ,  8-H ) :   0.9446
B(  2-C ,  9-H ) :   0.9372 B(  3-C ,  4-O ) :   0.8400 B(  3-C , 10-H ) :   0.9308
B(  3-C , 11-H ) :   0.9384 B( 12-C , 13-H ) :   0.9164 B( 12-C , 14-H ) :   0.9101
B( 12-C , 15-O ) :   0.8333 B( 12-C , 16-C ) :   0.8979 B( 16-C , 17-C ) :   0.8995
B( 16-C , 20-O ) :   0.8587 B( 16-C , 21-H ) :   0.9221 B( 17-C , 18-C ) :   0.9096
B( 17-C , 22-O ) :   0.8954 B( 17-C , 23-H ) :   0.9323 B( 18-C , 19-C ) :   0.9402
B( 18-C , 24-H ) :   0.9368 B( 18-C , 25-H ) :   0.9340 B( 19-C , 20-O ) :   0.8550
B( 19-C , 26-H ) :   0.9298 B( 19-C , 27-H ) :   0.9373 B( 22-O , 28-H ) :   0.7929

FINAL SINGLE POINT ENERGY      -652.855769376999

DIPOLE MOMENT
-------------
                                X             Y             Z
Electronic contribution:     -4.44154      -4.06527      -2.53023
Nuclear contribution   :      5.42088       5.08306       3.04357
                        -----------------------------------------
Total Dipole Moment    :      0.97934       1.01779       0.51335
                        -----------------------------------------
Magnitude (a.u.)       :      1.50284
Magnitude (Debye)      :      3.81992

Rotational constants in cm-1:     0.053751     0.014585     0.013889
Rotational constants in MHz :  1611.401691   437.242036   416.385276

                             ****ORCA TERMINATED NORMALLY****
TOTAL RUN TIME: 0 days 0 hours 30 minutes 1 seconds 881 msec
