                         Program Version 4.2.1 -  RELEASE  -
|  1> # Test redundant internal optimization
|  2> #
|  3> ! RKS B3LYP  Opt TightSCF SmallPrint
|  4>
|  5> %basis
|  6>         Basis "6-31G"
|  7> end
|  8>
|  9> %geom
| 10> Constraints
| 11> { D 4  0  19  14  195.0   C } # D for Dihedral angle
| 12> { D 0  19  14  12  120.0   C } # D for Dihedral angle
| 13> { D 0  4  3  2   C } # D for Dihedral angle
| 14> { D 4  3  2  1   C } # D for Dihedral angle
| 15> { D 3  2  1  0   C } # D for Dihedral angle
| 16> { D 2  1  0  4   C } # D for Dihedral angle
| 17> { D 1  0  4  3   C } # D for Dihedral angle
| 18> { D 14  15  16  17   C } # D for Dihedral angle
| 19> { D 15  16  17  12   C } # D for Dihedral angle
| 20> { D 16  17  12  14   C } # D for Dihedral angle
| 21> { D 17  12  14  15   C } # D for Dihedral angle
| 22> { D 12  14  15  16   C } # D for Dihedral angle
| 23> end
| 24> end
| 25>
| 26>
| 27> #%pal
| 28> #nprocs 8
| 29> #end
| 30>
| 31> * xyz 0 1
| 32> C  -21.048   26.222   46.251
| 33> C  -20.361   27.558   45.944
| 34> C  -20.329   28.222   47.341
| 35> C  -20.110   27.022   48.296
| 36> O  -20.473   25.807   47.535
| 37> H  -20.833   25.428   45.533
| 38> H  -19.344   27.382   45.576
| 39> H  -20.898   28.157   45.201
| 40> H  -19.543   28.978   47.434
| 41> H  -21.289   28.710   47.548
| 42> H  -20.733   27.082   49.195
| 43> H  -19.064   26.913   48.597
| 44> C  -24.181   25.309   45.004
| 45> H  -24.510   25.160   43.964
| 46> C  -23.163   26.451   45.109
| 47> C  -24.081   27.695   45.059
| 48> C  -25.350   27.227   45.816
| 49> O  -25.304   25.748   45.839
| 50> H  -23.835   24.357   45.409
| 51> O  -22.472   26.381   46.366
| 52> H  -22.420   26.440   44.304
| 53> H  -23.625   28.579   45.515
| 54> H  -24.323   27.944   44.018
| 55> H  -26.275   27.550   45.326
| 56> H  -25.364   27.565   46.856
| 57> *
| 58>
| 59>                          ****END OF INPUT****
 Total Charge           Charge          ....    0
 Multiplicity           Mult            ....    1
 Number of Electrons    NEL             ....   86
FINAL SINGLE POINT ENERGY      -538.426554648523
FINAL SINGLE POINT ENERGY      -538.428670680943
FINAL SINGLE POINT ENERGY      -538.428908747196
FINAL SINGLE POINT ENERGY      -538.428940829592
FINAL SINGLE POINT ENERGY      -538.428952951946
                    ***********************HURRAY********************

CARTESIAN COORDINATES (ANGSTROEM)
---------------------------------
  C    -21.002304   26.221975   46.223346
  C    -20.301497   27.550025   45.944977
  C    -20.340628   28.232390   47.334587
  C    -20.174044   27.043377   48.303890
  O    -20.506506   25.830900   47.509376
  H    -20.770464   25.414349   45.520824
  H    -19.267831   27.355504   45.634500
  H    -20.789379   28.140443   45.164056
  H    -19.555171   28.984398   47.455038
  H    -21.310732   28.715736   47.482152
  H    -20.845742   27.089108   49.164153
  H    -19.144416   26.916309   48.650639
  C    -24.197105   25.312735   44.999135
  H    -24.555992   25.170589   43.968248
  C    -23.178807   26.451613   45.066986
  C    -24.095683   27.691693   45.061827
  C    -25.330815   27.221414   45.867681
  O    -25.281001   25.744511   45.879396
  H    -23.809376   24.371491   45.391244
  O    -22.447065   26.388309   46.329551
  H    -22.483005   26.443581   44.217616
  H    -23.600705   28.556181   45.510192
  H    -24.369844   27.941842   44.030483
  H    -26.274628   27.547515   45.416811
  H    -25.295262   27.551012   46.909293

 Multiplicity           Mult            ....    1
 Number of Electrons    NEL             ....   86
 Basis Dimension        Dim             ....  127

ORBITAL ENERGIES
----------------

  NO   OCC          E(Eh)            E(eV)
   0   2.0000     -19.140830      -520.8485
   1   2.0000     -19.137793      -520.7658
   2   2.0000     -19.126004      -520.4450
   3   2.0000     -10.281004      -279.7603
   4   2.0000     -10.242517      -278.7130
   5   2.0000     -10.225246      -278.2431
   6   2.0000     -10.219846      -278.0961
   7   2.0000     -10.219323      -278.0819
   8   2.0000     -10.188994      -277.2566
   9   2.0000     -10.188133      -277.2332
  10   2.0000     -10.187353      -277.2120
  11   2.0000      -1.053775       -28.6747
  12   2.0000      -1.014198       -27.5977
  13   2.0000      -0.989431       -26.9238
  14   2.0000      -0.789337       -21.4790
  15   2.0000      -0.780963       -21.2511
  16   2.0000      -0.739523       -20.1234
  17   2.0000      -0.723635       -19.6911
  18   2.0000      -0.610861       -16.6224
  19   2.0000      -0.598990       -16.2994
  20   2.0000      -0.597225       -16.2513
  21   2.0000      -0.576807       -15.6957
  22   2.0000      -0.522578       -14.2201
  23   2.0000      -0.503860       -13.7107
  24   2.0000      -0.488194       -13.2844
  25   2.0000      -0.479430       -13.0460
  26   2.0000      -0.450706       -12.2643
  27   2.0000      -0.441669       -12.0184
  28   2.0000      -0.434910       -11.8345
  29   2.0000      -0.416124       -11.3233
  30   2.0000      -0.409980       -11.1561
  31   2.0000      -0.382769       -10.4157
  32   2.0000      -0.374178       -10.1819
  33   2.0000      -0.363058        -9.8793
  34   2.0000      -0.360825        -9.8185
  35   2.0000      -0.357774        -9.7355
  36   2.0000      -0.351844        -9.5742
  37   2.0000      -0.315520        -8.5857
  38   2.0000      -0.305330        -8.3085
  39   2.0000      -0.300283        -8.1711
  40   2.0000      -0.260204        -7.0805
  41   2.0000      -0.252061        -6.8589
  42   2.0000      -0.230227        -6.2648
  43   0.0000       0.071900         1.9565
  44   0.0000       0.087098         2.3701
  45   0.0000       0.095660         2.6031
  46   0.0000       0.111722         3.0401
  47   0.0000       0.119060         3.2398

MULLIKEN ATOMIC CHARGES
-----------------------
   0 C :    0.294463
   1 C :   -0.270065
   2 C :   -0.300002
   3 C :   -0.000598
   4 O :   -0.501363
   5 H :    0.138522
   6 H :    0.145089
   7 H :    0.140884
   8 H :    0.142393
   9 H :    0.159235
  10 H :    0.156930
  11 H :    0.141935
  12 C :    0.020802
  13 H :    0.117885
  14 C :    0.045218
  15 C :   -0.284483
  16 C :    0.008161
  17 O :   -0.517699
  18 H :    0.162392
  19 O :   -0.498296
  20 H :    0.122878
  21 H :    0.150635
  22 H :    0.139039
  23 H :    0.131605
  24 H :    0.154442
Sum of atomic charges:   -0.0000000

LOEWDIN ATOMIC CHARGES
----------------------
   0 C :    0.179933
   1 C :   -0.231631
   2 C :   -0.217023
   3 C :   -0.024200
   4 O :   -0.301931
   5 H :    0.095106
   6 H :    0.114009
   7 H :    0.112428
   8 H :    0.114537
   9 H :    0.116764
  10 H :    0.110918
  11 H :    0.102556
  12 C :   -0.037201
  13 H :    0.088220
  14 C :    0.032895
  15 C :   -0.228162
  16 C :   -0.026082
  17 O :   -0.326654
  18 H :    0.120913
  19 O :   -0.328481
  20 H :    0.095929
  21 H :    0.120462
  22 H :    0.111144
  23 H :    0.096722
  24 H :    0.108830

  Mayer bond orders larger than 0.100000
B(  0-C ,  1-C ) :   0.9271 B(  0-C ,  4-O ) :   0.9404 B(  0-C ,  5-H ) :   0.9198
B(  0-C , 19-O ) :   0.8394 B(  1-C ,  2-C ) :   0.9526 B(  1-C ,  6-H ) :   0.9335
B(  1-C ,  7-H ) :   0.9357 B(  2-C ,  3-C ) :   0.9555 B(  2-C ,  8-H ) :   0.9448
B(  2-C ,  9-H ) :   0.9436 B(  3-C ,  4-O ) :   0.8350 B(  3-C , 10-H ) :   0.9340
B(  3-C , 11-H ) :   0.9397 B( 12-C , 13-H ) :   0.9119 B( 12-C , 14-C ) :   0.9236
B( 12-C , 17-O ) :   0.8739 B( 12-C , 18-H ) :   0.9327 B( 14-C , 15-C ) :   0.9449
B( 14-C , 19-O ) :   0.8319 B( 14-C , 20-H ) :   0.9179 B( 15-C , 16-C ) :   0.9477
B( 15-C , 21-H ) :   0.9399 B( 15-C , 22-H ) :   0.9392 B( 16-C , 17-O ) :   0.8573
B( 16-C , 23-H ) :   0.9337 B( 16-C , 24-H ) :   0.9360

FINAL SINGLE POINT ENERGY      -538.428954017543

DIPOLE MOMENT
-------------
                                X             Y             Z
Electronic contribution:     -1.29093      -4.84120       1.61058
Nuclear contribution   :      2.08889       6.15444      -2.62758
                        -----------------------------------------
Total Dipole Moment    :      0.79797       1.31325      -1.01700
                        -----------------------------------------
Magnitude (a.u.)       :      1.84273
Magnitude (Debye)      :      4.68385

Rotational constants in cm-1:     0.079589     0.020329     0.019439
Rotational constants in MHz :  2386.006262   609.433876   582.757937

                             ****ORCA TERMINATED NORMALLY****
TOTAL RUN TIME: 0 days 0 hours 5 minutes 51 seconds 866 msec
