                         Program Version 4.2.0 -  RELEASE  -
|  1> # Test redundant internal optimization
|  2> #
|  3> ! RKS B3LYP  Opt TightSCF SmallPrint
|  4>
|  5> %basis
|  6>         Basis "6-31G"
|  7> end
|  8>
|  9> %geom
| 10> Constraints
| 11> { D 4  0  15  12  150.0   C } # D for Dihedral angle
| 12> { D 0  15  12  16  105.0   C } # D for Dihedral angle
| 13> { D 0  4  3  2   C } # D for Dihedral angle
| 14> { D 4  3  2  1   C } # D for Dihedral angle
| 15> { D 3  2  1  0   C } # D for Dihedral angle
| 16> { D 2  1  0  4   C } # D for Dihedral angle
| 17> { D 1  0  4  3   C } # D for Dihedral angle
| 18> { D 16  20  19  18   C } # D for Dihedral angle
| 19> { D 20  19  18  17   C } # D for Dihedral angle
| 20> { D 19  18  17  16   C } # D for Dihedral angle
| 21> { D 18  17  16  20   C } # D for Dihedral angle
| 22> { D 17  16  20  19   C } # D for Dihedral angle
| 23> { D 15  12  16  20   C } # D for Dihedral angle
| 24> end
| 25> end
| 26>
| 27>
| 28> #%pal
| 29> #nprocs 8
| 30> #end
| 31>
| 32> * xyz 0 1
| 33> C  -21.048   26.222   46.251
| 34> C  -20.361   27.558   45.944
| 35> C  -20.329   28.222   47.341
| 36> C  -20.110   27.022   48.296
| 37> O  -20.473   25.807   47.535
| 38> H  -20.833   25.428   45.533
| 39> H  -19.344   27.382   45.576
| 40> H  -20.898   28.157   45.201
| 41> H  -19.543   28.978   47.434
| 42> H  -21.289   28.710   47.548
| 43> H  -20.733   27.082   49.195
| 44> H  -19.064   26.913   48.597
| 45> C  -23.210   27.459   45.431
| 46> H  -23.913   28.079   46.001
| 47> H  -22.429   28.113   45.022
| 48> O  -22.586   26.394   46.375
| 49> C  -23.973   26.827   44.235
| 50> C  -25.192   26.028   44.712
| 51> C  -26.221   27.153   44.974
| 52> C  -25.900   28.189   43.867
| 53> O  -24.541   27.874   43.379
| 54> H  -23.271   26.259   43.622
| 55> H  -25.541   25.363   43.913
| 56> O  -24.903   25.169   45.973
| 57> H  -27.256   26.800   44.928
| 58> H  -26.059   27.586   45.968
| 59> H  -25.919   29.219   44.239
| 60> H  -26.577   28.109   43.012
| 61> H  -24.552   25.815   46.785
| 62> *
| 63>
| 64>                          ****END OF INPUT****
 Total Charge           Charge          ....    0
 Multiplicity           Mult            ....    1
 Number of Electrons    NEL             ....  102
FINAL SINGLE POINT ENERGY      -652.819342731798
FINAL SINGLE POINT ENERGY      -652.845297789372
FINAL SINGLE POINT ENERGY      -652.853446113362
FINAL SINGLE POINT ENERGY      -652.856640491299
FINAL SINGLE POINT ENERGY      -652.858260142714
FINAL SINGLE POINT ENERGY      -652.859185880808
FINAL SINGLE POINT ENERGY      -652.859604513601
FINAL SINGLE POINT ENERGY      -652.859717465601
FINAL SINGLE POINT ENERGY      -652.859730761162
FINAL SINGLE POINT ENERGY      -652.859732994910
                    ***********************HURRAY********************

CARTESIAN COORDINATES (ANGSTROEM)
---------------------------------
  C    -21.127584   26.289959   46.220434
  C    -20.214159   27.482669   45.944864
  C    -20.222683   28.218450   47.308746
  C    -20.296923   27.056403   48.320301
  O    -20.769856   25.880007   47.544081
  H    -20.985447   25.426982   45.567262
  H    -19.214479   27.092374   45.723138
  H    -20.510993   28.115971   45.106242
  H    -19.333139   28.839224   47.450014
  H    -21.104055   28.863559   47.387795
  H    -20.997810   27.238152   49.138319
  H    -19.320449   26.784863   48.730524
  C    -23.197427   27.612180   45.391735
  H    -23.855277   28.198705   46.040565
  H    -22.470723   28.290459   44.937170
  O    -22.563126   26.610589   46.254477
  C    -23.991336   26.905201   44.287473
  C    -25.159181   26.038853   44.791519
  C    -26.256629   27.111092   45.049880
  C    -26.012769   28.143340   43.931152
  O    -24.626179   27.900630   43.425396
  H    -23.302944   26.336138   43.654214
  H    -25.480872   25.379175   43.977584
  O    -24.882986   25.207002   45.933212
  H    -27.259793   26.678242   45.017894
  H    -26.108438   27.538430   46.047349
  H    -26.083642   29.180848   44.271931
  H    -26.681539   28.006849   43.075915
  H    -24.037563   25.490656   46.357813

 Multiplicity           Mult            ....    1
 Number of Electrons    NEL             ....  102
 Basis Dimension        Dim             ....  149

ORBITAL ENERGIES
----------------

  NO   OCC          E(Eh)            E(eV)
   0   2.0000     -19.160135      -521.3738
   1   2.0000     -19.151004      -521.1253
   2   2.0000     -19.141187      -520.8582
   3   2.0000     -19.109436      -519.9942
   4   2.0000     -10.295161      -280.1456
   5   2.0000     -10.240918      -278.6696
   6   2.0000     -10.234911      -278.5061
   7   2.0000     -10.233594      -278.4703
   8   2.0000     -10.228584      -278.3339
   9   2.0000     -10.226910      -278.2884
  10   2.0000     -10.202728      -277.6303
  11   2.0000     -10.199927      -277.5541
  12   2.0000     -10.177889      -276.9544
  13   2.0000      -1.064582       -28.9688
  14   2.0000      -1.025372       -27.9018
  15   2.0000      -1.005681       -27.3660
  16   2.0000      -0.988550       -26.8998
  17   2.0000      -0.799764       -21.7627
  18   2.0000      -0.775294       -21.0968
  19   2.0000      -0.767603       -20.8875
  20   2.0000      -0.740495       -20.1499
  21   2.0000      -0.684269       -18.6199
  22   2.0000      -0.612955       -16.6794
  23   2.0000      -0.602929       -16.4065
  24   2.0000      -0.595390       -16.2014
  25   2.0000      -0.574804       -15.6412
  26   2.0000      -0.535518       -14.5722
  27   2.0000      -0.517338       -14.0775
  28   2.0000      -0.507883       -13.8202
  29   2.0000      -0.488459       -13.2916
  30   2.0000      -0.476449       -12.9648
  31   2.0000      -0.463580       -12.6147
  32   2.0000      -0.445595       -12.1252
  33   2.0000      -0.433262       -11.7896
  34   2.0000      -0.425762       -11.5856
  35   2.0000      -0.422645       -11.5008
  36   2.0000      -0.409968       -11.1558
  37   2.0000      -0.389985       -10.6120
  38   2.0000      -0.387343       -10.5401
  39   2.0000      -0.372340       -10.1319
  40   2.0000      -0.366408        -9.9705
  41   2.0000      -0.363921        -9.9028
  42   2.0000      -0.346699        -9.4342
  43   2.0000      -0.341839        -9.3019
  44   2.0000      -0.323150        -8.7933
  45   2.0000      -0.314028        -8.5451
  46   2.0000      -0.285766        -7.7761
  47   2.0000      -0.279362        -7.6018
  48   2.0000      -0.270081        -7.3493
  49   2.0000      -0.244912        -6.6644
  50   2.0000      -0.238236        -6.4827
  51   0.0000       0.057126         1.5545
  52   0.0000       0.072759         1.9799
  53   0.0000       0.093086         2.5330
  54   0.0000       0.096077         2.6144
  55   0.0000       0.099485         2.7071

MULLIKEN ATOMIC CHARGES
-----------------------
   0 C :    0.324100
   1 C :   -0.300529
   2 C :   -0.301450
   3 C :   -0.002971
   4 O :   -0.493304
   5 H :    0.160143
   6 H :    0.160170
   7 H :    0.152585
   8 H :    0.149289
   9 H :    0.156820
  10 H :    0.157543
  11 H :    0.149099
  12 C :   -0.032097
  13 H :    0.156937
  14 H :    0.151497
  15 O :   -0.563083
  16 C :    0.055280
  17 C :    0.123595
  18 C :   -0.297219
  19 C :   -0.023348
  20 O :   -0.522996
  21 H :    0.148825
  22 H :    0.145603
  23 O :   -0.642488
  24 H :    0.150816
  25 H :    0.145378
  26 H :    0.140307
  27 H :    0.150593
  28 H :    0.400905
Sum of atomic charges:   -0.0000000

LOEWDIN ATOMIC CHARGES
----------------------
   0 C :    0.187308
   1 C :   -0.231227
   2 C :   -0.216765
   3 C :   -0.025691
   4 O :   -0.301169
   5 H :    0.106939
   6 H :    0.124005
   7 H :    0.117610
   8 H :    0.118224
   9 H :    0.114581
  10 H :    0.111275
  11 H :    0.106616
  12 C :   -0.047676
  13 H :    0.110484
  14 H :    0.108558
  15 O :   -0.346587
  16 C :    0.008780
  17 C :    0.042210
  18 C :   -0.235699
  19 C :   -0.033038
  20 O :   -0.327747
  21 H :    0.109187
  22 H :    0.104433
  23 O :   -0.435497
  24 H :    0.121447
  25 H :    0.111187
  26 H :    0.101068
  27 H :    0.106370
  28 H :    0.290818

  Mayer bond orders larger than 0.100000
B(  0-C ,  1-C ) :   0.9385 B(  0-C ,  4-O ) :   0.9468 B(  0-C ,  5-H ) :   0.9255
B(  0-C , 15-O ) :   0.7931 B(  1-C ,  2-C ) :   0.9477 B(  1-C ,  6-H ) :   0.9323
B(  1-C ,  7-H ) :   0.9243 B(  2-C ,  3-C ) :   0.9537 B(  2-C ,  8-H ) :   0.9447
B(  2-C ,  9-H ) :   0.9454 B(  3-C ,  4-O ) :   0.8309 B(  3-C , 10-H ) :   0.9343
B(  3-C , 11-H ) :   0.9392 B( 12-C , 13-H ) :   0.9331 B( 12-C , 14-H ) :   0.9158
B( 12-C , 15-O ) :   0.7964 B( 12-C , 16-C ) :   0.8841 B( 16-C , 17-C ) :   0.9116
B( 16-C , 20-O ) :   0.8552 B( 16-C , 21-H ) :   0.9327 B( 17-C , 18-C ) :   0.9007
B( 17-C , 22-H ) :   0.9309 B( 17-C , 23-O ) :   0.9391 B( 18-C , 19-C ) :   0.9378
B( 18-C , 24-H ) :   0.9449 B( 18-C , 25-H ) :   0.9433 B( 19-C , 20-O ) :   0.8321
B( 19-C , 26-H ) :   0.9350 B( 19-C , 27-H ) :   0.9382 B( 23-O , 28-H ) :   0.7189

FINAL SINGLE POINT ENERGY      -652.859733344815

DIPOLE MOMENT
-------------
                                X             Y             Z
Electronic contribution:     -0.71056      -4.50382      -0.73735
Nuclear contribution   :      1.63925       5.93647       0.70036
                        -----------------------------------------
Total Dipole Moment    :      0.92869       1.43265      -0.03698
                        -----------------------------------------
Magnitude (a.u.)       :      1.70772
Magnitude (Debye)      :      4.34069

Rotational constants in cm-1:     0.057780     0.013369     0.012070
Rotational constants in MHz :  1732.198710   400.779353   361.854765

                             ****ORCA TERMINATED NORMALLY****
TOTAL RUN TIME: 0 days 1 hours 57 minutes 7 seconds 66 msec
