                         Program Version 4.2.1 -  RELEASE  -
|  1> # Test redundant internal optimization
|  2> #
|  3> ! RKS B3LYP  Opt TightSCF SmallPrint
|  4>
|  5> %basis
|  6>         Basis "6-31G"
|  7> end
|  8>
|  9> %geom
| 10> Constraints
| 11> { D 4  0  19  14  300.0   C } # D for Dihedral angle
| 12> { D 0  19  14  12  75.0   C } # D for Dihedral angle
| 13> { D 0  4  3  2   C } # D for Dihedral angle
| 14> { D 4  3  2  1   C } # D for Dihedral angle
| 15> { D 3  2  1  0   C } # D for Dihedral angle
| 16> { D 2  1  0  4   C } # D for Dihedral angle
| 17> { D 1  0  4  3   C } # D for Dihedral angle
| 18> { D 14  15  16  17   C } # D for Dihedral angle
| 19> { D 15  16  17  12   C } # D for Dihedral angle
| 20> { D 16  17  12  14   C } # D for Dihedral angle
| 21> { D 17  12  14  15   C } # D for Dihedral angle
| 22> { D 12  14  15  16   C } # D for Dihedral angle
| 23> end
| 24> end
| 25>
| 26>
| 27> #%pal
| 28> #nprocs 8
| 29> #end
| 30>
| 31> * xyz 0 1
| 32> C  -21.048   26.222   46.251
| 33> C  -20.361   27.558   45.944
| 34> C  -20.329   28.222   47.341
| 35> C  -20.110   27.022   48.296
| 36> O  -20.473   25.807   47.535
| 37> H  -20.833   25.428   45.533
| 38> H  -19.344   27.382   45.576
| 39> H  -20.898   28.157   45.201
| 40> H  -19.543   28.978   47.434
| 41> H  -21.289   28.710   47.548
| 42> H  -20.733   27.082   49.195
| 43> H  -19.064   26.913   48.597
| 44> C  -22.957   24.920   48.252
| 45> H  -23.226   23.886   48.516
| 46> C  -23.171   25.189   46.758
| 47> C  -24.701   25.407   46.694
| 48> C  -25.011   26.119   48.035
| 49> O  -23.853   25.869   48.921
| 50> H  -21.947   25.129   48.609
| 51> O  -22.472   26.381   46.366
| 52> H  -22.833   24.365   46.120
| 53> H  -25.011   25.997   45.826
| 54> H  -25.218   24.440   46.643
| 55> H  -25.919   25.737   48.514
| 56> H  -25.101   27.204   47.920
| 57> *
| 58>
| 59>                          ****END OF INPUT****
 Total Charge           Charge          ....    0
 Multiplicity           Mult            ....    1
 Number of Electrons    NEL             ....   86
FINAL SINGLE POINT ENERGY      -538.432014170534
FINAL SINGLE POINT ENERGY      -538.437804671068
FINAL SINGLE POINT ENERGY      -538.439266145271
FINAL SINGLE POINT ENERGY      -538.439582936539
FINAL SINGLE POINT ENERGY      -538.439611200323
FINAL SINGLE POINT ENERGY      -538.439621862419
                    ***********************HURRAY********************

CARTESIAN COORDINATES (ANGSTROEM)
---------------------------------
  C    -20.969922   26.175486   46.270737
  C    -20.449367   27.576375   45.945691
  C    -20.431705   28.236984   47.342749
  C    -20.042972   27.073428   48.281256
  O    -20.308581   25.825292   47.511733
  H    -20.704596   25.382906   45.561445
  H    -19.438273   27.498443   45.530173
  H    -21.091932   28.094050   45.230806
  H    -19.727205   29.072075   47.404708
  H    -21.432001   28.605211   47.586107
  H    -20.636851   27.049844   49.198057
  H    -18.978540   27.061208   48.532333
  C    -23.038118   24.793368   48.298375
  H    -23.444194   23.789782   48.501804
  C    -23.155149   25.097766   46.804904
  C    -24.642285   25.479363   46.681060
  C    -24.936688   26.207271   48.014996
  O    -23.853427   25.825070   48.945058
  H    -22.024044   24.870065   48.681124
  O    -22.404722   26.278670   46.380637
  H    -22.872211   24.239591   46.178808
  H    -24.810970   26.108926   45.804432
  H    -25.246924   24.570918   46.583284
  H    -25.901391   25.916666   48.446119
  H    -24.902930   27.295243   47.908603

 Multiplicity           Mult            ....    1
 Number of Electrons    NEL             ....   86
 Basis Dimension        Dim             ....  127

ORBITAL ENERGIES
----------------

  NO   OCC          E(Eh)            E(eV)
   0   2.0000     -19.142815      -520.9025
   1   2.0000     -19.141780      -520.8743
   2   2.0000     -19.123339      -520.3725
   3   2.0000     -10.278397      -279.6894
   4   2.0000     -10.237018      -278.5634
   5   2.0000     -10.222864      -278.1783
   6   2.0000     -10.216313      -278.0000
   7   2.0000     -10.210576      -277.8439
   8   2.0000     -10.183814      -277.1157
   9   2.0000     -10.182266      -277.0736
  10   2.0000     -10.181979      -277.0657
  11   2.0000      -1.053538       -28.6682
  12   2.0000      -1.009054       -27.4578
  13   2.0000      -0.988871       -26.9085
  14   2.0000      -0.791907       -21.5489
  15   2.0000      -0.773819       -21.0567
  16   2.0000      -0.733574       -19.9616
  17   2.0000      -0.718173       -19.5425
  18   2.0000      -0.608667       -16.5627
  19   2.0000      -0.597957       -16.2712
  20   2.0000      -0.589317       -16.0361
  21   2.0000      -0.571888       -15.5619
  22   2.0000      -0.515048       -14.0152
  23   2.0000      -0.502093       -13.6627
  24   2.0000      -0.479684       -13.0529
  25   2.0000      -0.477009       -12.9801
  26   2.0000      -0.448655       -12.2085
  27   2.0000      -0.444469       -12.0946
  28   2.0000      -0.424747       -11.5580
  29   2.0000      -0.407470       -11.0878
  30   2.0000      -0.401859       -10.9351
  31   2.0000      -0.384126       -10.4526
  32   2.0000      -0.365586        -9.9481
  33   2.0000      -0.362042        -9.8517
  34   2.0000      -0.355098        -9.6627
  35   2.0000      -0.352554        -9.5935
  36   2.0000      -0.339939        -9.2502
  37   2.0000      -0.326271        -8.8783
  38   2.0000      -0.301298        -8.1987
  39   2.0000      -0.297559        -8.0970
  40   2.0000      -0.267072        -7.2674
  41   2.0000      -0.251488        -6.8433
  42   2.0000      -0.229956        -6.2574
  43   0.0000       0.083427         2.2702
  44   0.0000       0.096642         2.6298
  45   0.0000       0.102185         2.7806
  46   0.0000       0.116248         3.1633
  47   0.0000       0.127566         3.4712

MULLIKEN ATOMIC CHARGES
-----------------------
   0 C :    0.296958
   1 C :   -0.263844
   2 C :   -0.297315
   3 C :   -0.012041
   4 O :   -0.517029
   5 H :    0.140458
   6 H :    0.144024
   7 H :    0.158135
   8 H :    0.140138
   9 H :    0.168100
  10 H :    0.160858
  11 H :    0.143356
  12 C :   -0.011762
  13 H :    0.114661
  14 C :    0.078221
  15 C :   -0.291246
  16 C :    0.002172
  17 O :   -0.526031
  18 H :    0.192364
  19 O :   -0.525583
  20 H :    0.123439
  21 H :    0.158727
  22 H :    0.141265
  23 H :    0.130301
  24 H :    0.151673
Sum of atomic charges:   -0.0000000

LOEWDIN ATOMIC CHARGES
----------------------
   0 C :    0.174388
   1 C :   -0.214380
   2 C :   -0.215159
   3 C :   -0.029777
   4 O :   -0.330447
   5 H :    0.094090
   6 H :    0.113483
   7 H :    0.124759
   8 H :    0.113311
   9 H :    0.122114
  10 H :    0.111771
  11 H :    0.103197
  12 C :   -0.051114
  13 H :    0.088020
  14 C :    0.041051
  15 C :   -0.223827
  16 C :   -0.028860
  17 O :   -0.334645
  18 H :    0.131305
  19 O :   -0.324417
  20 H :    0.095074
  21 H :    0.126030
  22 H :    0.112104
  23 H :    0.095695
  24 H :    0.106236

  Mayer bond orders larger than 0.100000
B(  0-C ,  1-C ) :   0.9489 B(  0-C ,  4-O ) :   0.8972 B(  0-C ,  5-H ) :   0.9209
B(  0-C , 19-O ) :   0.8625 B(  1-C ,  2-C ) :   0.9573 B(  1-C ,  6-H ) :   0.9401
B(  1-C ,  7-H ) :   0.9362 B(  2-C ,  3-C ) :   0.9569 B(  2-C ,  8-H ) :   0.9451
B(  2-C ,  9-H ) :   0.9428 B(  3-C ,  4-O ) :   0.8273 B(  3-C , 10-H ) :   0.9312
B(  3-C , 11-H ) :   0.9407 B( 12-C , 13-H ) :   0.9117 B( 12-C , 14-C ) :   0.9139
B( 12-C , 17-O ) :   0.8642 B( 12-C , 18-H ) :   0.9112 B( 14-C , 15-C ) :   0.9603
B( 14-C , 19-O ) :   0.8275 B( 14-C , 20-H ) :   0.9208 B( 15-C , 16-C ) :   0.9465
B( 15-C , 21-H ) :   0.9374 B( 15-C , 22-H ) :   0.9428 B( 16-C , 17-O ) :   0.8596
B( 16-C , 23-H ) :   0.9336 B( 16-C , 24-H ) :   0.9368

FINAL SINGLE POINT ENERGY      -538.439622239531

DIPOLE MOMENT
-------------
                                X             Y             Z
Electronic contribution:      0.41176      -2.06697       0.59796
Nuclear contribution   :     -0.32959       2.19697      -1.37366
                        -----------------------------------------
Total Dipole Moment    :      0.08217       0.13000      -0.77570
                        -----------------------------------------
Magnitude (a.u.)       :      0.79080
Magnitude (Debye)      :      2.01005

Rotational constants in cm-1:     0.069575     0.024767     0.023278
Rotational constants in MHz :  2085.810923   742.495034   697.845310

                             ****ORCA TERMINATED NORMALLY****
TOTAL RUN TIME: 0 days 0 hours 16 minutes 1 seconds 635 msec
