                         Program Version 4.2.0 -  RELEASE  -
|  1> # Test redundant internal optimization
|  2> #
|  3> ! RKS B3LYP  Opt TightSCF SmallPrint
|  4>
|  5> %basis
|  6>         Basis "6-31G"
|  7> end
|  8>
|  9> %geom
| 10> Constraints
| 11> { D 4  0  15  12  195.0   C } # D for Dihedral angle
| 12> { D 0  15  12  16  105.0   C } # D for Dihedral angle
| 13> { D 0  4  3  2   C } # D for Dihedral angle
| 14> { D 4  3  2  1   C } # D for Dihedral angle
| 15> { D 3  2  1  0   C } # D for Dihedral angle
| 16> { D 2  1  0  4   C } # D for Dihedral angle
| 17> { D 1  0  4  3   C } # D for Dihedral angle
| 18> { D 16  20  19  18   C } # D for Dihedral angle
| 19> { D 20  19  18  17   C } # D for Dihedral angle
| 20> { D 19  18  17  16   C } # D for Dihedral angle
| 21> { D 18  17  16  20   C } # D for Dihedral angle
| 22> { D 17  16  20  19   C } # D for Dihedral angle
| 23> { D 15  12  16  20   C } # D for Dihedral angle
| 24> end
| 25> end
| 26>
| 27>
| 28> #%pal
| 29> #nprocs 8
| 30> #end
| 31>
| 32> * xyz 0 1
| 33> C  -21.048   26.222   46.251
| 34> C  -20.361   27.558   45.944
| 35> C  -20.329   28.222   47.341
| 36> C  -20.110   27.022   48.296
| 37> O  -20.473   25.807   47.535
| 38> H  -20.833   25.428   45.533
| 39> H  -19.344   27.382   45.576
| 40> H  -20.898   28.157   45.201
| 41> H  -19.543   28.978   47.434
| 42> H  -21.289   28.710   47.548
| 43> H  -20.733   27.082   49.195
| 44> H  -19.064   26.913   48.597
| 45> C  -23.353   26.472   45.026
| 46> H  -24.076   27.296   45.068
| 47> H  -22.657   26.668   44.200
| 48> O  -22.586   26.394   46.375
| 49> C  -24.122   25.163   44.696
| 50> C  -23.187   23.949   44.709
| 51> C  -23.055   23.671   46.226
| 52> C  -24.458   24.034   46.773
| 53> O  -25.109   24.871   45.741
| 54> H  -24.674   25.298   43.764
| 55> O  -23.861   22.749   43.989
| 56> H  -22.222   24.143   44.228
| 57> H  -22.777   22.635   46.446
| 58> H  -22.290   24.323   46.663
| 59> H  -24.411   24.594   47.713
| 60> H  -25.091   23.153   46.918
| 61> H  -24.829   22.537   44.455
| 62> *
| 63>
| 64>                          ****END OF INPUT****
 Total Charge           Charge          ....    0
 Multiplicity           Mult            ....    1
 Number of Electrons    NEL             ....  102
FINAL SINGLE POINT ENERGY      -652.829813752774
FINAL SINGLE POINT ENERGY      -652.853154418526
FINAL SINGLE POINT ENERGY      -652.857197753030
FINAL SINGLE POINT ENERGY      -652.859800169996
FINAL SINGLE POINT ENERGY      -652.860023463249
FINAL SINGLE POINT ENERGY      -652.860058640991
FINAL SINGLE POINT ENERGY      -652.860059404254
                    ***********************HURRAY********************

CARTESIAN COORDINATES (ANGSTROEM)
---------------------------------
  C    -21.035557   26.255369   46.234588
  C    -20.334196   27.573489   45.914081
  C    -20.369775   28.297342   47.282180
  C    -20.202261   27.139735   48.287817
  O    -20.537838   25.902298   47.530805
  H    -20.809304   25.428740   45.554157
  H    -19.302078   27.368162   45.605679
  H    -20.823588   28.141746   45.118059
  H    -19.582726   29.051257   47.377612
  H    -21.338948   28.786155   47.415599
  H    -20.872993   27.211778   49.146860
  H    -19.172434   27.020074   48.635989
  C    -23.227471   26.469407   45.102005
  H    -23.942011   27.291920   45.199415
  H    -22.564611   26.686619   44.250647
  O    -22.480066   26.440170   46.355336
  C    -24.019464   25.188090   44.821622
  C    -23.233136   23.872759   44.712406
  C    -23.092704   23.458715   46.205797
  C    -24.431197   23.941294   46.820647
  O    -25.000341   24.927717   45.872410
  H    -24.586328   25.357080   43.897051
  O    -23.983808   22.892731   43.941081
  H    -22.279385   23.967154   44.191486
  H    -22.954400   22.376547   46.286450
  H    -22.250873   23.962325   46.682246
  H    -24.286961   24.430413   47.786731
  H    -25.167070   23.137060   46.927656
  H    -24.901476   22.854855   44.284589

 Multiplicity           Mult            ....    1
 Number of Electrons    NEL             ....  102
 Basis Dimension        Dim             ....  149

ORBITAL ENERGIES
----------------

  NO   OCC          E(Eh)            E(eV)
   0   2.0000     -19.148105      -521.0464
   1   2.0000     -19.146065      -520.9909
   2   2.0000     -19.135258      -520.6968
   3   2.0000     -19.134704      -520.6818
   4   2.0000     -10.286402      -279.9072
   5   2.0000     -10.237721      -278.5825
   6   2.0000     -10.235024      -278.5092
   7   2.0000     -10.232168      -278.4314
   8   2.0000     -10.230223      -278.3785
   9   2.0000     -10.219244      -278.0798
  10   2.0000     -10.192480      -277.3515
  11   2.0000     -10.190711      -277.3034
  12   2.0000     -10.175275      -276.8833
  13   2.0000      -1.059546       -28.8317
  14   2.0000      -1.031736       -28.0750
  15   2.0000      -1.003874       -27.3168
  16   2.0000      -0.995342       -27.0846
  17   2.0000      -0.791687       -21.5429
  18   2.0000      -0.773978       -21.0610
  19   2.0000      -0.763932       -20.7876
  20   2.0000      -0.736593       -20.0437
  21   2.0000      -0.676348       -18.4044
  22   2.0000      -0.606535       -16.5047
  23   2.0000      -0.599559       -16.3148
  24   2.0000      -0.595729       -16.2106
  25   2.0000      -0.575572       -15.6621
  26   2.0000      -0.526684       -14.3318
  27   2.0000      -0.507586       -13.8121
  28   2.0000      -0.502191       -13.6653
  29   2.0000      -0.488766       -13.3000
  30   2.0000      -0.472810       -12.8658
  31   2.0000      -0.457068       -12.4375
  32   2.0000      -0.449780       -12.2391
  33   2.0000      -0.436853       -11.8874
  34   2.0000      -0.428931       -11.6718
  35   2.0000      -0.409295       -11.1375
  36   2.0000      -0.405289       -11.0285
  37   2.0000      -0.385529       -10.4908
  38   2.0000      -0.381733       -10.3875
  39   2.0000      -0.364449        -9.9172
  40   2.0000      -0.362354        -9.8601
  41   2.0000      -0.356206        -9.6929
  42   2.0000      -0.353906        -9.6303
  43   2.0000      -0.326505        -8.8847
  44   2.0000      -0.319667        -8.6986
  45   2.0000      -0.311291        -8.4707
  46   2.0000      -0.301435        -8.2025
  47   2.0000      -0.269855        -7.3431
  48   2.0000      -0.264815        -7.2060
  49   2.0000      -0.261416        -7.1135
  50   2.0000      -0.234938        -6.3930
  51   0.0000       0.068150         1.8544
  52   0.0000       0.077447         2.1074
  53   0.0000       0.091345         2.4856
  54   0.0000       0.100189         2.7263
  55   0.0000       0.108585         2.9547

MULLIKEN ATOMIC CHARGES
-----------------------
   0 C :    0.295310
   1 C :   -0.268217
   2 C :   -0.298157
   3 C :   -0.001497
   4 O :   -0.513050
   5 H :    0.140668
   6 H :    0.146797
   7 H :    0.145884
   8 H :    0.144113
   9 H :    0.164141
  10 H :    0.157205
  11 H :    0.144347
  12 C :   -0.026773
  13 H :    0.166509
  14 H :    0.119156
  15 O :   -0.507032
  16 C :    0.083516
  17 C :    0.067038
  18 C :   -0.302704
  19 C :   -0.024943
  20 O :   -0.524967
  21 H :    0.150016
  22 O :   -0.603428
  23 H :    0.142325
  24 H :    0.150850
  25 H :    0.189657
  26 H :    0.162525
  27 H :    0.136797
  28 H :    0.363915
Sum of atomic charges:    0.0000000

LOEWDIN ATOMIC CHARGES
----------------------
   0 C :    0.172768
   1 C :   -0.227609
   2 C :   -0.215755
   3 C :   -0.023368
   4 O :   -0.307298
   5 H :    0.093785
   6 H :    0.114687
   7 H :    0.115495
   8 H :    0.115571
   9 H :    0.120383
  10 H :    0.111213
  11 H :    0.103832
  12 C :   -0.044327
  13 H :    0.120529
  14 H :    0.093651
  15 O :   -0.332671
  16 C :    0.008303
  17 C :    0.034038
  18 C :   -0.243201
  19 C :   -0.033611
  20 O :   -0.329810
  21 H :    0.113786
  22 O :   -0.416107
  23 H :    0.109435
  24 H :    0.119944
  25 H :    0.133940
  26 H :    0.113633
  27 H :    0.096022
  28 H :    0.282744

  Mayer bond orders larger than 0.100000
B(  0-C ,  1-C ) :   0.9341 B(  0-C ,  4-O ) :   0.9175 B(  0-C ,  5-H ) :   0.9125
B(  0-C , 15-O ) :   0.8234 B(  1-C ,  2-C ) :   0.9515 B(  1-C ,  6-H ) :   0.9335
B(  1-C ,  7-H ) :   0.9349 B(  2-C ,  3-C ) :   0.9561 B(  2-C ,  8-H ) :   0.9447
B(  2-C ,  9-H ) :   0.9434 B(  3-C ,  4-O ) :   0.8292 B(  3-C , 10-H ) :   0.9345
B(  3-C , 11-H ) :   0.9396 B( 12-C , 13-H ) :   0.9302 B( 12-C , 14-H ) :   0.9107
B( 12-C , 15-O ) :   0.8640 B( 12-C , 16-C ) :   0.8876 B( 16-C , 17-C ) :   0.9083
B( 16-C , 20-O ) :   0.8754 B( 16-C , 21-H ) :   0.9172 B( 17-C , 18-C ) :   0.9205
B( 17-C , 22-O ) :   0.8897 B( 17-C , 23-H ) :   0.9331 B( 18-C , 19-C ) :   0.9451
B( 18-C , 24-H ) :   0.9373 B( 18-C , 25-H ) :   0.9105 B( 19-C , 20-O ) :   0.8354
B( 19-C , 26-H ) :   0.9324 B( 19-C , 27-H ) :   0.9368 B( 22-O , 28-H ) :   0.7947

FINAL SINGLE POINT ENERGY      -652.860043930844

DIPOLE MOMENT
-------------
                                X             Y             Z
Electronic contribution:     -3.72123      -3.11578      -1.10880
Nuclear contribution   :      4.50731       4.08223       1.07596
                        -----------------------------------------
Total Dipole Moment    :      0.78608       0.96645      -0.03284
                        -----------------------------------------
Magnitude (a.u.)       :      1.24621
Magnitude (Debye)      :      3.16761

Rotational constants in cm-1:     0.056680     0.014308     0.013854
Rotational constants in MHz :  1699.224552   428.932649   415.323946

                             ****ORCA TERMINATED NORMALLY****
TOTAL RUN TIME: 0 days 0 hours 40 minutes 15 seconds 800 msec
