                         Program Version 4.2.1 -  RELEASE  -
|  1> # Test redundant internal optimization
|  2> #
|  3> ! RKS B3LYP  Opt TightSCF SmallPrint
|  4>
|  5> %basis
|  6>         Basis "6-31G"
|  7> end
|  8>
|  9> %geom
| 10> Constraints
| 11> { D 4  0  19  14  285.0   C } # D for Dihedral angle
| 12> { D 0  19  14  12  30.0   C } # D for Dihedral angle
| 13> { D 0  4  3  2   C } # D for Dihedral angle
| 14> { D 4  3  2  1   C } # D for Dihedral angle
| 15> { D 3  2  1  0   C } # D for Dihedral angle
| 16> { D 2  1  0  4   C } # D for Dihedral angle
| 17> { D 1  0  4  3   C } # D for Dihedral angle
| 18> { D 14  15  16  17   C } # D for Dihedral angle
| 19> { D 15  16  17  12   C } # D for Dihedral angle
| 20> { D 16  17  12  14   C } # D for Dihedral angle
| 21> { D 17  12  14  15   C } # D for Dihedral angle
| 22> { D 12  14  15  16   C } # D for Dihedral angle
| 23> end
| 24> end
| 25>
| 26>
| 27> #%pal
| 28> #nprocs 8
| 29> #end
| 30>
| 31> * xyz 0 1
| 32> C  -21.048   26.222   46.251
| 33> C  -20.361   27.558   45.944
| 34> C  -20.329   28.222   47.341
| 35> C  -20.110   27.022   48.296
| 36> O  -20.473   25.807   47.535
| 37> H  -20.833   25.428   45.533
| 38> H  -19.344   27.382   45.576
| 39> H  -20.898   28.157   45.201
| 40> H  -19.543   28.978   47.434
| 41> H  -21.289   28.710   47.548
| 42> H  -20.733   27.082   49.195
| 43> H  -19.064   26.913   48.597
| 44> C  -22.344   24.054   47.070
| 45> H  -22.750   23.051   46.867
| 46> C  -23.203   25.146   46.420
| 47> C  -24.382   25.252   47.416
| 48> C  -23.708   25.000   48.788
| 49> O  -22.409   24.351   48.505
| 50> H  -21.291   24.078   46.786
| 51> O  -22.472   26.381   46.366
| 52> H  -23.526   24.891   45.405
| 53> H  -24.890   26.220   47.372
| 54> H  -25.127   24.474   47.203
| 55> H  -24.302   24.346   49.435
| 56> H  -23.494   25.929   49.325
| 57> *
| 58>
| 59>                          ****END OF INPUT****
 Total Charge           Charge          ....    0
 Multiplicity           Mult            ....    1
 Number of Electrons    NEL             ....   86
FINAL SINGLE POINT ENERGY      -538.416863578870
FINAL SINGLE POINT ENERGY      -538.430068589993
FINAL SINGLE POINT ENERGY      -538.431673224174
FINAL SINGLE POINT ENERGY      -538.432028299250
FINAL SINGLE POINT ENERGY      -538.432060887746
FINAL SINGLE POINT ENERGY      -538.432069490435
                    ***********************HURRAY********************

CARTESIAN COORDINATES (ANGSTROEM)
---------------------------------
  C    -20.892757   26.215092   46.245806
  C    -20.408037   27.633855   45.947582
  C    -20.410921   28.275139   47.355896
  C    -19.993773   27.100519   48.270621
  O    -20.226618   25.868175   47.477953
  H    -20.604189   25.453392   45.514723
  H    -19.391634   27.589041   45.539543
  H    -21.056330   28.149100   45.236185
  H    -19.726968   29.125826   47.432429
  H    -21.420509   28.616692   47.600735
  H    -20.580103   27.039194   49.190152
  H    -18.928733   27.114167   48.521077
  C    -22.485352   23.858523   47.112279
  H    -23.057352   22.958095   46.842913
  C    -23.135024   25.077875   46.458663
  C    -24.320443   25.340184   47.403529
  C    -23.761879   24.961848   48.796982
  O    -22.566494   24.128326   48.551054
  H    -21.431631   23.706162   46.881775
  O    -22.328995   26.296898   46.364775
  H    -23.474760   24.840052   45.440839
  H    -24.647903   26.380600   47.339544
  H    -25.157915   24.692120   47.122216
  H    -24.482366   24.395436   49.398108
  H    -23.432313   25.837688   49.363620

 Multiplicity           Mult            ....    1
 Number of Electrons    NEL             ....   86
 Basis Dimension        Dim             ....  127

ORBITAL ENERGIES
----------------

  NO   OCC          E(Eh)            E(eV)
   0   2.0000     -19.139811      -520.8207
   1   2.0000     -19.133089      -520.6378
   2   2.0000     -19.122687      -520.3548
   3   2.0000     -10.275687      -279.6156
   4   2.0000     -10.237425      -278.5745
   5   2.0000     -10.219084      -278.0754
   6   2.0000     -10.218511      -278.0598
   7   2.0000     -10.216869      -278.0151
   8   2.0000     -10.182441      -277.0783
   9   2.0000     -10.181239      -277.0456
  10   2.0000     -10.180815      -277.0340
  11   2.0000      -1.048985       -28.5443
  12   2.0000      -1.007411       -27.4130
  13   2.0000      -0.986525       -26.8447
  14   2.0000      -0.789738       -21.4899
  15   2.0000      -0.772932       -21.0325
  16   2.0000      -0.733246       -19.9526
  17   2.0000      -0.720752       -19.6127
  18   2.0000      -0.612940       -16.6789
  19   2.0000      -0.595488       -16.2041
  20   2.0000      -0.590325       -16.0635
  21   2.0000      -0.565000       -15.3744
  22   2.0000      -0.519532       -14.1372
  23   2.0000      -0.496651       -13.5146
  24   2.0000      -0.483970       -13.1695
  25   2.0000      -0.473792       -12.8925
  26   2.0000      -0.446492       -12.1497
  27   2.0000      -0.436791       -11.8857
  28   2.0000      -0.430836       -11.7237
  29   2.0000      -0.407678       -11.0935
  30   2.0000      -0.400428       -10.8962
  31   2.0000      -0.378583       -10.3018
  32   2.0000      -0.369308       -10.0494
  33   2.0000      -0.361008        -9.8235
  34   2.0000      -0.355775        -9.6811
  35   2.0000      -0.351297        -9.5593
  36   2.0000      -0.339807        -9.2466
  37   2.0000      -0.324735        -8.8365
  38   2.0000      -0.299112        -8.1393
  39   2.0000      -0.289097        -7.8667
  40   2.0000      -0.262357        -7.1391
  41   2.0000      -0.247508        -6.7350
  42   2.0000      -0.227937        -6.2025
  43   0.0000       0.080056         2.1784
  44   0.0000       0.098095         2.6693
  45   0.0000       0.099966         2.7202
  46   0.0000       0.119754         3.2587
  47   0.0000       0.122201         3.3253

MULLIKEN ATOMIC CHARGES
-----------------------
   0 C :    0.286648
   1 C :   -0.260338
   2 C :   -0.297670
   3 C :   -0.000785
   4 O :   -0.502148
   5 H :    0.138151
   6 H :    0.143182
   7 H :    0.154174
   8 H :    0.138335
   9 H :    0.158555
  10 H :    0.152858
  11 H :    0.141121
  12 C :   -0.012285
  13 H :    0.122379
  14 C :    0.093798
  15 C :   -0.291151
  16 C :   -0.005029
  17 O :   -0.512717
  18 H :    0.175031
  19 O :   -0.531260
  20 H :    0.127970
  21 H :    0.159796
  22 H :    0.138693
  23 H :    0.135135
  24 H :    0.147556
Sum of atomic charges:    0.0000000

LOEWDIN ATOMIC CHARGES
----------------------
   0 C :    0.171742
   1 C :   -0.213873
   2 C :   -0.216081
   3 C :   -0.025998
   4 O :   -0.319402
   5 H :    0.093054
   6 H :    0.112634
   7 H :    0.122409
   8 H :    0.112154
   9 H :    0.117279
  10 H :    0.108138
  11 H :    0.102085
  12 C :   -0.048361
  13 H :    0.092865
  14 C :    0.041945
  15 C :   -0.224728
  16 C :   -0.031100
  17 O :   -0.324668
  18 H :    0.124869
  19 O :   -0.330188
  20 H :    0.095873
  21 H :    0.126701
  22 H :    0.111214
  23 H :    0.097514
  24 H :    0.103921

  Mayer bond orders larger than 0.100000
B(  0-C ,  1-C ) :   0.9492 B(  0-C ,  4-O ) :   0.9081 B(  0-C ,  5-H ) :   0.9208
B(  0-C , 19-O ) :   0.8540 B(  1-C ,  2-C ) :   0.9582 B(  1-C ,  6-H ) :   0.9409
B(  1-C ,  7-H ) :   0.9371 B(  2-C ,  3-C ) :   0.9541 B(  2-C ,  8-H ) :   0.9453
B(  2-C ,  9-H ) :   0.9449 B(  3-C ,  4-O ) :   0.8369 B(  3-C , 10-H ) :   0.9336
B(  3-C , 11-H ) :   0.9404 B( 12-C , 13-H ) :   0.9088 B( 12-C , 14-C ) :   0.9234
B( 12-C , 17-O ) :   0.8658 B( 12-C , 18-H ) :   0.9206 B( 14-C , 15-C ) :   0.9498
B( 14-C , 19-O ) :   0.8384 B( 14-C , 20-H ) :   0.9258 B( 15-C , 16-C ) :   0.9468
B( 15-C , 21-H ) :   0.9373 B( 15-C , 22-H ) :   0.9408 B( 16-C , 17-O ) :   0.8628
B( 16-C , 23-H ) :   0.9326 B( 16-C , 24-H ) :   0.9355

FINAL SINGLE POINT ENERGY      -538.432070146215

DIPOLE MOMENT
-------------
                                X             Y             Z
Electronic contribution:      0.86093      -2.82587      -0.13284
Nuclear contribution   :     -1.23050       3.40695      -0.50468
                        -----------------------------------------
Total Dipole Moment    :     -0.36957       0.58108      -0.63752
                        -----------------------------------------
Magnitude (a.u.)       :      0.93844
Magnitude (Debye)      :      2.38532

Rotational constants in cm-1:     0.068817     0.025744     0.024083
Rotational constants in MHz :  2063.072822   771.775621   722.003544

                             ****ORCA TERMINATED NORMALLY****
TOTAL RUN TIME: 0 days 0 hours 7 minutes 34 seconds 698 msec
