                         Program Version 4.2.0 -  RELEASE  -
|  1> # Test redundant internal optimization
|  2> #
|  3> ! RKS B3LYP  Opt TightSCF SmallPrint
|  4>
|  5> %basis
|  6>         Basis "6-31G"
|  7> end
|  8>
|  9> %geom
| 10> Constraints
| 11> { D 4  0  15  12  15.0   C } # D for Dihedral angle
| 12> { D 0  15  12  16  315.0   C } # D for Dihedral angle
| 13> { D 0  4  3  2   C } # D for Dihedral angle
| 14> { D 4  3  2  1   C } # D for Dihedral angle
| 15> { D 3  2  1  0   C } # D for Dihedral angle
| 16> { D 2  1  0  4   C } # D for Dihedral angle
| 17> { D 1  0  4  3   C } # D for Dihedral angle
| 18> { D 16  20  19  18   C } # D for Dihedral angle
| 19> { D 20  19  18  17   C } # D for Dihedral angle
| 20> { D 19  18  17  16   C } # D for Dihedral angle
| 21> { D 18  17  16  20   C } # D for Dihedral angle
| 22> { D 17  16  20  19   C } # D for Dihedral angle
| 23> { D 15  12  16  20   C } # D for Dihedral angle
| 24> end
| 25> end
| 26>
| 27>
| 28> #%pal
| 29> #nprocs 8
| 30> #end
| 31>
| 32> * xyz 0 1
| 33> C  -21.048   26.222   46.251
| 34> C  -20.361   27.558   45.944
| 35> C  -20.329   28.222   47.341
| 36> C  -20.110   27.022   48.296
| 37> O  -20.473   25.807   47.535
| 38> H  -20.833   25.428   45.533
| 39> H  -19.344   27.382   45.576
| 40> H  -20.898   28.157   45.201
| 41> H  -19.543   28.978   47.434
| 42> H  -21.289   28.710   47.548
| 43> H  -20.733   27.082   49.195
| 44> H  -19.064   26.913   48.597
| 45> C  -23.128   26.462   47.829
| 46> H  -22.902   27.448   48.254
| 47> H  -24.217   26.326   47.840
| 48> O  -22.586   26.394   46.375
| 49> C  -22.506   25.378   48.753
| 50> C  -23.147   25.400   50.145
| 51> C  -24.473   24.645   49.893
| 52> C  -24.076   23.581   48.839
| 53> O  -22.803   24.036   48.240
| 54> H  -21.420   25.488   48.753
| 55> H  -22.519   24.852   50.858
| 56> O  -23.367   26.837   50.693
| 57> H  -24.887   24.197   50.802
| 58> H  -25.225   25.330   49.485
| 59> H  -24.826   23.474   48.047
| 60> H  -23.890   22.600   49.285
| 61> H  -23.994   27.405   49.997
| 62> *
| 63>
| 64>                          ****END OF INPUT****
 Total Charge           Charge          ....    0
 Multiplicity           Mult            ....    1
 Number of Electrons    NEL             ....  102
FINAL SINGLE POINT ENERGY      -652.790459794608
FINAL SINGLE POINT ENERGY      -652.821877927471
FINAL SINGLE POINT ENERGY      -652.841700682827
FINAL SINGLE POINT ENERGY      -652.845694763359
FINAL SINGLE POINT ENERGY      -652.846302916133
FINAL SINGLE POINT ENERGY      -652.846432190042
FINAL SINGLE POINT ENERGY      -652.846447424153
FINAL SINGLE POINT ENERGY      -652.846451437559
                    ***********************HURRAY********************

CARTESIAN COORDINATES (ANGSTROEM)
---------------------------------
  C    -21.014369   26.304998   46.305212
  C    -20.442644   27.664505   45.892651
  C    -20.095917   28.294793   47.266380
  C    -19.639667   27.078011   48.101421
  O    -20.160835   25.877234   47.389018
  H    -20.933643   25.533099   45.538212
  H    -19.536827   27.508867   45.294626
  H    -21.158792   28.249957   45.312691
  H    -19.317827   29.061091   47.195446
  H    -20.986320   28.759145   47.703650
  H    -20.031987   27.083512   49.123464
  H    -18.551970   26.968195   48.137130
  C    -23.083305   26.395988   47.874093
  H    -22.992662   27.394560   48.334027
  H    -24.136846   26.230270   47.626141
  O    -22.442753   26.394974   46.571202
  C    -22.610752   25.367719   48.912281
  C    -23.429346   25.427233   50.214875
  C    -24.695065   24.595919   49.839128
  C    -24.116795   23.508512   48.905498
  O    -22.792406   23.994357   48.446794
  H    -21.544634   25.472497   49.090970
  H    -22.870690   24.927331   51.009607
  O    -23.693250   26.754381   50.735165
  H    -25.193045   24.181281   50.719407
  H    -25.415376   25.237064   49.313606
  H    -24.749603   23.317714   48.033056
  H    -23.947553   22.563255   49.430017
  H    -24.406124   27.187537   50.223234

 Multiplicity           Mult            ....    1
 Number of Electrons    NEL             ....  102
 Basis Dimension        Dim             ....  149

ORBITAL ENERGIES
----------------

  NO   OCC          E(Eh)            E(eV)
   0   2.0000     -19.149437      -521.0827
   1   2.0000     -19.146836      -521.0119
   2   2.0000     -19.131061      -520.5826
   3   2.0000     -19.130934      -520.5792
   4   2.0000     -10.275491      -279.6103
   5   2.0000     -10.242866      -278.7226
   6   2.0000     -10.230570      -278.3880
   7   2.0000     -10.230265      -278.3797
   8   2.0000     -10.225943      -278.2621
   9   2.0000     -10.221866      -278.1511
  10   2.0000     -10.193243      -277.3722
  11   2.0000     -10.189871      -277.2805
  12   2.0000     -10.182436      -277.0782
  13   2.0000      -1.047986       -28.5172
  14   2.0000      -1.031043       -28.0561
  15   2.0000      -1.010928       -27.5088
  16   2.0000      -0.987914       -26.8825
  17   2.0000      -0.787893       -21.4397
  18   2.0000      -0.779693       -21.2165
  19   2.0000      -0.765245       -20.8234
  20   2.0000      -0.731951       -19.9174
  21   2.0000      -0.678762       -18.4701
  22   2.0000      -0.608762       -16.5652
  23   2.0000      -0.603029       -16.4093
  24   2.0000      -0.599426       -16.3112
  25   2.0000      -0.562755       -15.3133
  26   2.0000      -0.519429       -14.1344
  27   2.0000      -0.510222       -13.8839
  28   2.0000      -0.500898       -13.6301
  29   2.0000      -0.488794       -13.3008
  30   2.0000      -0.465142       -12.6571
  31   2.0000      -0.454458       -12.3664
  32   2.0000      -0.442348       -12.0369
  33   2.0000      -0.428294       -11.6545
  34   2.0000      -0.425484       -11.5780
  35   2.0000      -0.413689       -11.2570
  36   2.0000      -0.409247       -11.1362
  37   2.0000      -0.397815       -10.8251
  38   2.0000      -0.378394       -10.2966
  39   2.0000      -0.371795       -10.1171
  40   2.0000      -0.358569        -9.7572
  41   2.0000      -0.357179        -9.7193
  42   2.0000      -0.342729        -9.3261
  43   2.0000      -0.331217        -9.0129
  44   2.0000      -0.319745        -8.7007
  45   2.0000      -0.312315        -8.4985
  46   2.0000      -0.302881        -8.2418
  47   2.0000      -0.270489        -7.3604
  48   2.0000      -0.258081        -7.0227
  49   2.0000      -0.247389        -6.7318
  50   2.0000      -0.228201        -6.2097
  51   0.0000       0.052016         1.4154
  52   0.0000       0.074472         2.0265
  53   0.0000       0.085024         2.3136
  54   0.0000       0.091478         2.4892
  55   0.0000       0.102218         2.7815

MULLIKEN ATOMIC CHARGES
-----------------------
   0 C :    0.313631
   1 C :   -0.261412
   2 C :   -0.312429
   3 C :   -0.027540
   4 O :   -0.503392
   5 H :    0.166699
   6 H :    0.145560
   7 H :    0.157046
   8 H :    0.147959
   9 H :    0.154485
  10 H :    0.145007
  11 H :    0.155550
  12 C :    0.003342
  13 H :    0.114754
  14 H :    0.143829
  15 O :   -0.544403
  16 C :    0.069338
  17 C :    0.080053
  18 C :   -0.323234
  19 C :   -0.011440
  20 O :   -0.506626
  21 H :    0.189468
  22 H :    0.166864
  23 O :   -0.601844
  24 H :    0.155507
  25 H :    0.132394
  26 H :    0.146844
  27 H :    0.147965
  28 H :    0.356023
Sum of atomic charges:   -0.0000000

LOEWDIN ATOMIC CHARGES
----------------------
   0 C :    0.188310
   1 C :   -0.223698
   2 C :   -0.220720
   3 C :   -0.037495
   4 O :   -0.312083
   5 H :    0.112050
   6 H :    0.114144
   7 H :    0.123619
   8 H :    0.117494
   9 H :    0.112819
  10 H :    0.101344
  11 H :    0.108718
  12 C :   -0.040063
  13 H :    0.085776
  14 H :    0.107846
  15 O :   -0.336159
  16 C :    0.002724
  17 C :    0.033869
  18 C :   -0.241960
  19 C :   -0.030911
  20 O :   -0.314139
  21 H :    0.129159
  22 H :    0.118553
  23 O :   -0.410056
  24 H :    0.121529
  25 H :    0.102886
  26 H :    0.103730
  27 H :    0.105261
  28 H :    0.277450

  Mayer bond orders larger than 0.100000
B(  0-C ,  1-C ) :   0.9220 B(  0-C ,  4-O ) :   0.9033 B(  0-C ,  5-H ) :   0.9326
B(  0-C , 15-O ) :   0.8532 B(  1-C ,  2-C ) :   0.9553 B(  1-C ,  6-H ) :   0.9351
B(  1-C ,  7-H ) :   0.9376 B(  2-C ,  3-C ) :   0.9519 B(  2-C ,  8-H ) :   0.9443
B(  2-C ,  9-H ) :   0.9444 B(  3-C ,  4-O ) :   0.8341 B(  3-C , 10-H ) :   0.9260
B(  3-C , 11-H ) :   0.9396 B( 12-C , 13-H ) :   0.8991 B( 12-C , 14-H ) :   0.9382
B( 12-C , 15-O ) :   0.8563 B( 12-C , 16-C ) :   0.8906 B( 16-C , 17-C ) :   0.8639
B( 16-C , 20-O ) :   0.8587 B( 16-C , 21-H ) :   0.9081 B( 17-C , 18-C ) :   0.9231
B( 17-C , 22-H ) :   0.9338 B( 17-C , 23-O ) :   0.8936 B( 18-C , 19-C ) :   0.9366
B( 18-C , 24-H ) :   0.9423 B( 18-C , 25-H ) :   0.9411 B( 19-C , 20-O ) :   0.8537
B( 19-C , 26-H ) :   0.9310 B( 19-C , 27-H ) :   0.9376 B( 23-O , 28-H ) :   0.7984

FINAL SINGLE POINT ENERGY      -652.846451791384

DIPOLE MOMENT
-------------
                                X             Y             Z
Electronic contribution:      0.28086      -3.00141      -0.62751
Nuclear contribution   :     -0.77224       3.77795       0.79558
                        -----------------------------------------
Total Dipole Moment    :     -0.49138       0.77654       0.16807
                        -----------------------------------------
Magnitude (a.u.)       :      0.93419
Magnitude (Debye)      :      2.37453

Rotational constants in cm-1:     0.049824     0.015808     0.014368
Rotational constants in MHz :  1493.678564   473.915863   430.732900

                             ****ORCA TERMINATED NORMALLY****
TOTAL RUN TIME: 0 days 0 hours 27 minutes 44 seconds 985 msec
