                         Program Version 4.2.0 -  RELEASE  -
|  1> # Test redundant internal optimization
|  2> #
|  3> ! RKS B3LYP  Opt TightSCF SmallPrint
|  4>
|  5> %basis
|  6>         Basis "6-31G"
|  7> end
|  8>
|  9> %geom
| 10> Constraints
| 11> { D 4  0  15  12  135.0   C } # D for Dihedral angle
| 12> { D 0  15  12  16  255.0   C } # D for Dihedral angle
| 13> { D 0  4  3  2   C } # D for Dihedral angle
| 14> { D 4  3  2  1   C } # D for Dihedral angle
| 15> { D 3  2  1  0   C } # D for Dihedral angle
| 16> { D 2  1  0  4   C } # D for Dihedral angle
| 17> { D 1  0  4  3   C } # D for Dihedral angle
| 18> { D 16  20  19  18   C } # D for Dihedral angle
| 19> { D 20  19  18  17   C } # D for Dihedral angle
| 20> { D 19  18  17  16   C } # D for Dihedral angle
| 21> { D 18  17  16  20   C } # D for Dihedral angle
| 22> { D 17  16  20  19   C } # D for Dihedral angle
| 23> { D 15  12  16  20   C } # D for Dihedral angle
| 24> end
| 25> end
| 26>
| 27>
| 28> #%pal
| 29> #nprocs 8
| 30> #end
| 31>
| 32> * xyz 0 1
| 33> C  -21.048   26.222   46.251
| 34> C  -20.361   27.558   45.944
| 35> C  -20.329   28.222   47.341
| 36> C  -20.110   27.022   48.296
| 37> O  -20.473   25.807   47.535
| 38> H  -20.833   25.428   45.533
| 39> H  -19.344   27.382   45.576
| 40> H  -20.898   28.157   45.201
| 41> H  -19.543   28.978   47.434
| 42> H  -21.289   28.710   47.548
| 43> H  -20.733   27.082   49.195
| 44> H  -19.064   26.913   48.597
| 45> C  -23.162   27.680   45.721
| 46> H  -22.412   28.109   45.044
| 47> H  -24.058   27.443   45.133
| 48> O  -22.586   26.394   46.375
| 49> C  -23.553   28.762   46.765
| 50> C  -24.223   29.966   46.094
| 51> C  -25.661   29.441   45.870
| 52> C  -25.906   28.548   47.112
| 53> O  -24.575   28.244   47.680
| 54> H  -22.678   29.009   47.369
| 55> H  -24.226   30.824   46.776
| 56> O  -23.526   30.394   44.774
| 57> H  -26.398   30.246   45.783
| 58> H  -25.705   28.845   44.951
| 59> H  -26.411   27.609   46.860
| 60> H  -26.480   29.061   47.889
| 61> H  -23.511   29.552   44.074
| 62> *
| 63>
| 64>                          ****END OF INPUT****
 Total Charge           Charge          ....    0
 Multiplicity           Mult            ....    1
 Number of Electrons    NEL             ....  102
FINAL SINGLE POINT ENERGY      -652.801820726719
FINAL SINGLE POINT ENERGY      -652.826964258999
FINAL SINGLE POINT ENERGY      -652.840266757779
FINAL SINGLE POINT ENERGY      -652.842749886153
FINAL SINGLE POINT ENERGY      -652.843347017372
FINAL SINGLE POINT ENERGY      -652.843465799001
FINAL SINGLE POINT ENERGY      -652.843487587829
FINAL SINGLE POINT ENERGY      -652.843492045986
                    ***********************HURRAY********************

CARTESIAN COORDINATES (ANGSTROEM)
---------------------------------
  C    -21.082351   26.308456   46.286466
  C    -20.123457   27.459760   45.969488
  C    -20.032561   28.194753   47.336645
  C    -20.116825   27.027556   48.347514
  O    -20.679676   25.879377   47.597263
  H    -20.940976   25.436831   45.641940
  H    -19.154888   27.023573   45.703804
  H    -20.434579   28.110047   45.147712
  H    -19.101821   28.761782   47.436910
  H    -20.861240   28.894824   47.462303
  H    -20.766319   27.243918   49.199777
  H    -19.133917   26.714620   48.711174
  C    -23.146388   27.725852   45.674418
  H    -22.479377   28.227655   44.960924
  H    -24.002499   27.327852   45.116958
  O    -22.518027   26.566132   46.274933
  C    -23.626703   28.758498   46.698466
  C    -24.344342   29.958310   46.055602
  C    -25.788864   29.402812   45.860662
  C    -25.971289   28.497264   47.099314
  O    -24.612702   28.217058   47.627854
  H    -22.787329   29.077431   47.318783
  H    -24.350900   30.794942   46.758234
  O    -23.721548   30.487687   44.858318
  H    -26.533731   30.200781   45.801043
  H    -25.837101   28.823013   44.929120
  H    -26.465200   27.549132   46.866644
  H    -26.527749   28.997543   47.898007
  H    -23.953639   29.940545   44.080724

 Multiplicity           Mult            ....    1
 Number of Electrons    NEL             ....  102
 Basis Dimension        Dim             ....  149

ORBITAL ENERGIES
----------------

  NO   OCC          E(Eh)            E(eV)
   0   2.0000     -19.154572      -521.2224
   1   2.0000     -19.137151      -520.7484
   2   2.0000     -19.133756      -520.6560
   3   2.0000     -19.132687      -520.6269
   4   2.0000     -10.276180      -279.6291
   5   2.0000     -10.248811      -278.8843
   6   2.0000     -10.232800      -278.4486
   7   2.0000     -10.231433      -278.4114
   8   2.0000     -10.231148      -278.4037
   9   2.0000     -10.221812      -278.1496
  10   2.0000     -10.199180      -277.5338
  11   2.0000     -10.191753      -277.3317
  12   2.0000     -10.189636      -277.2741
  13   2.0000      -1.044803       -28.4305
  14   2.0000      -1.036444       -28.2031
  15   2.0000      -1.017182       -27.6789
  16   2.0000      -0.987469       -26.8704
  17   2.0000      -0.786583       -21.4040
  18   2.0000      -0.785488       -21.3742
  19   2.0000      -0.769970       -20.9519
  20   2.0000      -0.732172       -19.9234
  21   2.0000      -0.684743       -18.6328
  22   2.0000      -0.614592       -16.7239
  23   2.0000      -0.605627       -16.4799
  24   2.0000      -0.594035       -16.1645
  25   2.0000      -0.568985       -15.4829
  26   2.0000      -0.524866       -14.2823
  27   2.0000      -0.511590       -13.9211
  28   2.0000      -0.503531       -13.7018
  29   2.0000      -0.498524       -13.5655
  30   2.0000      -0.465721       -12.6729
  31   2.0000      -0.451116       -12.2755
  32   2.0000      -0.448750       -12.2111
  33   2.0000      -0.433623       -11.7995
  34   2.0000      -0.430455       -11.7133
  35   2.0000      -0.426939       -11.6176
  36   2.0000      -0.409642       -11.1469
  37   2.0000      -0.401673       -10.9301
  38   2.0000      -0.381201       -10.3730
  39   2.0000      -0.376525       -10.2458
  40   2.0000      -0.360570        -9.8116
  41   2.0000      -0.354331        -9.6418
  42   2.0000      -0.349935        -9.5222
  43   2.0000      -0.331634        -9.0242
  44   2.0000      -0.319665        -8.6985
  45   2.0000      -0.307353        -8.3635
  46   2.0000      -0.285881        -7.7792
  47   2.0000      -0.274923        -7.4810
  48   2.0000      -0.265836        -7.2338
  49   2.0000      -0.250263        -6.8100
  50   2.0000      -0.231958        -6.3119
  51   0.0000       0.047562         1.2942
  52   0.0000       0.074393         2.0243
  53   0.0000       0.079243         2.1563
  54   0.0000       0.087045         2.3686
  55   0.0000       0.099776         2.7151

MULLIKEN ATOMIC CHARGES
-----------------------
   0 C :    0.321622
   1 C :   -0.305459
   2 C :   -0.311612
   3 C :   -0.001977
   4 O :   -0.493113
   5 H :    0.151557
   6 H :    0.156500
   7 H :    0.147981
   8 H :    0.144848
   9 H :    0.155636
  10 H :    0.156111
  11 H :    0.142284
  12 C :   -0.012934
  13 H :    0.122926
  14 H :    0.139755
  15 O :   -0.517951
  16 C :    0.085997
  17 C :    0.078204
  18 C :   -0.323757
  19 C :   -0.014986
  20 O :   -0.501352
  21 H :    0.159497
  22 H :    0.169061
  23 O :   -0.601473
  24 H :    0.160034
  25 H :    0.132152
  26 H :    0.152864
  27 H :    0.150831
  28 H :    0.356758
Sum of atomic charges:   -0.0000000

LOEWDIN ATOMIC CHARGES
----------------------
   0 C :    0.184540
   1 C :   -0.233282
   2 C :   -0.220213
   3 C :   -0.028705
   4 O :   -0.307006
   5 H :    0.101196
   6 H :    0.122870
   7 H :    0.114846
   8 H :    0.115898
   9 H :    0.109903
  10 H :    0.110030
  11 H :    0.102887
  12 C :   -0.046486
  13 H :    0.094849
  14 H :    0.103626
  15 O :   -0.323452
  16 C :    0.011663
  17 C :    0.031992
  18 C :   -0.241344
  19 C :   -0.030510
  20 O :   -0.311498
  21 H :    0.110268
  22 H :    0.119540
  23 O :   -0.410007
  24 H :    0.123455
  25 H :    0.103381
  26 H :    0.106982
  27 H :    0.106475
  28 H :    0.278101

  Mayer bond orders larger than 0.100000
B(  0-C ,  1-C ) :   0.9278 B(  0-C ,  4-O ) :   0.9253 B(  0-C ,  5-H ) :   0.9308
B(  0-C , 15-O ) :   0.8640 B(  1-C ,  2-C ) :   0.9531 B(  1-C ,  6-H ) :   0.9331
B(  1-C ,  7-H ) :   0.9267 B(  2-C ,  3-C ) :   0.9519 B(  2-C ,  8-H ) :   0.9453
B(  2-C ,  9-H ) :   0.9283 B(  3-C ,  4-O ) :   0.8426 B(  3-C , 10-H ) :   0.9328
B(  3-C , 11-H ) :   0.9394 B( 12-C , 13-H ) :   0.8969 B( 12-C , 14-H ) :   0.9334
B( 12-C , 15-O ) :   0.8666 B( 12-C , 16-C ) :   0.8861 B( 16-C , 17-C ) :   0.8672
B( 16-C , 20-O ) :   0.8727 B( 16-C , 21-H ) :   0.9157 B( 17-C , 18-C ) :   0.9270
B( 17-C , 22-H ) :   0.9318 B( 17-C , 23-O ) :   0.8911 B( 18-C , 19-C ) :   0.9375
B( 18-C , 24-H ) :   0.9407 B( 18-C , 25-H ) :   0.9408 B( 19-C , 20-O ) :   0.8497
B( 19-C , 26-H ) :   0.9302 B( 19-C , 27-H ) :   0.9369 B( 23-O , 28-H ) :   0.7987

FINAL SINGLE POINT ENERGY      -652.843492733167

DIPOLE MOMENT
-------------
                                X             Y             Z
Electronic contribution:     -0.88368      -3.17177       1.04004
Nuclear contribution   :      0.74958       4.18788      -2.07882
                        -----------------------------------------
Total Dipole Moment    :     -0.13411       1.01611      -1.03878
                        -----------------------------------------
Magnitude (a.u.)       :      1.45929
Magnitude (Debye)      :      3.70923

Rotational constants in cm-1:     0.049254     0.014664     0.013408
Rotational constants in MHz :  1476.610098   439.628320   401.951877

                             ****ORCA TERMINATED NORMALLY****
TOTAL RUN TIME: 0 days 0 hours 29 minutes 30 seconds 172 msec
