                         Program Version 4.2.1 -  RELEASE  -
|  1> # Test redundant internal optimization
|  2> #
|  3> ! RKS B3LYP  Opt TightSCF SmallPrint
|  4>
|  5> %basis
|  6>         Basis "6-31G"
|  7> end
|  8>
|  9> %geom
| 10> Constraints
| 11> { D 4  0  19  14  195.0   C } # D for Dihedral angle
| 12> { D 0  19  14  12  45.0   C } # D for Dihedral angle
| 13> { D 0  4  3  2   C } # D for Dihedral angle
| 14> { D 4  3  2  1   C } # D for Dihedral angle
| 15> { D 3  2  1  0   C } # D for Dihedral angle
| 16> { D 2  1  0  4   C } # D for Dihedral angle
| 17> { D 1  0  4  3   C } # D for Dihedral angle
| 18> { D 14  15  16  17   C } # D for Dihedral angle
| 19> { D 15  16  17  12   C } # D for Dihedral angle
| 20> { D 16  17  12  14   C } # D for Dihedral angle
| 21> { D 17  12  14  15   C } # D for Dihedral angle
| 22> { D 12  14  15  16   C } # D for Dihedral angle
| 23> end
| 24> end
| 25>
| 26>
| 27> #%pal
| 28> #nprocs 8
| 29> #end
| 30>
| 31> * xyz 0 1
| 32> C  -21.048   26.222   46.251
| 33> C  -20.361   27.558   45.944
| 34> C  -20.329   28.222   47.341
| 35> C  -20.110   27.022   48.296
| 36> O  -20.473   25.807   47.535
| 37> H  -20.833   25.428   45.533
| 38> H  -19.344   27.382   45.576
| 39> H  -20.898   28.157   45.201
| 40> H  -19.543   28.978   47.434
| 41> H  -21.289   28.710   47.548
| 42> H  -20.733   27.082   49.195
| 43> H  -19.064   26.913   48.597
| 44> C  -22.644   25.364   44.161
| 45> H  -22.933   25.568   43.119
| 46> C  -23.163   26.451   45.109
| 47> C  -24.645   26.040   45.276
| 48> C  -24.587   24.492   45.243
| 49> O  -23.285   24.133   44.638
| 50> H  -21.566   25.200   44.208
| 51> O  -22.472   26.381   46.366
| 52> H  -23.046   27.463   44.706
| 53> H  -25.090   26.422   46.200
| 54> H  -25.240   26.422   44.437
| 55> H  -25.393   24.054   44.646
| 56> H  -24.609   24.052   46.245
| 57> *
| 58>
| 59>                          ****END OF INPUT****
 Total Charge           Charge          ....    0
 Multiplicity           Mult            ....    1
 Number of Electrons    NEL             ....   86
FINAL SINGLE POINT ENERGY      -538.416941071216
FINAL SINGLE POINT ENERGY      -538.426982192763
FINAL SINGLE POINT ENERGY      -538.428365513778
FINAL SINGLE POINT ENERGY      -538.428687810564
FINAL SINGLE POINT ENERGY      -538.428728055965
FINAL SINGLE POINT ENERGY      -538.428739120920
FINAL SINGLE POINT ENERGY      -538.428740461481
                    ***********************HURRAY********************

CARTESIAN COORDINATES (ANGSTROEM)
---------------------------------
  C    -20.948716   26.204517   46.238360
  C    -20.220714   27.522304   45.979155
  C    -20.352218   28.235499   47.346736
  C    -20.262045   27.069064   48.352833
  O    -20.545878   25.838596   47.568021
  H    -20.674290   25.372858   45.587554
  H    -19.169611   27.317527   45.743277
  H    -20.652654   28.098087   45.154779
  H    -19.572606   28.986589   47.505608
  H    -21.327006   28.727308   47.414039
  H    -20.990828   27.141871   49.164132
  H    -19.259782   26.946411   48.774204
  C    -22.773753   25.377499   43.971362
  H    -23.234570   25.639284   43.006920
  C    -23.142600   26.440246   45.005183
  C    -24.577188   26.023346   45.379940
  C    -24.533537   24.479725   45.308159
  O    -23.334392   24.137059   44.507174
  H    -21.707724   25.212970   43.811554
  O    -22.391568   26.386286   46.259402
  H    -23.087750   27.454778   44.586326
  H    -24.832747   26.398060   46.373060
  H    -25.287040   26.436706   44.653727
  H    -25.418564   24.054832   44.822759
  H    -24.400218   24.021578   46.290734

 Multiplicity           Mult            ....    1
 Number of Electrons    NEL             ....   86
 Basis Dimension        Dim             ....  127

ORBITAL ENERGIES
----------------

  NO   OCC          E(Eh)            E(eV)
   0   2.0000     -19.137706      -520.7634
   1   2.0000     -19.136887      -520.7412
   2   2.0000     -19.130589      -520.5698
   3   2.0000     -10.276031      -279.6250
   4   2.0000     -10.242922      -278.7241
   5   2.0000     -10.227852      -278.3140
   6   2.0000     -10.222605      -278.1712
   7   2.0000     -10.218845      -278.0689
   8   2.0000     -10.186421      -277.1866
   9   2.0000     -10.185538      -277.1626
  10   2.0000     -10.184539      -277.1354
  11   2.0000      -1.050705       -28.5911
  12   2.0000      -1.015420       -27.6310
  13   2.0000      -0.986733       -26.8504
  14   2.0000      -0.788957       -21.4686
  15   2.0000      -0.779368       -21.2077
  16   2.0000      -0.737995       -20.0819
  17   2.0000      -0.725624       -19.7452
  18   2.0000      -0.619310       -16.8523
  19   2.0000      -0.600522       -16.3410
  20   2.0000      -0.591900       -16.1064
  21   2.0000      -0.564573       -15.3628
  22   2.0000      -0.527276       -14.3479
  23   2.0000      -0.497649       -13.5417
  24   2.0000      -0.490691       -13.3524
  25   2.0000      -0.480034       -13.0624
  26   2.0000      -0.451802       -12.2941
  27   2.0000      -0.449459       -12.2304
  28   2.0000      -0.427228       -11.6255
  29   2.0000      -0.418192       -11.3796
  30   2.0000      -0.399767       -10.8782
  31   2.0000      -0.378690       -10.3047
  32   2.0000      -0.372865       -10.1462
  33   2.0000      -0.364880        -9.9289
  34   2.0000      -0.364395        -9.9157
  35   2.0000      -0.355413        -9.6713
  36   2.0000      -0.349650        -9.5145
  37   2.0000      -0.313546        -8.5320
  38   2.0000      -0.308862        -8.4046
  39   2.0000      -0.295571        -8.0429
  40   2.0000      -0.256535        -6.9807
  41   2.0000      -0.249372        -6.7858
  42   2.0000      -0.237565        -6.4645
  43   0.0000       0.073968         2.0128
  44   0.0000       0.096091         2.6148
  45   0.0000       0.104223         2.8361
  46   0.0000       0.108703         2.9580
  47   0.0000       0.111282         3.0281

MULLIKEN ATOMIC CHARGES
-----------------------
   0 C :    0.295099
   1 C :   -0.271307
   2 C :   -0.296672
   3 C :   -0.001534
   4 O :   -0.502106
   5 H :    0.155471
   6 H :    0.145502
   7 H :    0.138188
   8 H :    0.141061
   9 H :    0.158048
  10 H :    0.152609
  11 H :    0.141194
  12 C :   -0.020094
  13 H :    0.128688
  14 C :    0.077740
  15 C :   -0.285732
  16 C :    0.000917
  17 O :   -0.519153
  18 H :    0.152352
  19 O :   -0.514887
  20 H :    0.123380
  21 H :    0.167874
  22 H :    0.136570
  23 H :    0.133997
  24 H :    0.162795
Sum of atomic charges:   -0.0000000

LOEWDIN ATOMIC CHARGES
----------------------
   0 C :    0.178544
   1 C :   -0.231234
   2 C :   -0.216375
   3 C :   -0.025824
   4 O :   -0.303281
   5 H :    0.103228
   6 H :    0.114177
   7 H :    0.111527
   8 H :    0.113722
   9 H :    0.116977
  10 H :    0.108391
  11 H :    0.102039
  12 C :   -0.050779
  13 H :    0.095286
  14 C :    0.038020
  15 C :   -0.221192
  16 C :   -0.026659
  17 O :   -0.330666
  18 H :    0.110900
  19 O :   -0.330191
  20 H :    0.091901
  21 H :    0.131024
  22 H :    0.109067
  23 H :    0.098155
  24 H :    0.113244

  Mayer bond orders larger than 0.100000
B(  0-C ,  1-C ) :   0.9269 B(  0-C ,  4-O ) :   0.9309 B(  0-C ,  5-H ) :   0.9144
B(  0-C , 19-O ) :   0.8313 B(  1-C ,  2-C ) :   0.9524 B(  1-C ,  6-H ) :   0.9347
B(  1-C ,  7-H ) :   0.9372 B(  2-C ,  3-C ) :   0.9553 B(  2-C ,  8-H ) :   0.9452
B(  2-C ,  9-H ) :   0.9450 B(  3-C ,  4-O ) :   0.8388 B(  3-C , 10-H ) :   0.9346
B(  3-C , 11-H ) :   0.9397 B( 12-C , 13-H ) :   0.9095 B( 12-C , 14-C ) :   0.9108
B( 12-C , 17-O ) :   0.8765 B( 12-C , 18-H ) :   0.9271 B( 14-C , 15-C ) :   0.9538
B( 14-C , 19-O ) :   0.8432 B( 14-C , 20-H ) :   0.9183 B( 15-C , 16-C ) :   0.9454
B( 15-C , 21-H ) :   0.9353 B( 15-C , 22-H ) :   0.9414 B( 16-C , 17-O ) :   0.8493
B( 16-C , 23-H ) :   0.9341 B( 16-C , 24-H ) :   0.9354

FINAL SINGLE POINT ENERGY      -538.428740814971

DIPOLE MOMENT
-------------
                                X             Y             Z
Electronic contribution:      0.16947      -4.01858       0.49519
Nuclear contribution   :     -0.21033       5.47517      -0.97179
                        -----------------------------------------
Total Dipole Moment    :     -0.04085       1.45660      -0.47660
                        -----------------------------------------
Magnitude (a.u.)       :      1.53313
Magnitude (Debye)      :      3.89690

Rotational constants in cm-1:     0.083863     0.020299     0.020020
Rotational constants in MHz :  2514.141643   608.560522   600.187583

                             ****ORCA TERMINATED NORMALLY****
TOTAL RUN TIME: 0 days 0 hours 7 minutes 48 seconds 65 msec
