                         Program Version 4.2.0 -  RELEASE  -
|  1> # Test redundant internal optimization
|  2> #
|  3> ! RKS B3LYP  Opt TightSCF SmallPrint
|  4>
|  5> %basis
|  6>         Basis "6-31G"
|  7> end
|  8>
|  9> %geom
| 10> Constraints
| 11> { D 4  0  15  12  240.0   C } # D for Dihedral angle
| 12> { D 0  15  12  16  120.0   C } # D for Dihedral angle
| 13> { D 0  4  3  2   C } # D for Dihedral angle
| 14> { D 4  3  2  1   C } # D for Dihedral angle
| 15> { D 3  2  1  0   C } # D for Dihedral angle
| 16> { D 2  1  0  4   C } # D for Dihedral angle
| 17> { D 1  0  4  3   C } # D for Dihedral angle
| 18> { D 16  20  19  18   C } # D for Dihedral angle
| 19> { D 20  19  18  17   C } # D for Dihedral angle
| 20> { D 19  18  17  16   C } # D for Dihedral angle
| 21> { D 18  17  16  20   C } # D for Dihedral angle
| 22> { D 17  16  20  19   C } # D for Dihedral angle
| 23> { D 15  12  16  20   C } # D for Dihedral angle
| 24> end
| 25> end
| 26>
| 27>
| 28> #%pal
| 29> #nprocs 8
| 30> #end
| 31>
| 32> * xyz 0 1
| 33> C  -21.048   26.222   46.251
| 34> C  -20.361   27.558   45.944
| 35> C  -20.329   28.222   47.341
| 36> C  -20.110   27.022   48.296
| 37> O  -20.473   25.807   47.535
| 38> H  -20.833   25.428   45.533
| 39> H  -19.344   27.382   45.576
| 40> H  -20.898   28.157   45.201
| 41> H  -19.543   28.978   47.434
| 42> H  -21.289   28.710   47.548
| 43> H  -20.733   27.082   49.195
| 44> H  -19.064   26.913   48.597
| 45> C  -23.430   25.483   45.442
| 46> H  -24.035   26.109   44.775
| 47> H  -22.775   24.855   44.823
| 48> O  -22.586   26.394   46.375
| 49> C  -24.384   24.540   46.226
| 50> C  -23.616   23.694   47.248
| 51> C  -23.414   24.703   48.403
| 52> C  -24.716   25.543   48.368
| 53> O  -25.324   25.321   47.038
| 54> H  -24.979   23.962   45.517
| 55> H  -24.232   22.850   47.576
| 56> O  -22.276   23.137   46.695
| 57> H  -23.258   24.216   49.371
| 58> H  -22.542   25.336   48.202
| 59> H  -24.529   26.613   48.504
| 60> H  -25.446   25.213   49.114
| 61> H  -21.643   23.966   46.360
| 62> *
| 63>
| 64>                          ****END OF INPUT****
 Total Charge           Charge          ....    0
 Multiplicity           Mult            ....    1
 Number of Electrons    NEL             ....  102
FINAL SINGLE POINT ENERGY      -652.827484875735
FINAL SINGLE POINT ENERGY      -652.852958884233
FINAL SINGLE POINT ENERGY      -652.860287780671
FINAL SINGLE POINT ENERGY      -652.863654840799
FINAL SINGLE POINT ENERGY      -652.864750724730
FINAL SINGLE POINT ENERGY      -652.865333545826
FINAL SINGLE POINT ENERGY      -652.865495350465
FINAL SINGLE POINT ENERGY      -652.865521422087
                    ***********************HURRAY********************

CARTESIAN COORDINATES (ANGSTROEM)
---------------------------------
  C    -21.050543   26.238470   46.175878
  C    -20.371894   27.575510   45.869077
  C    -20.361040   28.253447   47.261267
  C    -20.144267   27.064633   48.226018
  O    -20.495248   25.844063   47.452044
  H    -20.830461   25.432251   45.470692
  H    -19.350643   27.394606   45.513624
  H    -20.916896   28.146415   45.114700
  H    -19.577964   29.011279   47.356899
  H    -21.329694   28.727291   47.445678
  H    -20.779694   27.109351   49.113693
  H    -19.100649   26.948909   48.531766
  C    -23.321498   25.587116   45.441553
  H    -23.901508   26.258371   44.799366
  H    -22.699664   24.938726   44.812125
  O    -22.480721   26.432942   46.289514
  C    -24.288928   24.703653   46.224127
  C    -23.632525   23.705633   47.194513
  C    -23.459026   24.571544   48.482422
  C    -24.713988   25.471432   48.449321
  O    -25.234576   25.429528   47.060549
  H    -24.894476   24.178990   45.473197
  H    -24.301697   22.858528   47.365469
  O    -22.381398   23.153757   46.699329
  H    -23.411351   23.954253   49.385198
  H    -22.544376   25.158704   48.394709
  H    -24.492127   26.510991   48.706911
  H    -25.514875   25.102138   49.097859
  H    -21.628274   23.653470   47.080502

 Multiplicity           Mult            ....    1
 Number of Electrons    NEL             ....  102
 Basis Dimension        Dim             ....  149

ORBITAL ENERGIES
----------------

  NO   OCC          E(Eh)            E(eV)
   0   2.0000     -19.156262      -521.2684
   1   2.0000     -19.148595      -521.0597
   2   2.0000     -19.130007      -520.5540
   3   2.0000     -19.128090      -520.5018
   4   2.0000     -10.288563      -279.9660
   5   2.0000     -10.236136      -278.5394
   6   2.0000     -10.230082      -278.3747
   7   2.0000     -10.227462      -278.3034
   8   2.0000     -10.223512      -278.1959
   9   2.0000     -10.216521      -278.0057
  10   2.0000     -10.193056      -277.3671
  11   2.0000     -10.191913      -277.3361
  12   2.0000     -10.172851      -276.8174
  13   2.0000      -1.062421       -28.9099
  14   2.0000      -1.020107       -27.7585
  15   2.0000      -1.002835       -27.2885
  16   2.0000      -0.998726       -27.1767
  17   2.0000      -0.794173       -21.6105
  18   2.0000      -0.768645       -20.9159
  19   2.0000      -0.760418       -20.6920
  20   2.0000      -0.735520       -20.0145
  21   2.0000      -0.674124       -18.3439
  22   2.0000      -0.607855       -16.5406
  23   2.0000      -0.601438       -16.3660
  24   2.0000      -0.596255       -16.2249
  25   2.0000      -0.567933       -15.4542
  26   2.0000      -0.524060       -14.2604
  27   2.0000      -0.503251       -13.6942
  28   2.0000      -0.500781       -13.6269
  29   2.0000      -0.488922       -13.3043
  30   2.0000      -0.472980       -12.8704
  31   2.0000      -0.453302       -12.3350
  32   2.0000      -0.446018       -12.1368
  33   2.0000      -0.428579       -11.6622
  34   2.0000      -0.422469       -11.4960
  35   2.0000      -0.410592       -11.1728
  36   2.0000      -0.407834       -11.0977
  37   2.0000      -0.396994       -10.8028
  38   2.0000      -0.371901       -10.1199
  39   2.0000      -0.366004        -9.9595
  40   2.0000      -0.362583        -9.8664
  41   2.0000      -0.353393        -9.6163
  42   2.0000      -0.347672        -9.4606
  43   2.0000      -0.332247        -9.0409
  44   2.0000      -0.319471        -8.6932
  45   2.0000      -0.307672        -8.3722
  46   2.0000      -0.303058        -8.2466
  47   2.0000      -0.276666        -7.5285
  48   2.0000      -0.260869        -7.0986
  49   2.0000      -0.255755        -6.9594
  50   2.0000      -0.230286        -6.2664
  51   0.0000       0.069489         1.8909
  52   0.0000       0.080650         2.1946
  53   0.0000       0.087220         2.3734
  54   0.0000       0.100577         2.7368
  55   0.0000       0.110806         3.0152

MULLIKEN ATOMIC CHARGES
-----------------------
   0 C :    0.270931
   1 C :   -0.249555
   2 C :   -0.301877
   3 C :   -0.003739
   4 O :   -0.524845
   5 H :    0.154232
   6 H :    0.144785
   7 H :    0.155601
   8 H :    0.145988
   9 H :    0.168352
  10 H :    0.150490
  11 H :    0.147954
  12 C :   -0.016823
  13 H :    0.152826
  14 H :    0.142787
  15 O :   -0.520495
  16 C :    0.100275
  17 C :    0.093413
  18 C :   -0.343710
  19 C :   -0.004213
  20 O :   -0.522260
  21 H :    0.143137
  22 H :    0.154673
  23 O :   -0.633874
  24 H :    0.137779
  25 H :    0.192398
  26 H :    0.144307
  27 H :    0.139151
  28 H :    0.382312
Sum of atomic charges:   -0.0000000

LOEWDIN ATOMIC CHARGES
----------------------
   0 C :    0.167142
   1 C :   -0.218184
   2 C :   -0.215626
   3 C :   -0.026062
   4 O :   -0.330255
   5 H :    0.102305
   6 H :    0.113701
   7 H :    0.123324
   8 H :    0.116413
   9 H :    0.122335
  10 H :    0.106896
  11 H :    0.105405
  12 C :   -0.040788
  13 H :    0.110746
  14 H :    0.107559
  15 O :   -0.330181
  16 C :    0.015704
  17 C :    0.039199
  18 C :   -0.250281
  19 C :   -0.024991
  20 O :   -0.324251
  21 H :    0.111759
  22 H :    0.110375
  23 O :   -0.426307
  24 H :    0.112177
  25 H :    0.130686
  26 H :    0.103719
  27 H :    0.099322
  28 H :    0.288160

  Mayer bond orders larger than 0.100000
B(  0-C ,  1-C ) :   0.9438 B(  0-C ,  4-O ) :   0.8827 B(  0-C ,  5-H ) :   0.9133
B(  0-C , 15-O ) :   0.8591 B(  1-C ,  2-C ) :   0.9552 B(  1-C ,  6-H ) :   0.9360
B(  1-C ,  7-H ) :   0.9385 B(  2-C ,  3-C ) :   0.9554 B(  2-C ,  8-H ) :   0.9446
B(  2-C ,  9-H ) :   0.9423 B(  3-C ,  4-O ) :   0.8227 B(  3-C , 10-H ) :   0.9346
B(  3-C , 11-H ) :   0.9403 B( 12-C , 13-H ) :   0.9318 B( 12-C , 14-H ) :   0.9044
B( 12-C , 15-O ) :   0.8417 B( 12-C , 16-C ) :   0.9065 B( 16-C , 17-C ) :   0.8887
B( 16-C , 20-O ) :   0.8806 B( 16-C , 21-H ) :   0.9248 B( 17-C , 18-C ) :   0.9439
B( 17-C , 22-H ) :   0.9354 B( 17-C , 23-O ) :   0.8893 B( 18-C , 19-C ) :   0.9457
B( 18-C , 24-H ) :   0.9427 B( 18-C , 25-H ) :   0.9051 B( 19-C , 20-O ) :   0.8406
B( 19-C , 26-H ) :   0.9332 B( 19-C , 27-H ) :   0.9380 B( 23-O , 28-H ) :   0.7720

FINAL SINGLE POINT ENERGY      -652.865524956436

DIPOLE MOMENT
-------------
                                X             Y             Z
Electronic contribution:     -2.69762      -3.37724      -1.60366
Nuclear contribution   :      3.68965       4.24420       1.74497
                        -----------------------------------------
Total Dipole Moment    :      0.99204       0.86696       0.14131
                        -----------------------------------------
Magnitude (a.u.)       :      1.32504
Magnitude (Debye)      :      3.36798

Rotational constants in cm-1:     0.044964     0.017430     0.017320
Rotational constants in MHz :  1347.990134   522.529885   519.237194

                             ****ORCA TERMINATED NORMALLY****
TOTAL RUN TIME: 0 days 0 hours 25 minutes 53 seconds 718 msec
