                         Program Version 4.2.0 -  RELEASE  -
|  1> # Test redundant internal optimization
|  2> #
|  3> ! RKS B3LYP  Opt TightSCF SmallPrint
|  4>
|  5> %basis
|  6>         Basis "6-31G"
|  7> end
|  8>
|  9> %geom
| 10> Constraints
| 11> { D 4  0  15  12  135.0   C } # D for Dihedral angle
| 12> { D 0  15  12  16  60.0   C } # D for Dihedral angle
| 13> { D 0  4  3  2   C } # D for Dihedral angle
| 14> { D 4  3  2  1   C } # D for Dihedral angle
| 15> { D 3  2  1  0   C } # D for Dihedral angle
| 16> { D 2  1  0  4   C } # D for Dihedral angle
| 17> { D 1  0  4  3   C } # D for Dihedral angle
| 18> { D 16  20  19  18   C } # D for Dihedral angle
| 19> { D 20  19  18  17   C } # D for Dihedral angle
| 20> { D 19  18  17  16   C } # D for Dihedral angle
| 21> { D 18  17  16  20   C } # D for Dihedral angle
| 22> { D 17  16  20  19   C } # D for Dihedral angle
| 23> { D 15  12  16  20   C } # D for Dihedral angle
| 24> end
| 25> end
| 26>
| 27>
| 28> #%pal
| 29> #nprocs 8
| 30> #end
| 31>
| 32> * xyz 0 1
| 33> C  -21.048   26.222   46.251
| 34> C  -20.361   27.558   45.944
| 35> C  -20.329   28.222   47.341
| 36> C  -20.110   27.022   48.296
| 37> O  -20.473   25.807   47.535
| 38> H  -20.833   25.428   45.533
| 39> H  -19.344   27.382   45.576
| 40> H  -20.898   28.157   45.201
| 41> H  -19.543   28.978   47.434
| 42> H  -21.289   28.710   47.548
| 43> H  -20.733   27.082   49.195
| 44> H  -19.064   26.913   48.597
| 45> C  -23.162   27.680   45.721
| 46> H  -24.248   27.708   45.872
| 47> H  -22.727   28.574   46.185
| 48> O  -22.586   26.394   46.375
| 49> C  -22.879   27.755   44.194
| 50> C  -23.358   29.086   43.605
| 51> C  -22.215   30.042   44.020
| 52> C  -20.955   29.144   43.929
| 53> O  -21.435   27.746   43.939
| 54> H  -23.296   26.870   43.709
| 55> H  -23.424   29.013   42.513
| 56> O  -24.743   29.532   44.149
| 57> H  -22.145   30.925   43.376
| 58> H  -22.368   30.389   45.048
| 59> H  -20.272   29.295   44.772
| 60> H  -20.405   29.290   42.995
| 61> H  -24.702   29.613   45.241
| 62> *
| 63>
| 64>                          ****END OF INPUT****
 Total Charge           Charge          ....    0
 Multiplicity           Mult            ....    1
 Number of Electrons    NEL             ....  102
FINAL SINGLE POINT ENERGY      -652.730484568322
FINAL SINGLE POINT ENERGY      -652.814545276595
FINAL SINGLE POINT ENERGY      -652.837262242734
FINAL SINGLE POINT ENERGY      -652.842779823272
FINAL SINGLE POINT ENERGY      -652.843537215981
FINAL SINGLE POINT ENERGY      -652.843720106075
FINAL SINGLE POINT ENERGY      -652.843754666190
FINAL SINGLE POINT ENERGY      -652.843762133944
FINAL SINGLE POINT ENERGY      -652.843765634601
FINAL SINGLE POINT ENERGY      -652.843767274682
FINAL SINGLE POINT ENERGY      -652.843756575161
                    ***********************HURRAY********************

CARTESIAN COORDINATES (ANGSTROEM)
---------------------------------
  C    -20.985271   26.157081   46.397545
  C    -19.955102   27.264640   46.171645
  C    -20.014497   28.042580   47.512692
  C    -20.268740   26.914857   48.539622
  O    -20.768808   25.761990   47.764495
  H    -20.854070   25.265844   45.784123
  H    -18.973191   26.789677   46.057665
  H    -20.156950   27.852980   45.283122
  H    -19.091687   28.593740   47.718560
  H    -20.842522   28.761740   47.509317
  H    -21.011412   27.182129   49.296777
  H    -19.350691   26.587871   49.038057
  C    -23.016512   27.676580   45.661434
  H    -24.084741   27.509450   45.824658
  H    -22.730105   28.599851   46.197190
  O    -22.395028   26.535918   46.297569
  C    -22.822454   27.882841   44.148034
  C    -23.562270   29.120838   43.607243
  C    -22.497357   30.244605   43.812178
  C    -21.168492   29.508011   43.543815
  O    -21.455128   28.049491   43.666746
  H    -23.175038   26.970393   43.653952
  H    -23.766443   28.982758   42.543795
  O    -24.856528   29.388219   44.193990
  H    -22.656389   31.092283   43.141141
  H    -22.548838   30.613995   44.844749
  H    -20.379426   29.777025   44.253859
  H    -20.798546   29.668955   42.527728
  H    -24.758762   29.740658   45.102301

 Multiplicity           Mult            ....    1
 Number of Electrons    NEL             ....  102
 Basis Dimension        Dim             ....  149

ORBITAL ENERGIES
----------------

  NO   OCC          E(Eh)            E(eV)
   0   2.0000     -19.157443      -521.3005
   1   2.0000     -19.155456      -521.2465
   2   2.0000     -19.130040      -520.5548
   3   2.0000     -19.129264      -520.5337
   4   2.0000     -10.272355      -279.5250
   5   2.0000     -10.254239      -279.0320
   6   2.0000     -10.243703      -278.7453
   7   2.0000     -10.238585      -278.6061
   8   2.0000     -10.237376      -278.5732
   9   2.0000     -10.220133      -278.1040
  10   2.0000     -10.205273      -277.6996
  11   2.0000     -10.186042      -277.1763
  12   2.0000     -10.174365      -276.8586
  13   2.0000      -1.046502       -28.4768
  14   2.0000      -1.039777       -28.2938
  15   2.0000      -1.027680       -27.9646
  16   2.0000      -0.982480       -26.7346
  17   2.0000      -0.793073       -21.5806
  18   2.0000      -0.780116       -21.2280
  19   2.0000      -0.774484       -21.0748
  20   2.0000      -0.732639       -19.9361
  21   2.0000      -0.686381       -18.6774
  22   2.0000      -0.622393       -16.9362
  23   2.0000      -0.605362       -16.4727
  24   2.0000      -0.595169       -16.1954
  25   2.0000      -0.563390       -15.3306
  26   2.0000      -0.533124       -14.5070
  27   2.0000      -0.519286       -14.1305
  28   2.0000      -0.500464       -13.6183
  29   2.0000      -0.483043       -13.1443
  30   2.0000      -0.471743       -12.8368
  31   2.0000      -0.460906       -12.5419
  32   2.0000      -0.448771       -12.2117
  33   2.0000      -0.440374       -11.9832
  34   2.0000      -0.431245       -11.7348
  35   2.0000      -0.427594       -11.6354
  36   2.0000      -0.408895       -11.1266
  37   2.0000      -0.400575       -10.9002
  38   2.0000      -0.389738       -10.6053
  39   2.0000      -0.370792       -10.0898
  40   2.0000      -0.361866        -9.8469
  41   2.0000      -0.355729        -9.6799
  42   2.0000      -0.346177        -9.4200
  43   2.0000      -0.339420        -9.2361
  44   2.0000      -0.324193        -8.8218
  45   2.0000      -0.305465        -8.3121
  46   2.0000      -0.286348        -7.7919
  47   2.0000      -0.281404        -7.6574
  48   2.0000      -0.264512        -7.1977
  49   2.0000      -0.250713        -6.8223
  50   2.0000      -0.236591        -6.4380
  51   0.0000       0.043275         1.1776
  52   0.0000       0.059428         1.6171
  53   0.0000       0.081490         2.2174
  54   0.0000       0.094180         2.5628
  55   0.0000       0.096811         2.6344

MULLIKEN ATOMIC CHARGES
-----------------------
   0 C :    0.322625
   1 C :   -0.306970
   2 C :   -0.312552
   3 C :    0.002437
   4 O :   -0.495452
   5 H :    0.156682
   6 H :    0.142511
   7 H :    0.192553
   8 H :    0.138454
   9 H :    0.140252
  10 H :    0.145390
  11 H :    0.141585
  12 C :   -0.006080
  13 H :    0.171331
  14 H :    0.097593
  15 O :   -0.543098
  16 C :    0.088306
  17 C :    0.079569
  18 C :   -0.316131
  19 C :   -0.020062
  20 O :   -0.515756
  21 H :    0.162907
  22 H :    0.174200
  23 O :   -0.595501
  24 H :    0.163526
  25 H :    0.134175
  26 H :    0.140937
  27 H :    0.157102
  28 H :    0.359464
Sum of atomic charges:   -0.0000000

LOEWDIN ATOMIC CHARGES
----------------------
   0 C :    0.194325
   1 C :   -0.239899
   2 C :   -0.222349
   3 C :   -0.029278
   4 O :   -0.308593
   5 H :    0.107766
   6 H :    0.116721
   7 H :    0.135583
   8 H :    0.112512
   9 H :    0.103686
  10 H :    0.103967
  11 H :    0.101856
  12 C :   -0.042941
  13 H :    0.126799
  14 H :    0.074013
  15 O :   -0.340746
  16 C :    0.004448
  17 C :    0.036233
  18 C :   -0.239562
  19 C :   -0.032548
  20 O :   -0.319719
  21 H :    0.117216
  22 H :    0.121917
  23 O :   -0.402756
  24 H :    0.125713
  25 H :    0.105125
  26 H :    0.100224
  27 H :    0.110093
  28 H :    0.280193

  Mayer bond orders larger than 0.100000
B(  0-C ,  1-C ) :   0.9369 B(  0-C ,  4-O ) :   0.9229 B(  0-C ,  5-H ) :   0.9300
B(  0-C , 15-O ) :   0.8297 B(  1-C ,  2-C ) :   0.9485 B(  1-C ,  6-H ) :   0.9353
B(  1-C ,  7-H ) :   0.8918 B(  2-C ,  3-C ) :   0.9511 B(  2-C ,  8-H ) :   0.9464
B(  2-C ,  9-H ) :   0.9443 B(  3-C ,  4-O ) :   0.8453 B(  3-C , 10-H ) :   0.9352
B(  3-C , 11-H ) :   0.9393 B( 12-C , 13-H ) :   0.9159 B( 12-C , 14-H ) :   0.9115
B( 12-C , 15-O ) :   0.8695 B( 12-C , 16-C ) :   0.8879 B( 16-C , 17-C ) :   0.8636
B( 16-C , 20-O ) :   0.8506 B( 16-C , 21-H ) :   0.9288 B( 17-C , 18-C ) :   0.9237
B( 17-C , 22-H ) :   0.9318 B( 17-C , 23-O ) :   0.9056 B( 18-C , 19-C ) :   0.9415
B( 18-C , 24-H ) :   0.9410 B( 18-C , 25-H ) :   0.9404 B( 19-C , 20-O ) :   0.8351
B( 19-C , 26-H ) :   0.9263 B( 19-C , 27-H ) :   0.9390 B( 23-O , 28-H ) :   0.7959

FINAL SINGLE POINT ENERGY      -652.843752026731

DIPOLE MOMENT
-------------
                                X             Y             Z
Electronic contribution:     -3.49012      -5.32507      -1.11003
Nuclear contribution   :      4.15012       7.22187       0.86573
                        -----------------------------------------
Total Dipole Moment    :      0.66000       1.89681      -0.24430
                        -----------------------------------------
Magnitude (a.u.)       :      2.02315
Magnitude (Debye)      :      5.14245

Rotational constants in cm-1:     0.050762     0.015230     0.013846
Rotational constants in MHz :  1521.804083   456.587022   415.092210

                             ****ORCA TERMINATED NORMALLY****
TOTAL RUN TIME: 0 days 1 hours 30 minutes 36 seconds 794 msec
