                         Program Version 4.2.1 -  RELEASE  -
|  1> # Test redundant internal optimization
|  2> #
|  3> ! RKS B3LYP  Opt TightSCF SmallPrint
|  4>
|  5> %basis
|  6>         Basis "6-31G"
|  7> end
|  8>
|  9> %geom
| 10> Constraints
| 11> { D 4  0  19  14  165.0   C } # D for Dihedral angle
| 12> { D 0  19  14  12  45.0   C } # D for Dihedral angle
| 13> { D 0  4  3  2   C } # D for Dihedral angle
| 14> { D 4  3  2  1   C } # D for Dihedral angle
| 15> { D 3  2  1  0   C } # D for Dihedral angle
| 16> { D 2  1  0  4   C } # D for Dihedral angle
| 17> { D 1  0  4  3   C } # D for Dihedral angle
| 18> { D 14  15  16  17   C } # D for Dihedral angle
| 19> { D 15  16  17  12   C } # D for Dihedral angle
| 20> { D 16  17  12  14   C } # D for Dihedral angle
| 21> { D 17  12  14  15   C } # D for Dihedral angle
| 22> { D 12  14  15  16   C } # D for Dihedral angle
| 23> end
| 24> end
| 25>
| 26>
| 27> #%pal
| 28> #nprocs 8
| 29> #end
| 30>
| 31> * xyz 0 1
| 32> C  -21.048   26.222   46.251
| 33> C  -20.361   27.558   45.944
| 34> C  -20.329   28.222   47.341
| 35> C  -20.110   27.022   48.296
| 36> O  -20.473   25.807   47.535
| 37> H  -20.833   25.428   45.533
| 38> H  -19.344   27.382   45.576
| 39> H  -20.898   28.157   45.201
| 40> H  -19.543   28.978   47.434
| 41> H  -21.289   28.710   47.548
| 42> H  -20.733   27.082   49.195
| 43> H  -19.064   26.913   48.597
| 44> C  -22.524   26.597   43.942
| 45> H  -22.738   27.306   43.127
| 46> C  -23.077   27.101   45.280
| 47> C  -24.576   26.743   45.155
| 48> C  -24.555   25.413   44.360
| 49> O  -23.226   25.329   43.716
| 50> H  -21.456   26.373   43.950
| 51> O  -22.472   26.381   46.366
| 52> H  -22.908   28.172   45.439
| 53> H  -25.072   26.641   46.126
| 54> H  -25.105   27.521   44.590
| 55> H  -25.332   25.372   43.589
| 56> H  -24.654   24.537   45.009
| 57> *
| 58>
| 59>                          ****END OF INPUT****
 Total Charge           Charge          ....    0
 Multiplicity           Mult            ....    1
 Number of Electrons    NEL             ....   86
FINAL SINGLE POINT ENERGY      -538.417850612655
FINAL SINGLE POINT ENERGY      -538.426498439461
FINAL SINGLE POINT ENERGY      -538.427239528319
FINAL SINGLE POINT ENERGY      -538.427428167440
FINAL SINGLE POINT ENERGY      -538.427454981040
FINAL SINGLE POINT ENERGY      -538.427464163323
                    ***********************HURRAY********************

CARTESIAN COORDINATES (ANGSTROEM)
---------------------------------
  C    -20.981818   26.218925   46.241341
  C    -20.180786   27.494542   45.978478
  C    -20.271495   28.222280   47.346035
  C    -20.246031   27.051543   48.351176
  O    -20.597916   25.840000   47.570576
  H    -20.761203   25.374199   45.584792
  H    -19.143448   27.219225   45.754732
  H    -20.554243   28.101501   45.150573
  H    -19.447301   28.925025   47.500536
  H    -21.213962   28.774388   47.416343
  H    -20.967862   27.165825   49.163896
  H    -19.251456   26.874897   48.771377
  C    -22.660278   26.708581   43.785659
  H    -23.033752   27.427411   43.039949
  C    -23.089630   27.150218   45.185089
  C    -24.555677   26.678553   45.223281
  C    -24.532112   25.366064   44.405314
  O    -23.281654   25.395026   43.610728
  H    -21.587062   26.577954   43.640424
  O    -22.425184   26.443372   46.276690
  H    -22.988444   28.234768   45.327153
  H    -24.880428   26.533199   46.255590
  H    -25.200431   27.430340   44.752634
  H    -25.385072   25.278422   43.724009
  H    -24.482755   24.480742   45.043625

 Multiplicity           Mult            ....    1
 Number of Electrons    NEL             ....   86
 Basis Dimension        Dim             ....  127

ORBITAL ENERGIES
----------------

  NO   OCC          E(Eh)            E(eV)
   0   2.0000     -19.138586      -520.7874
   1   2.0000     -19.136267      -520.7243
   2   2.0000     -19.132071      -520.6101
   3   2.0000     -10.277494      -279.6648
   4   2.0000     -10.242674      -278.7173
   5   2.0000     -10.228723      -278.3377
   6   2.0000     -10.224966      -278.2355
   7   2.0000     -10.220184      -278.1053
   8   2.0000     -10.190494      -277.2974
   9   2.0000     -10.189923      -277.2819
  10   2.0000     -10.185138      -277.1517
  11   2.0000      -1.051794       -28.6208
  12   2.0000      -1.016891       -27.6710
  13   2.0000      -0.986694       -26.8493
  14   2.0000      -0.789349       -21.4793
  15   2.0000      -0.782181       -21.2842
  16   2.0000      -0.738415       -20.0933
  17   2.0000      -0.728547       -19.8248
  18   2.0000      -0.619785       -16.8652
  19   2.0000      -0.604758       -16.4563
  20   2.0000      -0.593407       -16.1474
  21   2.0000      -0.563854       -15.3432
  22   2.0000      -0.523988       -14.2584
  23   2.0000      -0.496997       -13.5240
  24   2.0000      -0.495192       -13.4749
  25   2.0000      -0.485162       -13.2019
  26   2.0000      -0.453488       -12.3400
  27   2.0000      -0.450346       -12.2545
  28   2.0000      -0.428706       -11.6657
  29   2.0000      -0.416928       -11.3452
  30   2.0000      -0.406094       -11.0504
  31   2.0000      -0.383560       -10.4372
  32   2.0000      -0.371835       -10.1181
  33   2.0000      -0.366988        -9.9862
  34   2.0000      -0.365544        -9.9469
  35   2.0000      -0.356771        -9.7082
  36   2.0000      -0.351607        -9.5677
  37   2.0000      -0.315195        -8.5769
  38   2.0000      -0.308359        -8.3909
  39   2.0000      -0.293693        -7.9918
  40   2.0000      -0.258222        -7.0266
  41   2.0000      -0.250553        -6.8179
  42   2.0000      -0.238745        -6.4966
  43   0.0000       0.072599         1.9755
  44   0.0000       0.093644         2.5482
  45   0.0000       0.100758         2.7418
  46   0.0000       0.102911         2.8004
  47   0.0000       0.112030         3.0485

MULLIKEN ATOMIC CHARGES
-----------------------
   0 C :    0.306464
   1 C :   -0.289219
   2 C :   -0.300000
   3 C :    0.000579
   4 O :   -0.502317
   5 H :    0.161779
   6 H :    0.151131
   7 H :    0.140472
   8 H :    0.143411
   9 H :    0.154932
  10 H :    0.152942
  11 H :    0.142578
  12 C :   -0.022784
  13 H :    0.130198
  14 C :    0.071160
  15 C :   -0.293528
  16 C :    0.003508
  17 O :   -0.522382
  18 H :    0.155290
  19 O :   -0.516601
  20 H :    0.126931
  21 H :    0.173101
  22 H :    0.138151
  23 H :    0.134892
  24 H :    0.159313
Sum of atomic charges:   -0.0000000

LOEWDIN ATOMIC CHARGES
----------------------
   0 C :    0.181422
   1 C :   -0.235571
   2 C :   -0.216825
   3 C :   -0.025385
   4 O :   -0.301287
   5 H :    0.106529
   6 H :    0.118299
   7 H :    0.111477
   8 H :    0.114890
   9 H :    0.114090
  10 H :    0.108621
  11 H :    0.102851
  12 C :   -0.054431
  13 H :    0.095411
  14 C :    0.034856
  15 C :   -0.222705
  16 C :   -0.025940
  17 O :   -0.331917
  18 H :    0.111927
  19 O :   -0.332373
  20 H :    0.093305
  21 H :    0.132952
  22 H :    0.109745
  23 H :    0.098478
  24 H :    0.111583

  Mayer bond orders larger than 0.100000
B(  0-C ,  1-C ) :   0.9261 B(  0-C ,  4-O ) :   0.9279 B(  0-C ,  5-H ) :   0.9188
B(  0-C , 19-O ) :   0.8309 B(  1-C ,  2-C ) :   0.9481 B(  1-C ,  6-H ) :   0.9345
B(  1-C ,  7-H ) :   0.9298 B(  2-C ,  3-C ) :   0.9550 B(  2-C ,  8-H ) :   0.9450
B(  2-C ,  9-H ) :   0.9456 B(  3-C ,  4-O ) :   0.8376 B(  3-C , 10-H ) :   0.9346
B(  3-C , 11-H ) :   0.9397 B( 12-C , 13-H ) :   0.9101 B( 12-C , 14-C ) :   0.9100
B( 12-C , 17-O ) :   0.8728 B( 12-C , 18-H ) :   0.9274 B( 14-C , 15-C ) :   0.9517
B( 14-C , 19-O ) :   0.8442 B( 14-C , 20-H ) :   0.9159 B( 15-C , 16-C ) :   0.9466
B( 15-C , 21-H ) :   0.9341 B( 15-C , 22-H ) :   0.9407 B( 16-C , 17-O ) :   0.8495
B( 16-C , 23-H ) :   0.9339 B( 16-C , 24-H ) :   0.9364

FINAL SINGLE POINT ENERGY      -538.427464547981

DIPOLE MOMENT
-------------
                                X             Y             Z
Electronic contribution:     -0.07332      -4.29520       0.14596
Nuclear contribution   :      0.15323       5.82781      -0.25640
                        -----------------------------------------
Total Dipole Moment    :      0.07991       1.53261      -0.11044
                        -----------------------------------------
Magnitude (a.u.)       :      1.53866
Magnitude (Debye)      :      3.91097

Rotational constants in cm-1:     0.085664     0.020850     0.020317
Rotational constants in MHz :  2568.131490   625.052310   609.084186

                             ****ORCA TERMINATED NORMALLY****
TOTAL RUN TIME: 0 days 0 hours 8 minutes 5 seconds 365 msec
