                         Program Version 4.2.0 -  RELEASE  -
|  1> # Test redundant internal optimization
|  2> #
|  3> ! RKS B3LYP  Opt TightSCF SmallPrint
|  4>
|  5> %basis
|  6>         Basis "6-31G"
|  7> end
|  8>
|  9> %geom
| 10> Constraints
| 11> { D 4  0  15  12  210.0   C } # D for Dihedral angle
| 12> { D 0  15  12  16  150.0   C } # D for Dihedral angle
| 13> { D 0  4  3  2   C } # D for Dihedral angle
| 14> { D 4  3  2  1   C } # D for Dihedral angle
| 15> { D 3  2  1  0   C } # D for Dihedral angle
| 16> { D 2  1  0  4   C } # D for Dihedral angle
| 17> { D 1  0  4  3   C } # D for Dihedral angle
| 18> { D 16  20  19  18   C } # D for Dihedral angle
| 19> { D 20  19  18  17   C } # D for Dihedral angle
| 20> { D 19  18  17  16   C } # D for Dihedral angle
| 21> { D 18  17  16  20   C } # D for Dihedral angle
| 22> { D 17  16  20  19   C } # D for Dihedral angle
| 23> { D 15  12  16  20   C } # D for Dihedral angle
| 24> end
| 25> end
| 26>
| 27>
| 28> #%pal
| 29> #nprocs 8
| 30> #end
| 31>
| 32> * xyz 0 1
| 33> C  -21.048   26.222   46.251
| 34> C  -20.361   27.558   45.944
| 35> C  -20.329   28.222   47.341
| 36> C  -20.110   27.022   48.296
| 37> O  -20.473   25.807   47.535
| 38> H  -20.833   25.428   45.533
| 39> H  -19.344   27.382   45.576
| 40> H  -20.898   28.157   45.201
| 41> H  -19.543   28.978   47.434
| 42> H  -21.289   28.710   47.548
| 43> H  -20.733   27.082   49.195
| 44> H  -19.064   26.913   48.597
| 45> C  -23.389   26.110   45.076
| 46> H  -23.479   27.038   44.497
| 47> H  -22.869   25.368   44.457
| 48> O  -22.586   26.394   46.375
| 49> C  -24.818   25.571   45.359
| 50> C  -25.538   25.193   44.060
| 51> C  -24.913   23.814   43.744
| 52> C  -24.699   23.195   45.148
| 53> O  -24.752   24.314   46.113
| 54> H  -25.355   26.289   45.982
| 55> H  -26.615   25.097   44.240
| 56> O  -25.323   26.227   42.921
| 57> H  -25.553   23.193   43.108
| 58> H  -23.954   23.944   43.229
| 59> H  -23.732   22.687   45.240
| 60> H  -25.494   22.495   45.422
| 61> H  -24.252   26.339   42.722
| 62> *
| 63>
| 64>                          ****END OF INPUT****
 Total Charge           Charge          ....    0
 Multiplicity           Mult            ....    1
 Number of Electrons    NEL             ....  102
FINAL SINGLE POINT ENERGY      -652.824613874102
FINAL SINGLE POINT ENERGY      -652.848383753402
FINAL SINGLE POINT ENERGY      -652.852721762364
FINAL SINGLE POINT ENERGY      -652.853506608149
FINAL SINGLE POINT ENERGY      -652.853655498363
FINAL SINGLE POINT ENERGY      -652.853689668550
FINAL SINGLE POINT ENERGY      -652.853697721975
FINAL SINGLE POINT ENERGY      -652.853699448451
                    ***********************HURRAY********************

CARTESIAN COORDINATES (ANGSTROEM)
---------------------------------
  C    -21.037403   26.221978   46.175231
  C    -20.356320   27.571235   45.956075
  C    -20.438453   28.205086   47.365816
  C    -20.270022   26.988074   48.299894
  O    -20.561635   25.795977   47.460015
  H    -20.777376   25.440142   45.452185
  H    -19.312380   27.411137   45.660036
  H    -20.847079   28.174019   45.186470
  H    -19.672517   28.968799   47.529748
  H    -21.422341   28.662840   47.505198
  H    -20.961221   26.993701   49.145883
  H    -19.245796   26.869605   48.665953
  C    -23.205154   26.130558   45.005903
  H    -23.310253   27.060269   44.427315
  H    -22.655214   25.400169   44.388775
  O    -22.480550   26.370288   46.235229
  C    -24.592713   25.596834   45.359714
  C    -25.462139   25.256036   44.138154
  C    -24.964182   23.824124   43.778484
  C    -24.660602   23.213264   45.163609
  O    -24.542863   24.349651   46.113261
  H    -25.075648   26.323215   46.019698
  H    -26.511570   25.229472   44.439374
  O    -25.418218   26.213805   43.051220
  H    -25.708964   23.256324   43.214207
  H    -24.056611   23.896072   43.163227
  H    -23.731111   22.635383   45.182167
  H    -25.476175   22.579044   45.524184
  H    -24.591492   26.111901   42.536977

 Multiplicity           Mult            ....    1
 Number of Electrons    NEL             ....  102
 Basis Dimension        Dim             ....  149

ORBITAL ENERGIES
----------------

  NO   OCC          E(Eh)            E(eV)
   0   2.0000     -19.151353      -521.1348
   1   2.0000     -19.137096      -520.7468
   2   2.0000     -19.135725      -520.7095
   3   2.0000     -19.134821      -520.6850
   4   2.0000     -10.277197      -279.6567
   5   2.0000     -10.245737      -278.8007
   6   2.0000     -10.233139      -278.4579
   7   2.0000     -10.229360      -278.3550
   8   2.0000     -10.229287      -278.3530
   9   2.0000     -10.220738      -278.1204
  10   2.0000     -10.196807      -277.4692
  11   2.0000     -10.183970      -277.1199
  12   2.0000     -10.183073      -277.0955
  13   2.0000      -1.050603       -28.5884
  14   2.0000      -1.033765       -28.1302
  15   2.0000      -1.014974       -27.6188
  16   2.0000      -0.991804       -26.9884
  17   2.0000      -0.784963       -21.3599
  18   2.0000      -0.781943       -21.2777
  19   2.0000      -0.766959       -20.8700
  20   2.0000      -0.728445       -19.8220
  21   2.0000      -0.680426       -18.5153
  22   2.0000      -0.611818       -16.6484
  23   2.0000      -0.596983       -16.2447
  24   2.0000      -0.588453       -16.0126
  25   2.0000      -0.578798       -15.7499
  26   2.0000      -0.528944       -14.3933
  27   2.0000      -0.509808       -13.8726
  28   2.0000      -0.499869       -13.6021
  29   2.0000      -0.487490       -13.2653
  30   2.0000      -0.465804       -12.6752
  31   2.0000      -0.459117       -12.4932
  32   2.0000      -0.449698       -12.2369
  33   2.0000      -0.432831       -11.7779
  34   2.0000      -0.429558       -11.6889
  35   2.0000      -0.416858       -11.3433
  36   2.0000      -0.405663       -11.0387
  37   2.0000      -0.395397       -10.7593
  38   2.0000      -0.379381       -10.3235
  39   2.0000      -0.368820       -10.0361
  40   2.0000      -0.356334        -9.6963
  41   2.0000      -0.352965        -9.6047
  42   2.0000      -0.348439        -9.4815
  43   2.0000      -0.330910        -9.0045
  44   2.0000      -0.314778        -8.5656
  45   2.0000      -0.308409        -8.3922
  46   2.0000      -0.305268        -8.3068
  47   2.0000      -0.271651        -7.3920
  48   2.0000      -0.258965        -7.0468
  49   2.0000      -0.247421        -6.7327
  50   2.0000      -0.237761        -6.4698
  51   0.0000       0.048716         1.3256
  52   0.0000       0.071855         1.9553
  53   0.0000       0.088166         2.3991
  54   0.0000       0.092184         2.5084
  55   0.0000       0.107985         2.9384

MULLIKEN ATOMIC CHARGES
-----------------------
   0 C :    0.298821
   1 C :   -0.264049
   2 C :   -0.299668
   3 C :   -0.001229
   4 O :   -0.499214
   5 H :    0.133065
   6 H :    0.141384
   7 H :    0.140924
   8 H :    0.140496
   9 H :    0.162820
  10 H :    0.157117
  11 H :    0.139353
  12 C :   -0.013417
  13 H :    0.133917
  14 H :    0.108579
  15 O :   -0.502417
  16 C :    0.100570
  17 C :    0.079306
  18 C :   -0.329798
  19 C :   -0.011991
  20 O :   -0.498434
  21 H :    0.167603
  22 H :    0.170647
  23 O :   -0.599595
  24 H :    0.160211
  25 H :    0.131227
  26 H :    0.147398
  27 H :    0.151677
  28 H :    0.354694
Sum of atomic charges:   -0.0000000

LOEWDIN ATOMIC CHARGES
----------------------
   0 C :    0.180106
   1 C :   -0.228947
   2 C :   -0.216881
   3 C :   -0.025170
   4 O :   -0.303849
   5 H :    0.093286
   6 H :    0.111874
   7 H :    0.113669
   8 H :    0.113579
   9 H :    0.119528
  10 H :    0.110809
  11 H :    0.101205
  12 C :   -0.049840
  13 H :    0.095865
  14 H :    0.083692
  15 O :   -0.319916
  16 C :    0.021530
  17 C :    0.034263
  18 C :   -0.243741
  19 C :   -0.030357
  20 O :   -0.308483
  21 H :    0.121587
  22 H :    0.120545
  23 O :   -0.408271
  24 H :    0.123264
  25 H :    0.102423
  26 H :    0.104297
  27 H :    0.106915
  28 H :    0.277020

  Mayer bond orders larger than 0.100000
B(  0-C ,  1-C ) :   0.9305 B(  0-C ,  4-O ) :   0.9400 B(  0-C ,  5-H ) :   0.9176
B(  0-C , 15-O ) :   0.8378 B(  1-C ,  2-C ) :   0.9557 B(  1-C ,  6-H ) :   0.9347
B(  1-C ,  7-H ) :   0.9385 B(  2-C ,  3-C ) :   0.9551 B(  2-C ,  8-H ) :   0.9452
B(  2-C ,  9-H ) :   0.9435 B(  3-C ,  4-O ) :   0.8370 B(  3-C , 10-H ) :   0.9339
B(  3-C , 11-H ) :   0.9398 B( 12-C , 13-H ) :   0.9042 B( 12-C , 14-H ) :   0.9126
B( 12-C , 15-O ) :   0.8523 B( 12-C , 16-C ) :   0.9017 B( 16-C , 17-C ) :   0.8710
B( 16-C , 20-O ) :   0.8775 B( 16-C , 21-H ) :   0.9291 B( 17-C , 18-C ) :   0.9263
B( 17-C , 22-H ) :   0.9322 B( 17-C , 23-O ) :   0.8957 B( 18-C , 19-C ) :   0.9371
B( 18-C , 24-H ) :   0.9409 B( 18-C , 25-H ) :   0.9399 B( 19-C , 20-O ) :   0.8518
B( 19-C , 26-H ) :   0.9310 B( 19-C , 27-H ) :   0.9374 B( 23-O , 28-H ) :   0.7992

FINAL SINGLE POINT ENERGY      -652.853699625585

DIPOLE MOMENT
-------------
                                X             Y             Z
Electronic contribution:     -2.70050      -1.55074       1.53606
Nuclear contribution   :      3.31679       1.71602      -2.72910
                        -----------------------------------------
Total Dipole Moment    :      0.61629       0.16528      -1.19305
                        -----------------------------------------
Magnitude (a.u.)       :      1.35296
Magnitude (Debye)      :      3.43894

Rotational constants in cm-1:     0.057833     0.012300     0.011068
Rotational constants in MHz :  1733.781218   368.752265   331.814938

                             ****ORCA TERMINATED NORMALLY****
TOTAL RUN TIME: 0 days 0 hours 24 minutes 55 seconds 955 msec
