                         Program Version 4.2.0 -  RELEASE  -
|  1> # Test redundant internal optimization
|  2> #
|  3> ! RKS B3LYP  Opt TightSCF SmallPrint
|  4>
|  5> %basis
|  6>         Basis "6-31G"
|  7> end
|  8>
|  9> %geom
| 10> Constraints
| 11> { D 4  0  15  12  165.0   C } # D for Dihedral angle
| 12> { D 0  15  12  16  105.0   C } # D for Dihedral angle
| 13> { D 0  4  3  2   C } # D for Dihedral angle
| 14> { D 4  3  2  1   C } # D for Dihedral angle
| 15> { D 3  2  1  0   C } # D for Dihedral angle
| 16> { D 2  1  0  4   C } # D for Dihedral angle
| 17> { D 1  0  4  3   C } # D for Dihedral angle
| 18> { D 16  20  19  18   C } # D for Dihedral angle
| 19> { D 20  19  18  17   C } # D for Dihedral angle
| 20> { D 19  18  17  16   C } # D for Dihedral angle
| 21> { D 18  17  16  20   C } # D for Dihedral angle
| 22> { D 17  16  20  19   C } # D for Dihedral angle
| 23> { D 15  12  16  20   C } # D for Dihedral angle
| 24> end
| 25> end
| 26>
| 27>
| 28> #%pal
| 29> #nprocs 8
| 30> #end
| 31>
| 32> * xyz 0 1
| 33> C  -21.048   26.222   46.251
| 34> C  -20.361   27.558   45.944
| 35> C  -20.329   28.222   47.341
| 36> C  -20.110   27.022   48.296
| 37> O  -20.473   25.807   47.535
| 38> H  -20.833   25.428   45.533
| 39> H  -19.344   27.382   45.576
| 40> H  -20.898   28.157   45.201
| 41> H  -19.543   28.978   47.434
| 42> H  -21.289   28.710   47.548
| 43> H  -20.733   27.082   49.195
| 44> H  -19.064   26.913   48.597
| 45> C  -23.260   27.170   45.210
| 46> H  -23.963   27.904   45.623
| 47> H  -22.507   27.710   44.622
| 48> O  -22.586   26.394   46.375
| 49> C  -24.039   26.240   44.240
| 50> C  -23.137   25.128   43.690
| 51> C  -23.113   24.130   44.873
| 52> C  -24.539   24.252   45.465
| 53> O  -25.099   25.523   44.957
| 54> H  -24.524   26.847   43.474
| 55> O  -23.792   24.480   42.440
| 56> H  -22.138   25.481   43.413
| 57> H  -22.876   23.108   44.562
| 58> H  -22.362   24.439   45.610
| 59> H  -24.540   24.271   46.560
| 60> H  -25.202   23.450   45.125
| 61> H  -24.794   24.118   42.695
| 62> *
| 63>
| 64>                          ****END OF INPUT****
 Total Charge           Charge          ....    0
 Multiplicity           Mult            ....    1
 Number of Electrons    NEL             ....  102
FINAL SINGLE POINT ENERGY      -652.823041570344
FINAL SINGLE POINT ENERGY      -652.846706718294
FINAL SINGLE POINT ENERGY      -652.852224631623
FINAL SINGLE POINT ENERGY      -652.854652598371
FINAL SINGLE POINT ENERGY      -652.854939095363
FINAL SINGLE POINT ENERGY      -652.854986137021
FINAL SINGLE POINT ENERGY      -652.854987212396
                    ***********************HURRAY********************

CARTESIAN COORDINATES (ANGSTROEM)
---------------------------------
  C    -21.008986   26.272446   46.294745
  C    -20.230447   27.545165   45.962905
  C    -20.298604   28.325542   47.301950
  C    -20.235516   27.197517   48.352026
  O    -20.590881   25.951263   47.626459
  H    -20.772668   25.411547   45.664236
  H    -19.196470   27.265048   45.730037
  H    -20.617698   28.115151   45.115603
  H    -19.478698   29.042242   47.407813
  H    -21.244754   28.870376   47.371976
  H    -20.941655   27.333330   49.174572
  H    -19.230029   27.046767   48.755393
  C    -23.171644   27.121321   45.270440
  H    -23.875316   27.806615   45.753610
  H    -22.495802   27.712039   44.638367
  O    -22.460770   26.469896   46.363309
  C    -23.987751   26.182492   44.375059
  C    -23.237328   25.070817   43.624890
  C    -23.166656   23.951093   44.700831
  C    -24.511767   24.113834   45.453641
  O    -25.014416   25.468270   45.130084
  H    -24.516217   26.819070   43.653836
  O    -23.983650   24.651844   42.448716
  H    -22.260605   25.374943   43.245517
  H    -23.059811   22.971690   44.226383
  H    -22.327762   24.111131   45.377529
  H    -24.391181   24.036170   46.536988
  H    -25.272958   23.399324   45.122395
  H    -24.915956   24.489056   42.705690

 Multiplicity           Mult            ....    1
 Number of Electrons    NEL             ....  102
 Basis Dimension        Dim             ....  149

ORBITAL ENERGIES
----------------

  NO   OCC          E(Eh)            E(eV)
   0   2.0000     -19.145171      -520.9666
   1   2.0000     -19.144745      -520.9550
   2   2.0000     -19.137478      -520.7572
   3   2.0000     -19.137180      -520.7491
   4   2.0000     -10.286570      -279.9118
   5   2.0000     -10.240672      -278.6628
   6   2.0000     -10.234744      -278.5016
   7   2.0000     -10.233498      -278.4676
   8   2.0000     -10.229162      -278.3496
   9   2.0000     -10.222495      -278.1682
  10   2.0000     -10.195724      -277.4397
  11   2.0000     -10.193108      -277.3686
  12   2.0000     -10.181258      -277.0461
  13   2.0000      -1.057083       -28.7647
  14   2.0000      -1.034183       -28.1416
  15   2.0000      -1.005074       -27.3495
  16   2.0000      -0.993697       -27.0399
  17   2.0000      -0.792587       -21.5674
  18   2.0000      -0.777122       -21.1466
  19   2.0000      -0.767899       -20.8956
  20   2.0000      -0.737872       -20.0785
  21   2.0000      -0.679574       -18.4921
  22   2.0000      -0.608906       -16.5692
  23   2.0000      -0.601349       -16.3635
  24   2.0000      -0.599386       -16.3101
  25   2.0000      -0.571916       -15.5626
  26   2.0000      -0.525933       -14.3114
  27   2.0000      -0.512340       -13.9415
  28   2.0000      -0.506494       -13.7824
  29   2.0000      -0.489724       -13.3261
  30   2.0000      -0.472836       -12.8665
  31   2.0000      -0.459476       -12.5030
  32   2.0000      -0.451895       -12.2967
  33   2.0000      -0.439357       -11.9555
  34   2.0000      -0.425769       -11.5858
  35   2.0000      -0.416915       -11.3448
  36   2.0000      -0.405000       -11.0206
  37   2.0000      -0.389401       -10.5961
  38   2.0000      -0.384407       -10.4602
  39   2.0000      -0.366887        -9.9835
  40   2.0000      -0.362352        -9.8601
  41   2.0000      -0.361020        -9.8239
  42   2.0000      -0.354184        -9.6378
  43   2.0000      -0.328203        -8.9309
  44   2.0000      -0.318781        -8.6745
  45   2.0000      -0.304198        -8.2777
  46   2.0000      -0.302103        -8.2206
  47   2.0000      -0.269848        -7.3429
  48   2.0000      -0.268190        -7.2978
  49   2.0000      -0.261826        -7.1246
  50   2.0000      -0.235939        -6.4202
  51   0.0000       0.065972         1.7952
  52   0.0000       0.076481         2.0811
  53   0.0000       0.093756         2.5512
  54   0.0000       0.097378         2.6498
  55   0.0000       0.103897         2.8272

MULLIKEN ATOMIC CHARGES
-----------------------
   0 C :    0.308742
   1 C :   -0.293736
   2 C :   -0.296197
   3 C :   -0.000010
   4 O :   -0.499904
   5 H :    0.140939
   6 H :    0.153964
   7 H :    0.145471
   8 H :    0.145104
   9 H :    0.159036
  10 H :    0.157001
  11 H :    0.144118
  12 C :   -0.018109
  13 H :    0.165722
  14 H :    0.116840
  15 O :   -0.516068
  16 C :    0.079571
  17 C :    0.071558
  18 C :   -0.292093
  19 C :   -0.027234
  20 O :   -0.523265
  21 H :    0.150630
  22 O :   -0.602324
  23 H :    0.139855
  24 H :    0.151901
  25 H :    0.169645
  26 H :    0.166580
  27 H :    0.137821
  28 H :    0.364438
Sum of atomic charges:   -0.0000000

LOEWDIN ATOMIC CHARGES
----------------------
   0 C :    0.178778
   1 C :   -0.233249
   2 C :   -0.215750
   3 C :   -0.024632
   4 O :   -0.302548
   5 H :    0.092891
   6 H :    0.119416
   7 H :    0.113438
   8 H :    0.115857
   9 H :    0.116587
  10 H :    0.111104
  11 H :    0.103774
  12 C :   -0.043923
  13 H :    0.119869
  14 H :    0.093088
  15 O :   -0.333772
  16 C :    0.006721
  17 C :    0.035484
  18 C :   -0.239217
  19 C :   -0.034516
  20 O :   -0.328500
  21 H :    0.114252
  22 O :   -0.415250
  23 H :    0.109566
  24 H :    0.120527
  25 H :    0.124941
  26 H :    0.115254
  27 H :    0.096755
  28 H :    0.283055

  Mayer bond orders larger than 0.100000
B(  0-C ,  1-C ) :   0.9305 B(  0-C ,  4-O ) :   0.9405 B(  0-C ,  5-H ) :   0.9080
B(  0-C , 15-O ) :   0.8319 B(  1-C ,  2-C ) :   0.9491 B(  1-C ,  6-H ) :   0.9330
B(  1-C ,  7-H ) :   0.9270 B(  2-C ,  3-C ) :   0.9552 B(  2-C ,  8-H ) :   0.9449
B(  2-C ,  9-H ) :   0.9455 B(  3-C ,  4-O ) :   0.8326 B(  3-C , 10-H ) :   0.9342
B(  3-C , 11-H ) :   0.9396 B( 12-C , 13-H ) :   0.9303 B( 12-C , 14-H ) :   0.9026
B( 12-C , 15-O ) :   0.8684 B( 12-C , 16-C ) :   0.8866 B( 16-C , 17-C ) :   0.9083
B( 16-C , 20-O ) :   0.8735 B( 16-C , 21-H ) :   0.9172 B( 17-C , 18-C ) :   0.9211
B( 17-C , 22-O ) :   0.8908 B( 17-C , 23-H ) :   0.9363 B( 18-C , 19-C ) :   0.9446
B( 18-C , 24-H ) :   0.9374 B( 18-C , 25-H ) :   0.9165 B( 19-C , 20-O ) :   0.8403
B( 19-C , 26-H ) :   0.9312 B( 19-C , 27-H ) :   0.9363 B( 22-O , 28-H ) :   0.7947

FINAL SINGLE POINT ENERGY      -652.854971546639

DIPOLE MOMENT
-------------
                                X             Y             Z
Electronic contribution:     -3.85191      -2.57277      -0.93520
Nuclear contribution   :      4.67806       3.39727       0.90668
                        -----------------------------------------
Total Dipole Moment    :      0.82615       0.82451      -0.02852
                        -----------------------------------------
Magnitude (a.u.)       :      1.16754
Magnitude (Debye)      :      2.96764

Rotational constants in cm-1:     0.058098     0.013785     0.013369
Rotational constants in MHz :  1741.746364   413.261421   400.794513

                             ****ORCA TERMINATED NORMALLY****
TOTAL RUN TIME: 0 days 0 hours 38 minutes 10 seconds 305 msec
