                         Program Version 4.2.0 -  RELEASE  -
|  1> # Test redundant internal optimization
|  2> #
|  3> ! RKS B3LYP  Opt TightSCF SmallPrint
|  4>
|  5> %basis
|  6>         Basis "6-31G"
|  7> end
|  8>
|  9> %geom
| 10> Constraints
| 11> { D 4  0  15  12  300.0   C } # D for Dihedral angle
| 12> { D 0  15  12  16  135.0   C } # D for Dihedral angle
| 13> { D 0  4  3  2   C } # D for Dihedral angle
| 14> { D 4  3  2  1   C } # D for Dihedral angle
| 15> { D 3  2  1  0   C } # D for Dihedral angle
| 16> { D 2  1  0  4   C } # D for Dihedral angle
| 17> { D 1  0  4  3   C } # D for Dihedral angle
| 18> { D 16  20  19  18   C } # D for Dihedral angle
| 19> { D 20  19  18  17   C } # D for Dihedral angle
| 20> { D 19  18  17  16   C } # D for Dihedral angle
| 21> { D 18  17  16  20   C } # D for Dihedral angle
| 22> { D 17  16  20  19   C } # D for Dihedral angle
| 23> { D 15  12  16  20   C } # D for Dihedral angle
| 24> end
| 25> end
| 26>
| 27>
| 28> #%pal
| 29> #nprocs 8
| 30> #end
| 31>
| 32> * xyz 0 1
| 33> C  -21.048   26.222   46.251
| 34> C  -20.361   27.558   45.944
| 35> C  -20.329   28.222   47.341
| 36> C  -20.110   27.022   48.296
| 37> O  -20.473   25.807   47.535
| 38> H  -20.833   25.428   45.533
| 39> H  -19.344   27.382   45.576
| 40> H  -20.898   28.157   45.201
| 41> H  -19.543   28.978   47.434
| 42> H  -21.289   28.710   47.548
| 43> H  -20.733   27.082   49.195
| 44> H  -19.064   26.913   48.597
| 45> C  -23.362   25.116   46.798
| 46> H  -23.871   24.696   45.922
| 47> H  -22.670   24.359   47.188
| 48> O  -22.586   26.394   46.375
| 49> C  -24.425   25.395   47.895
| 50> C  -23.798   26.069   49.121
| 51> C  -23.680   27.537   48.645
| 52> C  -24.940   27.723   47.763
| 53> O  -25.414   26.366   47.416
| 54> H  -24.964   24.471   48.114
| 55> O  -24.757   25.963   50.337
| 56> H  -22.832   25.636   49.404
| 57> H  -23.642   28.250   49.475
| 58> H  -22.769   27.668   48.049
| 59> H  -24.729   28.277   46.842
| 60> H  -25.754   28.221   48.298
| 61> H  -25.731   26.391   50.077
| 62> *
| 63>
| 64>                          ****END OF INPUT****
 Total Charge           Charge          ....    0
 Multiplicity           Mult            ....    1
 Number of Electrons    NEL             ....  102
FINAL SINGLE POINT ENERGY      -652.836480071412
FINAL SINGLE POINT ENERGY      -652.859618617183
FINAL SINGLE POINT ENERGY      -652.862719011851
FINAL SINGLE POINT ENERGY      -652.865967636397
FINAL SINGLE POINT ENERGY      -652.866216625620
FINAL SINGLE POINT ENERGY      -652.866259448593
FINAL SINGLE POINT ENERGY      -652.866260966069
                    ***********************HURRAY********************

CARTESIAN COORDINATES (ANGSTROEM)
---------------------------------
  C    -21.070710   26.155669   46.281030
  C    -20.361501   27.451738   45.885911
  C    -20.280913   28.191609   47.240126
  C    -20.068417   27.047614   48.257845
  O    -20.484698   25.800590   47.558162
  H    -20.863274   25.303654   45.624378
  H    -19.363426   27.208156   45.507463
  H    -20.910045   28.005680   45.121264
  H    -19.464158   28.920180   47.269985
  H    -21.214738   28.727511   47.430521
  H    -20.663897   27.161555   49.167638
  H    -19.018191   26.913556   48.530973
  C    -23.251417   25.195222   46.796466
  H    -23.742853   24.767073   45.914986
  H    -22.561783   24.456804   47.221489
  O    -22.497115   26.371671   46.342833
  C    -24.325772   25.505994   47.834798
  C    -23.868570   26.115883   49.167173
  C    -23.819467   27.626910   48.822688
  C    -25.003644   27.798030   47.837913
  O    -25.335630   26.443780   47.341045
  H    -24.849591   24.560607   48.025561
  O    -24.829009   25.824916   50.221498
  H    -22.917081   25.719549   49.522042
  H    -23.920856   28.235734   49.725084
  H    -22.879494   27.858862   48.325148
  H    -24.747450   28.431793   46.984800
  H    -25.903499   28.194259   48.320532
  H    -25.731803   26.018399   49.890645

 Multiplicity           Mult            ....    1
 Number of Electrons    NEL             ....  102
 Basis Dimension        Dim             ....  149

ORBITAL ENERGIES
----------------

  NO   OCC          E(Eh)            E(eV)
   0   2.0000     -19.149928      -521.0960
   1   2.0000     -19.149852      -521.0940
   2   2.0000     -19.136040      -520.7181
   3   2.0000     -19.133799      -520.6572
   4   2.0000     -10.283197      -279.8200
   5   2.0000     -10.234507      -278.4951
   6   2.0000     -10.233482      -278.4672
   7   2.0000     -10.231767      -278.4205
   8   2.0000     -10.228374      -278.3282
   9   2.0000     -10.222395      -278.1655
  10   2.0000     -10.193220      -277.3716
  11   2.0000     -10.191744      -277.3315
  12   2.0000     -10.177987      -276.9571
  13   2.0000      -1.059406       -28.8279
  14   2.0000      -1.031219       -28.0609
  15   2.0000      -1.002856       -27.2891
  16   2.0000      -0.995850       -27.0985
  17   2.0000      -0.795627       -21.6501
  18   2.0000      -0.775987       -21.1157
  19   2.0000      -0.764150       -20.7936
  20   2.0000      -0.735295       -20.0084
  21   2.0000      -0.673775       -18.3344
  22   2.0000      -0.606775       -16.5112
  23   2.0000      -0.597903       -16.2698
  24   2.0000      -0.596057       -16.2195
  25   2.0000      -0.577242       -15.7076
  26   2.0000      -0.523798       -14.2533
  27   2.0000      -0.508279       -13.8310
  28   2.0000      -0.501180       -13.6378
  29   2.0000      -0.489580       -13.3221
  30   2.0000      -0.470737       -12.8094
  31   2.0000      -0.461260       -12.5515
  32   2.0000      -0.447801       -12.1853
  33   2.0000      -0.437240       -11.8979
  34   2.0000      -0.419438       -11.4135
  35   2.0000      -0.413793       -11.2599
  36   2.0000      -0.409050       -11.1308
  37   2.0000      -0.386758       -10.5242
  38   2.0000      -0.375142       -10.2081
  39   2.0000      -0.366543        -9.9741
  40   2.0000      -0.363983        -9.9045
  41   2.0000      -0.356280        -9.6949
  42   2.0000      -0.351255        -9.5581
  43   2.0000      -0.339919        -9.2497
  44   2.0000      -0.324556        -8.8316
  45   2.0000      -0.304474        -8.2852
  46   2.0000      -0.301616        -8.2074
  47   2.0000      -0.274085        -7.4582
  48   2.0000      -0.265526        -7.2253
  49   2.0000      -0.261044        -7.1034
  50   2.0000      -0.238886        -6.5004
  51   0.0000       0.065492         1.7821
  52   0.0000       0.079562         2.1650
  53   0.0000       0.092153         2.5076
  54   0.0000       0.101642         2.7658
  55   0.0000       0.106762         2.9051

MULLIKEN ATOMIC CHARGES
-----------------------
   0 C :    0.283323
   1 C :   -0.264039
   2 C :   -0.309091
   3 C :   -0.010909
   4 O :   -0.515536
   5 H :    0.148235
   6 H :    0.150120
   7 H :    0.161349
   8 H :    0.145951
   9 H :    0.163631
  10 H :    0.147023
  11 H :    0.149057
  12 C :   -0.008052
  13 H :    0.150847
  14 H :    0.156659
  15 O :   -0.522052
  16 C :    0.069717
  17 C :    0.070628
  18 C :   -0.299843
  19 C :   -0.019796
  20 O :   -0.526116
  21 H :    0.154775
  22 O :   -0.604416
  23 H :    0.160434
  24 H :    0.148011
  25 H :    0.168810
  26 H :    0.154024
  27 H :    0.134667
  28 H :    0.362590
Sum of atomic charges:   -0.0000000

LOEWDIN ATOMIC CHARGES
----------------------
   0 C :    0.170260
   1 C :   -0.212196
   2 C :   -0.218066
   3 C :   -0.030942
   4 O :   -0.332633
   5 H :    0.095811
   6 H :    0.117544
   7 H :    0.126789
   8 H :    0.115992
   9 H :    0.115196
  10 H :    0.103169
  11 H :    0.106747
  12 C :   -0.042177
  13 H :    0.109869
  14 H :    0.114726
  15 O :   -0.330060
  16 C :    0.012830
  17 C :    0.038401
  18 C :   -0.242739
  19 C :   -0.033179
  20 O :   -0.330394
  21 H :    0.116389
  22 O :   -0.417280
  23 H :    0.119034
  24 H :    0.118797
  25 H :    0.121656
  26 H :    0.108877
  27 H :    0.095875
  28 H :    0.281705

  Mayer bond orders larger than 0.100000
B(  0-C ,  1-C ) :   0.9465 B(  0-C ,  4-O ) :   0.8910 B(  0-C ,  5-H ) :   0.9206
B(  0-C , 15-O ) :   0.8733 B(  1-C ,  2-C ) :   0.9559 B(  1-C ,  6-H ) :   0.9395
B(  1-C ,  7-H ) :   0.9356 B(  2-C ,  3-C ) :   0.9543 B(  2-C ,  8-H ) :   0.9443
B(  2-C ,  9-H ) :   0.9356 B(  3-C ,  4-O ) :   0.8356 B(  3-C , 10-H ) :   0.9298
B(  3-C , 11-H ) :   0.9396 B( 12-C , 13-H ) :   0.9245 B( 12-C , 14-H ) :   0.9049
B( 12-C , 15-O ) :   0.8334 B( 12-C , 16-C ) :   0.9138 B( 16-C , 17-C ) :   0.9082
B( 16-C , 20-O ) :   0.8669 B( 16-C , 21-H ) :   0.9186 B( 17-C , 18-C ) :   0.9243
B( 17-C , 22-O ) :   0.8865 B( 17-C , 23-H ) :   0.9300 B( 18-C , 19-C ) :   0.9446
B( 18-C , 24-H ) :   0.9379 B( 18-C , 25-H ) :   0.9069 B( 19-C , 20-O ) :   0.8426
B( 19-C , 26-H ) :   0.9334 B( 19-C , 27-H ) :   0.9373 B( 22-O , 28-H ) :   0.7961

FINAL SINGLE POINT ENERGY      -652.866258874215

DIPOLE MOMENT
-------------
                                X             Y             Z
Electronic contribution:     -3.78273      -4.31531      -0.14920
Nuclear contribution   :      4.62158       5.04390      -0.23867
                        -----------------------------------------
Total Dipole Moment    :      0.83885       0.72860      -0.38787
                        -----------------------------------------
Magnitude (a.u.)       :      1.17685
Magnitude (Debye)      :      2.99130

Rotational constants in cm-1:     0.045846     0.017212     0.016370
Rotational constants in MHz :  1374.418485   516.006352   490.770865

                             ****ORCA TERMINATED NORMALLY****
TOTAL RUN TIME: 0 days 0 hours 44 minutes 15 seconds 378 msec
