                         Program Version 4.2.0 -  RELEASE  -
|  1> # Test redundant internal optimization
|  2> #
|  3> ! RKS B3LYP  Opt TightSCF SmallPrint
|  4>
|  5> %basis
|  6>         Basis "6-31G"
|  7> end
|  8>
|  9> %geom
| 10> Constraints
| 11> { D 4  0  15  12  45.0   C } # D for Dihedral angle
| 12> { D 0  15  12  16  300.0   C } # D for Dihedral angle
| 13> { D 0  4  3  2   C } # D for Dihedral angle
| 14> { D 4  3  2  1   C } # D for Dihedral angle
| 15> { D 3  2  1  0   C } # D for Dihedral angle
| 16> { D 2  1  0  4   C } # D for Dihedral angle
| 17> { D 1  0  4  3   C } # D for Dihedral angle
| 18> { D 16  20  19  18   C } # D for Dihedral angle
| 19> { D 20  19  18  17   C } # D for Dihedral angle
| 20> { D 19  18  17  16   C } # D for Dihedral angle
| 21> { D 18  17  16  20   C } # D for Dihedral angle
| 22> { D 17  16  20  19   C } # D for Dihedral angle
| 23> { D 15  12  16  20   C } # D for Dihedral angle
| 24> end
| 25> end
| 26>
| 27>
| 28> #%pal
| 29> #nprocs 8
| 30> #end
| 31>
| 32> * xyz 0 1
| 33> C  -21.048   26.222   46.251
| 34> C  -20.361   27.558   45.944
| 35> C  -20.329   28.222   47.341
| 36> C  -20.110   27.022   48.296
| 37> O  -20.473   25.807   47.535
| 38> H  -20.833   25.428   45.533
| 39> H  -19.344   27.382   45.576
| 40> H  -20.898   28.157   45.201
| 41> H  -19.543   28.978   47.434
| 42> H  -21.289   28.710   47.548
| 43> H  -20.733   27.082   49.195
| 44> H  -19.064   26.913   48.597
| 45> C  -23.065   27.161   47.638
| 46> H  -22.642   28.174   47.628
| 47> H  -24.159   27.247   47.643
| 48> O  -22.586   26.394   46.375
| 49> C  -22.639   26.466   48.961
| 50> C  -23.225   27.185   50.181
| 51> C  -24.679   26.654   50.189
| 52> C  -24.523   25.195   49.694
| 53> O  -23.202   25.114   49.033
| 54> H  -21.552   26.362   48.976
| 55> H  -22.696   26.878   51.090
| 56> O  -23.151   28.733   50.071
| 57> H  -25.146   26.712   51.178
| 58> H  -25.296   27.235   49.493
| 59> H  -25.301   24.910   48.977
| 60> H  -24.517   24.473   50.516
| 61> H  -23.675   29.065   49.169
| 62> *
| 63>
| 64>                          ****END OF INPUT****
 Total Charge           Charge          ....    0
 Multiplicity           Mult            ....    1
 Number of Electrons    NEL             ....  102
FINAL SINGLE POINT ENERGY      -652.752952048301
FINAL SINGLE POINT ENERGY      -652.815392867591
FINAL SINGLE POINT ENERGY      -652.838397957060
FINAL SINGLE POINT ENERGY      -652.844343971061
FINAL SINGLE POINT ENERGY      -652.845342841372
FINAL SINGLE POINT ENERGY      -652.845693228191
FINAL SINGLE POINT ENERGY      -652.845760684749
FINAL SINGLE POINT ENERGY      -652.845786992935
FINAL SINGLE POINT ENERGY      -652.845793503430
FINAL SINGLE POINT ENERGY      -652.845794437849
                    ***********************HURRAY********************

CARTESIAN COORDINATES (ANGSTROEM)
---------------------------------
  C    -21.071108   26.334215   46.363275
  C    -20.329493   27.575241   45.846225
  C    -19.862147   28.247963   47.169262
  C    -19.554037   27.032163   48.076240
  O    -20.250289   25.872072   47.460421
  H    -21.075010   25.515888   45.641160
  H    -19.468199   27.251923   45.251087
  H    -20.967591   28.214153   45.231415
  H    -18.983980   28.886258   47.031484
  H    -20.660110   28.867326   47.592133
  H    -19.898942   27.163246   49.105578
  H    -18.489507   26.779800   48.091510
  C    -23.102919   27.157313   47.733590
  H    -22.829084   28.223303   47.775215
  H    -24.171158   27.089083   47.504210
  O    -22.491205   26.512686   46.585579
  C    -22.812309   26.533136   49.103880
  C    -23.558735   27.237266   50.250676
  C    -24.970649   26.578728   50.166565
  C    -24.641806   25.129575   49.741561
  O    -23.265582   25.147091   49.188050
  H    -21.741051   26.493359   49.281134
  H    -23.079394   26.983599   51.199304
  O    -23.548331   28.686291   50.209581
  H    -25.509605   26.632322   51.116209
  H    -25.572736   27.094515   49.406059
  H    -25.328604   24.743291   48.981803
  H    -24.636295   24.442129   50.592955
  H    -24.209126   29.015065   49.566837

 Multiplicity           Mult            ....    1
 Number of Electrons    NEL             ....  102
 Basis Dimension        Dim             ....  149

ORBITAL ENERGIES
----------------

  NO   OCC          E(Eh)            E(eV)
   0   2.0000     -19.151622      -521.1421
   1   2.0000     -19.144070      -520.9366
   2   2.0000     -19.136190      -520.7222
   3   2.0000     -19.132653      -520.6260
   4   2.0000     -10.274659      -279.5877
   5   2.0000     -10.245673      -278.7989
   6   2.0000     -10.231406      -278.4107
   7   2.0000     -10.228700      -278.3371
   8   2.0000     -10.227846      -278.3138
   9   2.0000     -10.226108      -278.2666
  10   2.0000     -10.196102      -277.4500
  11   2.0000     -10.190701      -277.3031
  12   2.0000     -10.184682      -277.1393
  13   2.0000      -1.046737       -28.4832
  14   2.0000      -1.033440       -28.1213
  15   2.0000      -1.013226       -27.5713
  16   2.0000      -0.991864       -26.9900
  17   2.0000      -0.786257       -21.3952
  18   2.0000      -0.782231       -21.2856
  19   2.0000      -0.768670       -20.9166
  20   2.0000      -0.732057       -19.9203
  21   2.0000      -0.682261       -18.5653
  22   2.0000      -0.611224       -16.6323
  23   2.0000      -0.604957       -16.4617
  24   2.0000      -0.600898       -16.3513
  25   2.0000      -0.562888       -15.3170
  26   2.0000      -0.522361       -14.2142
  27   2.0000      -0.509716       -13.8701
  28   2.0000      -0.503229       -13.6935
  29   2.0000      -0.491226       -13.3669
  30   2.0000      -0.466475       -12.6934
  31   2.0000      -0.453916       -12.3517
  32   2.0000      -0.444930       -12.1072
  33   2.0000      -0.431035       -11.7291
  34   2.0000      -0.428180       -11.6514
  35   2.0000      -0.416475       -11.3329
  36   2.0000      -0.411244       -11.1905
  37   2.0000      -0.400050       -10.8859
  38   2.0000      -0.379685       -10.3317
  39   2.0000      -0.374201       -10.1825
  40   2.0000      -0.359751        -9.7893
  41   2.0000      -0.358084        -9.7440
  42   2.0000      -0.338688        -9.2162
  43   2.0000      -0.331303        -9.0152
  44   2.0000      -0.316915        -8.6237
  45   2.0000      -0.315153        -8.5758
  46   2.0000      -0.302767        -8.2387
  47   2.0000      -0.271724        -7.3940
  48   2.0000      -0.258291        -7.0285
  49   2.0000      -0.254040        -6.9128
  50   2.0000      -0.231233        -6.2922
  51   0.0000       0.049640         1.3508
  52   0.0000       0.074567         2.0291
  53   0.0000       0.082109         2.2343
  54   0.0000       0.088375         2.4048
  55   0.0000       0.098167         2.6713

MULLIKEN ATOMIC CHARGES
-----------------------
   0 C :    0.305703
   1 C :   -0.271182
   2 C :   -0.314503
   3 C :   -0.023046
   4 O :   -0.498941
   5 H :    0.169260
   6 H :    0.150979
   7 H :    0.151651
   8 H :    0.147230
   9 H :    0.153560
  10 H :    0.142636
  11 H :    0.152415
  12 C :   -0.012259
  13 H :    0.119458
  14 H :    0.147308
  15 O :   -0.524878
  16 C :    0.072715
  17 C :    0.084233
  18 C :   -0.327773
  19 C :   -0.012055
  20 O :   -0.499484
  21 H :    0.180190
  22 H :    0.164900
  23 O :   -0.602817
  24 H :    0.157161
  25 H :    0.133408
  26 H :    0.146960
  27 H :    0.150829
  28 H :    0.356342
Sum of atomic charges:   -0.0000000

LOEWDIN ATOMIC CHARGES
----------------------
   0 C :    0.180216
   1 C :   -0.228479
   2 C :   -0.223169
   3 C :   -0.037165
   4 O :   -0.313373
   5 H :    0.114462
   6 H :    0.118103
   7 H :    0.120303
   8 H :    0.116984
   9 H :    0.110901
  10 H :    0.099221
  11 H :    0.106808
  12 C :   -0.046099
  13 H :    0.088257
  14 H :    0.109647
  15 O :   -0.319310
  16 C :    0.006270
  17 C :    0.034071
  18 C :   -0.242341
  19 C :   -0.031235
  20 O :   -0.309829
  21 H :    0.124145
  22 H :    0.118003
  23 O :   -0.410277
  24 H :    0.122103
  25 H :    0.103288
  26 H :    0.104263
  27 H :    0.106436
  28 H :    0.277797

  Mayer bond orders larger than 0.100000
B(  0-C ,  1-C ) :   0.9133 B(  0-C ,  4-O ) :   0.9026 B(  0-C ,  5-H ) :   0.9365
B(  0-C , 15-O ) :   0.8859 B(  1-C ,  2-C ) :   0.9571 B(  1-C ,  6-H ) :   0.9356
B(  1-C ,  7-H ) :   0.9385 B(  2-C ,  3-C ) :   0.9483 B(  2-C ,  8-H ) :   0.9442
B(  2-C ,  9-H ) :   0.9419 B(  3-C ,  4-O ) :   0.8413 B(  3-C , 10-H ) :   0.9203
B(  3-C , 11-H ) :   0.9400 B( 12-C , 13-H ) :   0.8967 B( 12-C , 14-H ) :   0.9401
B( 12-C , 15-O ) :   0.8632 B( 12-C , 16-C ) :   0.8839 B( 16-C , 17-C ) :   0.8661
B( 16-C , 20-O ) :   0.8650 B( 16-C , 21-H ) :   0.9118 B( 17-C , 18-C ) :   0.9246
B( 17-C , 22-H ) :   0.9337 B( 17-C , 23-O ) :   0.8913 B( 18-C , 19-C ) :   0.9384
B( 18-C , 24-H ) :   0.9419 B( 18-C , 25-H ) :   0.9403 B( 19-C , 20-O ) :   0.8554
B( 19-C , 26-H ) :   0.9305 B( 19-C , 27-H ) :   0.9368 B( 23-O , 28-H ) :   0.7986

FINAL SINGLE POINT ENERGY      -652.845793816959

DIPOLE MOMENT
-------------
                                X             Y             Z
Electronic contribution:     -0.28381      -3.48497      -0.35961
Nuclear contribution   :     -0.16223       4.58189       0.41784
                        -----------------------------------------
Total Dipole Moment    :     -0.44604       1.09691       0.05823
                        -----------------------------------------
Magnitude (a.u.)       :      1.18556
Magnitude (Debye)      :      3.01346

Rotational constants in cm-1:     0.047732     0.016219     0.014738
Rotational constants in MHz :  1430.964176   486.221427   441.823784

                             ****ORCA TERMINATED NORMALLY****
TOTAL RUN TIME: 0 days 1 hours 3 minutes 16 seconds 828 msec
