                         Program Version 4.2.0 -  RELEASE  -
|  1> # Test redundant internal optimization
|  2> #
|  3> ! RKS B3LYP  Opt TightSCF SmallPrint
|  4>
|  5> %basis
|  6>         Basis "6-31G"
|  7> end
|  8>
|  9> %geom
| 10> Constraints
| 11> { D 4  0  15  12  105.0   C } # D for Dihedral angle
| 12> { D 0  15  12  16  120.0   C } # D for Dihedral angle
| 13> { D 0  4  3  2   C } # D for Dihedral angle
| 14> { D 4  3  2  1   C } # D for Dihedral angle
| 15> { D 3  2  1  0   C } # D for Dihedral angle
| 16> { D 2  1  0  4   C } # D for Dihedral angle
| 17> { D 1  0  4  3   C } # D for Dihedral angle
| 18> { D 16  20  19  18   C } # D for Dihedral angle
| 19> { D 20  19  18  17   C } # D for Dihedral angle
| 20> { D 19  18  17  16   C } # D for Dihedral angle
| 21> { D 18  17  16  20   C } # D for Dihedral angle
| 22> { D 17  16  20  19   C } # D for Dihedral angle
| 23> { D 15  12  16  20   C } # D for Dihedral angle
| 24> end
| 25> end
| 26>
| 27>
| 28> #%pal
| 29> #nprocs 8
| 30> #end
| 31>
| 32> * xyz 0 1
| 33> C  -21.048   26.222   46.251
| 34> C  -20.361   27.558   45.944
| 35> C  -20.329   28.222   47.341
| 36> C  -20.110   27.022   48.296
| 37> O  -20.473   25.807   47.535
| 38> H  -20.833   25.428   45.533
| 39> H  -19.344   27.382   45.576
| 40> H  -20.898   28.157   45.201
| 41> H  -19.543   28.978   47.434
| 42> H  -21.289   28.710   47.548
| 43> H  -20.733   27.082   49.195
| 44> H  -19.064   26.913   48.597
| 45> C  -23.085   27.864   46.420
| 46> H  -23.610   28.039   47.367
| 47> H  -22.237   28.559   46.365
| 48> O  -22.586   26.394   46.375
| 49> C  -24.053   28.206   45.254
| 50> C  -25.350   27.396   45.352
| 51> C  -26.129   28.181   46.434
| 52> C  -25.723   29.651   46.163
| 53> O  -24.492   29.603   45.345
| 54> H  -23.523   28.099   44.306
| 55> H  -25.884   27.423   44.395
| 56> O  -25.114   25.910   45.738
| 57> H  -27.211   28.029   46.372
| 58> H  -25.804   27.868   47.433
| 59> H  -25.520   30.207   47.084
| 60> H  -26.475   30.192   45.582
| 61> H  -24.581   25.859   46.694
| 62> *
| 63>
| 64>                          ****END OF INPUT****
 Total Charge           Charge          ....    0
 Multiplicity           Mult            ....    1
 Number of Electrons    NEL             ....  102
FINAL SINGLE POINT ENERGY      -652.809453757471
FINAL SINGLE POINT ENERGY      -652.838238757623
FINAL SINGLE POINT ENERGY      -652.851980950631
FINAL SINGLE POINT ENERGY      -652.855543356946
FINAL SINGLE POINT ENERGY      -652.857244477438
FINAL SINGLE POINT ENERGY      -652.858229830023
FINAL SINGLE POINT ENERGY      -652.858651471115
FINAL SINGLE POINT ENERGY      -652.858774077925
FINAL SINGLE POINT ENERGY      -652.858793819693
                    ***********************HURRAY********************

CARTESIAN COORDINATES (ANGSTROEM)
---------------------------------
  C    -21.225825   26.366715   46.386511
  C    -20.254408   27.472790   45.958462
  C    -19.940165   28.174238   47.312142
  C    -19.953371   26.990415   48.309922
  O    -20.674856   25.889374   47.626588
  H    -21.241037   25.502191   45.722161
  H    -19.354591   26.997406   45.556023
  H    -20.654497   28.146996   45.196091
  H    -18.972006   28.683742   47.294836
  H    -20.700038   28.917903   47.566380
  H    -20.465527   27.222077   49.247877
  H    -18.949670   26.617989   48.532241
  C    -23.172640   28.081469   46.552470
  H    -23.694339   28.192908   47.508649
  H    -22.392339   28.841312   46.490992
  O    -22.632239   26.719835   46.499623
  C    -24.122557   28.266521   45.363184
  C    -25.359357   27.352624   45.371709
  C    -26.288126   28.088248   46.381345
  C    -25.981587   29.577015   46.120590
  O    -24.674036   29.619432   45.395448
  H    -23.552625   28.177233   44.433082
  H    -25.817335   27.377100   44.376358
  O    -25.124737   25.971268   45.699482
  H    -27.339411   27.836420   46.219745
  H    -26.023382   27.781462   47.398928
  H    -25.892503   30.170391   47.035667
  H    -26.715569   30.051276   45.462362
  H    -24.233228   25.874649   46.111132

 Multiplicity           Mult            ....    1
 Number of Electrons    NEL             ....  102
 Basis Dimension        Dim             ....  149

ORBITAL ENERGIES
----------------

  NO   OCC          E(Eh)            E(eV)
   0   2.0000     -19.162695      -521.4434
   1   2.0000     -19.149376      -521.0810
   2   2.0000     -19.142051      -520.8817
   3   2.0000     -19.111243      -520.0433
   4   2.0000     -10.293958      -280.1128
   5   2.0000     -10.241816      -278.6940
   6   2.0000     -10.236290      -278.5436
   7   2.0000     -10.234846      -278.5043
   8   2.0000     -10.229659      -278.3632
   9   2.0000     -10.227746      -278.3111
  10   2.0000     -10.204578      -277.6807
  11   2.0000     -10.202708      -277.6298
  12   2.0000     -10.178691      -276.9763
  13   2.0000      -1.062943       -28.9242
  14   2.0000      -1.026488       -27.9322
  15   2.0000      -1.008638       -27.4464
  16   2.0000      -0.990820       -26.9616
  17   2.0000      -0.799626       -21.7589
  18   2.0000      -0.779059       -21.1993
  19   2.0000      -0.768715       -20.9178
  20   2.0000      -0.739941       -20.1348
  21   2.0000      -0.686248       -18.6738
  22   2.0000      -0.614747       -16.7281
  23   2.0000      -0.602795       -16.4029
  24   2.0000      -0.596728       -16.2378
  25   2.0000      -0.576649       -15.6914
  26   2.0000      -0.537848       -14.6356
  27   2.0000      -0.513143       -13.9633
  28   2.0000      -0.510684       -13.8964
  29   2.0000      -0.488642       -13.2966
  30   2.0000      -0.476886       -12.9767
  31   2.0000      -0.464186       -12.6311
  32   2.0000      -0.441595       -12.0164
  33   2.0000      -0.438671       -11.9368
  34   2.0000      -0.426892       -11.6163
  35   2.0000      -0.423520       -11.5246
  36   2.0000      -0.411362       -11.1937
  37   2.0000      -0.394262       -10.7284
  38   2.0000      -0.388528       -10.5724
  39   2.0000      -0.372346       -10.1321
  40   2.0000      -0.368156       -10.0180
  41   2.0000      -0.363947        -9.9035
  42   2.0000      -0.347535        -9.4569
  43   2.0000      -0.341289        -9.2870
  44   2.0000      -0.324084        -8.8188
  45   2.0000      -0.312636        -8.5073
  46   2.0000      -0.288316        -7.8455
  47   2.0000      -0.280321        -7.6279
  48   2.0000      -0.269226        -7.3260
  49   2.0000      -0.247670        -6.7394
  50   2.0000      -0.239776        -6.5246
  51   0.0000       0.055045         1.4979
  52   0.0000       0.070252         1.9116
  53   0.0000       0.089973         2.4483
  54   0.0000       0.095412         2.5963
  55   0.0000       0.102420         2.7870

MULLIKEN ATOMIC CHARGES
-----------------------
   0 C :    0.325696
   1 C :   -0.306483
   2 C :   -0.315714
   3 C :   -0.008173
   4 O :   -0.493389
   5 H :    0.170156
   6 H :    0.165562
   7 H :    0.156955
   8 H :    0.151649
   9 H :    0.156621
  10 H :    0.151478
  11 H :    0.151494
  12 C :   -0.026311
  13 H :    0.154538
  14 H :    0.157533
  15 O :   -0.569682
  16 C :    0.058827
  17 C :    0.123745
  18 C :   -0.297884
  19 C :   -0.028126
  20 O :   -0.523127
  21 H :    0.149427
  22 H :    0.144037
  23 O :   -0.641425
  24 H :    0.152863
  25 H :    0.145342
  26 H :    0.143382
  27 H :    0.151246
  28 H :    0.399764
Sum of atomic charges:   -0.0000000

LOEWDIN ATOMIC CHARGES
----------------------
   0 C :    0.182104
   1 C :   -0.231328
   2 C :   -0.222905
   3 C :   -0.030295
   4 O :   -0.311794
   5 H :    0.114215
   6 H :    0.128103
   7 H :    0.119975
   8 H :    0.119247
   9 H :    0.111706
  10 H :    0.107095
  11 H :    0.107138
  12 C :   -0.046522
  13 H :    0.109021
  14 H :    0.111844
  15 O :   -0.337170
  16 C :    0.012549
  17 C :    0.042596
  18 C :   -0.236341
  19 C :   -0.034028
  20 O :   -0.327560
  21 H :    0.109545
  22 H :    0.104315
  23 O :   -0.434161
  24 H :    0.122088
  25 H :    0.111430
  26 H :    0.102126
  27 H :    0.106712
  28 H :    0.290293

  Mayer bond orders larger than 0.100000
B(  0-C ,  1-C ) :   0.9352 B(  0-C ,  4-O ) :   0.9289 B(  0-C ,  5-H ) :   0.9325
B(  0-C , 15-O ) :   0.8321 B(  1-C ,  2-C ) :   0.9506 B(  1-C ,  6-H ) :   0.9327
B(  1-C ,  7-H ) :   0.9299 B(  2-C ,  3-C ) :   0.9459 B(  2-C ,  8-H ) :   0.9446
B(  2-C ,  9-H ) :   0.9368 B(  3-C ,  4-O ) :   0.8408 B(  3-C , 10-H ) :   0.9343
B(  3-C , 11-H ) :   0.9389 B( 12-C , 13-H ) :   0.9310 B( 12-C , 14-H ) :   0.9107
B( 12-C , 15-O ) :   0.7858 B( 12-C , 16-C ) :   0.8907 B( 16-C , 17-C ) :   0.9137
B( 16-C , 20-O ) :   0.8545 B( 16-C , 21-H ) :   0.9312 B( 17-C , 18-C ) :   0.8995
B( 17-C , 22-H ) :   0.9312 B( 17-C , 23-O ) :   0.9387 B( 18-C , 19-C ) :   0.9396
B( 18-C , 24-H ) :   0.9445 B( 18-C , 25-H ) :   0.9432 B( 19-C , 20-O ) :   0.8315
B( 19-C , 26-H ) :   0.9339 B( 19-C , 27-H ) :   0.9380 B( 23-O , 28-H ) :   0.7209

FINAL SINGLE POINT ENERGY      -652.858796094579

DIPOLE MOMENT
-------------
                                X             Y             Z
Electronic contribution:     -1.38965      -3.83010      -1.54766
Nuclear contribution   :      2.44174       4.99937       1.83209
                        -----------------------------------------
Total Dipole Moment    :      1.05209       1.16927       0.28443
                        -----------------------------------------
Magnitude (a.u.)       :      1.59844
Magnitude (Debye)      :      4.06291

Rotational constants in cm-1:     0.054462     0.013800     0.012412
Rotational constants in MHz :  1632.715804   413.705623   372.108795

                             ****ORCA TERMINATED NORMALLY****
TOTAL RUN TIME: 0 days 0 hours 31 minutes 18 seconds 173 msec
