                         Program Version 4.2.0 -  RELEASE  -
|  1> # Test redundant internal optimization
|  2> #
|  3> ! RKS B3LYP  Opt TightSCF SmallPrint
|  4>
|  5> %basis
|  6>         Basis "6-31G"
|  7> end
|  8>
|  9> %geom
| 10> Constraints
| 11> { D 4  0  15  12  0.0   C } # D for Dihedral angle
| 12> { D 0  15  12  16  225.0   C } # D for Dihedral angle
| 13> { D 0  4  3  2   C } # D for Dihedral angle
| 14> { D 4  3  2  1   C } # D for Dihedral angle
| 15> { D 3  2  1  0   C } # D for Dihedral angle
| 16> { D 2  1  0  4   C } # D for Dihedral angle
| 17> { D 1  0  4  3   C } # D for Dihedral angle
| 18> { D 16  20  19  18   C } # D for Dihedral angle
| 19> { D 20  19  18  17   C } # D for Dihedral angle
| 20> { D 19  18  17  16   C } # D for Dihedral angle
| 21> { D 18  17  16  20   C } # D for Dihedral angle
| 22> { D 17  16  20  19   C } # D for Dihedral angle
| 23> { D 15  12  16  20   C } # D for Dihedral angle
| 24> end
| 25> end
| 26>
| 27>
| 28> #%pal
| 29> #nprocs 8
| 30> #end
| 31>
| 32> * xyz 0 1
| 33> C  -21.048   26.222   46.251
| 34> C  -20.361   27.558   45.944
| 35> C  -20.329   28.222   47.341
| 36> C  -20.110   27.022   48.296
| 37> O  -20.473   25.807   47.535
| 38> H  -20.833   25.428   45.533
| 39> H  -19.344   27.382   45.576
| 40> H  -20.898   28.157   45.201
| 41> H  -19.543   28.978   47.434
| 42> H  -21.289   28.710   47.548
| 43> H  -20.733   27.082   49.195
| 44> H  -19.064   26.913   48.597
| 45> C  -23.172   26.101   47.783
| 46> H  -22.422   25.572   48.385
| 47> H  -23.425   27.037   48.297
| 48> O  -22.586   26.394   46.375
| 49> C  -24.457   25.229   47.730
| 50> C  -25.072   25.057   49.123
| 51> C  -25.808   26.405   49.310
| 52> C  -26.304   26.736   47.880
| 53> O  -25.503   25.906   46.955
| 54> H  -24.233   24.293   47.215
| 55> O  -26.082   23.877   49.118
| 56> H  -24.325   24.869   49.902
| 57> H  -26.628   26.344   50.033
| 58> H  -25.107   27.171   49.663
| 59> H  -26.167   27.793   47.623
| 60> H  -27.353   26.467   47.730
| 61> H  -26.840   24.044   48.345
| 62> *
| 63>
| 64>                          ****END OF INPUT****
 Total Charge           Charge          ....    0
 Multiplicity           Mult            ....    1
 Number of Electrons    NEL             ....  102
FINAL SINGLE POINT ENERGY      -652.830689243106
FINAL SINGLE POINT ENERGY      -652.853133167172
FINAL SINGLE POINT ENERGY      -652.857178088242
FINAL SINGLE POINT ENERGY      -652.857822410515
FINAL SINGLE POINT ENERGY      -652.857908623858
FINAL SINGLE POINT ENERGY      -652.857920054362
                    ***********************HURRAY********************

CARTESIAN COORDINATES (ANGSTROEM)
---------------------------------
  C    -21.139958   26.194579   46.373258
  C    -20.499832   27.518810   45.955157
  C    -20.268541   28.203752   47.322346
  C    -19.922187   27.022349   48.254757
  O    -20.404042   25.799050   47.551390
  H    -21.029027   25.381787   45.652512
  H    -19.548571   27.318385   45.448164
  H    -21.148420   28.090822   45.288716
  H    -19.470443   28.951764   47.289996
  H    -21.187147   28.702670   47.648627
  H    -20.410441   27.081338   49.231564
  H    -18.845995   26.891470   48.397980
  C    -23.140801   26.157787   47.905142
  H    -22.427397   25.615226   48.535335
  H    -23.353026   27.133242   48.365379
  O    -22.574679   26.376370   46.585425
  C    -24.419813   25.334916   47.766224
  C    -25.137714   25.075661   49.098622
  C    -25.948383   26.386638   49.282384
  C    -26.341076   26.757890   47.829731
  O    -25.430565   26.002120   46.939784
  H    -24.176765   24.398133   47.255641
  O    -26.010627   23.916757   48.999807
  H    -24.466242   24.860962   49.931261
  H    -26.812202   26.218227   49.930287
  H    -25.321097   27.161370   49.737149
  H    -26.236341   27.827805   47.623459
  H    -27.363336   26.454500   47.581936
  H    -26.474329   23.941620   48.135967

 Multiplicity           Mult            ....    1
 Number of Electrons    NEL             ....  102
 Basis Dimension        Dim             ....  149

ORBITAL ENERGIES
----------------

  NO   OCC          E(Eh)            E(eV)
   0   2.0000     -19.153357      -521.1893
   1   2.0000     -19.136172      -520.7217
   2   2.0000     -19.136022      -520.7176
   3   2.0000     -19.134242      -520.6692
   4   2.0000     -10.278873      -279.7024
   5   2.0000     -10.240158      -278.6489
   6   2.0000     -10.235203      -278.5140
   7   2.0000     -10.229234      -278.3516
   8   2.0000     -10.227259      -278.2979
   9   2.0000     -10.226898      -278.2880
  10   2.0000     -10.192677      -277.3568
  11   2.0000     -10.187786      -277.2238
  12   2.0000     -10.185396      -277.1587
  13   2.0000      -1.055611       -28.7246
  14   2.0000      -1.033040       -28.1104
  15   2.0000      -1.003314       -27.3016
  16   2.0000      -0.989903       -26.9366
  17   2.0000      -0.792800       -21.5732
  18   2.0000      -0.780989       -21.2518
  19   2.0000      -0.766448       -20.8561
  20   2.0000      -0.734409       -19.9843
  21   2.0000      -0.671414       -18.2701
  22   2.0000      -0.605507       -16.4767
  23   2.0000      -0.602257       -16.3883
  24   2.0000      -0.595447       -16.2029
  25   2.0000      -0.573403       -15.6031
  26   2.0000      -0.524446       -14.2709
  27   2.0000      -0.507580       -13.8120
  28   2.0000      -0.500421       -13.6171
  29   2.0000      -0.492047       -13.3893
  30   2.0000      -0.474846       -12.9212
  31   2.0000      -0.460519       -12.5313
  32   2.0000      -0.452352       -12.3091
  33   2.0000      -0.435265       -11.8442
  34   2.0000      -0.421507       -11.4698
  35   2.0000      -0.415652       -11.3105
  36   2.0000      -0.397765       -10.8237
  37   2.0000      -0.390731       -10.6323
  38   2.0000      -0.375266       -10.2115
  39   2.0000      -0.369406       -10.0521
  40   2.0000      -0.361998        -9.8505
  41   2.0000      -0.355148        -9.6641
  42   2.0000      -0.351316        -9.5598
  43   2.0000      -0.336858        -9.1664
  44   2.0000      -0.326448        -8.8831
  45   2.0000      -0.308066        -8.3829
  46   2.0000      -0.298833        -8.1317
  47   2.0000      -0.269721        -7.3395
  48   2.0000      -0.265944        -7.2367
  49   2.0000      -0.255025        -6.9396
  50   2.0000      -0.233375        -6.3505
  51   0.0000       0.067710         1.8425
  52   0.0000       0.076876         2.0919
  53   0.0000       0.090399         2.4599
  54   0.0000       0.097455         2.6519
  55   0.0000       0.105668         2.8754

MULLIKEN ATOMIC CHARGES
-----------------------
   0 C :    0.295179
   1 C :   -0.254394
   2 C :   -0.310539
   3 C :   -0.017531
   4 O :   -0.512272
   5 H :    0.159428
   6 H :    0.143244
   7 H :    0.164881
   8 H :    0.148359
   9 H :    0.156330
  10 H :    0.141730
  11 H :    0.153731
  12 C :   -0.011818
  13 H :    0.162864
  14 H :    0.120269
  15 O :   -0.524860
  16 C :    0.071182
  17 C :    0.078578
  18 C :   -0.302154
  19 C :   -0.023903
  20 O :   -0.510823
  21 H :    0.164457
  22 O :   -0.603750
  23 H :    0.150228
  24 H :    0.163455
  25 H :    0.142704
  26 H :    0.146952
  27 H :    0.142459
  28 H :    0.366015
Sum of atomic charges:    0.0000000

LOEWDIN ATOMIC CHARGES
----------------------
   0 C :    0.182700
   1 C :   -0.220428
   2 C :   -0.219806
   3 C :   -0.032881
   4 O :   -0.318758
   5 H :    0.106699
   6 H :    0.113110
   7 H :    0.127856
   8 H :    0.117817
   9 H :    0.114814
  10 H :    0.101253
  11 H :    0.108515
  12 C :   -0.047053
  13 H :    0.114955
  14 H :    0.089790
  15 O :   -0.332000
  16 C :    0.015388
  17 C :    0.035009
  18 C :   -0.243325
  19 C :   -0.037642
  20 O :   -0.321586
  21 H :    0.119221
  22 O :   -0.415122
  23 H :    0.114472
  24 H :    0.126462
  25 H :    0.111439
  26 H :    0.104265
  27 H :    0.101004
  28 H :    0.283833

  Mayer bond orders larger than 0.100000
B(  0-C ,  1-C ) :   0.9289 B(  0-C ,  4-O ) :   0.9064 B(  0-C ,  5-H ) :   0.9287
B(  0-C , 15-O ) :   0.8524 B(  1-C ,  2-C ) :   0.9525 B(  1-C ,  6-H ) :   0.9351
B(  1-C ,  7-H ) :   0.9353 B(  2-C ,  3-C ) :   0.9531 B(  2-C ,  8-H ) :   0.9448
B(  2-C ,  9-H ) :   0.9452 B(  3-C ,  4-O ) :   0.8289 B(  3-C , 10-H ) :   0.9341
B(  3-C , 11-H ) :   0.9405 B( 12-C , 13-H ) :   0.8975 B( 12-C , 14-H ) :   0.9231
B( 12-C , 15-O ) :   0.8399 B( 12-C , 16-C ) :   0.9005 B( 16-C , 17-C ) :   0.8983
B( 16-C , 20-O ) :   0.8624 B( 16-C , 21-H ) :   0.9251 B( 17-C , 18-C ) :   0.9113
B( 17-C , 22-O ) :   0.8913 B( 17-C , 23-H ) :   0.9333 B( 18-C , 19-C ) :   0.9408
B( 18-C , 24-H ) :   0.9369 B( 18-C , 25-H ) :   0.9341 B( 19-C , 20-O ) :   0.8526
B( 19-C , 26-H ) :   0.9343 B( 19-C , 27-H ) :   0.9380 B( 22-O , 28-H ) :   0.7935

FINAL SINGLE POINT ENERGY      -652.857921964696

DIPOLE MOMENT
-------------
                                X             Y             Z
Electronic contribution:     -2.09681      -5.29282      -2.39341
Nuclear contribution   :      2.65709       6.53880       2.89446
                        -----------------------------------------
Total Dipole Moment    :      0.56027       1.24599       0.50105
                        -----------------------------------------
Magnitude (a.u.)       :      1.45514
Magnitude (Debye)      :      3.69868

Rotational constants in cm-1:     0.058675     0.012275     0.011831
Rotational constants in MHz :  1759.043708   368.004308   354.675532

                             ****ORCA TERMINATED NORMALLY****
TOTAL RUN TIME: 0 days 0 hours 59 minutes 32 seconds 696 msec
