                         Program Version 4.2.0 -  RELEASE  -
|  1> # Test redundant internal optimization
|  2> #
|  3> ! RKS B3LYP  Opt TightSCF SmallPrint
|  4>
|  5> %basis
|  6>         Basis "6-31G"
|  7> end
|  8>
|  9> %geom
| 10> Constraints
| 11> { D 4  0  15  12  210.0   C } # D for Dihedral angle
| 12> { D 0  15  12  16  150.0   C } # D for Dihedral angle
| 13> { D 0  4  3  2   C } # D for Dihedral angle
| 14> { D 4  3  2  1   C } # D for Dihedral angle
| 15> { D 3  2  1  0   C } # D for Dihedral angle
| 16> { D 2  1  0  4   C } # D for Dihedral angle
| 17> { D 1  0  4  3   C } # D for Dihedral angle
| 18> { D 16  20  19  18   C } # D for Dihedral angle
| 19> { D 20  19  18  17   C } # D for Dihedral angle
| 20> { D 19  18  17  16   C } # D for Dihedral angle
| 21> { D 18  17  16  20   C } # D for Dihedral angle
| 22> { D 17  16  20  19   C } # D for Dihedral angle
| 23> { D 15  12  16  20   C } # D for Dihedral angle
| 24> end
| 25> end
| 26>
| 27>
| 28> #%pal
| 29> #nprocs 8
| 30> #end
| 31>
| 32> * xyz 0 1
| 33> C  -21.048   26.222   46.251
| 34> C  -20.361   27.558   45.944
| 35> C  -20.329   28.222   47.341
| 36> C  -20.110   27.022   48.296
| 37> O  -20.473   25.807   47.535
| 38> H  -20.833   25.428   45.533
| 39> H  -19.344   27.382   45.576
| 40> H  -20.898   28.157   45.201
| 41> H  -19.543   28.978   47.434
| 42> H  -21.289   28.710   47.548
| 43> H  -20.733   27.082   49.195
| 44> H  -19.064   26.913   48.597
| 45> C  -23.389   26.110   45.076
| 46> H  -23.479   27.038   44.497
| 47> H  -22.869   25.368   44.457
| 48> O  -22.586   26.394   46.375
| 49> C  -24.818   25.571   45.359
| 50> C  -24.776   24.320   46.245
| 51> C  -24.564   24.937   47.648
| 52> C  -25.373   26.256   47.579
| 53> O  -25.587   26.542   46.143
| 54> H  -25.344   25.436   44.413
| 55> O  -26.134   23.571   46.175
| 56> H  -23.981   23.620   45.965
| 57> H  -24.904   24.281   48.457
| 58> H  -23.499   25.145   47.812
| 59> H  -24.844   27.098   48.038
| 60> H  -26.361   26.165   48.040
| 61> H  -26.946   24.253   46.453
| 62> *
| 63>
| 64>                          ****END OF INPUT****
 Total Charge           Charge          ....    0
 Multiplicity           Mult            ....    1
 Number of Electrons    NEL             ....  102
FINAL SINGLE POINT ENERGY      -652.835775568394
FINAL SINGLE POINT ENERGY      -652.858454663683
FINAL SINGLE POINT ENERGY      -652.862384795726
FINAL SINGLE POINT ENERGY      -652.863566591018
FINAL SINGLE POINT ENERGY      -652.863691580672
FINAL SINGLE POINT ENERGY      -652.863708241857
                    ***********************HURRAY********************

CARTESIAN COORDINATES (ANGSTROEM)
---------------------------------
  C    -21.084111   26.213991   46.184562
  C    -20.377409   27.537642   45.899149
  C    -20.415405   28.225131   47.284510
  C    -20.254820   27.042766   48.263077
  O    -20.591039   25.824012   47.476542
  H    -20.859729   25.400380   45.485565
  H    -19.345211   27.339737   45.586579
  H    -20.872252   28.121076   45.117809
  H    -19.628092   28.975311   47.403817
  H    -21.384299   28.713265   47.425194
  H    -20.926757   27.097895   49.122746
  H    -19.226448   26.913616   48.612405
  C    -23.303428   26.124449   45.087014
  H    -23.401208   27.044805   44.496175
  H    -22.802425   25.364135   44.465640
  O    -22.522181   26.391258   46.283441
  C    -24.699469   25.628087   45.457917
  C    -24.775406   24.337018   46.287588
  C    -24.578777   24.875455   47.729979
  C    -25.296525   26.246875   47.690595
  O    -25.432511   26.608911   46.258438
  H    -25.260143   25.503966   44.523184
  O    -26.066004   23.687735   46.102154
  H    -24.037229   23.586618   46.003214
  H    -25.015721   24.187626   48.460027
  H    -23.514082   25.001945   47.930736
  H    -24.723176   27.029511   48.194316
  H    -26.307524   26.214834   48.110068
  H    -26.777619   24.347952   46.240561

 Multiplicity           Mult            ....    1
 Number of Electrons    NEL             ....  102
 Basis Dimension        Dim             ....  149

ORBITAL ENERGIES
----------------

  NO   OCC          E(Eh)            E(eV)
   0   2.0000     -19.147721      -521.0360
   1   2.0000     -19.146886      -521.0132
   2   2.0000     -19.134306      -520.6709
   3   2.0000     -19.131887      -520.6051
   4   2.0000     -10.286347      -279.9057
   5   2.0000     -10.237052      -278.5643
   6   2.0000     -10.232921      -278.4519
   7   2.0000     -10.231914      -278.4245
   8   2.0000     -10.229647      -278.3628
   9   2.0000     -10.218506      -278.0597
  10   2.0000     -10.190473      -277.2969
  11   2.0000     -10.189711      -277.2761
  12   2.0000     -10.169751      -276.7330
  13   2.0000      -1.059990       -28.8438
  14   2.0000      -1.029199       -28.0059
  15   2.0000      -1.003436       -27.3049
  16   2.0000      -0.994906       -27.0728
  17   2.0000      -0.791406       -21.5353
  18   2.0000      -0.775155       -21.0930
  19   2.0000      -0.760446       -20.6928
  20   2.0000      -0.734223       -19.9792
  21   2.0000      -0.674413       -18.3517
  22   2.0000      -0.604296       -16.4437
  23   2.0000      -0.598954       -16.2984
  24   2.0000      -0.592008       -16.1094
  25   2.0000      -0.576971       -15.7002
  26   2.0000      -0.527900       -14.3649
  27   2.0000      -0.501717       -13.6524
  28   2.0000      -0.501357       -13.6426
  29   2.0000      -0.487815       -13.2741
  30   2.0000      -0.474699       -12.9172
  31   2.0000      -0.452740       -12.3197
  32   2.0000      -0.450137       -12.2488
  33   2.0000      -0.439417       -11.9571
  34   2.0000      -0.424354       -11.5473
  35   2.0000      -0.410761       -11.1774
  36   2.0000      -0.403080       -10.9684
  37   2.0000      -0.383309       -10.4304
  38   2.0000      -0.374843       -10.2000
  39   2.0000      -0.365008        -9.9324
  40   2.0000      -0.360444        -9.8082
  41   2.0000      -0.355299        -9.6682
  42   2.0000      -0.353412        -9.6168
  43   2.0000      -0.326760        -8.8916
  44   2.0000      -0.317216        -8.6319
  45   2.0000      -0.312524        -8.5042
  46   2.0000      -0.299472        -8.1491
  47   2.0000      -0.269076        -7.3219
  48   2.0000      -0.263045        -7.1578
  49   2.0000      -0.256825        -6.9886
  50   2.0000      -0.237658        -6.4670
  51   0.0000       0.067367         1.8332
  52   0.0000       0.080668         2.1951
  53   0.0000       0.089870         2.4455
  54   0.0000       0.103998         2.8299
  55   0.0000       0.110252         3.0001

MULLIKEN ATOMIC CHARGES
-----------------------
   0 C :    0.295826
   1 C :   -0.261023
   2 C :   -0.300292
   3 C :   -0.003938
   4 O :   -0.505967
   5 H :    0.139586
   6 H :    0.145092
   7 H :    0.148014
   8 H :    0.144096
   9 H :    0.165207
  10 H :    0.152750
  11 H :    0.144260
  12 C :    0.000407
  13 H :    0.147645
  14 H :    0.122019
  15 O :   -0.518497
  16 C :    0.071010
  17 C :    0.073556
  18 C :   -0.294562
  19 C :   -0.019825
  20 O :   -0.527256
  21 H :    0.153505
  22 O :   -0.602278
  23 H :    0.149604
  24 H :    0.145139
  25 H :    0.190123
  26 H :    0.149861
  27 H :    0.134068
  28 H :    0.361870
Sum of atomic charges:    0.0000000

LOEWDIN ATOMIC CHARGES
----------------------
   0 C :    0.178381
   1 C :   -0.226323
   2 C :   -0.216581
   3 C :   -0.025729
   4 O :   -0.309933
   5 H :    0.096217
   6 H :    0.114132
   7 H :    0.117683
   8 H :    0.115560
   9 H :    0.120658
  10 H :    0.108414
  11 H :    0.103693
  12 C :   -0.037598
  13 H :    0.103437
  14 H :    0.094270
  15 O :   -0.330745
  16 C :    0.013389
  17 C :    0.039296
  18 C :   -0.244642
  19 C :   -0.033020
  20 O :   -0.331253
  21 H :    0.114872
  22 O :   -0.417395
  23 H :    0.114983
  24 H :    0.116773
  25 H :    0.137416
  26 H :    0.107310
  27 H :    0.095241
  28 H :    0.281496

  Mayer bond orders larger than 0.100000
B(  0-C ,  1-C ) :   0.9334 B(  0-C ,  4-O ) :   0.9308 B(  0-C ,  5-H ) :   0.9174
B(  0-C , 15-O ) :   0.8300 B(  1-C ,  2-C ) :   0.9540 B(  1-C ,  6-H ) :   0.9342
B(  1-C ,  7-H ) :   0.9375 B(  2-C ,  3-C ) :   0.9554 B(  2-C ,  8-H ) :   0.9448
B(  2-C ,  9-H ) :   0.9431 B(  3-C ,  4-O ) :   0.8328 B(  3-C , 10-H ) :   0.9349
B(  3-C , 11-H ) :   0.9396 B( 12-C , 13-H ) :   0.9183 B( 12-C , 14-H ) :   0.9069
B( 12-C , 15-O ) :   0.8416 B( 12-C , 16-C ) :   0.9061 B( 16-C , 17-C ) :   0.9075
B( 16-C , 20-O ) :   0.8763 B( 16-C , 21-H ) :   0.9208 B( 17-C , 18-C ) :   0.9250
B( 17-C , 22-O ) :   0.8924 B( 17-C , 23-H ) :   0.9360 B( 18-C , 19-C ) :   0.9472
B( 18-C , 24-H ) :   0.9375 B( 18-C , 25-H ) :   0.9112 B( 19-C , 20-O ) :   0.8355
B( 19-C , 26-H ) :   0.9346 B( 19-C , 27-H ) :   0.9378 B( 22-O , 28-H ) :   0.7965

FINAL SINGLE POINT ENERGY      -652.863708203539

DIPOLE MOMENT
-------------
                                X             Y             Z
Electronic contribution:     -3.59755      -3.01932      -1.39776
Nuclear contribution   :      4.53680       3.89076       1.24110
                        -----------------------------------------
Total Dipole Moment    :      0.93926       0.87144      -0.15666
                        -----------------------------------------
Magnitude (a.u.)       :      1.29079
Magnitude (Debye)      :      3.28094

Rotational constants in cm-1:     0.055442     0.014059     0.013669
Rotational constants in MHz :  1662.106956   421.473556   409.798498

                             ****ORCA TERMINATED NORMALLY****
TOTAL RUN TIME: 0 days 0 hours 24 minutes 38 seconds 946 msec
