                         Program Version 4.2.0 -  RELEASE  -
|  1> # Test redundant internal optimization
|  2> #
|  3> ! RKS B3LYP  Opt TightSCF SmallPrint
|  4>
|  5> %basis
|  6>         Basis "6-31G"
|  7> end
|  8>
|  9> %geom
| 10> Constraints
| 11> { D 4  0  15  12  255.0   C } # D for Dihedral angle
| 12> { D 0  15  12  16  105.0   C } # D for Dihedral angle
| 13> { D 0  4  3  2   C } # D for Dihedral angle
| 14> { D 4  3  2  1   C } # D for Dihedral angle
| 15> { D 3  2  1  0   C } # D for Dihedral angle
| 16> { D 2  1  0  4   C } # D for Dihedral angle
| 17> { D 1  0  4  3   C } # D for Dihedral angle
| 18> { D 16  20  19  18   C } # D for Dihedral angle
| 19> { D 20  19  18  17   C } # D for Dihedral angle
| 20> { D 19  18  17  16   C } # D for Dihedral angle
| 21> { D 18  17  16  20   C } # D for Dihedral angle
| 22> { D 17  16  20  19   C } # D for Dihedral angle
| 23> { D 15  12  16  20   C } # D for Dihedral angle
| 24> end
| 25> end
| 26>
| 27>
| 28> #%pal
| 29> #nprocs 8
| 30> #end
| 31>
| 32> * xyz 0 1
| 33> C  -21.048   26.222   46.251
| 34> C  -20.361   27.558   45.944
| 35> C  -20.329   28.222   47.341
| 36> C  -20.110   27.022   48.296
| 37> O  -20.473   25.807   47.535
| 38> H  -20.833   25.428   45.533
| 39> H  -19.344   27.382   45.576
| 40> H  -20.898   28.157   45.201
| 41> H  -19.543   28.978   47.434
| 42> H  -21.289   28.710   47.548
| 43> H  -20.733   27.082   49.195
| 44> H  -19.064   26.913   48.597
| 45> C  -23.431   25.260   45.734
| 46> H  -24.247   25.703   45.149
| 47> H  -22.813   24.656   45.056
| 48> O  -22.586   26.394   46.375
| 49> C  -24.050   24.302   46.789
| 50> C  -24.779   23.132   46.119
| 51> C  -23.600   22.203   45.741
| 52> C  -22.605   22.404   46.911
| 53> O  -22.995   23.663   47.582
| 54> H  -24.665   24.881   47.481
| 55> O  -25.720   22.435   47.139
| 56> H  -25.375   23.436   45.251
| 57> H  -23.903   21.157   45.626
| 58> H  -23.153   22.528   44.794
| 59> H  -21.567   22.487   46.569
| 60> H  -22.670   21.607   47.657
| 61> H  -25.144   22.121   48.017
| 62> *
| 63>
| 64>                          ****END OF INPUT****
 Total Charge           Charge          ....    0
 Multiplicity           Mult            ....    1
 Number of Electrons    NEL             ....  102
FINAL SINGLE POINT ENERGY      -652.832256536829
FINAL SINGLE POINT ENERGY      -652.855093878691
FINAL SINGLE POINT ENERGY      -652.859238214963
FINAL SINGLE POINT ENERGY      -652.859941312148
FINAL SINGLE POINT ENERGY      -652.860014748850
FINAL SINGLE POINT ENERGY      -652.860025200681
FINAL SINGLE POINT ENERGY      -652.860027380724
                    ***********************HURRAY********************

CARTESIAN COORDINATES (ANGSTROEM)
---------------------------------
  C    -21.020562   26.184559   46.204152
  C    -20.469102   27.589730   45.964410
  C    -20.485963   28.189066   47.392068
  C    -20.144634   26.970632   48.278386
  O    -20.405908   25.774964   47.440426
  H    -20.755228   25.433641   45.453559
  H    -19.442239   27.517414   45.586143
  H    -21.072910   28.153706   45.250674
  H    -19.772060   29.009118   47.514327
  H    -21.488451   28.563018   47.620224
  H    -20.760951   26.907941   49.178270
  H    -19.087568   26.932503   48.559408
  C    -23.283439   25.260655   45.705463
  H    -24.096753   25.773303   45.177410
  H    -22.693614   24.697030   44.966989
  O    -22.462141   26.292590   46.305775
  C    -23.882060   24.319643   46.752349
  C    -24.726422   23.184688   46.156331
  C    -23.637713   22.143681   45.781774
  C    -22.591524   22.311954   46.911268
  O    -22.858543   23.629763   47.537356
  H    -24.461706   24.915788   47.463646
  O    -25.655537   22.657365   47.142892
  H    -25.346413   23.484971   45.309726
  H    -24.066251   21.139435   45.739980
  H    -23.209014   22.375201   44.800257
  H    -21.560933   22.296009   46.545714
  H    -22.694597   21.555312   47.695695
  H    -25.195763   22.586320   48.006326

 Multiplicity           Mult            ....    1
 Number of Electrons    NEL             ....  102
 Basis Dimension        Dim             ....  149

ORBITAL ENERGIES
----------------

  NO   OCC          E(Eh)            E(eV)
   0   2.0000     -19.139365      -520.8086
   1   2.0000     -19.137744      -520.7645
   2   2.0000     -19.137633      -520.7615
   3   2.0000     -19.129894      -520.5509
   4   2.0000     -10.275131      -279.6005
   5   2.0000     -10.242062      -278.7007
   6   2.0000     -10.234206      -278.4869
   7   2.0000     -10.230080      -278.3746
   8   2.0000     -10.227271      -278.2982
   9   2.0000     -10.216964      -278.0177
  10   2.0000     -10.188726      -277.2493
  11   2.0000     -10.179701      -277.0037
  12   2.0000     -10.179370      -276.9947
  13   2.0000      -1.047310       -28.4988
  14   2.0000      -1.033450       -28.1216
  15   2.0000      -1.004095       -27.3228
  16   2.0000      -0.989872       -26.9358
  17   2.0000      -0.786390       -21.3988
  18   2.0000      -0.778289       -21.1783
  19   2.0000      -0.764154       -20.7937
  20   2.0000      -0.726954       -19.7814
  21   2.0000      -0.672583       -18.3019
  22   2.0000      -0.602391       -16.3919
  23   2.0000      -0.592658       -16.1270
  24   2.0000      -0.591457       -16.0944
  25   2.0000      -0.582033       -15.8379
  26   2.0000      -0.523565       -14.2469
  27   2.0000      -0.509862       -13.8741
  28   2.0000      -0.492499       -13.4016
  29   2.0000      -0.482708       -13.1352
  30   2.0000      -0.472324       -12.8526
  31   2.0000      -0.455396       -12.3920
  32   2.0000      -0.451439       -12.2843
  33   2.0000      -0.435415       -11.8482
  34   2.0000      -0.422961       -11.5094
  35   2.0000      -0.408069       -11.1041
  36   2.0000      -0.393932       -10.7194
  37   2.0000      -0.392119       -10.6701
  38   2.0000      -0.372586       -10.1386
  39   2.0000      -0.368974       -10.0403
  40   2.0000      -0.352303        -9.5866
  41   2.0000      -0.350631        -9.5412
  42   2.0000      -0.344086        -9.3630
  43   2.0000      -0.333022        -9.0620
  44   2.0000      -0.313195        -8.5225
  45   2.0000      -0.302559        -8.2330
  46   2.0000      -0.300309        -8.1718
  47   2.0000      -0.270311        -7.3555
  48   2.0000      -0.265109        -7.2140
  49   2.0000      -0.249166        -6.7801
  50   2.0000      -0.232291        -6.3210
  51   0.0000       0.064848         1.7646
  52   0.0000       0.085020         2.3135
  53   0.0000       0.087453         2.3797
  54   0.0000       0.101817         2.7706
  55   0.0000       0.110176         2.9980

MULLIKEN ATOMIC CHARGES
-----------------------
   0 C :    0.295583
   1 C :   -0.256309
   2 C :   -0.299526
   3 C :   -0.000145
   4 O :   -0.492120
   5 H :    0.133327
   6 H :    0.140402
   7 H :    0.147265
   8 H :    0.137875
   9 H :    0.162120
  10 H :    0.152453
  11 H :    0.137400
  12 C :   -0.006521
  13 H :    0.142124
  14 H :    0.117461
  15 O :   -0.514416
  16 C :    0.075781
  17 C :    0.074288
  18 C :   -0.290375
  19 C :   -0.030278
  20 O :   -0.502431
  21 H :    0.166755
  22 O :   -0.603835
  23 H :    0.149632
  24 H :    0.161786
  25 H :    0.137142
  26 H :    0.151294
  27 H :    0.146806
  28 H :    0.366461
Sum of atomic charges:   -0.0000000

LOEWDIN ATOMIC CHARGES
----------------------
   0 C :    0.178060
   1 C :   -0.219953
   2 C :   -0.216640
   3 C :   -0.026642
   4 O :   -0.311276
   5 H :    0.093998
   6 H :    0.111144
   7 H :    0.118714
   8 H :    0.111934
   9 H :    0.119064
  10 H :    0.108320
  11 H :    0.100032
  12 C :   -0.036714
  13 H :    0.107652
  14 H :    0.090359
  15 O :   -0.323734
  16 C :    0.008795
  17 C :    0.033366
  18 C :   -0.240236
  19 C :   -0.038261
  20 O :   -0.315919
  21 H :    0.119433
  22 O :   -0.415275
  23 H :    0.113946
  24 H :    0.126379
  25 H :    0.109455
  26 H :    0.106833
  27 H :    0.102941
  28 H :    0.284224

  Mayer bond orders larger than 0.100000
B(  0-C ,  1-C ) :   0.9439 B(  0-C ,  4-O ) :   0.9337 B(  0-C ,  5-H ) :   0.9192
B(  0-C , 15-O ) :   0.8425 B(  1-C ,  2-C ) :   0.9593 B(  1-C ,  6-H ) :   0.9390
B(  1-C ,  7-H ) :   0.9382 B(  2-C ,  3-C ) :   0.9533 B(  2-C ,  8-H ) :   0.9455
B(  2-C ,  9-H ) :   0.9441 B(  3-C ,  4-O ) :   0.8418 B(  3-C , 10-H ) :   0.9343
B(  3-C , 11-H ) :   0.9400 B( 12-C , 13-H ) :   0.9268 B( 12-C , 14-H ) :   0.9213
B( 12-C , 15-O ) :   0.8672 B( 12-C , 16-C ) :   0.8827 B( 16-C , 17-C ) :   0.8941
B( 16-C , 20-O ) :   0.8736 B( 16-C , 21-H ) :   0.9253 B( 17-C , 18-C ) :   0.9103
B( 17-C , 22-O ) :   0.8915 B( 17-C , 23-H ) :   0.9329 B( 18-C , 19-C ) :   0.9374
B( 18-C , 24-H ) :   0.9378 B( 18-C , 25-H ) :   0.9350 B( 19-C , 20-O ) :   0.8523
B( 19-C , 26-H ) :   0.9335 B( 19-C , 27-H ) :   0.9377 B( 22-O , 28-H ) :   0.7928

FINAL SINGLE POINT ENERGY      -652.860027659450

DIPOLE MOMENT
-------------
                                X             Y             Z
Electronic contribution:     -2.72275      -1.92819       2.11274
Nuclear contribution   :      3.26134       2.12253      -2.94912
                        -----------------------------------------
Total Dipole Moment    :      0.53859       0.19434      -0.83638
                        -----------------------------------------
Magnitude (a.u.)       :      1.01359
Magnitude (Debye)      :      2.57635

Rotational constants in cm-1:     0.063877     0.012875     0.012282
Rotational constants in MHz :  1914.970828   385.970669   368.211313

                             ****ORCA TERMINATED NORMALLY****
TOTAL RUN TIME: 0 days 0 hours 33 minutes 20 seconds 343 msec
