                         Program Version 4.2.0 -  RELEASE  -
|  1> # Test redundant internal optimization
|  2> #
|  3> ! RKS B3LYP  Opt TightSCF SmallPrint
|  4>
|  5> %basis
|  6>         Basis "6-31G"
|  7> end
|  8>
|  9> %geom
| 10> Constraints
| 11> { D 4  0  15  12  270.0   C } # D for Dihedral angle
| 12> { D 0  15  12  16  120.0   C } # D for Dihedral angle
| 13> { D 0  4  3  2   C } # D for Dihedral angle
| 14> { D 4  3  2  1   C } # D for Dihedral angle
| 15> { D 3  2  1  0   C } # D for Dihedral angle
| 16> { D 2  1  0  4   C } # D for Dihedral angle
| 17> { D 1  0  4  3   C } # D for Dihedral angle
| 18> { D 16  20  19  18   C } # D for Dihedral angle
| 19> { D 20  19  18  17   C } # D for Dihedral angle
| 20> { D 19  18  17  16   C } # D for Dihedral angle
| 21> { D 18  17  16  20   C } # D for Dihedral angle
| 22> { D 17  16  20  19   C } # D for Dihedral angle
| 23> { D 15  12  16  20   C } # D for Dihedral angle
| 24> end
| 25> end
| 26>
| 27>
| 28> #%pal
| 29> #nprocs 8
| 30> #end
| 31>
| 32> * xyz 0 1
| 33> C  -21.048   26.222   46.251
| 34> C  -20.361   27.558   45.944
| 35> C  -20.329   28.222   47.341
| 36> C  -20.110   27.022   48.296
| 37> O  -20.473   25.807   47.535
| 38> H  -20.833   25.428   45.533
| 39> H  -19.344   27.382   45.576
| 40> H  -20.898   28.157   45.201
| 41> H  -19.543   28.978   47.434
| 42> H  -21.289   28.710   47.548
| 43> H  -20.733   27.082   49.195
| 44> H  -19.064   26.913   48.597
| 45> C  -23.420   25.119   46.072
| 46> H  -24.087   25.316   45.224
| 47> H  -22.760   24.284   45.803
| 48> O  -22.586   26.394   46.375
| 49> C  -24.285   24.666   47.281
| 50> C  -23.427   24.458   48.534
| 51> C  -23.229   25.913   49.023
| 52> C  -24.575   26.591   48.664
| 53> O  -25.228   25.723   47.660
| 54> H  -24.878   23.797   46.990
| 55> O  -24.212   23.629   49.586
| 56> H  -22.480   23.948   48.328
| 57> H  -23.003   25.975   50.093
| 58> H  -22.402   26.384   48.479
| 59> H  -24.441   27.592   48.241
| 60> H  -25.251   26.657   49.521
| 61> H  -25.165   24.122   49.808
| 62> *
| 63>
| 64>                          ****END OF INPUT****
 Total Charge           Charge          ....    0
 Multiplicity           Mult            ....    1
 Number of Electrons    NEL             ....  102
FINAL SINGLE POINT ENERGY      -652.833708737216
FINAL SINGLE POINT ENERGY      -652.856729873291
FINAL SINGLE POINT ENERGY      -652.861484389831
FINAL SINGLE POINT ENERGY      -652.864718216300
FINAL SINGLE POINT ENERGY      -652.865022215449
FINAL SINGLE POINT ENERGY      -652.865071740597
FINAL SINGLE POINT ENERGY      -652.865075492759
                    ***********************HURRAY********************

CARTESIAN COORDINATES (ANGSTROEM)
---------------------------------
  C    -21.029765   26.194914   46.247099
  C    -20.380733   27.520949   45.843736
  C    -20.306514   28.262410   47.200166
  C    -20.029647   27.123580   48.207946
  O    -20.406460   25.863384   47.512404
  H    -20.805328   25.355392   45.580624
  H    -19.377858   27.323701   45.449251
  H    -20.966072   28.051693   45.090755
  H    -19.527025   29.030257   47.220745
  H    -21.267478   28.742299   47.410480
  H    -20.611579   27.212097   49.128469
  H    -18.969890   27.029896   48.462321
  C    -23.284166   25.183265   46.121893
  H    -23.933643   25.414395   45.270686
  H    -22.647725   24.327424   45.855915
  O    -22.458401   26.374396   46.331154
  C    -24.187721   24.786683   47.289718
  C    -23.528904   24.428830   48.627824
  C    -23.359444   25.824280   49.278511
  C    -24.616862   26.590563   48.797557
  O    -25.141106   25.844024   47.630124
  H    -24.782802   23.934524   46.935500
  O    -24.395816   23.552899   49.404309
  H    -22.585770   23.891966   48.527309
  H    -23.296579   25.742301   50.367188
  H    -22.452668   26.281366   48.889810
  H    -24.389589   27.613280   48.484875
  H    -25.414539   26.615777   49.548284
  H    -25.299919   23.932455   49.418347

 Multiplicity           Mult            ....    1
 Number of Electrons    NEL             ....  102
 Basis Dimension        Dim             ....  149

ORBITAL ENERGIES
----------------

  NO   OCC          E(Eh)            E(eV)
   0   2.0000     -19.151456      -521.1376
   1   2.0000     -19.148961      -521.0697
   2   2.0000     -19.134906      -520.6873
   3   2.0000     -19.130968      -520.5801
   4   2.0000     -10.285272      -279.8765
   5   2.0000     -10.234215      -278.4872
   6   2.0000     -10.231629      -278.4168
   7   2.0000     -10.231176      -278.4044
   8   2.0000     -10.230933      -278.3978
   9   2.0000     -10.220879      -278.1243
  10   2.0000     -10.191036      -277.3122
  11   2.0000     -10.190033      -277.2849
  12   2.0000     -10.173182      -276.8264
  13   2.0000      -1.058380       -28.8000
  14   2.0000      -1.029284       -28.0082
  15   2.0000      -1.003216       -27.2989
  16   2.0000      -0.995884       -27.0994
  17   2.0000      -0.793340       -21.5879
  18   2.0000      -0.774108       -21.0645
  19   2.0000      -0.762850       -20.7582
  20   2.0000      -0.735414       -20.0116
  21   2.0000      -0.674615       -18.3572
  22   2.0000      -0.604523       -16.4499
  23   2.0000      -0.599898       -16.3241
  24   2.0000      -0.593290       -16.1442
  25   2.0000      -0.578758       -15.7488
  26   2.0000      -0.524951       -14.2846
  27   2.0000      -0.503642       -13.7048
  28   2.0000      -0.500547       -13.6206
  29   2.0000      -0.490220       -13.3396
  30   2.0000      -0.472098       -12.8464
  31   2.0000      -0.455262       -12.3883
  32   2.0000      -0.443764       -12.0754
  33   2.0000      -0.441610       -12.0168
  34   2.0000      -0.427471       -11.6321
  35   2.0000      -0.409978       -11.1561
  36   2.0000      -0.405680       -11.0391
  37   2.0000      -0.384554       -10.4643
  38   2.0000      -0.370056       -10.0697
  39   2.0000      -0.364066        -9.9067
  40   2.0000      -0.363527        -9.8921
  41   2.0000      -0.357108        -9.7174
  42   2.0000      -0.347416        -9.4537
  43   2.0000      -0.331424        -9.0185
  44   2.0000      -0.323480        -8.8023
  45   2.0000      -0.309208        -8.4140
  46   2.0000      -0.300301        -8.1716
  47   2.0000      -0.278448        -7.5769
  48   2.0000      -0.262586        -7.1453
  49   2.0000      -0.260163        -7.0794
  50   2.0000      -0.236317        -6.4305
  51   0.0000       0.065385         1.7792
  52   0.0000       0.083049         2.2599
  53   0.0000       0.086694         2.3591
  54   0.0000       0.104812         2.8521
  55   0.0000       0.109035         2.9670

MULLIKEN ATOMIC CHARGES
-----------------------
   0 C :    0.284371
   1 C :   -0.257974
   2 C :   -0.300424
   3 C :   -0.010473
   4 O :   -0.511393
   5 H :    0.144164
   6 H :    0.147599
   7 H :    0.159154
   8 H :    0.145151
   9 H :    0.162072
  10 H :    0.141662
  11 H :    0.147403
  12 C :   -0.002332
  13 H :    0.158812
  14 H :    0.128538
  15 O :   -0.517757
  16 C :    0.069237
  17 C :    0.072979
  18 C :   -0.306355
  19 C :   -0.026617
  20 O :   -0.525165
  21 H :    0.153675
  22 O :   -0.602967
  23 H :    0.163922
  24 H :    0.148392
  25 H :    0.184576
  26 H :    0.151219
  27 H :    0.137364
  28 H :    0.361167
Sum of atomic charges:   -0.0000000

LOEWDIN ATOMIC CHARGES
----------------------
   0 C :    0.170882
   1 C :   -0.215206
   2 C :   -0.216389
   3 C :   -0.031371
   4 O :   -0.330128
   5 H :    0.096206
   6 H :    0.115563
   7 H :    0.125397
   8 H :    0.115694
   9 H :    0.118415
  10 H :    0.101242
  11 H :    0.105244
  12 C :   -0.035793
  13 H :    0.114874
  14 H :    0.100890
  15 O :   -0.325522
  16 C :    0.008201
  17 C :    0.038082
  18 C :   -0.243737
  19 C :   -0.035697
  20 O :   -0.331194
  21 H :    0.115969
  22 O :   -0.417748
  23 H :    0.121828
  24 H :    0.119417
  25 H :    0.130567
  26 H :    0.107110
  27 H :    0.096408
  28 H :    0.280795

  Mayer bond orders larger than 0.100000
B(  0-C ,  1-C ) :   0.9439 B(  0-C ,  4-O ) :   0.9000 B(  0-C ,  5-H ) :   0.9189
B(  0-C , 15-O ) :   0.8696 B(  1-C ,  2-C ) :   0.9572 B(  1-C ,  6-H ) :   0.9392
B(  1-C ,  7-H ) :   0.9365 B(  2-C ,  3-C ) :   0.9541 B(  2-C ,  8-H ) :   0.9449
B(  2-C ,  9-H ) :   0.9443 B(  3-C ,  4-O ) :   0.8339 B(  3-C , 10-H ) :   0.9282
B(  3-C , 11-H ) :   0.9414 B( 12-C , 13-H ) :   0.9287 B( 12-C , 14-H ) :   0.9106
B( 12-C , 15-O ) :   0.8485 B( 12-C , 16-C ) :   0.9024 B( 16-C , 17-C ) :   0.9090
B( 16-C , 20-O ) :   0.8698 B( 16-C , 21-H ) :   0.9164 B( 17-C , 18-C ) :   0.9238
B( 17-C , 22-O ) :   0.8883 B( 17-C , 23-H ) :   0.9306 B( 18-C , 19-C ) :   0.9459
B( 18-C , 24-H ) :   0.9387 B( 18-C , 25-H ) :   0.9027 B( 19-C , 20-O ) :   0.8393
B( 19-C , 26-H ) :   0.9338 B( 19-C , 27-H ) :   0.9366 B( 22-O , 28-H ) :   0.7969

FINAL SINGLE POINT ENERGY      -652.865074060442

DIPOLE MOMENT
-------------
                                X             Y             Z
Electronic contribution:     -3.70185      -4.16047      -0.58844
Nuclear contribution   :      4.48115       5.01044       0.18499
                        -----------------------------------------
Total Dipole Moment    :      0.77930       0.84997      -0.40345
                        -----------------------------------------
Magnitude (a.u.)       :      1.22169
Magnitude (Debye)      :      3.10528

Rotational constants in cm-1:     0.048187     0.016534     0.015620
Rotational constants in MHz :  1444.623140   495.672103   468.266860

                             ****ORCA TERMINATED NORMALLY****
TOTAL RUN TIME: 0 days 0 hours 26 minutes 38 seconds 929 msec
