                         Program Version 4.2.0 -  RELEASE  -
|  1> # Test redundant internal optimization
|  2> #
|  3> ! RKS B3LYP  Opt TightSCF SmallPrint
|  4>
|  5> %basis
|  6>         Basis "6-31G"
|  7> end
|  8>
|  9> %geom
| 10> Constraints
| 11> { D 4  0  15  12  120.0   C } # D for Dihedral angle
| 12> { D 0  15  12  16  150.0   C } # D for Dihedral angle
| 13> { D 0  4  3  2   C } # D for Dihedral angle
| 14> { D 4  3  2  1   C } # D for Dihedral angle
| 15> { D 3  2  1  0   C } # D for Dihedral angle
| 16> { D 2  1  0  4   C } # D for Dihedral angle
| 17> { D 1  0  4  3   C } # D for Dihedral angle
| 18> { D 16  20  19  18   C } # D for Dihedral angle
| 19> { D 20  19  18  17   C } # D for Dihedral angle
| 20> { D 19  18  17  16   C } # D for Dihedral angle
| 21> { D 18  17  16  20   C } # D for Dihedral angle
| 22> { D 17  16  20  19   C } # D for Dihedral angle
| 23> { D 15  12  16  20   C } # D for Dihedral angle
| 24> end
| 25> end
| 26>
| 27>
| 28> #%pal
| 29> #nprocs 8
| 30> #end
| 31>
| 32> * xyz 0 1
| 33> C  -21.048   26.222   46.251
| 34> C  -20.361   27.558   45.944
| 35> C  -20.329   28.222   47.341
| 36> C  -20.110   27.022   48.296
| 37> O  -20.473   25.807   47.535
| 38> H  -20.833   25.428   45.533
| 39> H  -19.344   27.382   45.576
| 40> H  -20.898   28.157   45.201
| 41> H  -19.543   28.978   47.434
| 42> H  -21.289   28.710   47.548
| 43> H  -20.733   27.082   49.195
| 44> H  -19.064   26.913   48.597
| 45> C  -23.119   27.818   46.058
| 46> H  -23.125   28.416   46.978
| 47> H  -22.468   28.318   45.329
| 48> O  -22.586   26.394   46.375
| 49> C  -24.559   27.804   45.475
| 50> C  -24.648   26.911   44.232
| 51> C  -24.725   25.501   44.864
| 52> C  -25.545   25.739   46.156
| 53> O  -25.492   27.192   46.427
| 54> H  -24.891   28.832   45.317
| 55> H  -25.564   27.135   43.673
| 56> O  -23.437   27.076   43.274
| 57> H  -25.193   24.764   44.203
| 58> H  -23.718   25.142   45.107
| 59> H  -25.139   25.198   47.017
| 60> H  -26.600   25.473   46.037
| 61> H  -22.509   26.857   43.812
| 62> *
| 63>
| 64>                          ****END OF INPUT****
 Total Charge           Charge          ....    0
 Multiplicity           Mult            ....    1
 Number of Electrons    NEL             ....  102
FINAL SINGLE POINT ENERGY      -652.815522146430
FINAL SINGLE POINT ENERGY      -652.840585961372
FINAL SINGLE POINT ENERGY      -652.849920438395
FINAL SINGLE POINT ENERGY      -652.852136311929
FINAL SINGLE POINT ENERGY      -652.852610991123
FINAL SINGLE POINT ENERGY      -652.852689787557
FINAL SINGLE POINT ENERGY      -652.852695835306
                    ***********************HURRAY********************

CARTESIAN COORDINATES (ANGSTROEM)
---------------------------------
  C    -21.135522   26.353735   46.344660
  C    -20.228533   27.532620   45.981067
  C    -20.091164   28.267541   47.341721
  C    -20.089203   27.100501   48.356496
  O    -20.654780   25.933910   47.635791
  H    -21.025255   25.481029   45.697278
  H    -19.260961   27.126337   45.667031
  H    -20.598535   28.170198   45.174460
  H    -19.178340   28.867851   47.397550
  H    -20.942882   28.935149   47.508080
  H    -20.699821   27.298891   49.241169
  H    -19.080429   26.817981   48.670414
  C    -23.175401   27.898440   46.107949
  H    -23.247204   28.489705   47.029022
  H    -22.592728   28.461389   45.369256
  O    -22.569427   26.607188   46.405912
  C    -24.583046   27.718469   45.541982
  C    -24.684164   26.915048   44.233845
  C    -24.746001   25.448265   44.759532
  C    -25.549325   25.594811   46.070229
  O    -25.494496   27.031642   46.443465
  H    -24.988695   28.729972   45.411069
  H    -25.602807   27.184164   43.707361
  O    -23.617874   27.177950   43.286196
  H    -25.225666   24.774533   44.043045
  H    -23.732645   25.097587   44.966842
  H    -25.126359   25.006661   46.888632
  H    -26.606425   25.340942   45.945389
  H    -22.815313   26.688492   43.559557

 Multiplicity           Mult            ....    1
 Number of Electrons    NEL             ....  102
 Basis Dimension        Dim             ....  149

ORBITAL ENERGIES
----------------

  NO   OCC          E(Eh)            E(eV)
   0   2.0000     -19.147037      -521.0174
   1   2.0000     -19.143980      -520.9342
   2   2.0000     -19.143408      -520.9186
   3   2.0000     -19.130603      -520.5702
   4   2.0000     -10.288656      -279.9686
   5   2.0000     -10.237717      -278.5824
   6   2.0000     -10.233565      -278.4695
   7   2.0000     -10.231098      -278.4023
   8   2.0000     -10.230004      -278.3725
   9   2.0000     -10.218565      -278.0613
  10   2.0000     -10.201396      -277.5941
  11   2.0000     -10.198482      -277.5148
  12   2.0000     -10.179844      -277.0076
  13   2.0000      -1.055660       -28.7260
  14   2.0000      -1.028049       -27.9746
  15   2.0000      -1.010209       -27.4892
  16   2.0000      -0.996184       -27.1075
  17   2.0000      -0.796411       -21.6714
  18   2.0000      -0.775555       -21.1039
  19   2.0000      -0.766683       -20.8625
  20   2.0000      -0.737086       -20.0571
  21   2.0000      -0.682570       -18.5737
  22   2.0000      -0.610672       -16.6172
  23   2.0000      -0.603347       -16.4179
  24   2.0000      -0.601311       -16.3625
  25   2.0000      -0.561555       -15.2807
  26   2.0000      -0.527148       -14.3444
  27   2.0000      -0.513189       -13.9646
  28   2.0000      -0.509781       -13.8718
  29   2.0000      -0.490938       -13.3591
  30   2.0000      -0.472631       -12.8609
  31   2.0000      -0.458371       -12.4729
  32   2.0000      -0.443008       -12.0549
  33   2.0000      -0.431820       -11.7504
  34   2.0000      -0.425311       -11.5733
  35   2.0000      -0.416621       -11.3368
  36   2.0000      -0.409123       -11.1328
  37   2.0000      -0.399794       -10.8790
  38   2.0000      -0.388648       -10.5757
  39   2.0000      -0.369656       -10.0589
  40   2.0000      -0.366544        -9.9742
  41   2.0000      -0.361002        -9.8234
  42   2.0000      -0.348613        -9.4862
  43   2.0000      -0.324807        -8.8384
  44   2.0000      -0.317690        -8.6448
  45   2.0000      -0.310060        -8.4372
  46   2.0000      -0.299388        -8.1468
  47   2.0000      -0.273022        -7.4293
  48   2.0000      -0.263095        -7.1592
  49   2.0000      -0.257483        -7.0065
  50   2.0000      -0.234978        -6.3941
  51   0.0000       0.050639         1.3779
  52   0.0000       0.076392         2.0787
  53   0.0000       0.085910         2.3377
  54   0.0000       0.094983         2.5846
  55   0.0000       0.100168         2.7257

MULLIKEN ATOMIC CHARGES
-----------------------
   0 C :    0.314355
   1 C :   -0.307504
   2 C :   -0.305801
   3 C :   -0.004451
   4 O :   -0.493962
   5 H :    0.149089
   6 H :    0.159352
   7 H :    0.149838
   8 H :    0.148950
   9 H :    0.154102
  10 H :    0.154157
  11 H :    0.146147
  12 C :   -0.013357
  13 H :    0.152145
  14 H :    0.134862
  15 O :   -0.537835
  16 C :    0.093267
  17 C :    0.083045
  18 C :   -0.315053
  19 C :   -0.002399
  20 O :   -0.518675
  21 H :    0.146197
  22 H :    0.161799
  23 O :   -0.608527
  24 H :    0.143884
  25 H :    0.161561
  26 H :    0.157646
  27 H :    0.140488
  28 H :    0.356680
Sum of atomic charges:   -0.0000000

LOEWDIN ATOMIC CHARGES
----------------------
   0 C :    0.176646
   1 C :   -0.234149
   2 C :   -0.218964
   3 C :   -0.028827
   4 O :   -0.311316
   5 H :    0.100998
   6 H :    0.124060
   7 H :    0.116069
   8 H :    0.117976
   9 H :    0.112427
  10 H :    0.108915
  11 H :    0.104765
  12 C :   -0.045941
  13 H :    0.105774
  14 H :    0.099247
  15 O :   -0.334933
  16 C :    0.018308
  17 C :    0.036862
  18 C :   -0.241948
  19 C :   -0.023445
  20 O :   -0.321084
  21 H :    0.112863
  22 H :    0.116076
  23 O :   -0.413243
  24 H :    0.114268
  25 H :    0.119789
  26 H :    0.111297
  27 H :    0.100496
  28 H :    0.277017

  Mayer bond orders larger than 0.100000
B(  0-C ,  1-C ) :   0.9329 B(  0-C ,  4-O ) :   0.9240 B(  0-C ,  5-H ) :   0.9312
B(  0-C , 15-O ) :   0.8629 B(  1-C ,  2-C ) :   0.9505 B(  1-C ,  6-H ) :   0.9326
B(  1-C ,  7-H ) :   0.9263 B(  2-C ,  3-C ) :   0.9506 B(  2-C ,  8-H ) :   0.9452
B(  2-C ,  9-H ) :   0.9414 B(  3-C ,  4-O ) :   0.8417 B(  3-C , 10-H ) :   0.9337
B(  3-C , 11-H ) :   0.9393 B( 12-C , 13-H ) :   0.9183 B( 12-C , 14-H ) :   0.8930
B( 12-C , 15-O ) :   0.8350 B( 12-C , 16-C ) :   0.9083 B( 16-C , 17-C ) :   0.8858
B( 16-C , 20-O ) :   0.8855 B( 16-C , 21-H ) :   0.9265 B( 17-C , 18-C ) :   0.9378
B( 17-C , 22-H ) :   0.9354 B( 17-C , 23-O ) :   0.8922 B( 18-C , 19-C ) :   0.9477
B( 18-C , 24-H ) :   0.9403 B( 18-C , 25-H ) :   0.9273 B( 19-C , 20-O ) :   0.8357
B( 19-C , 26-H ) :   0.9305 B( 19-C , 27-H ) :   0.9375 B( 23-O , 28-H ) :   0.7977

FINAL SINGLE POINT ENERGY      -652.852695534833

DIPOLE MOMENT
-------------
                                X             Y             Z
Electronic contribution:     -3.00503      -1.71007      -0.06784
Nuclear contribution   :      4.05163       2.14963      -0.18292
                        -----------------------------------------
Total Dipole Moment    :      1.04661       0.43956      -0.25076
                        -----------------------------------------
Magnitude (a.u.)       :      1.16253
Magnitude (Debye)      :      2.95492

Rotational constants in cm-1:     0.049892     0.015340     0.014235
Rotational constants in MHz :  1495.713191   459.886233   426.745318

                             ****ORCA TERMINATED NORMALLY****
TOTAL RUN TIME: 0 days 0 hours 43 minutes 20 seconds 62 msec
