                         Program Version 4.2.0 -  RELEASE  -
|  1> # Test redundant internal optimization
|  2> #
|  3> ! RKS B3LYP  Opt TightSCF SmallPrint
|  4>
|  5> %basis
|  6>         Basis "6-31G"
|  7> end
|  8>
|  9> %geom
| 10> Constraints
| 11> { D 4  0  15  12  60.0   C } # D for Dihedral angle
| 12> { D 0  15  12  16  225.0   C } # D for Dihedral angle
| 13> { D 0  4  3  2   C } # D for Dihedral angle
| 14> { D 4  3  2  1   C } # D for Dihedral angle
| 15> { D 3  2  1  0   C } # D for Dihedral angle
| 16> { D 2  1  0  4   C } # D for Dihedral angle
| 17> { D 1  0  4  3   C } # D for Dihedral angle
| 18> { D 16  20  19  18   C } # D for Dihedral angle
| 19> { D 20  19  18  17   C } # D for Dihedral angle
| 20> { D 19  18  17  16   C } # D for Dihedral angle
| 21> { D 18  17  16  20   C } # D for Dihedral angle
| 22> { D 17  16  20  19   C } # D for Dihedral angle
| 23> { D 15  12  16  20   C } # D for Dihedral angle
| 24> end
| 25> end
| 26>
| 27>
| 28> #%pal
| 29> #nprocs 8
| 30> #end
| 31>
| 32> * xyz 0 1
| 33> C  -21.048   26.222   46.251
| 34> C  -20.361   27.558   45.944
| 35> C  -20.329   28.222   47.341
| 36> C  -20.110   27.022   48.296
| 37> O  -20.473   25.807   47.535
| 38> H  -20.833   25.428   45.533
| 39> H  -19.344   27.382   45.576
| 40> H  -20.898   28.157   45.201
| 41> H  -19.543   28.978   47.434
| 42> H  -21.289   28.710   47.548
| 43> H  -20.733   27.082   49.195
| 44> H  -19.064   26.913   48.597
| 45> C  -23.051   27.452   47.413
| 46> H  -22.208   27.713   48.066
| 47> H  -23.388   28.365   46.907
| 48> O  -22.586   26.394   46.375
| 49> C  -24.219   26.946   48.304
| 50> C  -25.405   26.476   47.453
| 51> C  -24.933   25.071   47.008
| 52> C  -24.138   24.560   48.236
| 53> O  -23.814   25.751   49.051
| 54> H  -24.467   27.714   49.039
| 55> H  -26.305   26.402   48.072
| 56> O  -25.708   27.417   46.256
| 57> H  -25.763   24.408   46.742
| 58> H  -24.278   25.154   46.132
| 59> H  -23.209   24.054   47.954
| 60> H  -24.730   23.890   48.866
| 61> H  -24.819   27.505   45.622
| 62> *
| 63>
| 64>                          ****END OF INPUT****
 Total Charge           Charge          ....    0
 Multiplicity           Mult            ....    1
 Number of Electrons    NEL             ....  102
FINAL SINGLE POINT ENERGY      -652.808366771757
FINAL SINGLE POINT ENERGY      -652.838621732467
FINAL SINGLE POINT ENERGY      -652.854026047571
FINAL SINGLE POINT ENERGY      -652.856895396436
FINAL SINGLE POINT ENERGY      -652.857294066289
FINAL SINGLE POINT ENERGY      -652.857358082468
FINAL SINGLE POINT ENERGY      -652.857366960374
FINAL SINGLE POINT ENERGY      -652.857366447946
                    ***********************HURRAY********************

CARTESIAN COORDINATES (ANGSTROEM)
---------------------------------
  C    -21.143815   26.389717   46.422353
  C    -20.312114   27.595394   45.963909
  C    -19.986465   28.299026   47.313533
  C    -19.822309   27.102415   48.284901
  O    -20.473624   25.944650   47.619094
  H    -21.099036   25.553648   45.722401
  H    -19.396498   27.227946   45.488911
  H    -20.845837   28.233980   45.254947
  H    -19.073219   28.899664   47.255503
  H    -20.798087   28.966114   47.615170
  H    -20.295612   27.259942   49.258200
  H    -18.773723   26.830763   48.436345
  C    -23.158910   27.518538   47.503383
  H    -22.425833   27.812054   48.257517
  H    -23.503862   28.411691   46.967259
  O    -22.570222   26.576409   46.554759
  C    -24.332629   26.882025   48.248629
  C    -25.490831   26.399602   47.358117
  C    -25.003097   24.978627   46.937408
  C    -24.257074   24.491146   48.197580
  O    -23.963143   25.701334   49.009836
  H    -24.681183   27.625751   48.976340
  H    -26.413061   26.347168   47.941124
  O    -25.795430   27.280739   46.248781
  H    -25.835392   24.324816   46.659934
  H    -24.317750   25.076335   46.092806
  H    -23.311556   23.994268   47.966863
  H    -24.871902   23.834977   48.821945
  H    -25.093787   27.194263   45.569453

 Multiplicity           Mult            ....    1
 Number of Electrons    NEL             ....  102
 Basis Dimension        Dim             ....  149

ORBITAL ENERGIES
----------------

  NO   OCC          E(Eh)            E(eV)
   0   2.0000     -19.149732      -521.0907
   1   2.0000     -19.145954      -520.9879
   2   2.0000     -19.135902      -520.7144
   3   2.0000     -19.128194      -520.5046
   4   2.0000     -10.284204      -279.8474
   5   2.0000     -10.232401      -278.4378
   6   2.0000     -10.232138      -278.4306
   7   2.0000     -10.231534      -278.4142
   8   2.0000     -10.226542      -278.2784
   9   2.0000     -10.215188      -277.9694
  10   2.0000     -10.196678      -277.4657
  11   2.0000     -10.194419      -277.4042
  12   2.0000     -10.174100      -276.8513
  13   2.0000      -1.056350       -28.7447
  14   2.0000      -1.023157       -27.8415
  15   2.0000      -1.005754       -27.3679
  16   2.0000      -0.996948       -27.1283
  17   2.0000      -0.792382       -21.5618
  18   2.0000      -0.774512       -21.0756
  19   2.0000      -0.762433       -20.7469
  20   2.0000      -0.733548       -19.9609
  21   2.0000      -0.678737       -18.4694
  22   2.0000      -0.607967       -16.5436
  23   2.0000      -0.602727       -16.4010
  24   2.0000      -0.596523       -16.2322
  25   2.0000      -0.561411       -15.2768
  26   2.0000      -0.526496       -14.3267
  27   2.0000      -0.508785       -13.8447
  28   2.0000      -0.498085       -13.5536
  29   2.0000      -0.487694       -13.2708
  30   2.0000      -0.472392       -12.8544
  31   2.0000      -0.458670       -12.4810
  32   2.0000      -0.437698       -11.9104
  33   2.0000      -0.430046       -11.7021
  34   2.0000      -0.423855       -11.5337
  35   2.0000      -0.415163       -11.2971
  36   2.0000      -0.402162       -10.9434
  37   2.0000      -0.393897       -10.7185
  38   2.0000      -0.385838       -10.4992
  39   2.0000      -0.368911       -10.0386
  40   2.0000      -0.364007        -9.9051
  41   2.0000      -0.355682        -9.6786
  42   2.0000      -0.343658        -9.3514
  43   2.0000      -0.322052        -8.7635
  44   2.0000      -0.318724        -8.6729
  45   2.0000      -0.309644        -8.4258
  46   2.0000      -0.301369        -8.2007
  47   2.0000      -0.271210        -7.3800
  48   2.0000      -0.259474        -7.0607
  49   2.0000      -0.256499        -6.9797
  50   2.0000      -0.232374        -6.3232
  51   0.0000       0.063235         1.7207
  52   0.0000       0.086491         2.3535
  53   0.0000       0.092282         2.5111
  54   0.0000       0.095801         2.6069
  55   0.0000       0.106066         2.8862

MULLIKEN ATOMIC CHARGES
-----------------------
   0 C :    0.305641
   1 C :   -0.271438
   2 C :   -0.320154
   3 C :   -0.016010
   4 O :   -0.499428
   5 H :    0.161718
   6 H :    0.155317
   7 H :    0.148263
   8 H :    0.148303
   9 H :    0.151329
  10 H :    0.157213
  11 H :    0.149387
  12 C :   -0.025501
  13 H :    0.151325
  14 H :    0.139540
  15 O :   -0.541932
  16 C :    0.099315
  17 C :    0.082436
  18 C :   -0.309811
  19 C :   -0.009193
  20 O :   -0.519268
  21 H :    0.144844
  22 H :    0.159647
  23 O :   -0.608329
  24 H :    0.141117
  25 H :    0.165877
  26 H :    0.158719
  27 H :    0.138919
  28 H :    0.362153
Sum of atomic charges:   -0.0000000

LOEWDIN ATOMIC CHARGES
----------------------
   0 C :    0.176453
   1 C :   -0.228098
   2 C :   -0.225645
   3 C :   -0.034395
   4 O :   -0.314905
   5 H :    0.111066
   6 H :    0.121257
   7 H :    0.118485
   8 H :    0.117146
   9 H :    0.110611
  10 H :    0.107780
  11 H :    0.106320
  12 C :   -0.050118
  13 H :    0.109618
  14 H :    0.102389
  15 O :   -0.333513
  16 C :    0.017599
  17 C :    0.036762
  18 C :   -0.242931
  19 C :   -0.025455
  20 O :   -0.321027
  21 H :    0.111747
  22 H :    0.114789
  23 O :   -0.413193
  24 H :    0.113406
  25 H :    0.122059
  26 H :    0.111021
  27 H :    0.099482
  28 H :    0.281289

  Mayer bond orders larger than 0.100000
B(  0-C ,  1-C ) :   0.9191 B(  0-C ,  4-O ) :   0.9145 B(  0-C ,  5-H ) :   0.9367
B(  0-C , 15-O ) :   0.8811 B(  1-C ,  2-C ) :   0.9547 B(  1-C ,  6-H ) :   0.9350
B(  1-C ,  7-H ) :   0.9378 B(  2-C ,  3-C ) :   0.9474 B(  2-C ,  8-H ) :   0.9447
B(  2-C ,  9-H ) :   0.9405 B(  3-C ,  4-O ) :   0.8394 B(  3-C , 10-H ) :   0.9299
B(  3-C , 11-H ) :   0.9382 B( 12-C , 13-H ) :   0.9144 B( 12-C , 14-H ) :   0.9122
B( 12-C , 15-O ) :   0.8296 B( 12-C , 16-C ) :   0.8973 B( 16-C , 17-C ) :   0.8887
B( 16-C , 20-O ) :   0.8883 B( 16-C , 21-H ) :   0.9268 B( 17-C , 18-C ) :   0.9355
B( 17-C , 22-H ) :   0.9367 B( 17-C , 23-O ) :   0.8974 B( 18-C , 19-C ) :   0.9450
B( 18-C , 24-H ) :   0.9410 B( 18-C , 25-H ) :   0.9267 B( 19-C , 20-O ) :   0.8336
B( 19-C , 26-H ) :   0.9300 B( 19-C , 27-H ) :   0.9380 B( 23-O , 28-H ) :   0.7941

FINAL SINGLE POINT ENERGY      -652.857364929215

DIPOLE MOMENT
-------------
                                X             Y             Z
Electronic contribution:     -2.94049      -1.98488       0.70454
Nuclear contribution   :      3.88555       2.59819      -1.24568
                        -----------------------------------------
Total Dipole Moment    :      0.94506       0.61331      -0.54115
                        -----------------------------------------
Magnitude (a.u.)       :      1.24985
Magnitude (Debye)      :      3.17687

Rotational constants in cm-1:     0.049597     0.016481     0.014975
Rotational constants in MHz :  1486.880848   494.094650   448.945536

                             ****ORCA TERMINATED NORMALLY****
TOTAL RUN TIME: 0 days 0 hours 20 minutes 27 seconds 8 msec
