                         Program Version 4.2.0 -  RELEASE  -
|  1> # Test redundant internal optimization
|  2> #
|  3> ! RKS B3LYP  Opt TightSCF SmallPrint
|  4>
|  5> %basis
|  6>         Basis "6-31G"
|  7> end
|  8>
|  9> %geom
| 10> Constraints
| 11> { D 4  0  15  12  180.0   C } # D for Dihedral angle
| 12> { D 0  15  12  16  15.0   C } # D for Dihedral angle
| 13> { D 0  4  3  2   C } # D for Dihedral angle
| 14> { D 4  3  2  1   C } # D for Dihedral angle
| 15> { D 3  2  1  0   C } # D for Dihedral angle
| 16> { D 2  1  0  4   C } # D for Dihedral angle
| 17> { D 1  0  4  3   C } # D for Dihedral angle
| 18> { D 16  20  19  18   C } # D for Dihedral angle
| 19> { D 20  19  18  17   C } # D for Dihedral angle
| 20> { D 19  18  17  16   C } # D for Dihedral angle
| 21> { D 18  17  16  20   C } # D for Dihedral angle
| 22> { D 17  16  20  19   C } # D for Dihedral angle
| 23> { D 15  12  16  20   C } # D for Dihedral angle
| 24> end
| 25> end
| 26>
| 27>
| 28> #%pal
| 29> #nprocs 8
| 30> #end
| 31>
| 32> * xyz 0 1
| 33> C  -21.048   26.222   46.251
| 34> C  -20.361   27.558   45.944
| 35> C  -20.329   28.222   47.341
| 36> C  -20.110   27.022   48.296
| 37> O  -20.473   25.807   47.535
| 38> H  -20.833   25.428   45.533
| 39> H  -19.344   27.382   45.576
| 40> H  -20.898   28.157   45.201
| 41> H  -19.543   28.978   47.434
| 42> H  -21.289   28.710   47.548
| 43> H  -20.733   27.082   49.195
| 44> H  -19.064   26.913   48.597
| 45> C  -23.309   26.834   45.072
| 46> H  -24.217   26.232   44.941
| 47> H  -23.602   27.889   45.134
| 48> O  -22.586   26.394   46.375
| 49> C  -22.423   26.662   43.807
| 50> C  -23.122   27.212   42.559
| 51> C  -22.883   28.733   42.710
| 52> C  -21.474   28.806   43.350
| 53> O  -21.203   27.470   43.922
| 54> H  -22.110   25.619   43.728
| 55> H  -22.634   26.832   41.655
| 56> O  -24.630   26.844   42.493
| 57> H  -22.936   29.268   41.756
| 58> H  -23.634   29.168   43.380
| 59> H  -21.413   29.556   44.146
| 60> H  -20.691   29.006   42.613
| 61> H  -25.141   27.216   43.388
| 62> *
| 63>
| 64>                          ****END OF INPUT****
 Total Charge           Charge          ....    0
 Multiplicity           Mult            ....    1
 Number of Electrons    NEL             ....  102
FINAL SINGLE POINT ENERGY      -652.760676561346
FINAL SINGLE POINT ENERGY      -652.818590307518
FINAL SINGLE POINT ENERGY      -652.839851927920
FINAL SINGLE POINT ENERGY      -652.844349196640
FINAL SINGLE POINT ENERGY      -652.845052841107
FINAL SINGLE POINT ENERGY      -652.845215479529
FINAL SINGLE POINT ENERGY      -652.845230876038
FINAL SINGLE POINT ENERGY      -652.845235332479
FINAL SINGLE POINT ENERGY      -652.845235821702
                    ***********************HURRAY********************

CARTESIAN COORDINATES (ANGSTROEM)
---------------------------------
  C    -20.817694   26.182313   46.324196
  C    -20.003233   27.468170   46.187682
  C    -20.279415   28.173563   47.541461
  C    -20.372911   26.985834   48.522347
  O    -20.606340   25.786947   47.686076
  H    -20.509199   25.355748   45.680398
  H    -18.942469   27.198356   46.105886
  H    -20.274891   28.050828   45.312002
  H    -19.490340   28.880888   47.814458
  H    -21.230003   28.713985   47.497149
  H    -21.196087   27.077913   49.236186
  H    -19.439613   26.810858   49.067402
  C    -23.020913   26.814360   45.053890
  H    -23.902187   26.163466   45.034796
  H    -23.365345   27.842644   45.251091
  O    -22.264210   26.398763   46.225590
  C    -22.406198   26.758589   43.646743
  C    -23.378606   27.260340   42.562587
  C    -23.120136   28.801148   42.586267
  C    -21.607535   28.885982   42.883621
  O    -21.207368   27.563538   43.441446
  H    -22.094870   25.728115   43.442748
  H    -23.081505   26.844431   41.597758
  O    -24.759688   26.865628   42.716827
  H    -23.395906   29.277944   41.642295
  H    -23.712237   29.261264   43.387600
  H    -21.356489   29.666965   43.608555
  H    -21.011961   29.038300   41.979771
  H    -25.185652   27.365121   43.443171

 Multiplicity           Mult            ....    1
 Number of Electrons    NEL             ....  102
 Basis Dimension        Dim             ....  149

ORBITAL ENERGIES
----------------

  NO   OCC          E(Eh)            E(eV)
   0   2.0000     -19.158191      -521.3209
   1   2.0000     -19.154523      -521.2211
   2   2.0000     -19.129212      -520.5323
   3   2.0000     -19.127200      -520.4776
   4   2.0000     -10.270591      -279.4770
   5   2.0000     -10.255550      -279.0677
   6   2.0000     -10.243556      -278.7413
   7   2.0000     -10.242761      -278.7197
   8   2.0000     -10.233886      -278.4782
   9   2.0000     -10.215480      -277.9773
  10   2.0000     -10.205269      -277.6995
  11   2.0000     -10.176551      -276.9180
  12   2.0000     -10.166673      -276.6492
  13   2.0000      -1.046897       -28.4875
  14   2.0000      -1.039214       -28.2784
  15   2.0000      -1.028261       -27.9804
  16   2.0000      -0.978476       -26.6257
  17   2.0000      -0.793499       -21.5922
  18   2.0000      -0.775893       -21.1131
  19   2.0000      -0.770708       -20.9720
  20   2.0000      -0.729756       -19.8577
  21   2.0000      -0.683479       -18.5984
  22   2.0000      -0.622811       -16.9475
  23   2.0000      -0.604977       -16.4623
  24   2.0000      -0.588621       -16.0172
  25   2.0000      -0.560345       -15.2478
  26   2.0000      -0.535582       -14.5739
  27   2.0000      -0.518016       -14.0959
  28   2.0000      -0.493849       -13.4383
  29   2.0000      -0.479769       -13.0552
  30   2.0000      -0.472465       -12.8564
  31   2.0000      -0.456197       -12.4138
  32   2.0000      -0.445273       -12.1165
  33   2.0000      -0.439230       -11.9520
  34   2.0000      -0.433380       -11.7929
  35   2.0000      -0.423664       -11.5285
  36   2.0000      -0.408324       -11.1111
  37   2.0000      -0.395529       -10.7629
  38   2.0000      -0.390183       -10.6174
  39   2.0000      -0.365953        -9.9581
  40   2.0000      -0.359486        -9.7821
  41   2.0000      -0.354371        -9.6429
  42   2.0000      -0.342229        -9.3125
  43   2.0000      -0.335912        -9.1406
  44   2.0000      -0.322871        -8.7858
  45   2.0000      -0.304592        -8.2884
  46   2.0000      -0.292868        -7.9693
  47   2.0000      -0.282261        -7.6807
  48   2.0000      -0.250330        -6.8118
  49   2.0000      -0.247769        -6.7421
  50   2.0000      -0.239772        -6.5245
  51   0.0000       0.044461         1.2099
  52   0.0000       0.063402         1.7253
  53   0.0000       0.080623         2.1939
  54   0.0000       0.094293         2.5658
  55   0.0000       0.101976         2.7749

MULLIKEN ATOMIC CHARGES
-----------------------
   0 C :    0.311523
   1 C :   -0.277555
   2 C :   -0.304966
   3 C :    0.003250
   4 O :   -0.500059
   5 H :    0.143015
   6 H :    0.137086
   7 H :    0.180475
   8 H :    0.135586
   9 H :    0.147879
  10 H :    0.148272
  11 H :    0.138764
  12 C :    0.011483
  13 H :    0.155398
  14 H :    0.111154
  15 O :   -0.541412
  16 C :    0.066561
  17 C :    0.087802
  18 C :   -0.319528
  19 C :   -0.015743
  20 O :   -0.518868
  21 H :    0.162418
  22 H :    0.169869
  23 O :   -0.595643
  24 H :    0.160478
  25 H :    0.139789
  26 H :    0.144458
  27 H :    0.158188
  28 H :    0.360329
Sum of atomic charges:   -0.0000000

LOEWDIN ATOMIC CHARGES
----------------------
   0 C :    0.194157
   1 C :   -0.236668
   2 C :   -0.220594
   3 C :   -0.026303
   4 O :   -0.302577
   5 H :    0.099040
   6 H :    0.112116
   7 H :    0.130426
   8 H :    0.111016
   9 H :    0.110893
  10 H :    0.105880
  11 H :    0.100281
  12 C :   -0.045909
  13 H :    0.116360
  14 H :    0.084813
  15 O :   -0.346379
  16 C :    0.004450
  17 C :    0.039232
  18 C :   -0.240132
  19 C :   -0.030732
  20 O :   -0.319562
  21 H :    0.115295
  22 H :    0.120651
  23 O :   -0.401968
  24 H :    0.124823
  25 H :    0.107138
  26 H :    0.102814
  27 H :    0.110302
  28 H :    0.281137

  Mayer bond orders larger than 0.100000
B(  0-C ,  1-C ) :   0.9360 B(  0-C ,  4-O ) :   0.9344 B(  0-C ,  5-H ) :   0.9249
B(  0-C , 15-O ) :   0.8103 B(  1-C ,  2-C ) :   0.9456 B(  1-C ,  6-H ) :   0.9354
B(  1-C ,  7-H ) :   0.9085 B(  2-C ,  3-C ) :   0.9536 B(  2-C ,  8-H ) :   0.9455
B(  2-C ,  9-H ) :   0.9474 B(  3-C ,  4-O ) :   0.8365 B(  3-C , 10-H ) :   0.9361
B(  3-C , 11-H ) :   0.9398 B( 12-C , 13-H ) :   0.9084 B( 12-C , 14-H ) :   0.9230
B( 12-C , 15-O ) :   0.8614 B( 12-C , 16-C ) :   0.9009 B( 16-C , 17-C ) :   0.8660
B( 16-C , 20-O ) :   0.8440 B( 16-C , 21-H ) :   0.9287 B( 17-C , 18-C ) :   0.9221
B( 17-C , 22-H ) :   0.9334 B( 17-C , 23-O ) :   0.9068 B( 18-C , 19-C ) :   0.9432
B( 18-C , 24-H ) :   0.9415 B( 18-C , 25-H ) :   0.9390 B( 19-C , 20-O ) :   0.8345
B( 19-C , 26-H ) :   0.9302 B( 19-C , 27-H ) :   0.9375 B( 23-O , 28-H ) :   0.7953

FINAL SINGLE POINT ENERGY      -652.845235956814

DIPOLE MOMENT
-------------
                                X             Y             Z
Electronic contribution:     -1.51579      -5.55693      -0.42774
Nuclear contribution   :      1.45000       7.25909      -0.29868
                        -----------------------------------------
Total Dipole Moment    :     -0.06579       1.70217      -0.72641
                        -----------------------------------------
Magnitude (a.u.)       :      1.85186
Magnitude (Debye)      :      4.70705

Rotational constants in cm-1:     0.056006     0.014269     0.012667
Rotational constants in MHz :  1679.010957   427.767604   379.738562

                             ****ORCA TERMINATED NORMALLY****
TOTAL RUN TIME: 0 days 0 hours 38 minutes 21 seconds 191 msec
