                         Program Version 4.2.0 -  RELEASE  -
|  1> # Test redundant internal optimization
|  2> #
|  3> ! RKS B3LYP  Opt TightSCF SmallPrint
|  4>
|  5> %basis
|  6>         Basis "6-31G"
|  7> end
|  8>
|  9> %geom
| 10> Constraints
| 11> { D 4  0  15  12  15.0   C } # D for Dihedral angle
| 12> { D 0  15  12  16  330.0   C } # D for Dihedral angle
| 13> { D 0  4  3  2   C } # D for Dihedral angle
| 14> { D 4  3  2  1   C } # D for Dihedral angle
| 15> { D 3  2  1  0   C } # D for Dihedral angle
| 16> { D 2  1  0  4   C } # D for Dihedral angle
| 17> { D 1  0  4  3   C } # D for Dihedral angle
| 18> { D 16  20  19  18   C } # D for Dihedral angle
| 19> { D 20  19  18  17   C } # D for Dihedral angle
| 20> { D 19  18  17  16   C } # D for Dihedral angle
| 21> { D 18  17  16  20   C } # D for Dihedral angle
| 22> { D 17  16  20  19   C } # D for Dihedral angle
| 23> { D 15  12  16  20   C } # D for Dihedral angle
| 24> end
| 25> end
| 26>
| 27>
| 28> #%pal
| 29> #nprocs 8
| 30> #end
| 31>
| 32> * xyz 0 1
| 33> C  -21.048   26.222   46.251
| 34> C  -20.361   27.558   45.944
| 35> C  -20.329   28.222   47.341
| 36> C  -20.110   27.022   48.296
| 37> O  -20.473   25.807   47.535
| 38> H  -20.833   25.428   45.533
| 39> H  -19.344   27.382   45.576
| 40> H  -20.898   28.157   45.201
| 41> H  -19.543   28.978   47.434
| 42> H  -21.289   28.710   47.548
| 43> H  -20.733   27.082   49.195
| 44> H  -19.064   26.913   48.597
| 45> C  -23.128   26.462   47.829
| 46> H  -23.148   27.508   48.159
| 47> H  -24.151   26.068   47.877
| 48> O  -22.586   26.394   46.375
| 49> C  -22.262   25.650   48.832
| 50> C  -22.888   25.644   50.230
| 51> C  -23.991   24.570   50.076
| 52> C  -23.348   23.542   49.112
| 53> O  -22.224   24.235   48.447
| 54> H  -21.234   26.019   48.797
| 55> H  -22.146   25.332   50.974
| 56> O  -23.451   27.029   50.653
| 57> H  -24.283   24.121   51.030
| 58> H  -24.887   25.013   49.626
| 59> H  -24.050   23.185   48.350
| 60> H  -22.929   22.680   49.639
| 61> H  -24.197   27.362   49.924
| 62> *
| 63>
| 64>                          ****END OF INPUT****
 Total Charge           Charge          ....    0
 Multiplicity           Mult            ....    1
 Number of Electrons    NEL             ....  102
FINAL SINGLE POINT ENERGY      -652.726803533977
FINAL SINGLE POINT ENERGY      -652.810937656204
FINAL SINGLE POINT ENERGY      -652.834382718104
FINAL SINGLE POINT ENERGY      -652.840269135442
FINAL SINGLE POINT ENERGY      -652.841107796264
FINAL SINGLE POINT ENERGY      -652.841286218899
FINAL SINGLE POINT ENERGY      -652.841325024902
FINAL SINGLE POINT ENERGY      -652.841334212429
FINAL SINGLE POINT ENERGY      -652.841337361417
FINAL SINGLE POINT ENERGY      -652.841338524154
FINAL SINGLE POINT ENERGY      -652.841339546910
                    ***********************HURRAY********************

CARTESIAN COORDINATES (ANGSTROEM)
---------------------------------
  C    -20.989492   26.349028   46.293644
  C    -20.452494   27.713456   45.851904
  C    -20.011440   28.336404   47.202419
  C    -19.493814   27.114187   47.993341
  O    -20.060664   25.918389   47.310323
  H    -20.939140   25.586003   45.514312
  H    -19.589226   27.561043   45.193469
  H    -21.206522   28.302010   45.325705
  H    -19.243445   29.106667   47.082955
  H    -20.871173   28.793738   47.704802
  H    -19.803449   27.115108   49.042826
  H    -18.405800   27.007125   47.946710
  C    -23.062176   26.376237   47.912654
  H    -23.218013   27.411518   48.255717
  H    -24.042472   25.942657   47.686425
  O    -22.406148   26.408155   46.618306
  C    -22.411684   25.612668   49.072357
  C    -23.286784   25.621070   50.338848
  C    -24.297214   24.467287   50.041372
  C    -23.427933   23.454120   49.263500
  O    -22.235947   24.192884   48.778092
  H    -21.417263   25.998187   49.276694
  H    -22.665967   25.366658   51.200720
  O    -23.887445   26.892922   50.685721
  H    -24.724568   24.048765   50.955921
  H    -25.122880   24.849625   49.426890
  H    -23.949384   23.015066   48.407361
  H    -23.064111   22.645680   49.905081
  H    -24.641351   27.088344   50.092933

 Multiplicity           Mult            ....    1
 Number of Electrons    NEL             ....  102
 Basis Dimension        Dim             ....  149

ORBITAL ENERGIES
----------------

  NO   OCC          E(Eh)            E(eV)
   0   2.0000     -19.150114      -521.1011
   1   2.0000     -19.144437      -520.9466
   2   2.0000     -19.131622      -520.5979
   3   2.0000     -19.129312      -520.5350
   4   2.0000     -10.274829      -279.5923
   5   2.0000     -10.244363      -278.7633
   6   2.0000     -10.231158      -278.4040
   7   2.0000     -10.228725      -278.3378
   8   2.0000     -10.226496      -278.2771
   9   2.0000     -10.226441      -278.2756
  10   2.0000     -10.193738      -277.3857
  11   2.0000     -10.188834      -277.2523
  12   2.0000     -10.181127      -277.0426
  13   2.0000      -1.045047       -28.4372
  14   2.0000      -1.032179       -28.0870
  15   2.0000      -1.011886       -27.5348
  16   2.0000      -0.986805       -26.8523
  17   2.0000      -0.786648       -21.4058
  18   2.0000      -0.780534       -21.2394
  19   2.0000      -0.766627       -20.8610
  20   2.0000      -0.731963       -19.9177
  21   2.0000      -0.680013       -18.5041
  22   2.0000      -0.609652       -16.5895
  23   2.0000      -0.604629       -16.4528
  24   2.0000      -0.598355       -16.2821
  25   2.0000      -0.562163       -15.2972
  26   2.0000      -0.521097       -14.1798
  27   2.0000      -0.507671       -13.8144
  28   2.0000      -0.501112       -13.6360
  29   2.0000      -0.486779       -13.2459
  30   2.0000      -0.466062       -12.6822
  31   2.0000      -0.454704       -12.3731
  32   2.0000      -0.444524       -12.0961
  33   2.0000      -0.428137       -11.6502
  34   2.0000      -0.426062       -11.5937
  35   2.0000      -0.412761       -11.2318
  36   2.0000      -0.410074       -11.1587
  37   2.0000      -0.398308       -10.8385
  38   2.0000      -0.378967       -10.3122
  39   2.0000      -0.369962       -10.0672
  40   2.0000      -0.358567        -9.7571
  41   2.0000      -0.356427        -9.6989
  42   2.0000      -0.340140        -9.2557
  43   2.0000      -0.332629        -9.0513
  44   2.0000      -0.319296        -8.6885
  45   2.0000      -0.311815        -8.4849
  46   2.0000      -0.298746        -8.1293
  47   2.0000      -0.270317        -7.3557
  48   2.0000      -0.258434        -7.0324
  49   2.0000      -0.243761        -6.6331
  50   2.0000      -0.229793        -6.2530
  51   0.0000       0.051632         1.4050
  52   0.0000       0.075005         2.0410
  53   0.0000       0.083259         2.2656
  54   0.0000       0.091748         2.4966
  55   0.0000       0.103978         2.8294

MULLIKEN ATOMIC CHARGES
-----------------------
   0 C :    0.318804
   1 C :   -0.262060
   2 C :   -0.312227
   3 C :   -0.028963
   4 O :   -0.494883
   5 H :    0.163903
   6 H :    0.146016
   7 H :    0.155101
   8 H :    0.147349
   9 H :    0.152676
  10 H :    0.143197
  11 H :    0.155048
  12 C :    0.018127
  13 H :    0.119885
  14 H :    0.138131
  15 O :   -0.555359
  16 C :    0.071845
  17 C :    0.081693
  18 C :   -0.321215
  19 C :   -0.010509
  20 O :   -0.499832
  21 H :    0.168471
  22 H :    0.166610
  23 O :   -0.600509
  24 H :    0.154822
  25 H :    0.133191
  26 H :    0.145261
  27 H :    0.148939
  28 H :    0.356487
Sum of atomic charges:   -0.0000000

LOEWDIN ATOMIC CHARGES
----------------------
   0 C :    0.190712
   1 C :   -0.224444
   2 C :   -0.221711
   3 C :   -0.037981
   4 O :   -0.306352
   5 H :    0.109759
   6 H :    0.114436
   7 H :    0.122836
   8 H :    0.117312
   9 H :    0.112554
  10 H :    0.098685
  11 H :    0.107990
  12 C :   -0.036408
  13 H :    0.089821
  14 H :    0.104475
  15 O :   -0.342843
  16 C :    0.007146
  17 C :    0.034621
  18 C :   -0.241828
  19 C :   -0.031143
  20 O :   -0.310358
  21 H :    0.120148
  22 H :    0.118725
  23 O :   -0.408391
  24 H :    0.121581
  25 H :    0.103517
  26 H :    0.103626
  27 H :    0.105559
  28 H :    0.277954

  Mayer bond orders larger than 0.100000
B(  0-C ,  1-C ) :   0.9197 B(  0-C ,  4-O ) :   0.9129 B(  0-C ,  5-H ) :   0.9337
B(  0-C , 15-O ) :   0.8499 B(  1-C ,  2-C ) :   0.9572 B(  1-C ,  6-H ) :   0.9354
B(  1-C ,  7-H ) :   0.9379 B(  2-C ,  3-C ) :   0.9513 B(  2-C ,  8-H ) :   0.9441
B(  2-C ,  9-H ) :   0.9456 B(  3-C ,  4-O ) :   0.8398 B(  3-C , 10-H ) :   0.9190
B(  3-C , 11-H ) :   0.9392 B( 12-C , 13-H ) :   0.9016 B( 12-C , 14-H ) :   0.9340
B( 12-C , 15-O ) :   0.8544 B( 12-C , 16-C ) :   0.8968 B( 16-C , 17-C ) :   0.8652
B( 16-C , 20-O ) :   0.8614 B( 16-C , 21-H ) :   0.9128 B( 17-C , 18-C ) :   0.9241
B( 17-C , 22-H ) :   0.9334 B( 17-C , 23-O ) :   0.8958 B( 18-C , 19-C ) :   0.9369
B( 18-C , 24-H ) :   0.9423 B( 18-C , 25-H ) :   0.9403 B( 19-C , 20-O ) :   0.8536
B( 19-C , 26-H ) :   0.9314 B( 19-C , 27-H ) :   0.9374 B( 23-O , 28-H ) :   0.7979

FINAL SINGLE POINT ENERGY      -652.841339794527

DIPOLE MOMENT
-------------
                                X             Y             Z
Electronic contribution:      0.08619      -2.49748      -0.49368
Nuclear contribution   :     -0.57374       3.03079       0.64568
                        -----------------------------------------
Total Dipole Moment    :     -0.48755       0.53331       0.15200
                        -----------------------------------------
Magnitude (a.u.)       :      0.73840
Magnitude (Debye)      :      1.87686

Rotational constants in cm-1:     0.049205     0.015750     0.014643
Rotational constants in MHz :  1475.118607   472.159919   438.982835

                             ****ORCA TERMINATED NORMALLY****
TOTAL RUN TIME: 0 days 1 hours 47 minutes 19 seconds 144 msec
