                         Program Version 4.2.0 -  RELEASE  -
|  1> # Test redundant internal optimization
|  2> #
|  3> ! RKS B3LYP  Opt TightSCF SmallPrint
|  4>
|  5> %basis
|  6>         Basis "6-31G"
|  7> end
|  8>
|  9> %geom
| 10> Constraints
| 11> { D 4  0  15  12  195.0   C } # D for Dihedral angle
| 12> { D 0  15  12  16  165.0   C } # D for Dihedral angle
| 13> { D 0  4  3  2   C } # D for Dihedral angle
| 14> { D 4  3  2  1   C } # D for Dihedral angle
| 15> { D 3  2  1  0   C } # D for Dihedral angle
| 16> { D 2  1  0  4   C } # D for Dihedral angle
| 17> { D 1  0  4  3   C } # D for Dihedral angle
| 18> { D 16  20  19  18   C } # D for Dihedral angle
| 19> { D 20  19  18  17   C } # D for Dihedral angle
| 20> { D 19  18  17  16   C } # D for Dihedral angle
| 21> { D 18  17  16  20   C } # D for Dihedral angle
| 22> { D 17  16  20  19   C } # D for Dihedral angle
| 23> { D 15  12  16  20   C } # D for Dihedral angle
| 24> end
| 25> end
| 26>
| 27>
| 28> #%pal
| 29> #nprocs 8
| 30> #end
| 31>
| 32> * xyz 0 1
| 33> C  -21.048   26.222   46.251
| 34> C  -20.361   27.558   45.944
| 35> C  -20.329   28.222   47.341
| 36> C  -20.110   27.022   48.296
| 37> O  -20.473   25.807   47.535
| 38> H  -20.833   25.428   45.533
| 39> H  -19.344   27.382   45.576
| 40> H  -20.898   28.157   45.201
| 41> H  -19.543   28.978   47.434
| 42> H  -21.289   28.710   47.548
| 43> H  -20.733   27.082   49.195
| 44> H  -19.064   26.913   48.597
| 45> C  -23.353   26.472   45.026
| 46> H  -23.182   27.455   44.569
| 47> H  -22.989   25.703   44.332
| 48> O  -22.586   26.394   46.375
| 49> C  -24.884   26.270   45.194
| 50> C  -25.197   24.952   45.910
| 51> C  -24.930   25.327   47.388
| 52> C  -25.393   26.804   47.465
| 53> O  -25.444   27.302   46.073
| 54> H  -25.368   26.382   44.222
| 55> O  -26.689   24.574   45.703
| 56> H  -24.578   24.116   45.566
| 57> H  -25.466   24.684   48.093
| 58> H  -23.859   25.247   47.609
| 59> H  -24.707   27.429   48.045
| 60> H  -26.400   26.904   47.880
| 61> H  -27.328   25.396   46.042
| 62> *
| 63>
| 64>                          ****END OF INPUT****
 Total Charge           Charge          ....    0
 Multiplicity           Mult            ....    1
 Number of Electrons    NEL             ....  102
FINAL SINGLE POINT ENERGY      -652.835825883299
FINAL SINGLE POINT ENERGY      -652.858711171736
FINAL SINGLE POINT ENERGY      -652.862676415631
FINAL SINGLE POINT ENERGY      -652.863706938984
FINAL SINGLE POINT ENERGY      -652.863830094482
FINAL SINGLE POINT ENERGY      -652.863844687857
                    ***********************HURRAY********************

CARTESIAN COORDINATES (ANGSTROEM)
---------------------------------
  C    -21.093490   26.231322   46.181048
  C    -20.379224   27.550246   45.895048
  C    -20.402031   28.234493   47.282817
  C    -20.243323   27.047831   48.255315
  O    -20.594787   25.835244   47.465672
  H    -20.883718   25.419240   45.475240
  H    -19.351428   27.342174   45.575210
  H    -20.866717   28.146303   45.118477
  H    -19.607067   28.977382   47.397273
  H    -21.365100   28.731335   47.432498
  H    -20.908693   27.103770   49.119990
  H    -19.213496   26.908752   48.596219
  C    -23.266245   26.477873   45.050178
  H    -23.112550   27.456132   44.574253
  H    -22.913458   25.696487   44.356459
  O    -22.533109   26.408989   46.302509
  C    -24.760431   26.290583   45.303681
  C    -25.186622   24.969575   45.959270
  C    -24.964829   25.276853   47.465260
  C    -25.340193   26.775559   47.572898
  O    -25.295467   27.320896   46.193630
  H    -25.271935   26.410542   44.340899
  O    -26.578089   24.673324   45.648616
  H    -24.625742   24.102550   45.608552
  H    -25.594232   24.634233   48.086793
  H    -23.914604   25.125788   47.717444
  H    -24.635083   27.336185   48.191839
  H    -26.356309   26.937785   47.948037
  H    -27.120027   25.470553   45.827875

 Multiplicity           Mult            ....    1
 Number of Electrons    NEL             ....  102
 Basis Dimension        Dim             ....  149

ORBITAL ENERGIES
----------------

  NO   OCC          E(Eh)            E(eV)
   0   2.0000     -19.148466      -521.0562
   1   2.0000     -19.146271      -520.9965
   2   2.0000     -19.135754      -520.7103
   3   2.0000     -19.131933      -520.6064
   4   2.0000     -10.285673      -279.8874
   5   2.0000     -10.237031      -278.5638
   6   2.0000     -10.233574      -278.4697
   7   2.0000     -10.233417      -278.4654
   8   2.0000     -10.229361      -278.3551
   9   2.0000     -10.219345      -278.0825
  10   2.0000     -10.191095      -277.3138
  11   2.0000     -10.189806      -277.2787
  12   2.0000     -10.170129      -276.7433
  13   2.0000      -1.060525       -28.8584
  14   2.0000      -1.030257       -28.0347
  15   2.0000      -1.003973       -27.3195
  16   2.0000      -0.995534       -27.0899
  17   2.0000      -0.791122       -21.5275
  18   2.0000      -0.776255       -21.1230
  19   2.0000      -0.760907       -20.7053
  20   2.0000      -0.734391       -19.9838
  21   2.0000      -0.675040       -18.3688
  22   2.0000      -0.604954       -16.4616
  23   2.0000      -0.598353       -16.2820
  24   2.0000      -0.592721       -16.1288
  25   2.0000      -0.576217       -15.6797
  26   2.0000      -0.528576       -14.3833
  27   2.0000      -0.502908       -13.6848
  28   2.0000      -0.501699       -13.6519
  29   2.0000      -0.486828       -13.2473
  30   2.0000      -0.475800       -12.9472
  31   2.0000      -0.455309       -12.3896
  32   2.0000      -0.450548       -12.2600
  33   2.0000      -0.440221       -11.9790
  34   2.0000      -0.422004       -11.4833
  35   2.0000      -0.411269       -11.1912
  36   2.0000      -0.404047       -10.9947
  37   2.0000      -0.383836       -10.4447
  38   2.0000      -0.377080       -10.2609
  39   2.0000      -0.366452        -9.9717
  40   2.0000      -0.360268        -9.8034
  41   2.0000      -0.355724        -9.6797
  42   2.0000      -0.354414        -9.6441
  43   2.0000      -0.327887        -8.9223
  44   2.0000      -0.316044        -8.6000
  45   2.0000      -0.311288        -8.4706
  46   2.0000      -0.300013        -8.1638
  47   2.0000      -0.266215        -7.2441
  48   2.0000      -0.264195        -7.1891
  49   2.0000      -0.258157        -7.0248
  50   2.0000      -0.240134        -6.5344
  51   0.0000       0.067526         1.8375
  52   0.0000       0.079440         2.1617
  53   0.0000       0.092601         2.5198
  54   0.0000       0.102803         2.7974
  55   0.0000       0.109232         2.9724

MULLIKEN ATOMIC CHARGES
-----------------------
   0 C :    0.304020
   1 C :   -0.271705
   2 C :   -0.299522
   3 C :   -0.003337
   4 O :   -0.506248
   5 H :    0.139854
   6 H :    0.147057
   7 H :    0.147573
   8 H :    0.144275
   9 H :    0.165365
  10 H :    0.153023
  11 H :    0.144292
  12 C :   -0.000047
  13 H :    0.142924
  14 H :    0.123145
  15 O :   -0.515484
  16 C :    0.065488
  17 C :    0.075626
  18 C :   -0.286276
  19 C :   -0.020537
  20 O :   -0.528255
  21 H :    0.154810
  22 O :   -0.603144
  23 H :    0.149796
  24 H :    0.146203
  25 H :    0.185979
  26 H :    0.151377
  27 H :    0.132155
  28 H :    0.361592
Sum of atomic charges:   -0.0000000

LOEWDIN ATOMIC CHARGES
----------------------
   0 C :    0.179270
   1 C :   -0.229170
   2 C :   -0.216554
   3 C :   -0.024995
   4 O :   -0.305963
   5 H :    0.096019
   6 H :    0.115345
   7 H :    0.116299
   8 H :    0.115647
   9 H :    0.120526
  10 H :    0.108741
  11 H :    0.103798
  12 C :   -0.040186
  13 H :    0.099919
  14 H :    0.093360
  15 O :   -0.330285
  16 C :    0.015186
  17 C :    0.039681
  18 C :   -0.242254
  19 C :   -0.033143
  20 O :   -0.331611
  21 H :    0.115245
  22 O :   -0.417476
  23 H :    0.115071
  24 H :    0.117523
  25 H :    0.136289
  26 H :    0.107716
  27 H :    0.094752
  28 H :    0.281248

  Mayer bond orders larger than 0.100000
B(  0-C ,  1-C ) :   0.9294 B(  0-C ,  4-O ) :   0.9379 B(  0-C ,  5-H ) :   0.9187
B(  0-C , 15-O ) :   0.8258 B(  1-C ,  2-C ) :   0.9524 B(  1-C ,  6-H ) :   0.9341
B(  1-C ,  7-H ) :   0.9344 B(  2-C ,  3-C ) :   0.9560 B(  2-C ,  8-H ) :   0.9449
B(  2-C ,  9-H ) :   0.9432 B(  3-C ,  4-O ) :   0.8326 B(  3-C , 10-H ) :   0.9349
B(  3-C , 11-H ) :   0.9396 B( 12-C , 13-H ) :   0.9128 B( 12-C , 14-H ) :   0.9062
B( 12-C , 15-O ) :   0.8424 B( 12-C , 16-C ) :   0.9083 B( 16-C , 17-C ) :   0.9082
B( 16-C , 20-O ) :   0.8752 B( 16-C , 21-H ) :   0.9222 B( 17-C , 18-C ) :   0.9238
B( 17-C , 22-O ) :   0.8904 B( 17-C , 23-H ) :   0.9363 B( 18-C , 19-C ) :   0.9470
B( 18-C , 24-H ) :   0.9372 B( 18-C , 25-H ) :   0.9144 B( 19-C , 20-O ) :   0.8356
B( 19-C , 26-H ) :   0.9343 B( 19-C , 27-H ) :   0.9382 B( 22-O , 28-H ) :   0.7967

FINAL SINGLE POINT ENERGY      -652.863844784934

DIPOLE MOMENT
-------------
                                X             Y             Z
Electronic contribution:     -3.47419      -2.63911      -1.34982
Nuclear contribution   :      4.42675       3.43243       1.21781
                        -----------------------------------------
Total Dipole Moment    :      0.95256       0.79332      -0.13201
                        -----------------------------------------
Magnitude (a.u.)       :      1.24666
Magnitude (Debye)      :      3.16875

Rotational constants in cm-1:     0.056791     0.013853     0.013522
Rotational constants in MHz :  1702.543428   415.289396   405.388631

                             ****ORCA TERMINATED NORMALLY****
TOTAL RUN TIME: 0 days 0 hours 53 minutes 9 seconds 178 msec
