                         Program Version 4.2.0 -  RELEASE  -
|  1> # Test redundant internal optimization
|  2> #
|  3> ! RKS B3LYP  Opt TightSCF SmallPrint
|  4>
|  5> %basis
|  6>         Basis "6-31G"
|  7> end
|  8>
|  9> %geom
| 10> Constraints
| 11> { D 4  0  15  12  210.0   C } # D for Dihedral angle
| 12> { D 0  15  12  16  105.0   C } # D for Dihedral angle
| 13> { D 0  4  3  2   C } # D for Dihedral angle
| 14> { D 4  3  2  1   C } # D for Dihedral angle
| 15> { D 3  2  1  0   C } # D for Dihedral angle
| 16> { D 2  1  0  4   C } # D for Dihedral angle
| 17> { D 1  0  4  3   C } # D for Dihedral angle
| 18> { D 16  20  19  18   C } # D for Dihedral angle
| 19> { D 20  19  18  17   C } # D for Dihedral angle
| 20> { D 19  18  17  16   C } # D for Dihedral angle
| 21> { D 18  17  16  20   C } # D for Dihedral angle
| 22> { D 17  16  20  19   C } # D for Dihedral angle
| 23> { D 15  12  16  20   C } # D for Dihedral angle
| 24> end
| 25> end
| 26>
| 27>
| 28> #%pal
| 29> #nprocs 8
| 30> #end
| 31>
| 32> * xyz 0 1
| 33> C  -21.048   26.222   46.251
| 34> C  -20.361   27.558   45.944
| 35> C  -20.329   28.222   47.341
| 36> C  -20.110   27.022   48.296
| 37> O  -20.473   25.807   47.535
| 38> H  -20.833   25.428   45.533
| 39> H  -19.344   27.382   45.576
| 40> H  -20.898   28.157   45.201
| 41> H  -19.543   28.978   47.434
| 42> H  -21.289   28.710   47.548
| 43> H  -20.733   27.082   49.195
| 44> H  -19.064   26.913   48.597
| 45> C  -23.389   26.110   45.076
| 46> H  -24.131   26.905   44.928
| 47> H  -22.720   26.099   44.206
| 48> O  -22.586   26.394   46.375
| 49> C  -24.135   24.748   45.117
| 50> C  -23.170   23.593   45.411
| 51> C  -22.992   23.716   46.943
| 52> C  -24.389   24.184   47.423
| 53> O  -25.086   24.717   46.232
| 54> H  -24.714   24.630   44.199
| 55> O  -23.833   22.238   45.044
| 56> H  -22.223   23.674   44.866
| 57> H  -22.683   22.777   47.412
| 58> H  -22.232   24.472   47.175
| 59> H  -24.331   24.967   48.186
| 60> H  -24.996   23.359   47.808
| 61> H  -24.784   22.136   45.579
| 62> *
| 63>
| 64>                          ****END OF INPUT****
 Total Charge           Charge          ....    0
 Multiplicity           Mult            ....    1
 Number of Electrons    NEL             ....  102
FINAL SINGLE POINT ENERGY      -652.830869110401
FINAL SINGLE POINT ENERGY      -652.854155804044
FINAL SINGLE POINT ENERGY      -652.858380317830
FINAL SINGLE POINT ENERGY      -652.861271624931
FINAL SINGLE POINT ENERGY      -652.861520117159
FINAL SINGLE POINT ENERGY      -652.861560225514
FINAL SINGLE POINT ENERGY      -652.861561124637
                    ***********************HURRAY********************

CARTESIAN COORDINATES (ANGSTROEM)
---------------------------------
  C    -21.033794   26.248424   46.226824
  C    -20.345081   27.572893   45.903336
  C    -20.378727   28.293742   47.272284
  C    -20.195670   27.136760   48.277113
  O    -20.524883   25.896163   47.522444
  H    -20.805259   25.423567   45.545244
  H    -19.312764   27.380019   45.587248
  H    -20.853564   28.130357   45.112235
  H    -19.598709   29.055101   47.365735
  H    -21.352239   28.772476   47.411065
  H    -20.862083   27.203913   49.139976
  H    -19.163019   27.026364   48.619962
  C    -23.260089   26.126848   45.145752
  H    -23.989564   26.936304   45.051692
  H    -22.624845   26.128538   44.246587
  O    -22.475728   26.432834   46.337595
  C    -24.029360   24.805371   45.230329
  C    -23.218707   23.514266   45.429630
  C    -23.024175   23.495203   46.972266
  C    -24.351748   24.101160   47.492959
  O    -24.971646   24.808238   46.346638
  H    -24.628114   24.725744   44.313822
  O    -23.971071   22.363216   44.952871
  H    -22.281910   23.487014   44.871530
  H    -22.863760   22.470165   47.318847
  H    -22.174993   24.109469   47.274770
  H    -24.187549   24.821500   48.297867
  H    -25.067891   23.342427   47.826095
  H    -24.872054   22.391921   45.338283

 Multiplicity           Mult            ....    1
 Number of Electrons    NEL             ....  102
 Basis Dimension        Dim             ....  149

ORBITAL ENERGIES
----------------

  NO   OCC          E(Eh)            E(eV)
   0   2.0000     -19.149547      -521.0857
   1   2.0000     -19.145921      -520.9870
   2   2.0000     -19.134150      -520.6667
   3   2.0000     -19.132681      -520.6267
   4   2.0000     -10.286927      -279.9215
   5   2.0000     -10.235075      -278.5106
   6   2.0000     -10.234924      -278.5064
   7   2.0000     -10.231029      -278.4005
   8   2.0000     -10.230529      -278.3869
   9   2.0000     -10.217433      -278.0305
  10   2.0000     -10.191512      -277.3251
  11   2.0000     -10.190494      -277.2974
  12   2.0000     -10.170232      -276.7461
  13   2.0000      -1.059787       -28.8383
  14   2.0000      -1.029913       -28.0254
  15   2.0000      -1.003189       -27.2982
  16   2.0000      -0.994964       -27.0743
  17   2.0000      -0.792013       -21.5518
  18   2.0000      -0.772527       -21.0215
  19   2.0000      -0.761549       -20.7228
  20   2.0000      -0.736099       -20.0303
  21   2.0000      -0.674837       -18.3632
  22   2.0000      -0.605845       -16.4859
  23   2.0000      -0.599827       -16.3221
  24   2.0000      -0.593131       -16.1399
  25   2.0000      -0.576111       -15.6768
  26   2.0000      -0.526267       -14.3205
  27   2.0000      -0.504678       -13.7330
  28   2.0000      -0.501309       -13.6413
  29   2.0000      -0.488404       -13.2902
  30   2.0000      -0.472899       -12.8682
  31   2.0000      -0.454373       -12.3641
  32   2.0000      -0.448368       -12.2007
  33   2.0000      -0.435272       -11.8444
  34   2.0000      -0.431047       -11.7294
  35   2.0000      -0.408801       -11.1240
  36   2.0000      -0.402794       -10.9606
  37   2.0000      -0.383056       -10.4235
  38   2.0000      -0.379639       -10.3305
  39   2.0000      -0.363164        -9.8822
  40   2.0000      -0.362907        -9.8752
  41   2.0000      -0.353885        -9.6297
  42   2.0000      -0.352287        -9.5862
  43   2.0000      -0.326810        -8.8929
  44   2.0000      -0.319197        -8.6858
  45   2.0000      -0.313180        -8.5221
  46   2.0000      -0.299799        -8.1579
  47   2.0000      -0.271675        -7.3926
  48   2.0000      -0.262690        -7.1482
  49   2.0000      -0.260253        -7.0818
  50   2.0000      -0.233465        -6.3529
  51   0.0000       0.067825         1.8456
  52   0.0000       0.079329         2.1586
  53   0.0000       0.090038         2.4501
  54   0.0000       0.104135         2.8337
  55   0.0000       0.111250         3.0273

MULLIKEN ATOMIC CHARGES
-----------------------
   0 C :    0.287517
   1 C :   -0.257455
   2 C :   -0.300462
   3 C :   -0.001482
   4 O :   -0.511185
   5 H :    0.142866
   6 H :    0.144583
   7 H :    0.147324
   8 H :    0.144219
   9 H :    0.166442
  10 H :    0.156187
  11 H :    0.144671
  12 C :   -0.024227
  13 H :    0.165876
  14 H :    0.119316
  15 O :   -0.508790
  16 C :    0.082961
  17 C :    0.070555
  18 C :   -0.309394
  19 C :   -0.022074
  20 O :   -0.526660
  21 H :    0.149140
  22 O :   -0.604823
  23 H :    0.140860
  24 H :    0.146624
  25 H :    0.201394
  26 H :    0.158411
  27 H :    0.134155
  28 H :    0.363450
Sum of atomic charges:   -0.0000000

LOEWDIN ATOMIC CHARGES
----------------------
   0 C :    0.172656
   1 C :   -0.223865
   2 C :   -0.216039
   3 C :   -0.023997
   4 O :   -0.310156
   5 H :    0.095767
   6 H :    0.113424
   7 H :    0.117400
   8 H :    0.115670
   9 H :    0.121605
  10 H :    0.110548
  11 H :    0.103956
  12 C :   -0.041959
  13 H :    0.120103
  14 H :    0.093837
  15 O :   -0.333150
  16 C :    0.008117
  17 C :    0.034754
  18 C :   -0.246311
  19 C :   -0.033031
  20 O :   -0.330826
  21 H :    0.113369
  22 O :   -0.416991
  23 H :    0.109211
  24 H :    0.118340
  25 H :    0.138855
  26 H :    0.111472
  27 H :    0.094826
  28 H :    0.282411

  Mayer bond orders larger than 0.100000
B(  0-C ,  1-C ) :   0.9375 B(  0-C ,  4-O ) :   0.9083 B(  0-C ,  5-H ) :   0.9143
B(  0-C , 15-O ) :   0.8273 B(  1-C ,  2-C ) :   0.9531 B(  1-C ,  6-H ) :   0.9338
B(  1-C ,  7-H ) :   0.9383 B(  2-C ,  3-C ) :   0.9553 B(  2-C ,  8-H ) :   0.9447
B(  2-C ,  9-H ) :   0.9426 B(  3-C ,  4-O ) :   0.8273 B(  3-C , 10-H ) :   0.9348
B(  3-C , 11-H ) :   0.9397 B( 12-C , 13-H ) :   0.9301 B( 12-C , 14-H ) :   0.9136
B( 12-C , 15-O ) :   0.8636 B( 12-C , 16-C ) :   0.8882 B( 16-C , 17-C ) :   0.9083
B( 16-C , 20-O ) :   0.8770 B( 16-C , 21-H ) :   0.9173 B( 17-C , 18-C ) :   0.9208
B( 17-C , 22-O ) :   0.8881 B( 17-C , 23-H ) :   0.9343 B( 18-C , 19-C ) :   0.9446
B( 18-C , 24-H ) :   0.9381 B( 18-C , 25-H ) :   0.9005 B( 19-C , 20-O ) :   0.8359
B( 19-C , 26-H ) :   0.9334 B( 19-C , 27-H ) :   0.9375 B( 22-O , 28-H ) :   0.7955

FINAL SINGLE POINT ENERGY      -652.861545923080

DIPOLE MOMENT
-------------
                                X             Y             Z
Electronic contribution:     -3.68095      -3.34155      -1.09458
Nuclear contribution   :      4.49751       4.35857       1.01032
                        -----------------------------------------
Total Dipole Moment    :      0.81656       1.01702      -0.08425
                        -----------------------------------------
Magnitude (a.u.)       :      1.30698
Magnitude (Debye)      :      3.32208

Rotational constants in cm-1:     0.055342     0.014714     0.014141
Rotational constants in MHz :  1659.126375   441.124345   423.941806

                             ****ORCA TERMINATED NORMALLY****
TOTAL RUN TIME: 0 days 0 hours 25 minutes 41 seconds 57 msec
