                         Program Version 4.2.0 -  RELEASE  -
|  1> # Test redundant internal optimization
|  2> #
|  3> ! RKS B3LYP  Opt TightSCF SmallPrint
|  4>
|  5> %basis
|  6>         Basis "6-31G"
|  7> end
|  8>
|  9> %geom
| 10> Constraints
| 11> { D 4  0  15  12  225.0   C } # D for Dihedral angle
| 12> { D 0  15  12  16  225.0   C } # D for Dihedral angle
| 13> { D 0  4  3  2   C } # D for Dihedral angle
| 14> { D 4  3  2  1   C } # D for Dihedral angle
| 15> { D 3  2  1  0   C } # D for Dihedral angle
| 16> { D 2  1  0  4   C } # D for Dihedral angle
| 17> { D 1  0  4  3   C } # D for Dihedral angle
| 18> { D 16  20  19  18   C } # D for Dihedral angle
| 19> { D 20  19  18  17   C } # D for Dihedral angle
| 20> { D 19  18  17  16   C } # D for Dihedral angle
| 21> { D 18  17  16  20   C } # D for Dihedral angle
| 22> { D 17  16  20  19   C } # D for Dihedral angle
| 23> { D 15  12  16  20   C } # D for Dihedral angle
| 24> end
| 25> end
| 26>
| 27>
| 28> #%pal
| 29> #nprocs 8
| 30> #end
| 31>
| 32> * xyz 0 1
| 33> C  -21.048   26.222   46.251
| 34> C  -20.361   27.558   45.944
| 35> C  -20.329   28.222   47.341
| 36> C  -20.110   27.022   48.296
| 37> O  -20.473   25.807   47.535
| 38> H  -20.833   25.428   45.533
| 39> H  -19.344   27.382   45.576
| 40> H  -20.898   28.157   45.201
| 41> H  -19.543   28.978   47.434
| 42> H  -21.289   28.710   47.548
| 43> H  -20.733   27.082   49.195
| 44> H  -19.064   26.913   48.597
| 45> C  -23.415   25.773   45.218
| 46> H  -22.748   25.541   44.378
| 47> H  -23.892   24.840   45.545
| 48> O  -22.586   26.394   46.375
| 49> C  -24.534   26.721   44.705
| 50> C  -23.945   27.986   44.070
| 51> C  -23.527   27.470   42.672
| 52> C  -24.630   26.435   42.336
| 53> O  -25.284   26.086   43.615
| 54> H  -25.243   26.909   45.514
| 55> O  -25.040   29.080   43.947
| 56> H  -23.105   28.402   44.638
| 57> H  -23.463   28.269   41.927
| 58> H  -22.546   26.985   42.728
| 59> H  -24.226   25.525   41.880
| 60> H  -25.402   26.846   41.680
| 61> H  -25.892   28.686   43.380
| 62> *
| 63>
| 64>                          ****END OF INPUT****
 Total Charge           Charge          ....    0
 Multiplicity           Mult            ....    1
 Number of Electrons    NEL             ....  102
FINAL SINGLE POINT ENERGY      -652.834478004493
FINAL SINGLE POINT ENERGY      -652.856437811739
FINAL SINGLE POINT ENERGY      -652.859757134836
FINAL SINGLE POINT ENERGY      -652.860363287698
FINAL SINGLE POINT ENERGY      -652.860444295452
FINAL SINGLE POINT ENERGY      -652.860453594114
                    ***********************HURRAY********************

CARTESIAN COORDINATES (ANGSTROEM)
---------------------------------
  C    -21.079822   26.177034   46.203764
  C    -20.393954   27.504348   45.883683
  C    -20.446783   28.231434   47.250123
  C    -20.269163   27.076171   48.258679
  O    -20.582573   25.834160   47.507095
  H    -20.834527   25.348375   45.532278
  H    -19.355557   27.310813   45.587984
  H    -20.885313   28.057684   45.080312
  H    -19.672143   28.997483   47.349613
  H    -21.424012   28.706852   47.376700
  H    -20.944399   27.144390   49.114972
  H    -19.239402   26.975599   48.614142
  C    -23.332768   25.735523   45.224572
  H    -22.700353   25.418956   44.383273
  H    -23.835806   24.847055   45.621903
  O    -22.524733   26.345948   46.271273
  C    -24.391736   26.728775   44.738572
  C    -23.860814   28.011152   44.082177
  C    -23.510811   27.512653   42.656176
  C    -24.611535   26.460053   42.371962
  O    -25.189226   26.088201   43.686422
  H    -25.071967   26.971018   45.559421
  O    -24.890161   29.038582   44.052089
  H    -23.024469   28.454358   44.617939
  H    -23.518980   28.341621   41.943931
  H    -22.513105   27.059529   42.642768
  H    -24.225434   25.559520   41.884809
  H    -25.428540   26.861363   41.763839
  H    -25.744916   28.630348   43.798528

 Multiplicity           Mult            ....    1
 Number of Electrons    NEL             ....  102
 Basis Dimension        Dim             ....  149

ORBITAL ENERGIES
----------------

  NO   OCC          E(Eh)            E(eV)
   0   2.0000     -19.148445      -521.0557
   1   2.0000     -19.143330      -520.9165
   2   2.0000     -19.140977      -520.8525
   3   2.0000     -19.139540      -520.8134
   4   2.0000     -10.283805      -279.8366
   5   2.0000     -10.241471      -278.6846
   6   2.0000     -10.235875      -278.5323
   7   2.0000     -10.235467      -278.5212
   8   2.0000     -10.234264      -278.4885
   9   2.0000     -10.225397      -278.2472
  10   2.0000     -10.193064      -277.3674
  11   2.0000     -10.189461      -277.2693
  12   2.0000     -10.187230      -277.2086
  13   2.0000      -1.054108       -28.6837
  14   2.0000      -1.040058       -28.3014
  15   2.0000      -1.008322       -27.4378
  16   2.0000      -0.996507       -27.1163
  17   2.0000      -0.789340       -21.4790
  18   2.0000      -0.783043       -21.3077
  19   2.0000      -0.770591       -20.9688
  20   2.0000      -0.733450       -19.9582
  21   2.0000      -0.677676       -18.4405
  22   2.0000      -0.608183       -16.5495
  23   2.0000      -0.601173       -16.3587
  24   2.0000      -0.593798       -16.1581
  25   2.0000      -0.588077       -16.0024
  26   2.0000      -0.525227       -14.2922
  27   2.0000      -0.521294       -14.1851
  28   2.0000      -0.496333       -13.5059
  29   2.0000      -0.494155       -13.4466
  30   2.0000      -0.474451       -12.9105
  31   2.0000      -0.458877       -12.4867
  32   2.0000      -0.454785       -12.3753
  33   2.0000      -0.440845       -11.9960
  34   2.0000      -0.425490       -11.5782
  35   2.0000      -0.417172       -11.3518
  36   2.0000      -0.406656       -11.0657
  37   2.0000      -0.395553       -10.7636
  38   2.0000      -0.377831       -10.2813
  39   2.0000      -0.372244       -10.1293
  40   2.0000      -0.363974        -9.9042
  41   2.0000      -0.357857        -9.7378
  42   2.0000      -0.353243        -9.6122
  43   2.0000      -0.334126        -9.0920
  44   2.0000      -0.315959        -8.5977
  45   2.0000      -0.312342        -8.4992
  46   2.0000      -0.308177        -8.3859
  47   2.0000      -0.274162        -7.4603
  48   2.0000      -0.266535        -7.2528
  49   2.0000      -0.259655        -7.0656
  50   2.0000      -0.241108        -6.5609
  51   0.0000       0.061133         1.6635
  52   0.0000       0.066035         1.7969
  53   0.0000       0.081261         2.2112
  54   0.0000       0.092416         2.5148
  55   0.0000       0.102321         2.7843

MULLIKEN ATOMIC CHARGES
-----------------------
   0 C :    0.288934
   1 C :   -0.263979
   2 C :   -0.301738
   3 C :   -0.000935
   4 O :   -0.499691
   5 H :    0.139294
   6 H :    0.144815
   7 H :    0.142528
   8 H :    0.143473
   9 H :    0.166247
  10 H :    0.155270
  11 H :    0.141711
  12 C :   -0.000880
  13 H :    0.120484
  14 H :    0.160963
  15 O :   -0.521076
  16 C :    0.057536
  17 C :    0.081111
  18 C :   -0.297008
  19 C :   -0.033097
  20 O :   -0.526189
  21 H :    0.171205
  22 O :   -0.604181
  23 H :    0.169024
  24 H :    0.165354
  25 H :    0.137389
  26 H :    0.148731
  27 H :    0.149709
  28 H :    0.364995
Sum of atomic charges:   -0.0000000

LOEWDIN ATOMIC CHARGES
----------------------
   0 C :    0.179445
   1 C :   -0.226392
   2 C :   -0.216558
   3 C :   -0.025338
   4 O :   -0.308715
   5 H :    0.097451
   6 H :    0.113629
   7 H :    0.112288
   8 H :    0.115140
   9 H :    0.120618
  10 H :    0.109908
  11 H :    0.102333
  12 C :   -0.034355
  13 H :    0.091245
  14 H :    0.113255
  15 O :   -0.339306
  16 C :    0.014203
  17 C :    0.036387
  18 C :   -0.242183
  19 C :   -0.039193
  20 O :   -0.329651
  21 H :    0.120553
  22 O :   -0.414428
  23 H :    0.120136
  24 H :    0.128023
  25 H :    0.109623
  26 H :    0.104846
  27 H :    0.104101
  28 H :    0.282935

  Mayer bond orders larger than 0.100000
B(  0-C ,  1-C ) :   0.9354 B(  0-C ,  4-O ) :   0.9394 B(  0-C ,  5-H ) :   0.9202
B(  0-C , 15-O ) :   0.8364 B(  1-C ,  2-C ) :   0.9561 B(  1-C ,  6-H ) :   0.9343
B(  1-C ,  7-H ) :   0.9316 B(  2-C ,  3-C ) :   0.9540 B(  2-C ,  8-H ) :   0.9449
B(  2-C ,  9-H ) :   0.9424 B(  3-C ,  4-O ) :   0.8354 B(  3-C , 10-H ) :   0.9343
B(  3-C , 11-H ) :   0.9397 B( 12-C , 13-H ) :   0.9212 B( 12-C , 14-H ) :   0.9219
B( 12-C , 15-O ) :   0.8328 B( 12-C , 16-C ) :   0.9017 B( 16-C , 17-C ) :   0.9109
B( 16-C , 20-O ) :   0.8384 B( 16-C , 21-H ) :   0.9244 B( 17-C , 18-C ) :   0.9128
B( 17-C , 22-O ) :   0.8908 B( 17-C , 23-H ) :   0.9186 B( 18-C , 19-C ) :   0.9403
B( 18-C , 24-H ) :   0.9370 B( 18-C , 25-H ) :   0.9349 B( 19-C , 20-O ) :   0.8431
B( 19-C , 26-H ) :   0.9349 B( 19-C , 27-H ) :   0.9373 B( 22-O , 28-H ) :   0.7942

FINAL SINGLE POINT ENERGY      -652.860454089395

DIPOLE MOMENT
-------------
                                X             Y             Z
Electronic contribution:     -4.05514      -2.49971       1.86637
Nuclear contribution   :      4.81110       2.75949      -2.77823
                        -----------------------------------------
Total Dipole Moment    :      0.75595       0.25978      -0.91186
                        -----------------------------------------
Magnitude (a.u.)       :      1.21262
Magnitude (Debye)      :      3.08222

Rotational constants in cm-1:     0.055336     0.013296     0.012314
Rotational constants in MHz :  1658.918384   398.613632   369.177869

                             ****ORCA TERMINATED NORMALLY****
TOTAL RUN TIME: 0 days 0 hours 22 minutes 10 seconds 71 msec
