                         Program Version 4.2.0 -  RELEASE  -
|  1> # Test redundant internal optimization
|  2> #
|  3> ! RKS B3LYP  Opt TightSCF SmallPrint
|  4>
|  5> %basis
|  6>         Basis "6-31G"
|  7> end
|  8>
|  9> %geom
| 10> Constraints
| 11> { D 4  0  15  12  285.0   C } # D for Dihedral angle
| 12> { D 0  15  12  16  270.0   C } # D for Dihedral angle
| 13> { D 0  4  3  2   C } # D for Dihedral angle
| 14> { D 4  3  2  1   C } # D for Dihedral angle
| 15> { D 3  2  1  0   C } # D for Dihedral angle
| 16> { D 2  1  0  4   C } # D for Dihedral angle
| 17> { D 1  0  4  3   C } # D for Dihedral angle
| 18> { D 16  20  19  18   C } # D for Dihedral angle
| 19> { D 20  19  18  17   C } # D for Dihedral angle
| 20> { D 19  18  17  16   C } # D for Dihedral angle
| 21> { D 18  17  16  20   C } # D for Dihedral angle
| 22> { D 17  16  20  19   C } # D for Dihedral angle
| 23> { D 15  12  16  20   C } # D for Dihedral angle
| 24> end
| 25> end
| 26>
| 27>
| 28> #%pal
| 29> #nprocs 8
| 30> #end
| 31>
| 32> * xyz 0 1
| 33> C  -21.048   26.222   46.251
| 34> C  -20.361   27.558   45.944
| 35> C  -20.329   28.222   47.341
| 36> C  -20.110   27.022   48.296
| 37> O  -20.473   25.807   47.535
| 38> H  -20.833   25.428   45.533
| 39> H  -19.344   27.382   45.576
| 40> H  -20.898   28.157   45.201
| 41> H  -19.543   28.978   47.434
| 42> H  -21.289   28.710   47.548
| 43> H  -20.733   27.082   49.195
| 44> H  -19.064   26.913   48.597
| 45> C  -23.396   25.070   46.435
| 46> H  -22.784   24.293   46.911
| 47> H  -24.307   25.204   47.033
| 48> O  -22.586   26.394   46.375
| 49> C  -23.824   24.563   45.030
| 50> C  -24.609   25.636   44.267
| 51> C  -23.473   26.554   43.759
| 52> C  -22.321   25.560   43.465
| 53> O  -22.645   24.315   44.194
| 54> H  -24.346   23.611   45.137
| 55> O  -25.368   24.992   43.074
| 56> H  -25.336   26.165   44.893
| 57> H  -23.758   27.135   42.875
| 58> H  -23.181   27.262   44.544
| 59> H  -21.349   25.933   43.803
| 60> H  -22.252   25.303   42.404
| 61> H  -24.660   24.456   42.433
| 62> *
| 63>
| 64>                          ****END OF INPUT****
 Total Charge           Charge          ....    0
 Multiplicity           Mult            ....    1
 Number of Electrons    NEL             ....  102
FINAL SINGLE POINT ENERGY      -652.835440105359
FINAL SINGLE POINT ENERGY      -652.860136603186
FINAL SINGLE POINT ENERGY      -652.865035826748
FINAL SINGLE POINT ENERGY      -652.868319244333
FINAL SINGLE POINT ENERGY      -652.868667578857
FINAL SINGLE POINT ENERGY      -652.868705971767
FINAL SINGLE POINT ENERGY      -652.868708157404
                    ***********************HURRAY********************

CARTESIAN COORDINATES (ANGSTROEM)
---------------------------------
  C    -21.006836   26.213800   46.287413
  C    -20.351319   27.576706   46.065687
  C    -20.363291   28.170257   47.493175
  C    -20.132254   26.932207   48.387893
  O    -20.454419   25.754588   47.542248
  H    -20.797444   25.432047   45.556834
  H    -19.325415   27.428525   45.709446
  H    -20.893964   28.188318   45.341579
  H    -19.594844   28.935840   47.637565
  H    -21.341266   28.616073   47.696353
  H    -20.772725   26.917934   49.273407
  H    -19.088539   26.818677   48.695654
  C    -23.245752   25.220432   46.418626
  H    -22.680312   24.430800   46.927104
  H    -24.127905   25.454255   47.024372
  O    -22.440928   26.439628   46.393692
  C    -23.697206   24.719080   45.045631
  C    -24.598838   25.646732   44.215296
  C    -23.554027   26.532207   43.487615
  C    -22.381533   25.554754   43.229066
  O    -22.578861   24.404483   44.148111
  H    -24.222953   23.770624   45.219426
  O    -25.414651   24.878383   43.286629
  H    -25.306881   26.219888   44.813773
  H    -23.969274   26.952199   42.568190
  H    -23.244753   27.341619   44.153115
  H    -21.404035   26.005395   43.423349
  H    -22.381112   25.151135   42.211420
  H    -24.848664   24.220414   42.830330

 Multiplicity           Mult            ....    1
 Number of Electrons    NEL             ....  102
 Basis Dimension        Dim             ....  149

ORBITAL ENERGIES
----------------

  NO   OCC          E(Eh)            E(eV)
   0   2.0000     -19.147795      -521.0380
   1   2.0000     -19.146705      -521.0083
   2   2.0000     -19.139232      -520.8050
   3   2.0000     -19.137387      -520.7548
   4   2.0000     -10.275117      -279.6001
   5   2.0000     -10.239582      -278.6332
   6   2.0000     -10.235493      -278.5219
   7   2.0000     -10.231939      -278.4252
   8   2.0000     -10.229752      -278.3657
   9   2.0000     -10.224529      -278.2236
  10   2.0000     -10.186902      -277.1997
  11   2.0000     -10.185526      -277.1622
  12   2.0000     -10.182828      -277.0888
  13   2.0000      -1.054095       -28.6834
  14   2.0000      -1.036461       -28.2035
  15   2.0000      -1.006667       -27.3928
  16   2.0000      -0.992128       -26.9972
  17   2.0000      -0.790260       -21.5041
  18   2.0000      -0.777825       -21.1657
  19   2.0000      -0.767789       -20.8926
  20   2.0000      -0.730896       -19.8887
  21   2.0000      -0.675331       -18.3767
  22   2.0000      -0.602419       -16.3927
  23   2.0000      -0.602121       -16.3845
  24   2.0000      -0.597304       -16.2535
  25   2.0000      -0.574628       -15.6364
  26   2.0000      -0.525280       -14.2936
  27   2.0000      -0.507618       -13.8130
  28   2.0000      -0.499414       -13.5897
  29   2.0000      -0.487488       -13.2652
  30   2.0000      -0.469115       -12.7653
  31   2.0000      -0.460195       -12.5225
  32   2.0000      -0.447911       -12.1883
  33   2.0000      -0.441838       -12.0230
  34   2.0000      -0.420186       -11.4338
  35   2.0000      -0.413245       -11.2450
  36   2.0000      -0.398570       -10.8456
  37   2.0000      -0.393590       -10.7101
  38   2.0000      -0.378029       -10.2867
  39   2.0000      -0.366515        -9.9734
  40   2.0000      -0.361686        -9.8420
  41   2.0000      -0.356441        -9.6992
  42   2.0000      -0.345865        -9.4115
  43   2.0000      -0.334021        -9.0892
  44   2.0000      -0.327468        -8.9109
  45   2.0000      -0.308325        -8.3899
  46   2.0000      -0.301919        -8.2156
  47   2.0000      -0.279379        -7.6023
  48   2.0000      -0.267424        -7.2770
  49   2.0000      -0.254628        -6.9288
  50   2.0000      -0.241912        -6.5828
  51   0.0000       0.062224         1.6932
  52   0.0000       0.085068         2.3148
  53   0.0000       0.090207         2.4547
  54   0.0000       0.102693         2.7944
  55   0.0000       0.107318         2.9203

MULLIKEN ATOMIC CHARGES
-----------------------
   0 C :    0.271832
   1 C :   -0.267490
   2 C :   -0.299889
   3 C :   -0.002138
   4 O :   -0.513730
   5 H :    0.176736
   6 H :    0.146554
   7 H :    0.151964
   8 H :    0.141057
   9 H :    0.162991
  10 H :    0.147590
  11 H :    0.142220
  12 C :   -0.034080
  13 H :    0.168916
  14 H :    0.147831
  15 O :   -0.520908
  16 C :    0.070010
  17 C :    0.081887
  18 C :   -0.288548
  19 C :   -0.029973
  20 O :   -0.527498
  21 H :    0.156090
  22 O :   -0.603242
  23 H :    0.155575
  24 H :    0.151604
  25 H :    0.169885
  26 H :    0.138487
  27 H :    0.143381
  28 H :    0.362887
Sum of atomic charges:    0.0000000

LOEWDIN ATOMIC CHARGES
----------------------
   0 C :    0.165189
   1 C :   -0.217190
   2 C :   -0.215978
   3 C :   -0.027252
   4 O :   -0.325600
   5 H :    0.112845
   6 H :    0.114850
   7 H :    0.119233
   8 H :    0.113251
   9 H :    0.119405
  10 H :    0.105717
  11 H :    0.102645
  12 C :   -0.044770
  13 H :    0.117609
  14 H :    0.114110
  15 O :   -0.333074
  16 C :    0.004882
  17 C :    0.039330
  18 C :   -0.240918
  19 C :   -0.036914
  20 O :   -0.333498
  21 H :    0.115964
  22 O :   -0.416585
  23 H :    0.118115
  24 H :    0.121050
  25 H :    0.126140
  26 H :    0.099009
  27 H :    0.100456
  28 H :    0.281978

  Mayer bond orders larger than 0.100000
B(  0-C ,  1-C ) :   0.9458 B(  0-C ,  4-O ) :   0.8984 B(  0-C ,  5-H ) :   0.9028
B(  0-C , 15-O ) :   0.8400 B(  1-C ,  2-C ) :   0.9540 B(  1-C ,  6-H ) :   0.9404
B(  1-C ,  7-H ) :   0.9360 B(  2-C ,  3-C ) :   0.9561 B(  2-C ,  8-H ) :   0.9453
B(  2-C ,  9-H ) :   0.9440 B(  3-C ,  4-O ) :   0.8373 B(  3-C , 10-H ) :   0.9357
B(  3-C , 11-H ) :   0.9404 B( 12-C , 13-H ) :   0.9148 B( 12-C , 14-H ) :   0.9293
B( 12-C , 15-O ) :   0.8657 B( 12-C , 16-C ) :   0.8908 B( 16-C , 17-C ) :   0.9085
B( 16-C , 20-O ) :   0.8564 B( 16-C , 21-H ) :   0.9169 B( 17-C , 18-C ) :   0.9219
B( 17-C , 22-O ) :   0.8902 B( 17-C , 23-H ) :   0.9353 B( 18-C , 19-C ) :   0.9440
B( 18-C , 24-H ) :   0.9368 B( 18-C , 25-H ) :   0.9200 B( 19-C , 20-O ) :   0.8393
B( 19-C , 26-H ) :   0.9297 B( 19-C , 27-H ) :   0.9391 B( 22-O , 28-H ) :   0.7962

FINAL SINGLE POINT ENERGY      -652.868706818657

DIPOLE MOMENT
-------------
                                X             Y             Z
Electronic contribution:     -2.68505      -4.94667      -0.64870
Nuclear contribution   :      3.22277       5.77179       0.63748
                        -----------------------------------------
Total Dipole Moment    :      0.53772       0.82512      -0.01122
                        -----------------------------------------
Magnitude (a.u.)       :      0.98493
Magnitude (Debye)      :      2.50350

Rotational constants in cm-1:     0.063060     0.014138     0.013525
Rotational constants in MHz :  1890.476286   423.833994   405.472061

                             ****ORCA TERMINATED NORMALLY****
TOTAL RUN TIME: 0 days 0 hours 33 minutes 48 seconds 207 msec
