                         Program Version 4.2.0 -  RELEASE  -
|  1> # Test redundant internal optimization
|  2> #
|  3> ! RKS B3LYP  Opt TightSCF SmallPrint
|  4>
|  5> %basis
|  6>         Basis "6-31G"
|  7> end
|  8>
|  9> %geom
| 10> Constraints
| 11> { D 4  0  15  12  165.0   C } # D for Dihedral angle
| 12> { D 0  15  12  16  30.0   C } # D for Dihedral angle
| 13> { D 0  4  3  2   C } # D for Dihedral angle
| 14> { D 4  3  2  1   C } # D for Dihedral angle
| 15> { D 3  2  1  0   C } # D for Dihedral angle
| 16> { D 2  1  0  4   C } # D for Dihedral angle
| 17> { D 1  0  4  3   C } # D for Dihedral angle
| 18> { D 16  20  19  18   C } # D for Dihedral angle
| 19> { D 20  19  18  17   C } # D for Dihedral angle
| 20> { D 19  18  17  16   C } # D for Dihedral angle
| 21> { D 18  17  16  20   C } # D for Dihedral angle
| 22> { D 17  16  20  19   C } # D for Dihedral angle
| 23> { D 15  12  16  20   C } # D for Dihedral angle
| 24> end
| 25> end
| 26>
| 27>
| 28> #%pal
| 29> #nprocs 8
| 30> #end
| 31>
| 32> * xyz 0 1
| 33> C  -21.048   26.222   46.251
| 34> C  -20.361   27.558   45.944
| 35> C  -20.329   28.222   47.341
| 36> C  -20.110   27.022   48.296
| 37> O  -20.473   25.807   47.535
| 38> H  -20.833   25.428   45.533
| 39> H  -19.344   27.382   45.576
| 40> H  -20.898   28.157   45.201
| 41> H  -19.543   28.978   47.434
| 42> H  -21.289   28.710   47.548
| 43> H  -20.733   27.082   49.195
| 44> H  -19.064   26.913   48.597
| 45> C  -23.260   27.170   45.210
| 46> H  -24.289   26.812   45.084
| 47> H  -23.296   28.244   45.435
| 48> O  -22.586   26.394   46.375
| 49> C  -22.512   26.994   43.860
| 50> C  -22.561   25.538   43.382
| 51> C  -23.985   25.453   42.782
| 52> C  -24.193   26.861   42.168
| 53> O  -23.189   27.746   42.798
| 54> H  -21.506   27.406   43.951
| 55> H  -21.804   25.371   42.607
| 56> O  -22.326   24.513   44.525
| 57> H  -24.085   24.655   42.039
| 58> H  -24.717   25.265   43.576
| 59> H  -25.194   27.259   42.362
| 60> H  -24.008   26.878   41.091
| 61> H  -23.073   24.662   45.312
| 62> *
| 63>
| 64>                          ****END OF INPUT****
 Total Charge           Charge          ....    0
 Multiplicity           Mult            ....    1
 Number of Electrons    NEL             ....  102
FINAL SINGLE POINT ENERGY      -652.815865484451
FINAL SINGLE POINT ENERGY      -652.842880629549
FINAL SINGLE POINT ENERGY      -652.850884260043
FINAL SINGLE POINT ENERGY      -652.852191790484
FINAL SINGLE POINT ENERGY      -652.852429545743
FINAL SINGLE POINT ENERGY      -652.852482632552
FINAL SINGLE POINT ENERGY      -652.852488664897
                    ***********************HURRAY********************

CARTESIAN COORDINATES (ANGSTROEM)
---------------------------------
  C    -20.970936   26.214729   46.314148
  C    -20.122216   27.457806   46.043990
  C    -20.281151   28.257017   47.367405
  C    -20.349843   27.134696   48.423584
  O    -20.682138   25.897135   47.678121
  H    -20.749770   25.343191   45.700922
  H    -19.080643   27.144849   45.903182
  H    -20.419255   28.039552   45.171167
  H    -19.449217   28.945765   47.541308
  H    -21.211010   28.833198   47.348789
  H    -21.119133   27.302027   49.181611
  H    -19.388964   26.954041   48.914928
  C    -23.101274   27.164413   45.160881
  H    -24.126968   26.786328   45.201860
  H    -23.141654   28.243149   45.361941
  O    -22.422736   26.494643   46.277967
  C    -22.530441   26.995333   43.739085
  C    -22.591460   25.552575   43.200570
  C    -24.094881   25.425413   42.794658
  C    -24.429920   26.844136   42.286588
  O    -23.375132   27.751286   42.817984
  H    -21.531665   27.422483   43.651606
  H    -21.948368   25.454127   42.323456
  O    -22.149976   24.513780   44.104869
  H    -24.246883   24.653745   42.035775
  H    -24.687627   25.154316   43.675620
  H    -25.406048   27.204566   42.623995
  H    -24.384568   26.918027   41.195690
  H    -22.615125   24.599677   44.966299

 Multiplicity           Mult            ....    1
 Number of Electrons    NEL             ....  102
 Basis Dimension        Dim             ....  149

ORBITAL ENERGIES
----------------

  NO   OCC          E(Eh)            E(eV)
   0   2.0000     -19.149085      -521.0731
   1   2.0000     -19.146227      -520.9953
   2   2.0000     -19.142305      -520.8886
   3   2.0000     -19.139951      -520.8245
   4   2.0000     -10.277253      -279.6583
   5   2.0000     -10.246566      -278.8232
   6   2.0000     -10.241411      -278.6830
   7   2.0000     -10.235991      -278.5355
   8   2.0000     -10.235289      -278.5164
   9   2.0000     -10.224641      -278.2266
  10   2.0000     -10.194371      -277.4029
  11   2.0000     -10.188948      -277.2554
  12   2.0000     -10.188299      -277.2377
  13   2.0000      -1.051639       -28.6166
  14   2.0000      -1.037024       -28.2189
  15   2.0000      -1.019308       -27.7368
  16   2.0000      -0.988411       -26.8960
  17   2.0000      -0.786462       -21.4007
  18   2.0000      -0.783174       -21.3113
  19   2.0000      -0.770173       -20.9575
  20   2.0000      -0.737029       -20.0556
  21   2.0000      -0.683450       -18.5976
  22   2.0000      -0.612343       -16.6627
  23   2.0000      -0.607681       -16.5358
  24   2.0000      -0.600796       -16.3485
  25   2.0000      -0.568844       -15.4790
  26   2.0000      -0.536360       -14.5951
  27   2.0000      -0.513733       -13.9794
  28   2.0000      -0.499532       -13.5930
  29   2.0000      -0.488218       -13.2851
  30   2.0000      -0.470082       -12.7916
  31   2.0000      -0.459388       -12.5006
  32   2.0000      -0.446542       -12.1510
  33   2.0000      -0.438893       -11.9429
  34   2.0000      -0.430791       -11.7224
  35   2.0000      -0.416103       -11.3227
  36   2.0000      -0.411859       -11.2073
  37   2.0000      -0.403552       -10.9812
  38   2.0000      -0.382789       -10.4162
  39   2.0000      -0.375145       -10.2082
  40   2.0000      -0.362329        -9.8595
  41   2.0000      -0.359073        -9.7709
  42   2.0000      -0.352545        -9.5932
  43   2.0000      -0.341844        -9.3020
  44   2.0000      -0.316390        -8.6094
  45   2.0000      -0.314932        -8.5697
  46   2.0000      -0.303040        -8.2461
  47   2.0000      -0.268568        -7.3081
  48   2.0000      -0.261101        -7.1049
  49   2.0000      -0.256909        -6.9908
  50   2.0000      -0.246018        -6.6945
  51   0.0000       0.054993         1.4964
  52   0.0000       0.069139         1.8814
  53   0.0000       0.081855         2.2274
  54   0.0000       0.097203         2.6450
  55   0.0000       0.105777         2.8783

MULLIKEN ATOMIC CHARGES
-----------------------
   0 C :    0.282810
   1 C :   -0.292716
   2 C :   -0.299498
   3 C :   -0.000023
   4 O :   -0.499121
   5 H :    0.177710
   6 H :    0.152953
   7 H :    0.146510
   8 H :    0.143263
   9 H :    0.157768
  10 H :    0.153590
  11 H :    0.143927
  12 C :   -0.028472
  13 H :    0.151104
  14 H :    0.153388
  15 O :   -0.541229
  16 C :    0.050062
  17 C :    0.099181
  18 C :   -0.320258
  19 C :   -0.016973
  20 O :   -0.519480
  21 H :    0.158494
  22 H :    0.164424
  23 O :   -0.603794
  24 H :    0.160505
  25 H :    0.147171
  26 H :    0.145542
  27 H :    0.154984
  28 H :    0.378178
Sum of atomic charges:   -0.0000000

LOEWDIN ATOMIC CHARGES
----------------------
   0 C :    0.171887
   1 C :   -0.232956
   2 C :   -0.216437
   3 C :   -0.025840
   4 O :   -0.299284
   5 H :    0.112783
   6 H :    0.119113
   7 H :    0.113428
   8 H :    0.115028
   9 H :    0.115580
  10 H :    0.109073
  11 H :    0.103358
  12 C :   -0.055421
  13 H :    0.110365
  14 H :    0.106708
  15 O :   -0.352801
  16 C :    0.003524
  17 C :    0.035415
  18 C :   -0.240534
  19 C :   -0.031655
  20 O :   -0.319459
  21 H :    0.110762
  22 H :    0.117296
  23 O :   -0.405683
  24 H :    0.125149
  25 H :    0.111148
  26 H :    0.104014
  27 H :    0.108437
  28 H :    0.287001

  Mayer bond orders larger than 0.100000
B(  0-C ,  1-C ) :   0.9340 B(  0-C ,  4-O ) :   0.9315 B(  0-C ,  5-H ) :   0.8936
B(  0-C , 15-O ) :   0.7999 B(  1-C ,  2-C ) :   0.9468 B(  1-C ,  6-H ) :   0.9347
B(  1-C ,  7-H ) :   0.9238 B(  2-C ,  3-C ) :   0.9550 B(  2-C ,  8-H ) :   0.9448
B(  2-C ,  9-H ) :   0.9457 B(  3-C ,  4-O ) :   0.8332 B(  3-C , 10-H ) :   0.9351
B(  3-C , 11-H ) :   0.9396 B( 12-C , 13-H ) :   0.9341 B( 12-C , 14-H ) :   0.9212
B( 12-C , 15-O ) :   0.8310 B( 12-C , 16-C ) :   0.8845 B( 16-C , 17-C ) :   0.8866
B( 16-C , 20-O ) :   0.8404 B( 16-C , 21-H ) :   0.9195 B( 17-C , 18-C ) :   0.9133
B( 17-C , 22-H ) :   0.9338 B( 17-C , 23-O ) :   0.9094 B( 18-C , 19-C ) :   0.9402
B( 18-C , 24-H ) :   0.9420 B( 18-C , 25-H ) :   0.9416 B( 19-C , 20-O ) :   0.8324
B( 19-C , 26-H ) :   0.9334 B( 19-C , 27-H ) :   0.9376 B( 23-O , 28-H ) :   0.7642

FINAL SINGLE POINT ENERGY      -652.852489864702

DIPOLE MOMENT
-------------
                                X             Y             Z
Electronic contribution:     -0.14503      -2.83846       0.30658
Nuclear contribution   :     -0.04045       3.53870      -0.74671
                        -----------------------------------------
Total Dipole Moment    :     -0.18548       0.70024      -0.44013
                        -----------------------------------------
Magnitude (a.u.)       :      0.84761
Magnitude (Debye)      :      2.15446

Rotational constants in cm-1:     0.060762     0.014423     0.013099
Rotational constants in MHz :  1821.591837   432.392743   392.704669

                             ****ORCA TERMINATED NORMALLY****
TOTAL RUN TIME: 0 days 0 hours 45 minutes 3 seconds 649 msec
