                         Program Version 4.2.1 -  RELEASE  -
|  1> # Test redundant internal optimization
|  2> #
|  3> ! RKS B3LYP  Opt TightSCF SmallPrint
|  4>
|  5> %basis
|  6>         Basis "6-31G"
|  7> end
|  8>
|  9> %geom
| 10> Constraints
| 11> { D 4  0  19  14  240.0   C } # D for Dihedral angle
| 12> { D 0  19  14  12  210.0   C } # D for Dihedral angle
| 13> { D 0  4  3  2   C } # D for Dihedral angle
| 14> { D 4  3  2  1   C } # D for Dihedral angle
| 15> { D 3  2  1  0   C } # D for Dihedral angle
| 16> { D 2  1  0  4   C } # D for Dihedral angle
| 17> { D 1  0  4  3   C } # D for Dihedral angle
| 18> { D 14  15  16  17   C } # D for Dihedral angle
| 19> { D 15  16  17  12   C } # D for Dihedral angle
| 20> { D 16  17  12  14   C } # D for Dihedral angle
| 21> { D 17  12  14  15   C } # D for Dihedral angle
| 22> { D 12  14  15  16   C } # D for Dihedral angle
| 23> end
| 24> end
| 25>
| 26>
| 27> #%pal
| 28> #nprocs 8
| 29> #end
| 30>
| 31> * xyz 0 1
| 32> C  -21.048   26.222   46.251
| 33> C  -20.361   27.558   45.944
| 34> C  -20.329   28.222   47.341
| 35> C  -20.110   27.022   48.296
| 36> O  -20.473   25.807   47.535
| 37> H  -20.833   25.428   45.533
| 38> H  -19.344   27.382   45.576
| 39> H  -20.898   28.157   45.201
| 40> H  -19.543   28.978   47.434
| 41> H  -21.289   28.710   47.548
| 42> H  -20.733   27.082   49.195
| 43> H  -19.064   26.913   48.597
| 44> C  -24.555   26.212   45.119
| 45> H  -25.276   25.490   44.704
| 46> C  -23.235   25.530   45.496
| 47> C  -22.545   25.397   44.118
| 48> C  -22.991   26.682   43.376
| 49> O  -24.174   27.197   44.100
| 50> H  -25.029   26.763   45.933
| 51> O  -22.472   26.381   46.366
| 52> H  -23.378   24.565   45.994
| 53> H  -21.456   25.316   44.194
| 54> H  -22.912   24.504   43.597
| 55> H  -23.263   26.492   42.332
| 56> H  -22.229   27.467   43.405
| 57> *
| 58>
| 59>                          ****END OF INPUT****
 Total Charge           Charge          ....    0
 Multiplicity           Mult            ....    1
 Number of Electrons    NEL             ....   86
FINAL SINGLE POINT ENERGY      -538.415421632716
FINAL SINGLE POINT ENERGY      -538.427154360828
FINAL SINGLE POINT ENERGY      -538.428529297293
FINAL SINGLE POINT ENERGY      -538.428819338657
FINAL SINGLE POINT ENERGY      -538.428841683664
FINAL SINGLE POINT ENERGY      -538.428848567806
                    ***********************HURRAY********************

CARTESIAN COORDINATES (ANGSTROEM)
---------------------------------
  C    -20.869852   26.224698   46.228971
  C    -20.303942   27.628920   46.013429
  C    -20.431713   28.244826   47.427757
  C    -20.157333   27.039783   48.355060
  O    -20.350042   25.829858   47.517920
  H    -20.535838   25.466729   45.519134
  H    -19.251902   27.559175   45.711577
  H    -20.860404   28.183888   45.255149
  H    -19.731251   29.068412   47.593836
  H    -21.449872   28.617695   47.571690
  H    -20.840787   26.990302   49.206720
  H    -19.125178   27.009259   48.717666
  C    -24.433685   26.336274   45.192227
  H    -25.279427   25.701088   44.891945
  C    -23.177332   25.497856   45.424056
  C    -22.685243   25.271915   43.983393
  C    -23.051124   26.594690   43.266515
  O    -24.063304   27.260378   44.114013
  H    -24.701291   26.933015   46.064250
  O    -22.311764   26.312786   46.278262
  H    -23.388173   24.550948   45.937020
  H    -21.625344   25.022090   43.901760
  H    -23.248256   24.430945   43.562495
  H    -23.468759   26.425855   42.267828
  H    -22.198185   27.275616   43.182325

 Multiplicity           Mult            ....    1
 Number of Electrons    NEL             ....   86
 Basis Dimension        Dim             ....  127

ORBITAL ENERGIES
----------------

  NO   OCC          E(Eh)            E(eV)
   0   2.0000     -19.137607      -520.7608
   1   2.0000     -19.133871      -520.6591
   2   2.0000     -19.131604      -520.5974
   3   2.0000     -10.277108      -279.6543
   4   2.0000     -10.243695      -278.7451
   5   2.0000     -10.227263      -278.2980
   6   2.0000     -10.222246      -278.1614
   7   2.0000     -10.219992      -278.1001
   8   2.0000     -10.195101      -277.4228
   9   2.0000     -10.180880      -277.0358
  10   2.0000     -10.180486      -277.0251
  11   2.0000      -1.048564       -28.5329
  12   2.0000      -1.015571       -27.6351
  13   2.0000      -0.986232       -26.8367
  14   2.0000      -0.790837       -21.5198
  15   2.0000      -0.776973       -21.1425
  16   2.0000      -0.747452       -20.3392
  17   2.0000      -0.717950       -19.5364
  18   2.0000      -0.615820       -16.7573
  19   2.0000      -0.601985       -16.3808
  20   2.0000      -0.593725       -16.1561
  21   2.0000      -0.567736       -15.4489
  22   2.0000      -0.526170       -14.3178
  23   2.0000      -0.502551       -13.6751
  24   2.0000      -0.484744       -13.1906
  25   2.0000      -0.480017       -13.0619
  26   2.0000      -0.456070       -12.4103
  27   2.0000      -0.439024       -11.9465
  28   2.0000      -0.426561       -11.6073
  29   2.0000      -0.420199       -11.4342
  30   2.0000      -0.399249       -10.8641
  31   2.0000      -0.383638       -10.4393
  32   2.0000      -0.378044       -10.2871
  33   2.0000      -0.370248       -10.0750
  34   2.0000      -0.362608        -9.8671
  35   2.0000      -0.351726        -9.5710
  36   2.0000      -0.343977        -9.3601
  37   2.0000      -0.313865        -8.5407
  38   2.0000      -0.305340        -8.3087
  39   2.0000      -0.298632        -8.1262
  40   2.0000      -0.262826        -7.1519
  41   2.0000      -0.242572        -6.6007
  42   2.0000      -0.238569        -6.4918
  43   0.0000       0.074152         2.0178
  44   0.0000       0.092171         2.5081
  45   0.0000       0.097281         2.6472
  46   0.0000       0.106954         2.9104
  47   0.0000       0.114573         3.1177

MULLIKEN ATOMIC CHARGES
-----------------------
   0 C :    0.285848
   1 C :   -0.256772
   2 C :   -0.298671
   3 C :   -0.001121
   4 O :   -0.507215
   5 H :    0.137597
   6 H :    0.137823
   7 H :    0.158258
   8 H :    0.138818
   9 H :    0.166072
  10 H :    0.149746
  11 H :    0.138449
  12 C :    0.002974
  13 H :    0.123835
  14 C :    0.088906
  15 C :   -0.319677
  16 C :   -0.004300
  17 O :   -0.518812
  18 H :    0.171351
  19 O :   -0.522222
  20 H :    0.141194
  21 H :    0.149399
  22 H :    0.151250
  23 H :    0.140986
  24 H :    0.146283
Sum of atomic charges:   -0.0000000

LOEWDIN ATOMIC CHARGES
----------------------
   0 C :    0.175275
   1 C :   -0.221835
   2 C :   -0.215683
   3 C :   -0.026952
   4 O :   -0.319524
   5 H :    0.096532
   6 H :    0.109924
   7 H :    0.121898
   8 H :    0.112855
   9 H :    0.121127
  10 H :    0.106594
  11 H :    0.100465
  12 C :   -0.033579
  13 H :    0.090936
  14 C :    0.045748
  15 C :   -0.240335
  16 C :   -0.031586
  17 O :   -0.329869
  18 H :    0.125048
  19 O :   -0.328319
  20 H :    0.101968
  21 H :    0.117341
  22 H :    0.119475
  23 H :    0.100763
  24 H :    0.101733

  Mayer bond orders larger than 0.100000
B(  0-C ,  1-C ) :   0.9416 B(  0-C ,  4-O ) :   0.9221 B(  0-C ,  5-H ) :   0.9151
B(  0-C , 19-O ) :   0.8462 B(  1-C ,  2-C ) :   0.9575 B(  1-C ,  6-H ) :   0.9376
B(  1-C ,  7-H ) :   0.9333 B(  2-C ,  3-C ) :   0.9541 B(  2-C ,  8-H ) :   0.9454
B(  2-C ,  9-H ) :   0.9428 B(  3-C ,  4-O ) :   0.8394 B(  3-C , 10-H ) :   0.9351
B(  3-C , 11-H ) :   0.9400 B( 12-C , 13-H ) :   0.9154 B( 12-C , 14-C ) :   0.9282
B( 12-C , 17-O ) :   0.8645 B( 12-C , 18-H ) :   0.9300 B( 14-C , 15-C ) :   0.9374
B( 14-C , 19-O ) :   0.8421 B( 14-C , 20-H ) :   0.9222 B( 15-C , 16-C ) :   0.9407
B( 15-C , 21-H ) :   0.9302 B( 15-C , 22-H ) :   0.9348 B( 16-C , 17-O ) :   0.8652
B( 16-C , 23-H ) :   0.9320 B( 16-C , 24-H ) :   0.9327

FINAL SINGLE POINT ENERGY      -538.428849217181

DIPOLE MOMENT
-------------
                                X             Y             Z
Electronic contribution:     -1.63190      -1.46185       1.26367
Nuclear contribution   :      2.02609       1.19752      -1.71531
                        -----------------------------------------
Total Dipole Moment    :      0.39420      -0.26433      -0.45164
                        -----------------------------------------
Magnitude (a.u.)       :      0.65516
Magnitude (Debye)      :      1.66529

Rotational constants in cm-1:     0.078572     0.021311     0.020674
Rotational constants in MHz :  2355.524134   638.873928   619.794133

                             ****ORCA TERMINATED NORMALLY****
TOTAL RUN TIME: 0 days 0 hours 7 minutes 5 seconds 486 msec
