                         Program Version 4.2.0 -  RELEASE  -
|  1> # Test redundant internal optimization
|  2> #
|  3> ! RKS B3LYP  Opt TightSCF SmallPrint
|  4>
|  5> %basis
|  6>         Basis "6-31G"
|  7> end
|  8>
|  9> %geom
| 10> Constraints
| 11> { D 4  0  15  12  255.0   C } # D for Dihedral angle
| 12> { D 0  15  12  16  300.0   C } # D for Dihedral angle
| 13> { D 0  4  3  2   C } # D for Dihedral angle
| 14> { D 4  3  2  1   C } # D for Dihedral angle
| 15> { D 3  2  1  0   C } # D for Dihedral angle
| 16> { D 2  1  0  4   C } # D for Dihedral angle
| 17> { D 1  0  4  3   C } # D for Dihedral angle
| 18> { D 16  20  19  18   C } # D for Dihedral angle
| 19> { D 20  19  18  17   C } # D for Dihedral angle
| 20> { D 19  18  17  16   C } # D for Dihedral angle
| 21> { D 18  17  16  20   C } # D for Dihedral angle
| 22> { D 17  16  20  19   C } # D for Dihedral angle
| 23> { D 15  12  16  20   C } # D for Dihedral angle
| 24> end
| 25> end
| 26>
| 27>
| 28> #%pal
| 29> #nprocs 8
| 30> #end
| 31>
| 32> * xyz 0 1
| 33> C  -21.048   26.222   46.251
| 34> C  -20.361   27.558   45.944
| 35> C  -20.329   28.222   47.341
| 36> C  -20.110   27.022   48.296
| 37> O  -20.473   25.807   47.535
| 38> H  -20.833   25.428   45.533
| 39> H  -19.344   27.382   45.576
| 40> H  -20.898   28.157   45.201
| 41> H  -19.543   28.978   47.434
| 42> H  -21.289   28.710   47.548
| 43> H  -20.733   27.082   49.195
| 44> H  -19.064   26.913   48.597
| 45> C  -23.431   25.260   45.734
| 46> H  -23.188   24.307   46.221
| 47> H  -24.503   25.453   45.874
| 48> O  -22.586   26.394   46.375
| 49> C  -23.174   25.108   44.209
| 50> C  -23.408   26.431   43.470
| 51> C  -22.096   27.194   43.772
| 52> C  -21.030   26.070   43.785
| 53> O  -21.764   24.797   43.955
| 54> H  -23.760   24.269   43.829
| 55> H  -23.510   26.248   42.395
| 56> O  -24.671   27.189   43.961
| 57> H  -21.875   27.969   43.031
| 58> H  -22.159   27.678   44.754
| 59> H  -20.311   26.182   44.603
| 60> H  -20.483   26.002   42.840
| 61> H  -24.590   27.383   45.036
| 62> *
| 63>
| 64>                          ****END OF INPUT****
 Total Charge           Charge          ....    0
 Multiplicity           Mult            ....    1
 Number of Electrons    NEL             ....  102
FINAL SINGLE POINT ENERGY      -652.747182430490
FINAL SINGLE POINT ENERGY      -652.827510991900
FINAL SINGLE POINT ENERGY      -652.849502889335
FINAL SINGLE POINT ENERGY      -652.854895001259
FINAL SINGLE POINT ENERGY      -652.855794008435
FINAL SINGLE POINT ENERGY      -652.856147671118
FINAL SINGLE POINT ENERGY      -652.856240970816
FINAL SINGLE POINT ENERGY      -652.856286947434
FINAL SINGLE POINT ENERGY      -652.856298740739
                    ***********************HURRAY********************

CARTESIAN COORDINATES (ANGSTROEM)
---------------------------------
  C    -20.915337   26.275648   46.434376
  C    -20.302111   27.670424   46.294579
  C    -20.401759   28.212907   47.743646
  C    -20.164087   26.945341   48.596096
  O    -20.402226   25.795749   47.695214
  H    -20.644990   25.531016   45.688106
  H    -19.252966   27.572971   45.990381
  H    -20.820350   28.301299   45.571456
  H    -19.670260   28.999587   47.949569
  H    -21.405108   28.612984   47.917557
  H    -20.842903   26.872327   49.449767
  H    -19.131541   26.861605   48.949212
  C    -23.195456   25.418177   45.844374
  H    -23.024150   24.449578   46.333858
  H    -24.223026   25.725556   46.059324
  O    -22.364802   26.415973   46.512984
  C    -23.098811   25.188031   44.328609
  C    -23.544743   26.342595   43.412537
  C    -22.202272   27.098106   43.178856
  C    -21.163772   25.956870   43.143251
  O    -21.812826   24.771785   43.776885
  H    -23.762297   24.326667   44.168668
  H    -23.940158   25.944647   42.476387
  O    -24.607209   27.161599   43.949665
  H    -22.209988   27.693230   42.261799
  H    -22.032028   27.767863   44.027680
  H    -20.241358   26.193669   43.681597
  H    -20.906252   25.658441   42.123575
  H    -24.281212   27.650353   44.734996

 Multiplicity           Mult            ....    1
 Number of Electrons    NEL             ....  102
 Basis Dimension        Dim             ....  149

ORBITAL ENERGIES
----------------

  NO   OCC          E(Eh)            E(eV)
   0   2.0000     -19.150869      -521.1216
   1   2.0000     -19.148021      -521.0441
   2   2.0000     -19.144699      -520.9537
   3   2.0000     -19.135955      -520.7158
   4   2.0000     -10.275779      -279.6182
   5   2.0000     -10.245700      -278.7997
   6   2.0000     -10.238060      -278.5918
   7   2.0000     -10.237183      -278.5679
   8   2.0000     -10.232142      -278.4307
   9   2.0000     -10.222923      -278.1799
  10   2.0000     -10.195118      -277.4233
  11   2.0000     -10.188979      -277.2562
  12   2.0000     -10.186603      -277.1916
  13   2.0000      -1.051075       -28.6012
  14   2.0000      -1.036347       -28.2004
  15   2.0000      -1.019962       -27.7546
  16   2.0000      -0.991783       -26.9878
  17   2.0000      -0.789154       -21.4740
  18   2.0000      -0.783613       -21.3232
  19   2.0000      -0.771785       -21.0013
  20   2.0000      -0.732682       -19.9373
  21   2.0000      -0.684631       -18.6298
  22   2.0000      -0.614707       -16.7270
  23   2.0000      -0.603466       -16.4212
  24   2.0000      -0.599031       -16.3005
  25   2.0000      -0.570169       -15.5151
  26   2.0000      -0.531203       -14.4548
  27   2.0000      -0.510546       -13.8927
  28   2.0000      -0.508133       -13.8270
  29   2.0000      -0.483972       -13.1695
  30   2.0000      -0.465375       -12.6635
  31   2.0000      -0.461262       -12.5516
  32   2.0000      -0.449223       -12.2240
  33   2.0000      -0.440974       -11.9995
  34   2.0000      -0.429992       -11.7007
  35   2.0000      -0.414964       -11.2917
  36   2.0000      -0.409906       -11.1541
  37   2.0000      -0.398688       -10.8489
  38   2.0000      -0.384982       -10.4759
  39   2.0000      -0.372339       -10.1319
  40   2.0000      -0.364875        -9.9288
  41   2.0000      -0.353342        -9.6149
  42   2.0000      -0.347692        -9.4612
  43   2.0000      -0.338296        -9.2055
  44   2.0000      -0.319921        -8.7055
  45   2.0000      -0.316562        -8.6141
  46   2.0000      -0.309662        -8.4263
  47   2.0000      -0.273920        -7.4538
  48   2.0000      -0.270074        -7.3491
  49   2.0000      -0.250603        -6.8193
  50   2.0000      -0.242918        -6.6101
  51   0.0000       0.060750         1.6531
  52   0.0000       0.070659         1.9227
  53   0.0000       0.077592         2.1114
  54   0.0000       0.092378         2.5137
  55   0.0000       0.100939         2.7467

MULLIKEN ATOMIC CHARGES
-----------------------
   0 C :    0.266040
   1 C :   -0.269651
   2 C :   -0.301441
   3 C :    0.001384
   4 O :   -0.506641
   5 H :    0.184709
   6 H :    0.145930
   7 H :    0.146683
   8 H :    0.141034
   9 H :    0.160597
  10 H :    0.150046
  11 H :    0.139878
  12 C :   -0.041903
  13 H :    0.158067
  14 H :    0.157404
  15 O :   -0.533215
  16 C :    0.085868
  17 C :    0.091564
  18 C :   -0.320000
  19 C :   -0.025409
  20 O :   -0.517512
  21 H :    0.156085
  22 H :    0.166383
  23 O :   -0.602718
  24 H :    0.156460
  25 H :    0.149745
  26 H :    0.138990
  27 H :    0.154397
  28 H :    0.367226
Sum of atomic charges:   -0.0000000

LOEWDIN ATOMIC CHARGES
----------------------
   0 C :    0.166799
   1 C :   -0.222165
   2 C :   -0.216274
   3 C :   -0.026819
   4 O :   -0.316970
   5 H :    0.118505
   6 H :    0.113539
   7 H :    0.112739
   8 H :    0.113451
   9 H :    0.118151
  10 H :    0.106786
  11 H :    0.101263
  12 C :   -0.052742
  13 H :    0.109732
  14 H :    0.120924
  15 O :   -0.343917
  16 C :    0.002485
  17 C :    0.036486
  18 C :   -0.242132
  19 C :   -0.032623
  20 O :   -0.323081
  21 H :    0.119154
  22 H :    0.118386
  23 O :   -0.406828
  24 H :    0.122483
  25 H :    0.111062
  26 H :    0.098533
  27 H :    0.108766
  28 H :    0.284307

  Mayer bond orders larger than 0.100000
B(  0-C ,  1-C ) :   0.9399 B(  0-C ,  4-O ) :   0.9111 B(  0-C ,  5-H ) :   0.8980
B(  0-C , 15-O ) :   0.8292 B(  1-C ,  2-C ) :   0.9525 B(  1-C ,  6-H ) :   0.9377
B(  1-C ,  7-H ) :   0.9268 B(  2-C ,  3-C ) :   0.9543 B(  2-C ,  8-H ) :   0.9452
B(  2-C ,  9-H ) :   0.9440 B(  3-C ,  4-O ) :   0.8410 B(  3-C , 10-H ) :   0.9350
B(  3-C , 11-H ) :   0.9399 B( 12-C , 13-H ) :   0.9225 B( 12-C , 14-H ) :   0.9205
B( 12-C , 15-O ) :   0.8626 B( 12-C , 16-C ) :   0.8981 B( 16-C , 17-C ) :   0.8795
B( 16-C , 20-O ) :   0.8599 B( 16-C , 21-H ) :   0.9187 B( 17-C , 18-C ) :   0.9252
B( 17-C , 22-H ) :   0.9352 B( 17-C , 23-O ) :   0.9081 B( 18-C , 19-C ) :   0.9431
B( 18-C , 24-H ) :   0.9414 B( 18-C , 25-H ) :   0.9235 B( 19-C , 20-O ) :   0.8353
B( 19-C , 26-H ) :   0.9232 B( 19-C , 27-H ) :   0.9398 B( 23-O , 28-H ) :   0.7895

FINAL SINGLE POINT ENERGY      -652.856300675565

DIPOLE MOMENT
-------------
                                X             Y             Z
Electronic contribution:     -2.88848      -4.33498      -0.33184
Nuclear contribution   :      3.41847       5.33243       0.05795
                        -----------------------------------------
Total Dipole Moment    :      0.52999       0.99745      -0.27389
                        -----------------------------------------
Magnitude (a.u.)       :      1.16224
Magnitude (Debye)      :      2.95419

Rotational constants in cm-1:     0.047499     0.016154     0.015810
Rotational constants in MHz :  1423.992283   484.282563   473.981723

                             ****ORCA TERMINATED NORMALLY****
TOTAL RUN TIME: 0 days 1 hours 0 minutes 19 seconds 254 msec
