                         Program Version 4.2.0 -  RELEASE  -
|  1> # Test redundant internal optimization
|  2> #
|  3> ! RKS B3LYP  Opt TightSCF SmallPrint
|  4>
|  5> %basis
|  6>         Basis "6-31G"
|  7> end
|  8>
|  9> %geom
| 10> Constraints
| 11> { D 4  0  15  12  285.0   C } # D for Dihedral angle
| 12> { D 0  15  12  16  300.0   C } # D for Dihedral angle
| 13> { D 0  4  3  2   C } # D for Dihedral angle
| 14> { D 4  3  2  1   C } # D for Dihedral angle
| 15> { D 3  2  1  0   C } # D for Dihedral angle
| 16> { D 2  1  0  4   C } # D for Dihedral angle
| 17> { D 1  0  4  3   C } # D for Dihedral angle
| 18> { D 16  20  19  18   C } # D for Dihedral angle
| 19> { D 20  19  18  17   C } # D for Dihedral angle
| 20> { D 19  18  17  16   C } # D for Dihedral angle
| 21> { D 18  17  16  20   C } # D for Dihedral angle
| 22> { D 17  16  20  19   C } # D for Dihedral angle
| 23> { D 15  12  16  20   C } # D for Dihedral angle
| 24> end
| 25> end
| 26>
| 27>
| 28> #%pal
| 29> #nprocs 8
| 30> #end
| 31>
| 32> * xyz 0 1
| 33> C  -21.048   26.222   46.251
| 34> C  -20.361   27.558   45.944
| 35> C  -20.329   28.222   47.341
| 36> C  -20.110   27.022   48.296
| 37> O  -20.473   25.807   47.535
| 38> H  -20.833   25.428   45.533
| 39> H  -19.344   27.382   45.576
| 40> H  -20.898   28.157   45.201
| 41> H  -19.543   28.978   47.434
| 42> H  -21.289   28.710   47.548
| 43> H  -20.733   27.082   49.195
| 44> H  -19.064   26.913   48.597
| 45> C  -23.396   25.070   46.435
| 46> H  -23.079   24.492   47.312
| 47> H  -24.469   25.280   46.532
| 48> O  -22.586   26.394   46.375
| 49> C  -23.200   24.188   45.171
| 50> C  -24.100   22.948   45.212
| 51> C  -25.464   23.536   44.779
| 52> C  -25.066   24.621   43.746
| 53> O  -23.634   24.909   43.970
| 54> H  -22.137   23.971   45.048
| 55> H  -23.751   22.205   44.487
| 56> O  -24.151   22.278   46.613
| 57> H  -26.136   22.783   44.355
| 58> H  -25.969   23.989   45.640
| 59> H  -25.641   25.546   43.868
| 60> H  -25.168   24.273   42.715
| 61> H  -24.499   23.003   47.357
| 62> *
| 63>
| 64>                          ****END OF INPUT****
 Total Charge           Charge          ....    0
 Multiplicity           Mult            ....    1
 Number of Electrons    NEL             ....  102
FINAL SINGLE POINT ENERGY      -652.829455975299
FINAL SINGLE POINT ENERGY      -652.853666669781
FINAL SINGLE POINT ENERGY      -652.858952990636
FINAL SINGLE POINT ENERGY      -652.859864735080
FINAL SINGLE POINT ENERGY      -652.860032790469
FINAL SINGLE POINT ENERGY      -652.860064563842
FINAL SINGLE POINT ENERGY      -652.860069096073
FINAL SINGLE POINT ENERGY      -652.860070149646
                    ***********************HURRAY********************

CARTESIAN COORDINATES (ANGSTROEM)
---------------------------------
  C    -21.022304   26.173396   46.213176
  C    -20.436237   27.560380   45.944469
  C    -20.436452   28.182691   47.359681
  C    -20.124026   26.976096   48.273435
  O    -20.413198   25.765045   47.465032
  H    -20.767467   25.406016   45.480899
  H    -19.415594   27.452679   45.560159
  H    -21.033608   28.121274   45.223384
  H    -19.700706   28.985734   47.467591
  H    -21.428101   28.587595   47.580721
  H    -20.737805   26.953780   49.177740
  H    -19.067894   26.918954   48.554229
  C    -23.269630   25.142085   46.416543
  H    -22.997279   24.574629   47.317561
  H    -24.284546   25.532950   46.529822
  O    -22.446900   26.343465   46.341149
  C    -23.174419   24.213561   45.203819
  C    -24.112228   22.996335   45.303725
  C    -25.470233   23.597740   44.824506
  C    -25.028666   24.608758   43.743090
  O    -23.583855   24.872277   43.966008
  H    -22.140781   23.894835   45.049817
  H    -23.774187   22.226850   44.606258
  O    -24.151596   22.328327   46.585435
  H    -26.147450   22.830181   44.441294
  H    -25.967346   24.098532   45.666182
  H    -25.574103   25.555924   43.795165
  H    -25.125746   24.201180   42.732462
  H    -24.638642   22.865733   47.242646

 Multiplicity           Mult            ....    1
 Number of Electrons    NEL             ....  102
 Basis Dimension        Dim             ....  149

ORBITAL ENERGIES
----------------

  NO   OCC          E(Eh)            E(eV)
   0   2.0000     -19.150847      -521.1210
   1   2.0000     -19.139558      -520.8138
   2   2.0000     -19.139208      -520.8043
   3   2.0000     -19.133281      -520.6430
   4   2.0000     -10.271323      -279.4969
   5   2.0000     -10.247371      -278.8451
   6   2.0000     -10.232591      -278.4430
   7   2.0000     -10.232048      -278.4282
   8   2.0000     -10.227751      -278.3113
   9   2.0000     -10.219727      -278.0929
  10   2.0000     -10.197117      -277.4777
  11   2.0000     -10.179176      -276.9895
  12   2.0000     -10.178106      -276.9604
  13   2.0000      -1.048690       -28.5363
  14   2.0000      -1.034617       -28.1534
  15   2.0000      -1.016946       -27.6725
  16   2.0000      -0.987434       -26.8695
  17   2.0000      -0.785856       -21.3842
  18   2.0000      -0.780887       -21.2490
  19   2.0000      -0.764100       -20.7922
  20   2.0000      -0.729861       -19.8605
  21   2.0000      -0.678353       -18.4589
  22   2.0000      -0.613094       -16.6831
  23   2.0000      -0.602982       -16.4080
  24   2.0000      -0.591736       -16.1019
  25   2.0000      -0.561919       -15.2906
  26   2.0000      -0.533120       -14.5069
  27   2.0000      -0.510792       -13.8993
  28   2.0000      -0.495855       -13.4929
  29   2.0000      -0.484782       -13.1916
  30   2.0000      -0.467185       -12.7128
  31   2.0000      -0.452586       -12.3155
  32   2.0000      -0.439283       -11.9535
  33   2.0000      -0.433951       -11.8084
  34   2.0000      -0.429388       -11.6842
  35   2.0000      -0.421646       -11.4736
  36   2.0000      -0.403506       -10.9799
  37   2.0000      -0.396902       -10.8003
  38   2.0000      -0.379391       -10.3237
  39   2.0000      -0.367195        -9.9919
  40   2.0000      -0.355702        -9.6791
  41   2.0000      -0.350207        -9.5296
  42   2.0000      -0.340960        -9.2780
  43   2.0000      -0.333289        -9.0693
  44   2.0000      -0.322517        -8.7761
  45   2.0000      -0.314871        -8.5681
  46   2.0000      -0.293861        -7.9964
  47   2.0000      -0.273794        -7.4503
  48   2.0000      -0.269127        -7.3233
  49   2.0000      -0.246465        -6.7066
  50   2.0000      -0.237258        -6.4561
  51   0.0000       0.051823         1.4102
  52   0.0000       0.078045         2.1237
  53   0.0000       0.086871         2.3639
  54   0.0000       0.094386         2.5684
  55   0.0000       0.105072         2.8592

MULLIKEN ATOMIC CHARGES
-----------------------
   0 C :    0.277740
   1 C :   -0.258020
   2 C :   -0.298335
   3 C :   -0.001411
   4 O :   -0.515155
   5 H :    0.152132
   6 H :    0.142920
   7 H :    0.161461
   8 H :    0.138309
   9 H :    0.161305
  10 H :    0.143477
  11 H :    0.140447
  12 C :   -0.007330
  13 H :    0.146722
  14 H :    0.139811
  15 O :   -0.513887
  16 C :    0.065368
  17 C :    0.084477
  18 C :   -0.325101
  19 C :   -0.007773
  20 O :   -0.510861
  21 H :    0.162807
  22 H :    0.168524
  23 O :   -0.595560
  24 H :    0.160235
  25 H :    0.133370
  26 H :    0.148405
  27 H :    0.148657
  28 H :    0.357267
Sum of atomic charges:   -0.0000000

LOEWDIN ATOMIC CHARGES
----------------------
   0 C :    0.170980
   1 C :   -0.213236
   2 C :   -0.216521
   3 C :   -0.027826
   4 O :   -0.333202
   5 H :    0.099559
   6 H :    0.112849
   7 H :    0.126539
   8 H :    0.111970
   9 H :    0.118632
  10 H :    0.103443
  11 H :    0.101451
  12 C :   -0.051505
  13 H :    0.105387
  14 H :    0.107639
  15 O :   -0.314685
  16 C :    0.006034
  17 C :    0.036724
  18 C :   -0.241950
  19 C :   -0.028810
  20 O :   -0.320770
  21 H :    0.114421
  22 H :    0.119549
  23 O :   -0.404153
  24 H :    0.123825
  25 H :    0.104074
  26 H :    0.104931
  27 H :    0.105976
  28 H :    0.278675

  Mayer bond orders larger than 0.100000
B(  0-C ,  1-C ) :   0.9503 B(  0-C ,  4-O ) :   0.8972 B(  0-C ,  5-H ) :   0.9113
B(  0-C , 15-O ) :   0.8659 B(  1-C ,  2-C ) :   0.9565 B(  1-C ,  6-H ) :   0.9413
B(  1-C ,  7-H ) :   0.9353 B(  2-C ,  3-C ) :   0.9552 B(  2-C ,  8-H ) :   0.9455
B(  2-C ,  9-H ) :   0.9445 B(  3-C ,  4-O ) :   0.8404 B(  3-C , 10-H ) :   0.9362
B(  3-C , 11-H ) :   0.9405 B( 12-C , 13-H ) :   0.9022 B( 12-C , 14-H ) :   0.9411
B( 12-C , 15-O ) :   0.8589 B( 12-C , 16-C ) :   0.8881 B( 16-C , 17-C ) :   0.8689
B( 16-C , 20-O ) :   0.8664 B( 16-C , 21-H ) :   0.9242 B( 17-C , 18-C ) :   0.9227
B( 17-C , 22-H ) :   0.9329 B( 17-C , 23-O ) :   0.9052 B( 18-C , 19-C ) :   0.9379
B( 18-C , 24-H ) :   0.9416 B( 18-C , 25-H ) :   0.9410 B( 19-C , 20-O ) :   0.8473
B( 19-C , 26-H ) :   0.9310 B( 19-C , 27-H ) :   0.9382 B( 23-O , 28-H ) :   0.7966

FINAL SINGLE POINT ENERGY      -652.860070155001

DIPOLE MOMENT
-------------
                                X             Y             Z
Electronic contribution:      0.35389      -3.18898      -0.55893
Nuclear contribution   :     -1.09576       3.63155       0.60245
                        -----------------------------------------
Total Dipole Moment    :     -0.74187       0.44257       0.04352
                        -----------------------------------------
Magnitude (a.u.)       :      0.86494
Magnitude (Debye)      :      2.19851

Rotational constants in cm-1:     0.058354     0.012893     0.011449
Rotational constants in MHz :  1749.395060   386.536057   343.233348

                             ****ORCA TERMINATED NORMALLY****
TOTAL RUN TIME: 0 days 1 hours 7 minutes 5 seconds 300 msec
