                         Program Version 4.2.0 -  RELEASE  -
|  1> # Test redundant internal optimization
|  2> #
|  3> ! RKS B3LYP  Opt TightSCF SmallPrint
|  4>
|  5> %basis
|  6>         Basis "6-31G"
|  7> end
|  8>
|  9> %geom
| 10> Constraints
| 11> { D 4  0  15  12  255.0   C } # D for Dihedral angle
| 12> { D 0  15  12  16  225.0   C } # D for Dihedral angle
| 13> { D 0  4  3  2   C } # D for Dihedral angle
| 14> { D 4  3  2  1   C } # D for Dihedral angle
| 15> { D 3  2  1  0   C } # D for Dihedral angle
| 16> { D 2  1  0  4   C } # D for Dihedral angle
| 17> { D 1  0  4  3   C } # D for Dihedral angle
| 18> { D 16  20  19  18   C } # D for Dihedral angle
| 19> { D 20  19  18  17   C } # D for Dihedral angle
| 20> { D 19  18  17  16   C } # D for Dihedral angle
| 21> { D 18  17  16  20   C } # D for Dihedral angle
| 22> { D 17  16  20  19   C } # D for Dihedral angle
| 23> { D 15  12  16  20   C } # D for Dihedral angle
| 24> end
| 25> end
| 26>
| 27>
| 28> #%pal
| 29> #nprocs 8
| 30> #end
| 31>
| 32> * xyz 0 1
| 33> C  -21.048   26.222   46.251
| 34> C  -20.361   27.558   45.944
| 35> C  -20.329   28.222   47.341
| 36> C  -20.110   27.022   48.296
| 37> O  -20.473   25.807   47.535
| 38> H  -20.833   25.428   45.533
| 39> H  -19.344   27.382   45.576
| 40> H  -20.898   28.157   45.201
| 41> H  -19.543   28.978   47.434
| 42> H  -21.289   28.710   47.548
| 43> H  -20.733   27.082   49.195
| 44> H  -19.064   26.913   48.597
| 45> C  -23.431   25.260   45.734
| 46> H  -22.791   24.658   45.077
| 47> H  -23.841   24.601   46.510
| 48> O  -22.586   26.394   46.375
| 49> C  -24.622   25.799   44.894
| 50> C  -25.500   24.656   44.373
| 51> C  -26.339   24.309   45.626
| 52> C  -26.548   25.687   46.301
| 53> O  -25.525   26.592   45.736
| 54> H  -24.240   26.466   44.118
| 55> O  -26.413   25.165   43.225
| 56> H  -24.920   23.804   44.002
| 57> H  -27.286   23.817   45.380
| 58> H  -25.774   23.638   46.284
| 59> H  -26.426   25.644   47.389
| 60> H  -27.526   26.121   46.071
| 61> H  -27.004   26.018   43.575
| 62> *
| 63>
| 64>                          ****END OF INPUT****
 Total Charge           Charge          ....    0
 Multiplicity           Mult            ....    1
 Number of Electrons    NEL             ....  102
FINAL SINGLE POINT ENERGY      -652.832987001102
FINAL SINGLE POINT ENERGY      -652.855974612694
FINAL SINGLE POINT ENERGY      -652.859973154849
FINAL SINGLE POINT ENERGY      -652.860639174942
FINAL SINGLE POINT ENERGY      -652.860716610196
FINAL SINGLE POINT ENERGY      -652.860727394185
FINAL SINGLE POINT ENERGY      -652.860728683053
                    ***********************HURRAY********************

CARTESIAN COORDINATES (ANGSTROEM)
---------------------------------
  C    -21.075032   26.139252   46.192598
  C    -20.534257   27.537932   45.893920
  C    -20.555395   28.194074   47.295557
  C    -20.204509   27.017165   48.232930
  O    -20.455590   25.783205   47.447884
  H    -20.804121   25.360165   45.472665
  H    -19.508125   27.457331   45.515714
  H    -21.145716   28.066738   45.160213
  H    -19.847562   29.023664   47.384121
  H    -21.560992   28.568506   47.507433
  H    -20.820882   26.990441   49.134892
  H    -19.147525   26.998943   48.515888
  C    -23.323704   25.163648   45.774175
  H    -22.725504   24.538520   45.092775
  H    -23.675770   24.528697   46.597072
  O    -22.511458   26.234016   46.320485
  C    -24.497324   25.763205   45.001177
  C    -25.455127   24.712769   44.420252
  C    -26.352636   24.391457   45.645463
  C    -26.463560   25.759115   46.363973
  O    -25.352226   26.596218   45.850371
  H    -24.106535   26.421502   44.219135
  O    -26.224068   25.267748   43.318270
  H    -24.956511   23.833965   44.008810
  H    -27.318924   23.997322   45.322456
  H    -25.869934   23.642502   46.283558
  H    -26.372322   25.675734   47.451335
  H    -27.396470   26.282249   46.130798
  H    -26.535221   26.163916   43.567078

 Multiplicity           Mult            ....    1
 Number of Electrons    NEL             ....  102
 Basis Dimension        Dim             ....  149

ORBITAL ENERGIES
----------------

  NO   OCC          E(Eh)            E(eV)
   0   2.0000     -19.141386      -520.8636
   1   2.0000     -19.140923      -520.8510
   2   2.0000     -19.140238      -520.8324
   3   2.0000     -19.134275      -520.6701
   4   2.0000     -10.277672      -279.6697
   5   2.0000     -10.244779      -278.7746
   6   2.0000     -10.235188      -278.5136
   7   2.0000     -10.235005      -278.5086
   8   2.0000     -10.230840      -278.3953
   9   2.0000     -10.220078      -278.1025
  10   2.0000     -10.191005      -277.3113
  11   2.0000     -10.181036      -277.0401
  12   2.0000     -10.180002      -277.0119
  13   2.0000      -1.050599       -28.5883
  14   2.0000      -1.036862       -28.2145
  15   2.0000      -1.007433       -27.4136
  16   2.0000      -0.991764       -26.9873
  17   2.0000      -0.788866       -21.4661
  18   2.0000      -0.780183       -21.2299
  19   2.0000      -0.767248       -20.8779
  20   2.0000      -0.728764       -19.8307
  21   2.0000      -0.674233       -18.3468
  22   2.0000      -0.606258       -16.4971
  23   2.0000      -0.595707       -16.2100
  24   2.0000      -0.592239       -16.1156
  25   2.0000      -0.582838       -15.8598
  26   2.0000      -0.527770       -14.3614
  27   2.0000      -0.511879       -13.9289
  28   2.0000      -0.494532       -13.4569
  29   2.0000      -0.487461       -13.2645
  30   2.0000      -0.473123       -12.8743
  31   2.0000      -0.457631       -12.4528
  32   2.0000      -0.449904       -12.2425
  33   2.0000      -0.441898       -12.0247
  34   2.0000      -0.425535       -11.5794
  35   2.0000      -0.409703       -11.1486
  36   2.0000      -0.396974       -10.8022
  37   2.0000      -0.394369       -10.7313
  38   2.0000      -0.373891       -10.1741
  39   2.0000      -0.366761        -9.9801
  40   2.0000      -0.362280        -9.8581
  41   2.0000      -0.352210        -9.5841
  42   2.0000      -0.346188        -9.4202
  43   2.0000      -0.331460        -9.0195
  44   2.0000      -0.317029        -8.6268
  45   2.0000      -0.309602        -8.4247
  46   2.0000      -0.300113        -8.1665
  47   2.0000      -0.273016        -7.4291
  48   2.0000      -0.266322        -7.2470
  49   2.0000      -0.252774        -6.8783
  50   2.0000      -0.236987        -6.4487
  51   0.0000       0.064887         1.7657
  52   0.0000       0.080169         2.1815
  53   0.0000       0.089237         2.4283
  54   0.0000       0.100207         2.7268
  55   0.0000       0.101019         2.7489

MULLIKEN ATOMIC CHARGES
-----------------------
   0 C :    0.277291
   1 C :   -0.252562
   2 C :   -0.299903
   3 C :   -0.000473
   4 O :   -0.506151
   5 H :    0.137085
   6 H :    0.141163
   7 H :    0.151027
   8 H :    0.138474
   9 H :    0.170049
  10 H :    0.149421
  11 H :    0.139154
  12 C :    0.007596
  13 H :    0.122133
  14 H :    0.143511
  15 O :   -0.506990
  16 C :    0.070109
  17 C :    0.076205
  18 C :   -0.296985
  19 C :   -0.032219
  20 O :   -0.508672
  21 H :    0.160026
  22 O :   -0.602483
  23 H :    0.149947
  24 H :    0.162538
  25 H :    0.145850
  26 H :    0.154118
  27 H :    0.144507
  28 H :    0.366234
Sum of atomic charges:   -0.0000000

LOEWDIN ATOMIC CHARGES
----------------------
   0 C :    0.173276
   1 C :   -0.218522
   2 C :   -0.216237
   3 C :   -0.026738
   4 O :   -0.324177
   5 H :    0.095268
   6 H :    0.111695
   7 H :    0.120792
   8 H :    0.112485
   9 H :    0.123089
  10 H :    0.106748
  11 H :    0.100780
  12 C :   -0.035627
  13 H :    0.095456
  14 H :    0.102267
  15 O :   -0.318045
  16 C :    0.013252
  17 C :    0.034584
  18 C :   -0.240911
  19 C :   -0.038942
  20 O :   -0.320881
  21 H :    0.116659
  22 O :   -0.414458
  23 H :    0.114581
  24 H :    0.126664
  25 H :    0.113382
  26 H :    0.107619
  27 H :    0.101829
  28 H :    0.284112

  Mayer bond orders larger than 0.100000
B(  0-C ,  1-C ) :   0.9453 B(  0-C ,  4-O ) :   0.9243 B(  0-C ,  5-H ) :   0.9169
B(  0-C , 15-O ) :   0.8574 B(  1-C ,  2-C ) :   0.9588 B(  1-C ,  6-H ) :   0.9386
B(  1-C ,  7-H ) :   0.9373 B(  2-C ,  3-C ) :   0.9545 B(  2-C ,  8-H ) :   0.9453
B(  2-C ,  9-H ) :   0.9423 B(  3-C ,  4-O ) :   0.8384 B(  3-C , 10-H ) :   0.9353
B(  3-C , 11-H ) :   0.9401 B( 12-C , 13-H ) :   0.9119 B( 12-C , 14-H ) :   0.9241
B( 12-C , 15-O ) :   0.8448 B( 12-C , 16-C ) :   0.8944 B( 16-C , 17-C ) :   0.8965
B( 16-C , 20-O ) :   0.8678 B( 16-C , 21-H ) :   0.9256 B( 17-C , 18-C ) :   0.9107
B( 17-C , 22-O ) :   0.8935 B( 17-C , 23-H ) :   0.9334 B( 18-C , 19-C ) :   0.9398
B( 18-C , 24-H ) :   0.9375 B( 18-C , 25-H ) :   0.9337 B( 19-C , 20-O ) :   0.8510
B( 19-C , 26-H ) :   0.9332 B( 19-C , 27-H ) :   0.9378 B( 22-O , 28-H ) :   0.7933

FINAL SINGLE POINT ENERGY      -652.860728536008

DIPOLE MOMENT
-------------
                                X             Y             Z
Electronic contribution:     -1.32323      -0.85571      -1.63681
Nuclear contribution   :      1.37416       0.82709       1.72686
                        -----------------------------------------
Total Dipole Moment    :      0.05093      -0.02862       0.09005
                        -----------------------------------------
Magnitude (a.u.)       :      0.10734
Magnitude (Debye)      :      0.27283

Rotational constants in cm-1:     0.065142     0.011064     0.010853
Rotational constants in MHz :  1952.912225   331.690248   325.354679

                             ****ORCA TERMINATED NORMALLY****
TOTAL RUN TIME: 0 days 1 hours 20 minutes 51 seconds 832 msec
