                         Program Version 4.2.0 -  RELEASE  -
|  1> # Test redundant internal optimization
|  2> #
|  3> ! RKS B3LYP  Opt TightSCF SmallPrint
|  4>
|  5> %basis
|  6>         Basis "6-31G"
|  7> end
|  8>
|  9> %geom
| 10> Constraints
| 11> { D 4  0  15  12  330.0   C } # D for Dihedral angle
| 12> { D 0  15  12  16  165.0   C } # D for Dihedral angle
| 13> { D 0  4  3  2   C } # D for Dihedral angle
| 14> { D 4  3  2  1   C } # D for Dihedral angle
| 15> { D 3  2  1  0   C } # D for Dihedral angle
| 16> { D 2  1  0  4   C } # D for Dihedral angle
| 17> { D 1  0  4  3   C } # D for Dihedral angle
| 18> { D 16  20  19  18   C } # D for Dihedral angle
| 19> { D 20  19  18  17   C } # D for Dihedral angle
| 20> { D 19  18  17  16   C } # D for Dihedral angle
| 21> { D 18  17  16  20   C } # D for Dihedral angle
| 22> { D 17  16  20  19   C } # D for Dihedral angle
| 23> { D 15  12  16  20   C } # D for Dihedral angle
| 24> end
| 25> end
| 26>
| 27>
| 28> #%pal
| 29> #nprocs 8
| 30> #end
| 31>
| 32> * xyz 0 1
| 33> C  -21.048   26.222   46.251
| 34> C  -20.361   27.558   45.944
| 35> C  -20.329   28.222   47.341
| 36> C  -20.110   27.022   48.296
| 37> O  -20.473   25.807   47.535
| 38> H  -20.833   25.428   45.533
| 39> H  -19.344   27.382   45.576
| 40> H  -20.898   28.157   45.201
| 41> H  -19.543   28.978   47.434
| 42> H  -21.289   28.710   47.548
| 43> H  -20.733   27.082   49.195
| 44> H  -19.064   26.913   48.597
| 45> C  -23.271   25.476   47.424
| 46> H  -23.319   24.452   47.032
| 47> H  -22.691   25.459   48.356
| 48> O  -22.586   26.394   46.375
| 49> C  -24.714   25.934   47.773
| 50> C  -25.315   25.077   48.892
| 51> C  -24.651   25.690   50.148
| 52> C  -24.554   27.196   49.794
| 53> O  -24.701   27.293   48.326
| 54> H  -25.310   25.967   46.858
| 55> H  -26.402   25.209   48.926
| 56> O  -25.012   23.562   48.730
| 57> H  -25.227   25.513   51.062
| 58> H  -23.652   25.262   50.293
| 59> H  -23.594   27.634   50.088
| 60> H  -25.363   27.782   50.239
| 61> H  -23.929   23.404   48.695
| 62> *
| 63>
| 64>                          ****END OF INPUT****
 Total Charge           Charge          ....    0
 Multiplicity           Mult            ....    1
 Number of Electrons    NEL             ....  102
FINAL SINGLE POINT ENERGY      -652.830040142437
FINAL SINGLE POINT ENERGY      -652.854165762491
FINAL SINGLE POINT ENERGY      -652.859120045074
FINAL SINGLE POINT ENERGY      -652.859933598433
FINAL SINGLE POINT ENERGY      -652.860060642358
FINAL SINGLE POINT ENERGY      -652.860087401439
FINAL SINGLE POINT ENERGY      -652.860090410234
                    ***********************HURRAY********************

CARTESIAN COORDINATES (ANGSTROEM)
---------------------------------
  C    -21.068510   26.195647   46.268760
  C    -20.561412   27.608353   45.981673
  C    -20.460214   28.198935   47.404005
  C    -20.023878   26.993640   48.263113
  O    -20.339456   25.782753   47.450548
  H    -20.851128   25.440496   45.506410
  H    -19.578999   27.551228   45.498512
  H    -21.247102   28.162237   45.337245
  H    -19.752425   29.031077   47.466491
  H    -21.447643   28.552407   47.715122
  H    -20.558292   26.927985   49.215335
  H    -18.946759   26.965692   48.452093
  C    -23.098907   25.392225   47.453775
  H    -23.178954   24.371521   47.049158
  H    -22.474179   25.354352   48.353099
  O    -22.500642   26.281628   46.476545
  C    -24.495205   25.930259   47.748872
  C    -25.264167   25.126351   48.811234
  C    -24.702800   25.727863   50.135118
  C    -24.485821   27.212136   49.769150
  O    -24.467168   27.290416   48.285558
  H    -25.043793   25.997764   46.805323
  H    -26.332265   25.334971   48.720557
  O    -25.166014   23.686589   48.702083
  H    -25.389624   25.590671   50.974544
  H    -23.756179   25.232896   50.389003
  H    -23.546109   27.614282   50.162025
  H    -25.308083   27.847864   50.112193
  H    -24.270269   23.382764   48.954457

 Multiplicity           Mult            ....    1
 Number of Electrons    NEL             ....  102
 Basis Dimension        Dim             ....  149

ORBITAL ENERGIES
----------------

  NO   OCC          E(Eh)            E(eV)
   0   2.0000     -19.148674      -521.0619
   1   2.0000     -19.146340      -520.9984
   2   2.0000     -19.136757      -520.7376
   3   2.0000     -19.136602      -520.7334
   4   2.0000     -10.276434      -279.6360
   5   2.0000     -10.244244      -278.7601
   6   2.0000     -10.230784      -278.3938
   7   2.0000     -10.228964      -278.3443
   8   2.0000     -10.228253      -278.3249
   9   2.0000     -10.224953      -278.2351
  10   2.0000     -10.194859      -277.4162
  11   2.0000     -10.182795      -277.0879
  12   2.0000     -10.181620      -277.0560
  13   2.0000      -1.053703       -28.6727
  14   2.0000      -1.032292       -28.0901
  15   2.0000      -1.014341       -27.6016
  16   2.0000      -0.989991       -26.9390
  17   2.0000      -0.788601       -21.4589
  18   2.0000      -0.780995       -21.2520
  19   2.0000      -0.766477       -20.8569
  20   2.0000      -0.730286       -19.8721
  21   2.0000      -0.676979       -18.4215
  22   2.0000      -0.610527       -16.6133
  23   2.0000      -0.599378       -16.3099
  24   2.0000      -0.588477       -16.0133
  25   2.0000      -0.572032       -15.5658
  26   2.0000      -0.530048       -14.4233
  27   2.0000      -0.509786       -13.8720
  28   2.0000      -0.494809       -13.4644
  29   2.0000      -0.490819       -13.3559
  30   2.0000      -0.471985       -12.8434
  31   2.0000      -0.457112       -12.4387
  32   2.0000      -0.443692       -12.0735
  33   2.0000      -0.434665       -11.8278
  34   2.0000      -0.426294       -11.6000
  35   2.0000      -0.412040       -11.2122
  36   2.0000      -0.402384       -10.9494
  37   2.0000      -0.397259       -10.8100
  38   2.0000      -0.378146       -10.2899
  39   2.0000      -0.369405       -10.0520
  40   2.0000      -0.358080        -9.7438
  41   2.0000      -0.353151        -9.6097
  42   2.0000      -0.345092        -9.3904
  43   2.0000      -0.335816        -9.1380
  44   2.0000      -0.325334        -8.8528
  45   2.0000      -0.313010        -8.5174
  46   2.0000      -0.298759        -8.1296
  47   2.0000      -0.270211        -7.3528
  48   2.0000      -0.261279        -7.1098
  49   2.0000      -0.250894        -6.8272
  50   2.0000      -0.241760        -6.5786
  51   0.0000       0.051725         1.4075
  52   0.0000       0.060012         1.6330
  53   0.0000       0.093346         2.5401
  54   0.0000       0.097943         2.6652
  55   0.0000       0.104440         2.8420

MULLIKEN ATOMIC CHARGES
-----------------------
   0 C :    0.298198
   1 C :   -0.257800
   2 C :   -0.304557
   3 C :   -0.016057
   4 O :   -0.517171
   5 H :    0.146627
   6 H :    0.140892
   7 H :    0.165887
   8 H :    0.140770
   9 H :    0.177375
  10 H :    0.137981
  11 H :    0.148132
  12 C :   -0.009697
  13 H :    0.129601
  14 H :    0.141504
  15 O :   -0.527120
  16 C :    0.091425
  17 C :    0.082063
  18 C :   -0.325324
  19 C :   -0.012612
  20 O :   -0.505717
  21 H :    0.165404
  22 H :    0.170310
  23 O :   -0.599589
  24 H :    0.158429
  25 H :    0.134044
  26 H :    0.137740
  27 H :    0.151290
  28 H :    0.357972
Sum of atomic charges:   -0.0000000

LOEWDIN ATOMIC CHARGES
----------------------
   0 C :    0.179937
   1 C :   -0.214747
   2 C :   -0.218842
   3 C :   -0.031042
   4 O :   -0.327615
   5 H :    0.097428
   6 H :    0.111532
   7 H :    0.128888
   8 H :    0.114114
   9 H :    0.126362
  10 H :    0.098849
  11 H :    0.105140
  12 C :   -0.051682
  13 H :    0.096181
  14 H :    0.098421
  15 O :   -0.325139
  16 C :    0.021348
  17 C :    0.035426
  18 C :   -0.243074
  19 C :   -0.031563
  20 O :   -0.315355
  21 H :    0.120211
  22 H :    0.120364
  23 O :   -0.406506
  24 H :    0.122811
  25 H :    0.104599
  26 H :    0.098811
  27 H :    0.106266
  28 H :    0.278874

  Mayer bond orders larger than 0.100000
B(  0-C ,  1-C ) :   0.9463 B(  0-C ,  4-O ) :   0.8989 B(  0-C ,  5-H ) :   0.9223
B(  0-C , 15-O ) :   0.8484 B(  1-C ,  2-C ) :   0.9542 B(  1-C ,  6-H ) :   0.9382
B(  1-C ,  7-H ) :   0.9345 B(  2-C ,  3-C ) :   0.9560 B(  2-C ,  8-H ) :   0.9445
B(  2-C ,  9-H ) :   0.9373 B(  3-C ,  4-O ) :   0.8315 B(  3-C , 10-H ) :   0.9346
B(  3-C , 11-H ) :   0.9407 B( 12-C , 13-H ) :   0.9069 B( 12-C , 14-H ) :   0.9101
B( 12-C , 15-O ) :   0.8373 B( 12-C , 16-C ) :   0.9045 B( 16-C , 17-C ) :   0.8763
B( 16-C , 20-O ) :   0.8661 B( 16-C , 21-H ) :   0.9283 B( 17-C , 18-C ) :   0.9220
B( 17-C , 22-H ) :   0.9330 B( 17-C , 23-O ) :   0.8999 B( 18-C , 19-C ) :   0.9390
B( 18-C , 24-H ) :   0.9417 B( 18-C , 25-H ) :   0.9407 B( 19-C , 20-O ) :   0.8523
B( 19-C , 26-H ) :   0.9316 B( 19-C , 27-H ) :   0.9371 B( 23-O , 28-H ) :   0.7968

FINAL SINGLE POINT ENERGY      -652.860090873754

DIPOLE MOMENT
-------------
                                X             Y             Z
Electronic contribution:     -2.61394      -2.98695      -2.98493
Nuclear contribution   :      3.28670       3.30596       3.85722
                        -----------------------------------------
Total Dipole Moment    :      0.67277       0.31901       0.87229
                        -----------------------------------------
Magnitude (a.u.)       :      1.14685
Magnitude (Debye)      :      2.91507

Rotational constants in cm-1:     0.048248     0.015191     0.014059
Rotational constants in MHz :  1446.432844   455.423558   421.486571

                             ****ORCA TERMINATED NORMALLY****
TOTAL RUN TIME: 0 days 1 hours 5 minutes 35 seconds 511 msec
