                         Program Version 4.2.0 -  RELEASE  -
|  1> # Test redundant internal optimization
|  2> #
|  3> ! RKS B3LYP  Opt TightSCF SmallPrint
|  4>
|  5> %basis
|  6>         Basis "6-31G"
|  7> end
|  8>
|  9> %geom
| 10> Constraints
| 11> { D 4  0  15  12  135.0   C } # D for Dihedral angle
| 12> { D 0  15  12  16  90.0   C } # D for Dihedral angle
| 13> { D 0  4  3  2   C } # D for Dihedral angle
| 14> { D 4  3  2  1   C } # D for Dihedral angle
| 15> { D 3  2  1  0   C } # D for Dihedral angle
| 16> { D 2  1  0  4   C } # D for Dihedral angle
| 17> { D 1  0  4  3   C } # D for Dihedral angle
| 18> { D 16  20  19  18   C } # D for Dihedral angle
| 19> { D 20  19  18  17   C } # D for Dihedral angle
| 20> { D 19  18  17  16   C } # D for Dihedral angle
| 21> { D 18  17  16  20   C } # D for Dihedral angle
| 22> { D 17  16  20  19   C } # D for Dihedral angle
| 23> { D 15  12  16  20   C } # D for Dihedral angle
| 24> end
| 25> end
| 26>
| 27>
| 28> #%pal
| 29> #nprocs 8
| 30> #end
| 31>
| 32> * xyz 0 1
| 33> C  -21.048   26.222   46.251
| 34> C  -20.361   27.558   45.944
| 35> C  -20.329   28.222   47.341
| 36> C  -20.110   27.022   48.296
| 37> O  -20.473   25.807   47.535
| 38> H  -20.833   25.428   45.533
| 39> H  -19.344   27.382   45.576
| 40> H  -20.898   28.157   45.201
| 41> H  -19.543   28.978   47.434
| 42> H  -21.289   28.710   47.548
| 43> H  -20.733   27.082   49.195
| 44> H  -19.064   26.913   48.597
| 45> C  -23.162   27.680   45.721
| 46> H  -24.052   28.001   46.276
| 47> H  -22.424   28.492   45.755
| 48> O  -22.586   26.394   46.375
| 49> C  -23.563   27.469   44.234
| 50> C  -24.716   26.467   44.106
| 51> C  -25.936   27.345   44.471
| 52> C  -25.561   28.730   43.887
| 53> O  -24.099   28.711   43.667
| 54> H  -22.673   27.212   43.657
| 55> H  -24.791   26.112   43.072
| 56> O  -24.559   25.234   45.037
| 57> H  -26.875   26.959   44.060
| 58> H  -26.046   27.401   45.561
| 59> H  -25.811   29.553   44.565
| 60> H  -26.031   28.916   42.918
| 61> H  -24.482   25.567   46.078
| 62> *
| 63>
| 64>                          ****END OF INPUT****
 Total Charge           Charge          ....    0
 Multiplicity           Mult            ....    1
 Number of Electrons    NEL             ....  102
FINAL SINGLE POINT ENERGY      -652.819325524091
FINAL SINGLE POINT ENERGY      -652.845535511353
FINAL SINGLE POINT ENERGY      -652.853975094780
FINAL SINGLE POINT ENERGY      -652.857044814564
FINAL SINGLE POINT ENERGY      -652.858438410217
FINAL SINGLE POINT ENERGY      -652.859092611015
FINAL SINGLE POINT ENERGY      -652.859299770670
FINAL SINGLE POINT ENERGY      -652.859345056530
                    ***********************HURRAY********************

CARTESIAN COORDINATES (ANGSTROEM)
---------------------------------
  C    -21.158074   26.305039   46.273360
  C    -20.239236   27.483669   45.950634
  C    -20.156200   28.213431   47.317055
  C    -20.194012   27.045253   48.326261
  O    -20.731345   25.881876   47.575319
  H    -21.052498   25.439660   45.617347
  H    -19.260401   27.077205   45.674199
  H    -20.575960   28.121508   45.129937
  H    -19.247289   28.814996   47.409873
  H    -21.015803   28.878003   47.454059
  H    -20.841058   27.237117   49.185627
  H    -19.199668   26.756891   48.677724
  C    -23.191615   27.809544   45.736720
  H    -24.055783   28.035945   46.367597
  H    -22.518949   28.670779   45.763326
  O    -22.593010   26.613053   46.335065
  C    -23.618786   27.534128   44.290077
  C    -24.716104   26.465918   44.141334
  C    -25.996009   27.279059   44.490738
  C    -25.692145   28.678254   43.918539
  O    -24.211294   28.742582   43.719026
  H    -22.736981   27.301765   43.683001
  H    -24.763077   26.152136   43.092950
  O    -24.540042   25.271464   44.924985
  H    -26.891863   26.828760   44.056301
  H    -26.126193   27.296070   45.578593
  H    -25.990416   29.494876   44.583111
  H    -26.144450   28.839774   42.936014
  H    -23.933741   25.455243   45.682228

 Multiplicity           Mult            ....    1
 Number of Electrons    NEL             ....  102
 Basis Dimension        Dim             ....  149

ORBITAL ENERGIES
----------------

  NO   OCC          E(Eh)            E(eV)
   0   2.0000     -19.159886      -521.3670
   1   2.0000     -19.149016      -521.0712
   2   2.0000     -19.142746      -520.9006
   3   2.0000     -19.114176      -520.1232
   4   2.0000     -10.292832      -280.0822
   5   2.0000     -10.241224      -278.6779
   6   2.0000     -10.235659      -278.5264
   7   2.0000     -10.234487      -278.4945
   8   2.0000     -10.231841      -278.4225
   9   2.0000     -10.228797      -278.3397
  10   2.0000     -10.202858      -277.6339
  11   2.0000     -10.200660      -277.5741
  12   2.0000     -10.180768      -277.0328
  13   2.0000      -1.062666       -28.9166
  14   2.0000      -1.027245       -27.9527
  15   2.0000      -1.006473       -27.3875
  16   2.0000      -0.992642       -27.0112
  17   2.0000      -0.799344       -21.7513
  18   2.0000      -0.776438       -21.1280
  19   2.0000      -0.769742       -20.9457
  20   2.0000      -0.741268       -20.1709
  21   2.0000      -0.685799       -18.6615
  22   2.0000      -0.612703       -16.6725
  23   2.0000      -0.604834       -16.4584
  24   2.0000      -0.597601       -16.2616
  25   2.0000      -0.574695       -15.6383
  26   2.0000      -0.539078       -14.6691
  27   2.0000      -0.514170       -13.9913
  28   2.0000      -0.508008       -13.8236
  29   2.0000      -0.490205       -13.3392
  30   2.0000      -0.476103       -12.9554
  31   2.0000      -0.463562       -12.6142
  32   2.0000      -0.445487       -12.1223
  33   2.0000      -0.436721       -11.8838
  34   2.0000      -0.425821       -11.5872
  35   2.0000      -0.421627       -11.4731
  36   2.0000      -0.409677       -11.1479
  37   2.0000      -0.392347       -10.6763
  38   2.0000      -0.390646       -10.6300
  39   2.0000      -0.371575       -10.1111
  40   2.0000      -0.369277       -10.0485
  41   2.0000      -0.365438        -9.9441
  42   2.0000      -0.349298        -9.5049
  43   2.0000      -0.340230        -9.2581
  44   2.0000      -0.325292        -8.8516
  45   2.0000      -0.312053        -8.4914
  46   2.0000      -0.291300        -7.9267
  47   2.0000      -0.280976        -7.6457
  48   2.0000      -0.267409        -7.2766
  49   2.0000      -0.248608        -6.7650
  50   2.0000      -0.239388        -6.5141
  51   0.0000       0.056514         1.5378
  52   0.0000       0.070898         1.9292
  53   0.0000       0.092659         2.5214
  54   0.0000       0.095201         2.5906
  55   0.0000       0.099843         2.7169

MULLIKEN ATOMIC CHARGES
-----------------------
   0 C :    0.323026
   1 C :   -0.309342
   2 C :   -0.305172
   3 C :   -0.004013
   4 O :   -0.492265
   5 H :    0.164970
   6 H :    0.162432
   7 H :    0.156305
   8 H :    0.150686
   9 H :    0.155445
  10 H :    0.155368
  11 H :    0.149093
  12 C :   -0.042135
  13 H :    0.162994
  14 H :    0.154594
  15 O :   -0.556038
  16 C :    0.052129
  17 C :    0.123958
  18 C :   -0.307959
  19 C :   -0.017812
  20 O :   -0.522622
  21 H :    0.149101
  22 H :    0.148659
  23 O :   -0.638549
  24 H :    0.151886
  25 H :    0.148408
  26 H :    0.141335
  27 H :    0.149785
  28 H :    0.395732
Sum of atomic charges:   -0.0000000

LOEWDIN ATOMIC CHARGES
----------------------
   0 C :    0.183383
   1 C :   -0.232294
   2 C :   -0.218441
   3 C :   -0.027058
   4 O :   -0.304130
   5 H :    0.109591
   6 H :    0.125909
   7 H :    0.119406
   8 H :    0.118902
   9 H :    0.112390
  10 H :    0.109812
  11 H :    0.106550
  12 C :   -0.050662
  13 H :    0.115102
  14 H :    0.108878
  15 O :   -0.340092
  16 C :    0.004948
  17 C :    0.042251
  18 C :   -0.239035
  19 C :   -0.031214
  20 O :   -0.327321
  21 H :    0.107700
  22 H :    0.106541
  23 O :   -0.431988
  24 H :    0.122038
  25 H :    0.112090
  26 H :    0.101623
  27 H :    0.106340
  28 H :    0.288782

  Mayer bond orders larger than 0.100000
B(  0-C ,  1-C ) :   0.9383 B(  0-C ,  4-O ) :   0.9399 B(  0-C ,  5-H ) :   0.9269
B(  0-C , 15-O ) :   0.8039 B(  1-C ,  2-C ) :   0.9484 B(  1-C ,  6-H ) :   0.9326
B(  1-C ,  7-H ) :   0.9259 B(  2-C ,  3-C ) :   0.9505 B(  2-C ,  8-H ) :   0.9448
B(  2-C ,  9-H ) :   0.9413 B(  3-C ,  4-O ) :   0.8354 B(  3-C , 10-H ) :   0.9342
B(  3-C , 11-H ) :   0.9392 B( 12-C , 13-H ) :   0.9341 B( 12-C , 14-H ) :   0.9139
B( 12-C , 15-O ) :   0.8022 B( 12-C , 16-C ) :   0.8824 B( 16-C , 17-C ) :   0.9091
B( 16-C , 20-O ) :   0.8549 B( 16-C , 21-H ) :   0.9306 B( 17-C , 18-C ) :   0.9008
B( 17-C , 22-H ) :   0.9322 B( 17-C , 23-O ) :   0.9366 B( 18-C , 19-C ) :   0.9386
B( 18-C , 24-H ) :   0.9449 B( 18-C , 25-H ) :   0.9428 B( 19-C , 20-O ) :   0.8296
B( 19-C , 26-H ) :   0.9348 B( 19-C , 27-H ) :   0.9389 B( 23-O , 28-H ) :   0.7236

FINAL SINGLE POINT ENERGY      -652.859348090682

DIPOLE MOMENT
-------------
                                X             Y             Z
Electronic contribution:     -0.57505      -4.07080      -0.68502
Nuclear contribution   :      1.26239       5.42323       0.86926
                        -----------------------------------------
Total Dipole Moment    :      0.68734       1.35243       0.18424
                        -----------------------------------------
Magnitude (a.u.)       :      1.52821
Magnitude (Debye)      :      3.88441

Rotational constants in cm-1:     0.057854     0.013788     0.012299
Rotational constants in MHz :  1734.430805   413.365743   368.711783

                             ****ORCA TERMINATED NORMALLY****
TOTAL RUN TIME: 0 days 0 hours 49 minutes 32 seconds 826 msec
