                         Program Version 4.2.0 -  RELEASE  -
|  1> # Test redundant internal optimization
|  2> #
|  3> ! RKS B3LYP  Opt TightSCF SmallPrint
|  4>
|  5> %basis
|  6>         Basis "6-31G"
|  7> end
|  8>
|  9> %geom
| 10> Constraints
| 11> { D 4  0  15  12  255.0   C } # D for Dihedral angle
| 12> { D 0  15  12  16  165.0   C } # D for Dihedral angle
| 13> { D 0  4  3  2   C } # D for Dihedral angle
| 14> { D 4  3  2  1   C } # D for Dihedral angle
| 15> { D 3  2  1  0   C } # D for Dihedral angle
| 16> { D 2  1  0  4   C } # D for Dihedral angle
| 17> { D 1  0  4  3   C } # D for Dihedral angle
| 18> { D 16  20  19  18   C } # D for Dihedral angle
| 19> { D 20  19  18  17   C } # D for Dihedral angle
| 20> { D 19  18  17  16   C } # D for Dihedral angle
| 21> { D 18  17  16  20   C } # D for Dihedral angle
| 22> { D 17  16  20  19   C } # D for Dihedral angle
| 23> { D 15  12  16  20   C } # D for Dihedral angle
| 24> end
| 25> end
| 26>
| 27>
| 28> #%pal
| 29> #nprocs 8
| 30> #end
| 31>
| 32> * xyz 0 1
| 33> C  -21.048   26.222   46.251
| 34> C  -20.361   27.558   45.944
| 35> C  -20.329   28.222   47.341
| 36> C  -20.110   27.022   48.296
| 37> O  -20.473   25.807   47.535
| 38> H  -20.833   25.428   45.533
| 39> H  -19.344   27.382   45.576
| 40> H  -20.898   28.157   45.201
| 41> H  -19.543   28.978   47.434
| 42> H  -21.289   28.710   47.548
| 43> H  -20.733   27.082   49.195
| 44> H  -19.064   26.913   48.597
| 45> C  -23.431   25.260   45.734
| 46> H  -23.410   25.365   44.642
| 47> H  -23.014   24.277   45.991
| 48> O  -22.586   26.394   46.375
| 49> C  -24.914   25.280   46.197
| 50> C  -25.020   25.226   47.726
| 51> C  -24.719   26.694   48.113
| 52> C  -25.356   27.501   46.954
| 53> O  -25.547   26.552   45.836
| 54> H  -25.462   24.491   45.679
| 55> O  -26.463   24.835   48.146
| 56> H  -24.323   24.515   48.182
| 57> H  -25.130   26.969   49.089
| 58> H  -23.635   26.859   48.148
| 59> H  -24.721   28.328   46.619
| 60> H  -26.343   27.895   47.214
| 61> H  -27.179   25.534   47.701
| 62> *
| 63>
| 64>                          ****END OF INPUT****
 Total Charge           Charge          ....    0
 Multiplicity           Mult            ....    1
 Number of Electrons    NEL             ....  102
FINAL SINGLE POINT ENERGY      -652.837483588679
FINAL SINGLE POINT ENERGY      -652.860198960663
FINAL SINGLE POINT ENERGY      -652.864068240989
FINAL SINGLE POINT ENERGY      -652.865173567135
FINAL SINGLE POINT ENERGY      -652.865293939813
FINAL SINGLE POINT ENERGY      -652.865308454245
                    ***********************HURRAY********************

CARTESIAN COORDINATES (ANGSTROEM)
---------------------------------
  C    -21.081909   26.157704   46.218737
  C    -20.440873   27.510616   45.908959
  C    -20.438099   28.187373   47.300111
  C    -20.184290   27.004282   48.261188
  O    -20.508554   25.777926   47.489116
  H    -20.849734   25.354519   45.514008
  H    -19.417383   27.353217   45.549405
  H    -21.001342   28.068983   45.156465
  H    -19.674623   28.966216   47.388656
  H    -21.415551   28.640739   47.491375
  H    -20.812320   27.034012   49.155249
  H    -19.135552   26.917418   48.560177
  C    -23.334524   25.273671   45.753282
  H    -23.325694   25.359592   44.658444
  H    -22.933261   24.289117   46.035736
  O    -22.514894   26.335933   46.323328
  C    -24.776133   25.379423   46.237798
  C    -25.008344   25.280881   47.753068
  C    -24.755314   26.742498   48.207324
  C    -25.302851   27.576064   47.022265
  O    -25.389839   26.654867   45.864175
  H    -25.346584   24.595822   45.724699
  O    -26.367237   24.839397   48.032097
  H    -24.363039   24.556655   48.250864
  H    -25.270682   26.950454   49.149174
  H    -23.683199   26.901565   48.328593
  H    -24.642675   28.406476   46.758090
  H    -26.311451   27.962218   47.201960
  H    -26.992051   25.378362   47.502655

 Multiplicity           Mult            ....    1
 Number of Electrons    NEL             ....  102
 Basis Dimension        Dim             ....  149

ORBITAL ENERGIES
----------------

  NO   OCC          E(Eh)            E(eV)
   0   2.0000     -19.148243      -521.0502
   1   2.0000     -19.142327      -520.8892
   2   2.0000     -19.136604      -520.7335
   3   2.0000     -19.132762      -520.6289
   4   2.0000     -10.283384      -279.8251
   5   2.0000     -10.235030      -278.5093
   6   2.0000     -10.234204      -278.4869
   7   2.0000     -10.233229      -278.4603
   8   2.0000     -10.228292      -278.3260
   9   2.0000     -10.221553      -278.1426
  10   2.0000     -10.189120      -277.2600
  11   2.0000     -10.187998      -277.2295
  12   2.0000     -10.174523      -276.8629
  13   2.0000      -1.057126       -28.7659
  14   2.0000      -1.030766       -28.0486
  15   2.0000      -1.002931       -27.2911
  16   2.0000      -0.995230       -27.0816
  17   2.0000      -0.791479       -21.5372
  18   2.0000      -0.775453       -21.1012
  19   2.0000      -0.763179       -20.7672
  20   2.0000      -0.732718       -19.9383
  21   2.0000      -0.673791       -18.3348
  22   2.0000      -0.601812       -16.3761
  23   2.0000      -0.597538       -16.2598
  24   2.0000      -0.594208       -16.1692
  25   2.0000      -0.580818       -15.8049
  26   2.0000      -0.526641       -14.3306
  27   2.0000      -0.504177       -13.7194
  28   2.0000      -0.498751       -13.5717
  29   2.0000      -0.485490       -13.2109
  30   2.0000      -0.474883       -12.9222
  31   2.0000      -0.458089       -12.4652
  32   2.0000      -0.446003       -12.1364
  33   2.0000      -0.437978       -11.9180
  34   2.0000      -0.423288       -11.5183
  35   2.0000      -0.411659       -11.2018
  36   2.0000      -0.404452       -11.0057
  37   2.0000      -0.385722       -10.4960
  38   2.0000      -0.374284       -10.1848
  39   2.0000      -0.366823        -9.9818
  40   2.0000      -0.359499        -9.7825
  41   2.0000      -0.356671        -9.7055
  42   2.0000      -0.349967        -9.5231
  43   2.0000      -0.327692        -8.9170
  44   2.0000      -0.322584        -8.7780
  45   2.0000      -0.309554        -8.4234
  46   2.0000      -0.300317        -8.1721
  47   2.0000      -0.272161        -7.4059
  48   2.0000      -0.264656        -7.2017
  49   2.0000      -0.251486        -6.8433
  50   2.0000      -0.241283        -6.5656
  51   0.0000       0.063514         1.7283
  52   0.0000       0.083572         2.2741
  53   0.0000       0.087293         2.3754
  54   0.0000       0.102728         2.7954
  55   0.0000       0.105920         2.8822

MULLIKEN ATOMIC CHARGES
-----------------------
   0 C :    0.285449
   1 C :   -0.253267
   2 C :   -0.304200
   3 C :   -0.002450
   4 O :   -0.506408
   5 H :    0.143664
   6 H :    0.145254
   7 H :    0.155149
   8 H :    0.144003
   9 H :    0.159814
  10 H :    0.147632
  11 H :    0.143851
  12 C :    0.003094
  13 H :    0.148403
  14 H :    0.135812
  15 O :   -0.525095
  16 C :    0.062047
  17 C :    0.075705
  18 C :   -0.290075
  19 C :   -0.016396
  20 O :   -0.527155
  21 H :    0.155954
  22 O :   -0.602468
  23 H :    0.157263
  24 H :    0.144645
  25 H :    0.174829
  26 H :    0.148136
  27 H :    0.135203
  28 H :    0.361605
Sum of atomic charges:   -0.0000000

LOEWDIN ATOMIC CHARGES
----------------------
   0 C :    0.175042
   1 C :   -0.217447
   2 C :   -0.216820
   3 C :   -0.027939
   4 O :   -0.323375
   5 H :    0.100490
   6 H :    0.114041
   7 H :    0.123122
   8 H :    0.115018
   9 H :    0.116613
  10 H :    0.104942
  11 H :    0.103560
  12 C :   -0.036760
  13 H :    0.104227
  14 H :    0.100979
  15 O :   -0.332415
  16 C :    0.014254
  17 C :    0.039901
  18 C :   -0.241939
  19 C :   -0.032281
  20 O :   -0.331058
  21 H :    0.116560
  22 O :   -0.416740
  23 H :    0.118899
  24 H :    0.116925
  25 H :    0.129018
  26 H :    0.106005
  27 H :    0.095997
  28 H :    0.281182

  Mayer bond orders larger than 0.100000
B(  0-C ,  1-C ) :   0.9450 B(  0-C ,  4-O ) :   0.9216 B(  0-C ,  5-H ) :   0.9196
B(  0-C , 15-O ) :   0.8456 B(  1-C ,  2-C ) :   0.9566 B(  1-C ,  6-H ) :   0.9380
B(  1-C ,  7-H ) :   0.9368 B(  2-C ,  3-C ) :   0.9539 B(  2-C ,  8-H ) :   0.9451
B(  2-C ,  9-H ) :   0.9438 B(  3-C ,  4-O ) :   0.8384 B(  3-C , 10-H ) :   0.9342
B(  3-C , 11-H ) :   0.9396 B( 12-C , 13-H ) :   0.9183 B( 12-C , 14-H ) :   0.9090
B( 12-C , 15-O ) :   0.8373 B( 12-C , 16-C ) :   0.9122 B( 16-C , 17-C ) :   0.9090
B( 16-C , 20-O ) :   0.8743 B( 16-C , 21-H ) :   0.9213 B( 17-C , 18-C ) :   0.9243
B( 17-C , 22-O ) :   0.8907 B( 17-C , 23-H ) :   0.9340 B( 18-C , 19-C ) :   0.9463
B( 18-C , 24-H ) :   0.9381 B( 18-C , 25-H ) :   0.9179 B( 19-C , 20-O ) :   0.8388
B( 19-C , 26-H ) :   0.9344 B( 19-C , 27-H ) :   0.9377 B( 22-O , 28-H ) :   0.7964

FINAL SINGLE POINT ENERGY      -652.865308239788

DIPOLE MOMENT
-------------
                                X             Y             Z
Electronic contribution:     -3.50148      -4.01830      -1.31596
Nuclear contribution   :      4.32950       4.78498       1.05804
                        -----------------------------------------
Total Dipole Moment    :      0.82802       0.76667      -0.25792
                        -----------------------------------------
Magnitude (a.u.)       :      1.15755
Magnitude (Debye)      :      2.94225

Rotational constants in cm-1:     0.051079     0.014537     0.014368
Rotational constants in MHz :  1531.299600   435.815659   430.750722

                             ****ORCA TERMINATED NORMALLY****
TOTAL RUN TIME: 0 days 0 hours 17 minutes 54 seconds 491 msec
