                         Program Version 4.2.0 -  RELEASE  -
|  1> # Test redundant internal optimization
|  2> #
|  3> ! RKS B3LYP  Opt TightSCF SmallPrint
|  4>
|  5> %basis
|  6>         Basis "6-31G"
|  7> end
|  8>
|  9> %geom
| 10> Constraints
| 11> { D 4  0  15  12  120.0   C } # D for Dihedral angle
| 12> { D 0  15  12  16  165.0   C } # D for Dihedral angle
| 13> { D 0  4  3  2   C } # D for Dihedral angle
| 14> { D 4  3  2  1   C } # D for Dihedral angle
| 15> { D 3  2  1  0   C } # D for Dihedral angle
| 16> { D 2  1  0  4   C } # D for Dihedral angle
| 17> { D 1  0  4  3   C } # D for Dihedral angle
| 18> { D 16  20  19  18   C } # D for Dihedral angle
| 19> { D 20  19  18  17   C } # D for Dihedral angle
| 20> { D 19  18  17  16   C } # D for Dihedral angle
| 21> { D 18  17  16  20   C } # D for Dihedral angle
| 22> { D 17  16  20  19   C } # D for Dihedral angle
| 23> { D 15  12  16  20   C } # D for Dihedral angle
| 24> end
| 25> end
| 26>
| 27>
| 28> #%pal
| 29> #nprocs 8
| 30> #end
| 31>
| 32> * xyz 0 1
| 33> C  -21.048   26.222   46.251
| 34> C  -20.361   27.558   45.944
| 35> C  -20.329   28.222   47.341
| 36> C  -20.110   27.022   48.296
| 37> O  -20.473   25.807   47.535
| 38> H  -20.833   25.428   45.533
| 39> H  -19.344   27.382   45.576
| 40> H  -20.898   28.157   45.201
| 41> H  -19.543   28.978   47.434
| 42> H  -21.289   28.710   47.548
| 43> H  -20.733   27.082   49.195
| 44> H  -19.064   26.913   48.597
| 45> C  -23.119   27.818   46.058
| 46> H  -22.879   28.489   46.892
| 47> H  -22.642   28.214   45.152
| 48> O  -22.586   26.394   46.375
| 49> C  -24.656   27.848   45.833
| 50> C  -25.130   29.242   45.410
| 51> C  -24.755   29.259   43.909
| 52> C  -24.997   27.793   43.471
| 53> O  -25.027   26.984   44.708
| 54> H  -25.155   27.451   46.720
| 55> H  -26.215   29.327   45.539
| 56> O  -24.452   30.387   46.212
| 57> H  -25.352   29.971   43.330
| 58> H  -23.700   29.529   43.787
| 59> H  -24.205   27.415   42.814
| 60> H  -25.962   27.659   42.974
| 61> H  -23.364   30.324   46.098
| 62> *
| 63>
| 64>                          ****END OF INPUT****
 Total Charge           Charge          ....    0
 Multiplicity           Mult            ....    1
 Number of Electrons    NEL             ....  102
FINAL SINGLE POINT ENERGY      -652.810859292018
FINAL SINGLE POINT ENERGY      -652.835925322252
FINAL SINGLE POINT ENERGY      -652.844394978111
FINAL SINGLE POINT ENERGY      -652.846386708715
FINAL SINGLE POINT ENERGY      -652.846747324740
FINAL SINGLE POINT ENERGY      -652.846842633548
FINAL SINGLE POINT ENERGY      -652.846852542588
FINAL SINGLE POINT ENERGY      -652.846855011766
                    ***********************HURRAY********************

CARTESIAN COORDINATES (ANGSTROEM)
---------------------------------
  C    -21.134011   26.327157   46.299641
  C    -20.139789   27.454553   46.001905
  C    -20.002108   28.141175   47.389456
  C    -20.111439   26.945404   48.366229
  O    -20.724753   25.840474   47.594779
  H    -21.056152   25.469330   45.629648
  H    -19.188798   26.999736   45.704891
  H    -20.449791   28.135444   45.205425
  H    -19.053798   28.676915   47.495130
  H    -20.811774   28.859824   47.552272
  H    -20.735225   27.160804   49.238256
  H    -19.133116   26.591439   48.704061
  C    -23.046143   27.993632   46.026541
  H    -22.902035   28.673302   46.878324
  H    -22.545778   28.423882   45.146548
  O    -22.544644   26.666789   46.309199
  C    -24.545537   27.850409   45.766102
  C    -25.249916   29.169028   45.407925
  C    -24.966450   29.278944   43.879238
  C    -25.010385   27.804934   43.420614
  O    -24.846391   26.973531   44.639903
  H    -24.989962   27.369086   46.641292
  H    -26.321674   29.066047   45.590083
  O    -24.854234   30.322935   46.190256
  H    -25.698077   29.908127   43.365800
  H    -23.972643   29.719862   43.721853
  H    -24.218069   27.555438   42.707733
  H    -25.975715   27.538104   42.979504
  H    -23.992591   30.668696   45.880394

 Multiplicity           Mult            ....    1
 Number of Electrons    NEL             ....  102
 Basis Dimension        Dim             ....  149

ORBITAL ENERGIES
----------------

  NO   OCC          E(Eh)            E(eV)
   0   2.0000     -19.152858      -521.1758
   1   2.0000     -19.136498      -520.7306
   2   2.0000     -19.136032      -520.7179
   3   2.0000     -19.135744      -520.7101
   4   2.0000     -10.277339      -279.6606
   5   2.0000     -10.246819      -278.8301
   6   2.0000     -10.234297      -278.4894
   7   2.0000     -10.231194      -278.4049
   8   2.0000     -10.229871      -278.3690
   9   2.0000     -10.225929      -278.2617
  10   2.0000     -10.198265      -277.5089
  11   2.0000     -10.195220      -277.4260
  12   2.0000     -10.194758      -277.4135
  13   2.0000      -1.048401       -28.5284
  14   2.0000      -1.035150       -28.1679
  15   2.0000      -1.016540       -27.6615
  16   2.0000      -0.990968       -26.9656
  17   2.0000      -0.790545       -21.5118
  18   2.0000      -0.784812       -21.3558
  19   2.0000      -0.771754       -21.0005
  20   2.0000      -0.732426       -19.9303
  21   2.0000      -0.685555       -18.6549
  22   2.0000      -0.613582       -16.6964
  23   2.0000      -0.605709       -16.4822
  24   2.0000      -0.594799       -16.1853
  25   2.0000      -0.572240       -15.5714
  26   2.0000      -0.528354       -14.3773
  27   2.0000      -0.510002       -13.8778
  28   2.0000      -0.502513       -13.6741
  29   2.0000      -0.496801       -13.5186
  30   2.0000      -0.473606       -12.8875
  31   2.0000      -0.461839       -12.5673
  32   2.0000      -0.442266       -12.0347
  33   2.0000      -0.439349       -11.9553
  34   2.0000      -0.429715       -11.6931
  35   2.0000      -0.418128       -11.3779
  36   2.0000      -0.410670       -11.1749
  37   2.0000      -0.403446       -10.9783
  38   2.0000      -0.383318       -10.4306
  39   2.0000      -0.379677       -10.3315
  40   2.0000      -0.363287        -9.8855
  41   2.0000      -0.355306        -9.6684
  42   2.0000      -0.351421        -9.5627
  43   2.0000      -0.331118        -9.0102
  44   2.0000      -0.316846        -8.6218
  45   2.0000      -0.312302        -8.4982
  46   2.0000      -0.290793        -7.9129
  47   2.0000      -0.272913        -7.4263
  48   2.0000      -0.263184        -7.1616
  49   2.0000      -0.249223        -6.7817
  50   2.0000      -0.239711        -6.5229
  51   0.0000       0.044175         1.2021
  52   0.0000       0.067745         1.8434
  53   0.0000       0.083255         2.2655
  54   0.0000       0.090390         2.4596
  55   0.0000       0.099527         2.7083

MULLIKEN ATOMIC CHARGES
-----------------------
   0 C :    0.316937
   1 C :   -0.298699
   2 C :   -0.309606
   3 C :   -0.002013
   4 O :   -0.493865
   5 H :    0.163070
   6 H :    0.156635
   7 H :    0.141168
   8 H :    0.145063
   9 H :    0.147382
  10 H :    0.149739
  11 H :    0.144071
  12 C :   -0.006170
  13 H :    0.135621
  14 H :    0.107042
  15 O :   -0.517741
  16 C :    0.102284
  17 C :    0.076527
  18 C :   -0.323106
  19 C :   -0.010751
  20 O :   -0.501499
  21 H :    0.169755
  22 H :    0.171785
  23 O :   -0.598988
  24 H :    0.160241
  25 H :    0.127723
  26 H :    0.144197
  27 H :    0.149192
  28 H :    0.354005
Sum of atomic charges:   -0.0000000

LOEWDIN ATOMIC CHARGES
----------------------
   0 C :    0.182189
   1 C :   -0.232296
   2 C :   -0.221186
   3 C :   -0.029934
   4 O :   -0.312410
   5 H :    0.109686
   6 H :    0.122942
   7 H :    0.112179
   8 H :    0.115737
   9 H :    0.108032
  10 H :    0.106282
  11 H :    0.103468
  12 C :   -0.047397
  13 H :    0.095589
  14 H :    0.081722
  15 O :   -0.316760
  16 C :    0.024214
  17 C :    0.034058
  18 C :   -0.241665
  19 C :   -0.030596
  20 O :   -0.309569
  21 H :    0.123329
  22 H :    0.121086
  23 O :   -0.407997
  24 H :    0.123334
  25 H :    0.100912
  26 H :    0.102415
  27 H :    0.106111
  28 H :    0.276525

  Mayer bond orders larger than 0.100000
B(  0-C ,  1-C ) :   0.9317 B(  0-C ,  4-O ) :   0.9140 B(  0-C ,  5-H ) :   0.9303
B(  0-C , 15-O ) :   0.8743 B(  1-C ,  2-C ) :   0.9494 B(  1-C ,  6-H ) :   0.9344
B(  1-C ,  7-H ) :   0.9297 B(  2-C ,  3-C ) :   0.9502 B(  2-C ,  8-H ) :   0.9457
B(  2-C ,  9-H ) :   0.9417 B(  3-C ,  4-O ) :   0.8484 B(  3-C , 10-H ) :   0.9339
B(  3-C , 11-H ) :   0.9392 B( 12-C , 13-H ) :   0.8944 B( 12-C , 14-H ) :   0.9101
B( 12-C , 15-O ) :   0.8535 B( 12-C , 16-C ) :   0.9009 B( 16-C , 17-C ) :   0.8717
B( 16-C , 20-O ) :   0.8737 B( 16-C , 21-H ) :   0.9280 B( 17-C , 18-C ) :   0.9245
B( 17-C , 22-H ) :   0.9325 B( 17-C , 23-O ) :   0.8943 B( 18-C , 19-C ) :   0.9379
B( 18-C , 24-H ) :   0.9411 B( 18-C , 25-H ) :   0.9407 B( 19-C , 20-O ) :   0.8531
B( 19-C , 26-H ) :   0.9315 B( 19-C , 27-H ) :   0.9376 B( 23-O , 28-H ) :   0.7999

FINAL SINGLE POINT ENERGY      -652.846854996876

DIPOLE MOMENT
-------------
                                X             Y             Z
Electronic contribution:     -3.54120      -4.53831       1.63272
Nuclear contribution   :      4.50467       6.19059      -2.59405
                        -----------------------------------------
Total Dipole Moment    :      0.96347       1.65228      -0.96134
                        -----------------------------------------
Magnitude (a.u.)       :      2.14067
Magnitude (Debye)      :      5.44115

Rotational constants in cm-1:     0.052099     0.013233     0.012069
Rotational constants in MHz :  1561.902895   396.705019   361.817789

                             ****ORCA TERMINATED NORMALLY****
TOTAL RUN TIME: 0 days 0 hours 58 minutes 15 seconds 57 msec
