                         Program Version 4.2.0 -  RELEASE  -
|  1> # Test redundant internal optimization
|  2> #
|  3> ! RKS B3LYP  Opt TightSCF SmallPrint
|  4>
|  5> %basis
|  6>         Basis "6-31G"
|  7> end
|  8>
|  9> %geom
| 10> Constraints
| 11> { D 4  0  15  12  285.0   C } # D for Dihedral angle
| 12> { D 0  15  12  16  285.0   C } # D for Dihedral angle
| 13> { D 0  4  3  2   C } # D for Dihedral angle
| 14> { D 4  3  2  1   C } # D for Dihedral angle
| 15> { D 3  2  1  0   C } # D for Dihedral angle
| 16> { D 2  1  0  4   C } # D for Dihedral angle
| 17> { D 1  0  4  3   C } # D for Dihedral angle
| 18> { D 16  20  19  18   C } # D for Dihedral angle
| 19> { D 20  19  18  17   C } # D for Dihedral angle
| 20> { D 19  18  17  16   C } # D for Dihedral angle
| 21> { D 18  17  16  20   C } # D for Dihedral angle
| 22> { D 17  16  20  19   C } # D for Dihedral angle
| 23> { D 15  12  16  20   C } # D for Dihedral angle
| 24> end
| 25> end
| 26>
| 27>
| 28> #%pal
| 29> #nprocs 8
| 30> #end
| 31>
| 32> * xyz 0 1
| 33> C  -21.048   26.222   46.251
| 34> C  -20.361   27.558   45.944
| 35> C  -20.329   28.222   47.341
| 36> C  -20.110   27.022   48.296
| 37> O  -20.473   25.807   47.535
| 38> H  -20.833   25.428   45.533
| 39> H  -19.344   27.382   45.576
| 40> H  -20.898   28.157   45.201
| 41> H  -19.543   28.978   47.434
| 42> H  -21.289   28.710   47.548
| 43> H  -20.733   27.082   49.195
| 44> H  -19.064   26.913   48.597
| 45> C  -23.396   25.070   46.435
| 46> H  -22.909   24.379   47.135
| 47> H  -24.416   25.259   46.795
| 48> O  -22.586   26.394   46.375
| 49> C  -23.505   24.369   45.053
| 50> C  -22.130   23.914   44.550
| 51> C  -21.913   22.615   45.364
| 52> C  -23.341   22.023   45.469
| 53> O  -24.277   23.127   45.167
| 54> H  -24.046   25.020   44.363
| 55> O  -22.195   23.603   43.030
| 56> H  -21.342   24.656   44.716
| 57> H  -21.210   21.927   44.885
| 58> H  -21.520   22.857   46.359
| 59> H  -23.559   21.630   46.467
| 60> H  -23.521   21.237   44.732
| 61> H  -22.978   22.860   42.838
| 62> *
| 63>
| 64>                          ****END OF INPUT****
 Total Charge           Charge          ....    0
 Multiplicity           Mult            ....    1
 Number of Electrons    NEL             ....  102
FINAL SINGLE POINT ENERGY      -652.819463134136
FINAL SINGLE POINT ENERGY      -652.845580055587
FINAL SINGLE POINT ENERGY      -652.859794345991
FINAL SINGLE POINT ENERGY      -652.861811236137
FINAL SINGLE POINT ENERGY      -652.862252664563
FINAL SINGLE POINT ENERGY      -652.862312004956
FINAL SINGLE POINT ENERGY      -652.862322450129
                    ***********************HURRAY********************

CARTESIAN COORDINATES (ANGSTROEM)
---------------------------------
  C    -20.922410   26.241786   46.253087
  C    -20.370298   27.651624   46.035939
  C    -20.478595   28.255367   47.455376
  C    -20.180084   27.048731   48.373368
  O    -20.376993   25.838774   47.534592
  H    -20.588977   25.492141   45.538696
  H    -19.324841   27.585117   45.714173
  H    -20.941215   28.203634   45.286994
  H    -19.778811   29.081089   47.615247
  H    -21.495235   28.622969   47.619735
  H    -20.847480   26.992300   49.237217
  H    -19.141797   27.023279   48.717664
  C    -23.183584   25.162578   46.319151
  H    -22.815755   24.487038   47.103794
  H    -24.172997   25.513285   46.617081
  O    -22.356816   26.364383   46.301183
  C    -23.351601   24.370753   45.005035
  C    -22.129315   23.713187   44.343153
  C    -21.922126   22.458119   45.237671
  C    -23.371582   22.057013   45.610892
  O    -24.222135   23.239936   45.351259
  H    -23.886848   24.980004   44.270342
  O    -22.453219   23.342549   42.971905
  H    -21.249673   24.343580   44.255393
  H    -21.392327   21.676335   44.688112
  H    -21.336019   22.716915   46.126512
  H    -23.474215   21.769736   46.661566
  H    -23.753970   21.242212   44.988099
  H    -23.350083   22.946564   42.950762

 Multiplicity           Mult            ....    1
 Number of Electrons    NEL             ....  102
 Basis Dimension        Dim             ....  149

ORBITAL ENERGIES
----------------

  NO   OCC          E(Eh)            E(eV)
   0   2.0000     -19.148518      -521.0577
   1   2.0000     -19.145478      -520.9749
   2   2.0000     -19.139903      -520.8232
   3   2.0000     -19.139641      -520.8161
   4   2.0000     -10.279398      -279.7166
   5   2.0000     -10.244727      -278.7732
   6   2.0000     -10.236808      -278.5577
   7   2.0000     -10.233935      -278.4795
   8   2.0000     -10.228918      -278.3430
   9   2.0000     -10.224906      -278.2338
  10   2.0000     -10.190438      -277.2959
  11   2.0000     -10.184819      -277.1430
  12   2.0000     -10.184198      -277.1261
  13   2.0000      -1.053834       -28.6763
  14   2.0000      -1.040967       -28.3262
  15   2.0000      -1.008574       -27.4447
  16   2.0000      -0.993344       -27.0303
  17   2.0000      -0.788609       -21.4592
  18   2.0000      -0.779744       -21.2179
  19   2.0000      -0.766665       -20.8620
  20   2.0000      -0.735051       -20.0017
  21   2.0000      -0.675859       -18.3910
  22   2.0000      -0.606373       -16.5003
  23   2.0000      -0.601338       -16.3632
  24   2.0000      -0.596298       -16.2261
  25   2.0000      -0.581886       -15.8339
  26   2.0000      -0.523505       -14.2453
  27   2.0000      -0.521517       -14.1912
  28   2.0000      -0.500319       -13.6144
  29   2.0000      -0.483304       -13.1514
  30   2.0000      -0.471932       -12.8419
  31   2.0000      -0.459882       -12.5140
  32   2.0000      -0.449513       -12.2319
  33   2.0000      -0.431636       -11.7454
  34   2.0000      -0.424119       -11.5409
  35   2.0000      -0.421865       -11.4795
  36   2.0000      -0.401086       -10.9141
  37   2.0000      -0.395275       -10.7560
  38   2.0000      -0.376895       -10.2558
  39   2.0000      -0.371731       -10.1153
  40   2.0000      -0.358658        -9.7596
  41   2.0000      -0.354715        -9.6523
  42   2.0000      -0.347392        -9.4530
  43   2.0000      -0.333496        -9.0749
  44   2.0000      -0.325576        -8.8594
  45   2.0000      -0.311596        -8.4790
  46   2.0000      -0.299696        -8.1552
  47   2.0000      -0.277877        -7.5614
  48   2.0000      -0.272044        -7.4027
  49   2.0000      -0.254355        -6.9213
  50   2.0000      -0.243493        -6.6258
  51   0.0000       0.064796         1.7632
  52   0.0000       0.074781         2.0349
  53   0.0000       0.090743         2.4692
  54   0.0000       0.101240         2.7549
  55   0.0000       0.104696         2.8489

MULLIKEN ATOMIC CHARGES
-----------------------
   0 C :    0.276915
   1 C :   -0.256449
   2 C :   -0.295857
   3 C :   -0.003423
   4 O :   -0.516138
   5 H :    0.142315
   6 H :    0.143849
   7 H :    0.157567
   8 H :    0.139996
   9 H :    0.164777
  10 H :    0.148351
  11 H :    0.141487
  12 C :   -0.011144
  13 H :    0.144362
  14 H :    0.167501
  15 O :   -0.521523
  16 C :    0.045055
  17 C :    0.077332
  18 C :   -0.305957
  19 C :   -0.028157
  20 O :   -0.523747
  21 H :    0.164165
  22 O :   -0.605767
  23 H :    0.161989
  24 H :    0.164973
  25 H :    0.164334
  26 H :    0.149533
  27 H :    0.147811
  28 H :    0.365854
Sum of atomic charges:   -0.0000000

LOEWDIN ATOMIC CHARGES
----------------------
   0 C :    0.168503
   1 C :   -0.213912
   2 C :   -0.215196
   3 C :   -0.027518
   4 O :   -0.333246
   5 H :    0.093943
   6 H :    0.113220
   7 H :    0.124640
   8 H :    0.113136
   9 H :    0.120430
  10 H :    0.105828
  11 H :    0.102144
  12 C :   -0.043786
  13 H :    0.102313
  14 H :    0.124664
  15 O :   -0.325397
  16 C :    0.006915
  17 C :    0.033179
  18 C :   -0.243037
  19 C :   -0.037923
  20 O :   -0.327783
  21 H :    0.115881
  22 O :   -0.415591
  23 H :    0.116438
  24 H :    0.127796
  25 H :    0.122107
  26 H :    0.105938
  27 H :    0.102979
  28 H :    0.283334

  Mayer bond orders larger than 0.100000
B(  0-C ,  1-C ) :   0.9496 B(  0-C ,  4-O ) :   0.9039 B(  0-C ,  5-H ) :   0.8975
B(  0-C , 15-O ) :   0.8656 B(  1-C ,  2-C ) :   0.9573 B(  1-C ,  6-H ) :   0.9406
B(  1-C ,  7-H ) :   0.9358 B(  2-C ,  3-C ) :   0.9552 B(  2-C ,  8-H ) :   0.9453
B(  2-C ,  9-H ) :   0.9436 B(  3-C ,  4-O ) :   0.8357 B(  3-C , 10-H ) :   0.9357
B(  3-C , 11-H ) :   0.9404 B( 12-C , 13-H ) :   0.9227 B( 12-C , 14-H ) :   0.9352
B( 12-C , 15-O ) :   0.8425 B( 12-C , 16-C ) :   0.8782 B( 16-C , 17-C ) :   0.9122
B( 16-C , 20-O ) :   0.8289 B( 16-C , 21-H ) :   0.9250 B( 17-C , 18-C ) :   0.9127
B( 17-C , 22-O ) :   0.8814 B( 17-C , 23-H ) :   0.9167 B( 18-C , 19-C ) :   0.9404
B( 18-C , 24-H ) :   0.9374 B( 18-C , 25-H ) :   0.9294 B( 19-C , 20-O ) :   0.8374
B( 19-C , 26-H ) :   0.9355 B( 19-C , 27-H ) :   0.9380 B( 22-O , 28-H ) :   0.7925

FINAL SINGLE POINT ENERGY      -652.862324356524

DIPOLE MOMENT
-------------
                                X             Y             Z
Electronic contribution:     -3.17690      -1.85133      -2.49276
Nuclear contribution   :      3.58952       1.94831       2.91478
                        -----------------------------------------
Total Dipole Moment    :      0.41262       0.09698       0.42203
                        -----------------------------------------
Magnitude (a.u.)       :      0.59813
Magnitude (Debye)      :      1.52034

Rotational constants in cm-1:     0.056492     0.013153     0.012755
Rotational constants in MHz :  1693.576076   394.309813   382.393776

                             ****ORCA TERMINATED NORMALLY****
TOTAL RUN TIME: 0 days 1 hours 1 minutes 41 seconds 435 msec
