                         Program Version 4.2.0 -  RELEASE  -
|  1> # Test redundant internal optimization
|  2> #
|  3> ! RKS B3LYP  Opt TightSCF SmallPrint
|  4>
|  5> %basis
|  6>         Basis "6-31G"
|  7> end
|  8>
|  9> %geom
| 10> Constraints
| 11> { D 4  0  15  12  315.0   C } # D for Dihedral angle
| 12> { D 0  15  12  16  75.0   C } # D for Dihedral angle
| 13> { D 0  4  3  2   C } # D for Dihedral angle
| 14> { D 4  3  2  1   C } # D for Dihedral angle
| 15> { D 3  2  1  0   C } # D for Dihedral angle
| 16> { D 2  1  0  4   C } # D for Dihedral angle
| 17> { D 1  0  4  3   C } # D for Dihedral angle
| 18> { D 16  20  19  18   C } # D for Dihedral angle
| 19> { D 20  19  18  17   C } # D for Dihedral angle
| 20> { D 19  18  17  16   C } # D for Dihedral angle
| 21> { D 18  17  16  20   C } # D for Dihedral angle
| 22> { D 17  16  20  19   C } # D for Dihedral angle
| 23> { D 15  12  16  20   C } # D for Dihedral angle
| 24> end
| 25> end
| 26>
| 27>
| 28> #%pal
| 29> #nprocs 8
| 30> #end
| 31>
| 32> * xyz 0 1
| 33> C  -21.048   26.222   46.251
| 34> C  -20.361   27.558   45.944
| 35> C  -20.329   28.222   47.341
| 36> C  -20.110   27.022   48.296
| 37> O  -20.473   25.807   47.535
| 38> H  -20.833   25.428   45.533
| 39> H  -19.344   27.382   45.576
| 40> H  -20.898   28.157   45.201
| 41> H  -19.543   28.978   47.434
| 42> H  -21.289   28.710   47.548
| 43> H  -20.733   27.082   49.195
| 44> H  -19.064   26.913   48.597
| 45> C  -23.319   25.255   47.135
| 46> H  -24.395   25.319   46.933
| 47> H  -22.963   24.274   46.793
| 48> O  -22.586   26.394   46.375
| 49> C  -23.106   25.324   48.673
| 50> C  -23.729   26.594   49.263
| 51> C  -25.226   26.206   49.333
| 52> C  -25.181   24.694   49.672
| 53> O  -23.818   24.229   49.339
| 54> H  -22.045   25.197   48.893
| 55> H  -23.330   26.776   50.268
| 56> O  -23.474   27.859   48.399
| 57> H  -25.780   26.784   50.078
| 58> H  -25.702   26.370   48.359
| 59> H  -25.909   24.114   49.097
| 60> H  -25.337   24.501   50.737
| 61> H  -23.866   27.698   47.388
| 62> *
| 63>
| 64>                          ****END OF INPUT****
 Total Charge           Charge          ....    0
 Multiplicity           Mult            ....    1
 Number of Electrons    NEL             ....  102
FINAL SINGLE POINT ENERGY      -652.837240655001
FINAL SINGLE POINT ENERGY      -652.862321793610
FINAL SINGLE POINT ENERGY      -652.867823436576
FINAL SINGLE POINT ENERGY      -652.870090218371
FINAL SINGLE POINT ENERGY      -652.870712340980
FINAL SINGLE POINT ENERGY      -652.870938438927
FINAL SINGLE POINT ENERGY      -652.870982179315
FINAL SINGLE POINT ENERGY      -652.870989239170
                    ***********************HURRAY********************

CARTESIAN COORDINATES (ANGSTROEM)
---------------------------------
  C    -21.074418   26.183258   46.328713
  C    -20.496563   27.542345   45.930847
  C    -20.390273   28.253195   47.300967
  C    -20.024845   27.108551   48.269087
  O    -20.387686   25.845653   47.550335
  H    -20.849723   25.362798   45.638455
  H    -19.508365   27.386412   45.485313
  H    -21.131181   28.070141   45.215477
  H    -19.634545   29.045065   47.298401
  H    -21.346799   28.694231   47.588996
  H    -20.582962   27.152831   49.206021
  H    -18.954210   27.039813   48.477905
  C    -23.250509   25.230019   47.162806
  H    -24.287475   25.348602   46.838272
  H    -22.897597   24.242321   46.840176
  O    -22.524276   26.281987   46.427517
  C    -23.126698   25.316338   48.691657
  C    -23.749828   26.585062   49.299060
  C    -25.266252   26.228645   49.288142
  C    -25.269938   24.711845   49.574971
  O    -23.890723   24.220370   49.285058
  H    -22.088370   25.164603   48.981755
  H    -23.402307   26.714388   50.327995
  O    -23.433346   27.816095   48.605523
  H    -25.824442   26.802392   50.032525
  H    -25.683995   26.464572   48.303562
  H    -25.980406   24.155839   48.955742
  H    -25.467466   24.484437   50.626404
  H    -23.265802   27.617192   47.654315

 Multiplicity           Mult            ....    1
 Number of Electrons    NEL             ....  102
 Basis Dimension        Dim             ....  149

ORBITAL ENERGIES
----------------

  NO   OCC          E(Eh)            E(eV)
   0   2.0000     -19.162416      -521.4359
   1   2.0000     -19.153715      -521.1991
   2   2.0000     -19.138957      -520.7975
   3   2.0000     -19.127411      -520.4833
   4   2.0000     -10.287974      -279.9500
   5   2.0000     -10.235342      -278.5178
   6   2.0000     -10.234398      -278.4921
   7   2.0000     -10.229691      -278.3641
   8   2.0000     -10.226647      -278.2812
   9   2.0000     -10.226353      -278.2732
  10   2.0000     -10.191924      -277.3364
  11   2.0000     -10.186472      -277.1880
  12   2.0000     -10.182254      -277.0732
  13   2.0000      -1.062852       -28.9217
  14   2.0000      -1.025110       -27.8947
  15   2.0000      -1.006417       -27.3860
  16   2.0000      -0.999944       -27.2099
  17   2.0000      -0.794485       -21.6190
  18   2.0000      -0.772700       -21.0262
  19   2.0000      -0.765596       -20.8329
  20   2.0000      -0.734696       -19.9921
  21   2.0000      -0.679382       -18.4869
  22   2.0000      -0.603372       -16.4186
  23   2.0000      -0.598755       -16.2930
  24   2.0000      -0.597723       -16.2649
  25   2.0000      -0.580421       -15.7941
  26   2.0000      -0.526678       -14.3316
  27   2.0000      -0.516244       -14.0477
  28   2.0000      -0.495984       -13.4964
  29   2.0000      -0.488342       -13.2885
  30   2.0000      -0.472381       -12.8541
  31   2.0000      -0.457922       -12.4607
  32   2.0000      -0.442296       -12.0355
  33   2.0000      -0.432549       -11.7703
  34   2.0000      -0.422992       -11.5102
  35   2.0000      -0.410464       -11.1693
  36   2.0000      -0.408346       -11.1117
  37   2.0000      -0.394592       -10.7374
  38   2.0000      -0.379818       -10.3354
  39   2.0000      -0.366374        -9.9695
  40   2.0000      -0.362074        -9.8525
  41   2.0000      -0.356050        -9.6886
  42   2.0000      -0.354782        -9.6541
  43   2.0000      -0.339434        -9.2365
  44   2.0000      -0.333610        -9.0780
  45   2.0000      -0.311478        -8.4757
  46   2.0000      -0.299930        -8.1615
  47   2.0000      -0.277806        -7.5595
  48   2.0000      -0.268775        -7.3138
  49   2.0000      -0.255014        -6.9393
  50   2.0000      -0.239598        -6.5198
  51   0.0000       0.059629         1.6226
  52   0.0000       0.082651         2.2490
  53   0.0000       0.090075         2.4511
  54   0.0000       0.097366         2.6495
  55   0.0000       0.105534         2.8717

MULLIKEN ATOMIC CHARGES
-----------------------
   0 C :    0.302146
   1 C :   -0.272252
   2 C :   -0.316764
   3 C :   -0.018606
   4 O :   -0.512325
   5 H :    0.154596
   6 H :    0.152424
   7 H :    0.161287
   8 H :    0.145316
   9 H :    0.177372
  10 H :    0.159578
  11 H :    0.149928
  12 C :   -0.042726
  13 H :    0.156924
  14 H :    0.158703
  15 O :   -0.548885
  16 C :    0.053754
  17 C :    0.106117
  18 C :   -0.306831
  19 C :   -0.017880
  20 O :   -0.521321
  21 H :    0.191032
  22 H :    0.150196
  23 O :   -0.636800
  24 H :    0.153332
  25 H :    0.143748
  26 H :    0.142905
  27 H :    0.146725
  28 H :    0.388308
Sum of atomic charges:   -0.0000000

LOEWDIN ATOMIC CHARGES
----------------------
   0 C :    0.174867
   1 C :   -0.214988
   2 C :   -0.222433
   3 C :   -0.031240
   4 O :   -0.323176
   5 H :    0.100421
   6 H :    0.118428
   7 H :    0.125900
   8 H :    0.116657
   9 H :    0.125946
  10 H :    0.110343
  11 H :    0.106716
  12 C :   -0.048477
  13 H :    0.112552
  14 H :    0.113452
  15 O :   -0.338226
  16 C :    0.002491
  17 C :    0.038043
  18 C :   -0.238561
  19 C :   -0.033022
  20 O :   -0.322038
  21 H :    0.128730
  22 H :    0.108517
  23 O :   -0.431194
  24 H :    0.121837
  25 H :    0.110402
  26 H :    0.102106
  27 H :    0.105337
  28 H :    0.280612

  Mayer bond orders larger than 0.100000
B(  0-C ,  1-C ) :   0.9452 B(  0-C ,  4-O ) :   0.9141 B(  0-C ,  5-H ) :   0.9234
B(  0-C , 15-O ) :   0.8231 B(  1-C ,  2-C ) :   0.9544 B(  1-C ,  6-H ) :   0.9380
B(  1-C ,  7-H ) :   0.9355 B(  2-C ,  3-C ) :   0.9560 B(  2-C ,  8-H ) :   0.9440
B(  2-C ,  9-H ) :   0.9259 B(  3-C ,  4-O ) :   0.8185 B(  3-C , 10-H ) :   0.9281
B(  3-C , 11-H ) :   0.9404 B( 12-C , 13-H ) :   0.9398 B( 12-C , 14-H ) :   0.9273
B( 12-C , 15-O ) :   0.7999 B( 12-C , 16-C ) :   0.8834 B( 16-C , 17-C ) :   0.9088
B( 16-C , 20-O ) :   0.8379 B( 16-C , 21-H ) :   0.9107 B( 17-C , 18-C ) :   0.9034
B( 17-C , 22-H ) :   0.9352 B( 17-C , 23-O ) :   0.9116 B( 18-C , 19-C ) :   0.9400
B( 18-C , 24-H ) :   0.9439 B( 18-C , 25-H ) :   0.9437 B( 19-C , 20-O ) :   0.8379
B( 19-C , 26-H ) :   0.9337 B( 19-C , 27-H ) :   0.9391 B( 23-O , 28-H ) :   0.7201

FINAL SINGLE POINT ENERGY      -652.870990357243

DIPOLE MOMENT
-------------
                                X             Y             Z
Electronic contribution:      0.38772      -3.02988      -0.27597
Nuclear contribution   :     -0.33411       3.39576      -0.13889
                        -----------------------------------------
Total Dipole Moment    :      0.05361       0.36588      -0.41486
                        -----------------------------------------
Magnitude (a.u.)       :      0.55575
Magnitude (Debye)      :      1.41260

Rotational constants in cm-1:     0.053656     0.016924     0.015876
Rotational constants in MHz :  1608.577775   507.357339   475.959282

                             ****ORCA TERMINATED NORMALLY****
TOTAL RUN TIME: 0 days 1 hours 26 minutes 25 seconds 526 msec
