                         Program Version 4.2.0 -  RELEASE  -
|  1> # Test redundant internal optimization
|  2> #
|  3> ! RKS B3LYP  Opt TightSCF SmallPrint
|  4>
|  5> %basis
|  6>         Basis "6-31G"
|  7> end
|  8>
|  9> %geom
| 10> Constraints
| 11> { D 4  0  15  12  105.0   C } # D for Dihedral angle
| 12> { D 0  15  12  16  90.0   C } # D for Dihedral angle
| 13> { D 0  4  3  2   C } # D for Dihedral angle
| 14> { D 4  3  2  1   C } # D for Dihedral angle
| 15> { D 3  2  1  0   C } # D for Dihedral angle
| 16> { D 2  1  0  4   C } # D for Dihedral angle
| 17> { D 1  0  4  3   C } # D for Dihedral angle
| 18> { D 16  20  19  18   C } # D for Dihedral angle
| 19> { D 20  19  18  17   C } # D for Dihedral angle
| 20> { D 19  18  17  16   C } # D for Dihedral angle
| 21> { D 18  17  16  20   C } # D for Dihedral angle
| 22> { D 17  16  20  19   C } # D for Dihedral angle
| 23> { D 15  12  16  20   C } # D for Dihedral angle
| 24> end
| 25> end
| 26>
| 27>
| 28> #%pal
| 29> #nprocs 8
| 30> #end
| 31>
| 32> * xyz 0 1
| 33> C  -21.048   26.222   46.251
| 34> C  -20.361   27.558   45.944
| 35> C  -20.329   28.222   47.341
| 36> C  -20.110   27.022   48.296
| 37> O  -20.473   25.807   47.535
| 38> H  -20.833   25.428   45.533
| 39> H  -19.344   27.382   45.576
| 40> H  -20.898   28.157   45.201
| 41> H  -19.543   28.978   47.434
| 42> H  -21.289   28.710   47.548
| 43> H  -20.733   27.082   49.195
| 44> H  -19.064   26.913   48.597
| 45> C  -23.085   27.864   46.420
| 46> H  -24.001   27.918   47.021
| 47> H  -22.330   28.511   46.887
| 48> O  -22.586   26.394   46.375
| 49> C  -23.392   28.438   45.009
| 50> C  -24.559   27.695   44.349
| 51> C  -25.778   28.343   45.047
| 52> C  -25.330   29.813   45.245
| 53> O  -23.858   29.825   45.110
| 54> H  -22.473   28.451   44.421
| 55> H  -24.575   27.902   43.272
| 56> O  -24.495   26.156   44.551
| 57> H  -26.697   28.262   44.457
| 58> H  -25.958   27.859   46.014
| 59> H  -25.604   30.205   46.230
| 60> H  -25.730   30.478   44.476
| 61> H  -24.478   25.926   45.622
| 62> *
| 63>
| 64>                          ****END OF INPUT****
 Total Charge           Charge          ....    0
 Multiplicity           Mult            ....    1
 Number of Electrons    NEL             ....  102
FINAL SINGLE POINT ENERGY      -652.800348125690
FINAL SINGLE POINT ENERGY      -652.833419103240
FINAL SINGLE POINT ENERGY      -652.850360326300
FINAL SINGLE POINT ENERGY      -652.854414586476
FINAL SINGLE POINT ENERGY      -652.855947762496
FINAL SINGLE POINT ENERGY      -652.856728279853
FINAL SINGLE POINT ENERGY      -652.856965817834
FINAL SINGLE POINT ENERGY      -652.857038772698
FINAL SINGLE POINT ENERGY      -652.857043894850
                    ***********************HURRAY********************

CARTESIAN COORDINATES (ANGSTROEM)
---------------------------------
  C    -21.217605   26.347772   46.387610
  C    -20.236029   27.448866   45.966966
  C    -19.949635   28.168057   47.319528
  C    -19.985341   26.994958   48.329415
  O    -20.692630   25.886756   47.644210
  H    -21.210499   25.477669   45.730328
  H    -19.328094   26.965150   45.593080
  H    -20.612370   28.116966   45.189385
  H    -18.979051   28.673505   47.316111
  H    -20.709156   28.920339   47.544680
  H    -20.516265   27.236859   49.254310
  H    -18.986389   26.625212   48.576112
  C    -23.219479   28.016436   46.514690
  H    -24.136649   27.902299   47.098565
  H    -22.578329   28.733421   47.032180
  O    -22.637668   26.669309   46.473884
  C    -23.523486   28.529109   45.101038
  C    -24.580438   27.710123   44.339684
  C    -25.902741   28.251498   44.957085
  C    -25.589581   29.740030   45.210933
  O    -24.099591   29.869805   45.188208
  H    -22.597587   28.628377   44.528071
  H    -24.539222   27.976794   43.278248
  O    -24.434085   26.278838   44.413502
  H    -26.751502   28.105504   44.283640
  H    -26.117386   27.708648   45.884307
  H    -25.957344   30.104199   46.175062
  H    -25.968881   30.392694   44.419206
  H    -23.896967   26.041807   45.206963

 Multiplicity           Mult            ....    1
 Number of Electrons    NEL             ....  102
 Basis Dimension        Dim             ....  149

ORBITAL ENERGIES
----------------

  NO   OCC          E(Eh)            E(eV)
   0   2.0000     -19.161571      -521.4129
   1   2.0000     -19.148372      -521.0537
   2   2.0000     -19.144143      -520.9386
   3   2.0000     -19.117097      -520.2027
   4   2.0000     -10.292243      -280.0662
   5   2.0000     -10.241728      -278.6916
   6   2.0000     -10.236953      -278.5617
   7   2.0000     -10.235037      -278.5095
   8   2.0000     -10.233582      -278.4699
   9   2.0000     -10.229952      -278.3711
  10   2.0000     -10.203229      -277.6440
  11   2.0000     -10.201304      -277.5916
  12   2.0000     -10.182194      -277.0716
  13   2.0000      -1.061210       -28.8770
  14   2.0000      -1.028507       -27.9871
  15   2.0000      -1.008006       -27.4292
  16   2.0000      -0.994819       -27.0704
  17   2.0000      -0.797801       -21.7093
  18   2.0000      -0.778969       -21.1968
  19   2.0000      -0.771193       -20.9852
  20   2.0000      -0.741419       -20.1750
  21   2.0000      -0.686784       -18.6884
  22   2.0000      -0.613924       -16.7057
  23   2.0000      -0.605162       -16.4673
  24   2.0000      -0.599134       -16.3033
  25   2.0000      -0.576486       -15.6870
  26   2.0000      -0.539736       -14.6870
  27   2.0000      -0.511717       -13.9245
  28   2.0000      -0.508118       -13.8266
  29   2.0000      -0.490591       -13.3496
  30   2.0000      -0.475696       -12.9443
  31   2.0000      -0.462850       -12.5948
  32   2.0000      -0.443116       -12.0578
  33   2.0000      -0.442226       -12.0336
  34   2.0000      -0.427749       -11.6396
  35   2.0000      -0.421978       -11.4826
  36   2.0000      -0.412678       -11.2295
  37   2.0000      -0.395051       -10.7499
  38   2.0000      -0.392510       -10.6807
  39   2.0000      -0.377004       -10.2588
  40   2.0000      -0.366148        -9.9634
  41   2.0000      -0.359834        -9.7916
  42   2.0000      -0.351067        -9.5530
  43   2.0000      -0.339763        -9.2454
  44   2.0000      -0.324726        -8.8363
  45   2.0000      -0.312638        -8.5073
  46   2.0000      -0.291440        -7.9305
  47   2.0000      -0.283655        -7.7186
  48   2.0000      -0.267209        -7.2711
  49   2.0000      -0.251005        -6.8302
  50   2.0000      -0.241323        -6.5667
  51   0.0000       0.053751         1.4626
  52   0.0000       0.066708         1.8152
  53   0.0000       0.086962         2.3663
  54   0.0000       0.090820         2.4713
  55   0.0000       0.102342         2.7849

MULLIKEN ATOMIC CHARGES
-----------------------
   0 C :    0.320072
   1 C :   -0.305356
   2 C :   -0.314285
   3 C :   -0.007991
   4 O :   -0.492697
   5 H :    0.170258
   6 H :    0.165395
   7 H :    0.156335
   8 H :    0.150988
   9 H :    0.157420
  10 H :    0.151011
  11 H :    0.150956
  12 C :   -0.043251
  13 H :    0.167163
  14 H :    0.155929
  15 O :   -0.556726
  16 C :    0.051326
  17 C :    0.116843
  18 C :   -0.308659
  19 C :   -0.020080
  20 O :   -0.520998
  21 H :    0.153270
  22 H :    0.150353
  23 O :   -0.638130
  24 H :    0.154706
  25 H :    0.147792
  26 H :    0.141749
  27 H :    0.152334
  28 H :    0.394272
Sum of atomic charges:   -0.0000000

LOEWDIN ATOMIC CHARGES
----------------------
   0 C :    0.180948
   1 C :   -0.230639
   2 C :   -0.221328
   3 C :   -0.030815
   4 O :   -0.309804
   5 H :    0.114065
   6 H :    0.127878
   7 H :    0.118804
   8 H :    0.118989
   9 H :    0.111389
  10 H :    0.106968
  11 H :    0.106958
  12 C :   -0.049349
  13 H :    0.117582
  14 H :    0.109084
  15 O :   -0.334504
  16 C :    0.006161
  17 C :    0.041173
  18 C :   -0.239674
  19 C :   -0.031843
  20 O :   -0.326263
  21 H :    0.106871
  22 H :    0.107254
  23 O :   -0.432411
  24 H :    0.122817
  25 H :    0.112298
  26 H :    0.102126
  27 H :    0.107232
  28 H :    0.288032

  Mayer bond orders larger than 0.100000
B(  0-C ,  1-C ) :   0.9315 B(  0-C ,  4-O ) :   0.9282 B(  0-C ,  5-H ) :   0.9322
B(  0-C , 15-O ) :   0.8354 B(  1-C ,  2-C ) :   0.9508 B(  1-C ,  6-H ) :   0.9328
B(  1-C ,  7-H ) :   0.9245 B(  2-C ,  3-C ) :   0.9469 B(  2-C ,  8-H ) :   0.9441
B(  2-C ,  9-H ) :   0.9352 B(  3-C ,  4-O ) :   0.8408 B(  3-C , 10-H ) :   0.9344
B(  3-C , 11-H ) :   0.9387 B( 12-C , 13-H ) :   0.9351 B( 12-C , 14-H ) :   0.9117
B( 12-C , 15-O ) :   0.7962 B( 12-C , 16-C ) :   0.8811 B( 16-C , 17-C ) :   0.9088
B( 16-C , 20-O ) :   0.8550 B( 16-C , 21-H ) :   0.9241 B( 17-C , 18-C ) :   0.9013
B( 17-C , 22-H ) :   0.9316 B( 17-C , 23-O ) :   0.9378 B( 18-C , 19-C ) :   0.9389
B( 18-C , 24-H ) :   0.9439 B( 18-C , 25-H ) :   0.9424 B( 19-C , 20-O ) :   0.8288
B( 19-C , 26-H ) :   0.9347 B( 19-C , 27-H ) :   0.9380 B( 23-O , 28-H ) :   0.7239

FINAL SINGLE POINT ENERGY      -652.857045453144

DIPOLE MOMENT
-------------
                                X             Y             Z
Electronic contribution:     -0.85983      -3.53598      -0.81560
Nuclear contribution   :      1.52468       4.60022       1.18470
                        -----------------------------------------
Total Dipole Moment    :      0.66485       1.06424       0.36910
                        -----------------------------------------
Magnitude (a.u.)       :      1.30800
Magnitude (Debye)      :      3.32468

Rotational constants in cm-1:     0.055641     0.014275     0.012771
Rotational constants in MHz :  1668.088759   427.945328   382.861031

                             ****ORCA TERMINATED NORMALLY****
TOTAL RUN TIME: 0 days 0 hours 32 minutes 59 seconds 141 msec
