                         Program Version 4.2.0 -  RELEASE  -
|  1> # Test redundant internal optimization
|  2> #
|  3> ! RKS B3LYP  Opt TightSCF SmallPrint
|  4>
|  5> %basis
|  6>         Basis "6-31G"
|  7> end
|  8>
|  9> %geom
| 10> Constraints
| 11> { D 4  0  15  12  135.0   C } # D for Dihedral angle
| 12> { D 0  15  12  16  135.0   C } # D for Dihedral angle
| 13> { D 0  4  3  2   C } # D for Dihedral angle
| 14> { D 4  3  2  1   C } # D for Dihedral angle
| 15> { D 3  2  1  0   C } # D for Dihedral angle
| 16> { D 2  1  0  4   C } # D for Dihedral angle
| 17> { D 1  0  4  3   C } # D for Dihedral angle
| 18> { D 16  20  19  18   C } # D for Dihedral angle
| 19> { D 20  19  18  17   C } # D for Dihedral angle
| 20> { D 19  18  17  16   C } # D for Dihedral angle
| 21> { D 18  17  16  20   C } # D for Dihedral angle
| 22> { D 17  16  20  19   C } # D for Dihedral angle
| 23> { D 15  12  16  20   C } # D for Dihedral angle
| 24> end
| 25> end
| 26>
| 27>
| 28> #%pal
| 29> #nprocs 8
| 30> #end
| 31>
| 32> * xyz 0 1
| 33> C  -21.048   26.222   46.251
| 34> C  -20.361   27.558   45.944
| 35> C  -20.329   28.222   47.341
| 36> C  -20.110   27.022   48.296
| 37> O  -20.473   25.807   47.535
| 38> H  -20.833   25.428   45.533
| 39> H  -19.344   27.382   45.576
| 40> H  -20.898   28.157   45.201
| 41> H  -19.543   28.978   47.434
| 42> H  -21.289   28.710   47.548
| 43> H  -20.733   27.082   49.195
| 44> H  -19.064   26.913   48.597
| 45> C  -23.162   27.680   45.721
| 46> H  -23.410   28.405   46.505
| 47> H  -22.419   28.136   45.053
| 48> O  -22.586   26.394   46.375
| 49> C  -24.443   27.406   44.885
| 50> C  -24.916   28.672   44.162
| 51> C  -23.953   28.721   42.953
| 52> C  -23.743   27.225   42.610
| 53> O  -24.157   26.458   43.804
| 54> H  -25.196   26.944   45.527
| 55> H  -25.952   28.549   43.826
| 56> O  -24.837   29.946   45.047
| 57> H  -24.358   29.289   42.109
| 58> H  -23.004   29.187   43.246
| 59> H  -22.697   26.990   42.378
| 60> H  -24.372   26.894   41.779
| 61> H  -23.809   30.091   45.394
| 62> *
| 63>
| 64>                          ****END OF INPUT****
 Total Charge           Charge          ....    0
 Multiplicity           Mult            ....    1
 Number of Electrons    NEL             ....  102
FINAL SINGLE POINT ENERGY      -652.811663692548
FINAL SINGLE POINT ENERGY      -652.836242612361
FINAL SINGLE POINT ENERGY      -652.844357529037
FINAL SINGLE POINT ENERGY      -652.846157255169
FINAL SINGLE POINT ENERGY      -652.846455894747
FINAL SINGLE POINT ENERGY      -652.846546744448
FINAL SINGLE POINT ENERGY      -652.846556874076
FINAL SINGLE POINT ENERGY      -652.846560279521
                    ***********************HURRAY********************

CARTESIAN COORDINATES (ANGSTROEM)
---------------------------------
  C    -21.073431   26.310262   46.252288
  C    -20.117273   27.482686   46.021935
  C    -20.090312   28.158608   47.419129
  C    -20.200672   26.950890   48.377352
  O    -20.718449   25.828924   47.561299
  H    -20.941892   25.468023   45.570770
  H    -19.131801   27.069821   45.778649
  H    -20.397901   28.160346   45.212684
  H    -19.178593   28.740857   47.583098
  H    -20.947231   28.831360   47.536684
  H    -20.884933   27.127226   49.211541
  H    -19.229181   26.635115   48.768898
  C    -23.065156   27.830794   45.697034
  H    -23.366650   28.509774   46.506267
  H    -22.349593   28.355826   45.051095
  O    -22.494338   26.626447   46.259723
  C    -24.299809   27.425265   44.889361
  C    -25.013290   28.589637   44.180762
  C    -24.165212   28.741836   42.883027
  C    -23.771522   27.283761   42.560563
  O    -23.970431   26.501719   43.807817
  H    -24.969157   26.873418   45.554871
  H    -26.034960   28.292524   43.935323
  O    -25.164369   29.800614   44.961057
  H    -24.726094   29.221262   42.076135
  H    -23.281325   29.360732   43.091072
  H    -22.730305   27.184554   42.237047
  H    -24.418312   26.839827   41.798241
  H    -24.306808   30.265893   45.041280

 Multiplicity           Mult            ....    1
 Number of Electrons    NEL             ....  102
 Basis Dimension        Dim             ....  149

ORBITAL ENERGIES
----------------

  NO   OCC          E(Eh)            E(eV)
   0   2.0000     -19.152057      -521.1540
   1   2.0000     -19.138182      -520.7764
   2   2.0000     -19.136136      -520.7207
   3   2.0000     -19.133331      -520.6444
   4   2.0000     -10.278112      -279.6816
   5   2.0000     -10.246785      -278.8292
   6   2.0000     -10.234157      -278.4856
   7   2.0000     -10.232529      -278.4413
   8   2.0000     -10.229188      -278.3504
   9   2.0000     -10.225506      -278.2502
  10   2.0000     -10.198751      -277.5221
  11   2.0000     -10.194563      -277.4082
  12   2.0000     -10.194005      -277.3930
  13   2.0000      -1.048663       -28.5356
  14   2.0000      -1.035104       -28.1666
  15   2.0000      -1.017105       -27.6768
  16   2.0000      -0.988653       -26.9026
  17   2.0000      -0.790574       -21.5126
  18   2.0000      -0.784955       -21.3597
  19   2.0000      -0.770788       -20.9742
  20   2.0000      -0.732849       -19.9418
  21   2.0000      -0.685877       -18.6637
  22   2.0000      -0.613637       -16.6979
  23   2.0000      -0.605398       -16.4737
  24   2.0000      -0.595024       -16.1914
  25   2.0000      -0.571730       -15.5576
  26   2.0000      -0.530417       -14.4334
  27   2.0000      -0.507465       -13.8088
  28   2.0000      -0.505511       -13.7557
  29   2.0000      -0.496036       -13.4978
  30   2.0000      -0.473262       -12.8781
  31   2.0000      -0.462219       -12.5776
  32   2.0000      -0.444160       -12.0862
  33   2.0000      -0.440126       -11.9764
  34   2.0000      -0.429152       -11.6778
  35   2.0000      -0.418242       -11.3809
  36   2.0000      -0.408243       -11.1089
  37   2.0000      -0.402765       -10.9598
  38   2.0000      -0.382497       -10.4083
  39   2.0000      -0.380298       -10.3484
  40   2.0000      -0.363533        -9.8922
  41   2.0000      -0.355124        -9.6634
  42   2.0000      -0.352550        -9.5934
  43   2.0000      -0.332585        -9.0501
  44   2.0000      -0.316430        -8.6105
  45   2.0000      -0.311872        -8.4865
  46   2.0000      -0.290918        -7.9163
  47   2.0000      -0.272393        -7.4122
  48   2.0000      -0.261906        -7.1268
  49   2.0000      -0.253362        -6.8943
  50   2.0000      -0.235577        -6.4104
  51   0.0000       0.044542         1.2120
  52   0.0000       0.065215         1.7746
  53   0.0000       0.084531         2.3002
  54   0.0000       0.091214         2.4821
  55   0.0000       0.102577         2.7913

MULLIKEN ATOMIC CHARGES
-----------------------
   0 C :    0.320215
   1 C :   -0.300068
   2 C :   -0.305642
   3 C :    0.000827
   4 O :   -0.493241
   5 H :    0.162256
   6 H :    0.155459
   7 H :    0.140236
   8 H :    0.144479
   9 H :    0.149109
  10 H :    0.151256
  11 H :    0.143073
  12 C :   -0.010362
  13 H :    0.136622
  14 H :    0.107865
  15 O :   -0.518916
  16 C :    0.099736
  17 C :    0.080889
  18 C :   -0.327677
  19 C :   -0.009479
  20 O :   -0.505519
  21 H :    0.172436
  22 H :    0.171228
  23 O :   -0.598619
  24 H :    0.159381
  25 H :    0.130384
  26 H :    0.138001
  27 H :    0.152332
  28 H :    0.353739
Sum of atomic charges:   -0.0000000

LOEWDIN ATOMIC CHARGES
----------------------
   0 C :    0.187617
   1 C :   -0.233524
   2 C :   -0.219518
   3 C :   -0.028102
   4 O :   -0.307616
   5 H :    0.108974
   6 H :    0.121797
   7 H :    0.110654
   8 H :    0.115437
   9 H :    0.109784
  10 H :    0.107456
  11 H :    0.103134
  12 C :   -0.047587
  13 H :    0.099613
  14 H :    0.084071
  15 O :   -0.323835
  16 C :    0.018761
  17 C :    0.034227
  18 C :   -0.243394
  19 C :   -0.030805
  20 O :   -0.313417
  21 H :    0.123413
  22 H :    0.121225
  23 O :   -0.406774
  24 H :    0.123376
  25 H :    0.101599
  26 H :    0.099850
  27 H :    0.107314
  28 H :    0.276269

  Mayer bond orders larger than 0.100000
B(  0-C ,  1-C ) :   0.9325 B(  0-C ,  4-O ) :   0.9212 B(  0-C ,  5-H ) :   0.9264
B(  0-C , 15-O ) :   0.8566 B(  1-C ,  2-C ) :   0.9486 B(  1-C ,  6-H ) :   0.9337
B(  1-C ,  7-H ) :   0.9266 B(  2-C ,  3-C ) :   0.9525 B(  2-C ,  8-H ) :   0.9456
B(  2-C ,  9-H ) :   0.9452 B(  3-C ,  4-O ) :   0.8451 B(  3-C , 10-H ) :   0.9340
B(  3-C , 11-H ) :   0.9394 B( 12-C , 13-H ) :   0.9084 B( 12-C , 14-H ) :   0.9080
B( 12-C , 15-O ) :   0.8591 B( 12-C , 16-C ) :   0.8955 B( 16-C , 17-C ) :   0.8710
B( 16-C , 20-O ) :   0.8669 B( 16-C , 21-H ) :   0.9281 B( 17-C , 18-C ) :   0.9223
B( 17-C , 22-H ) :   0.9317 B( 17-C , 23-O ) :   0.8949 B( 18-C , 19-C ) :   0.9381
B( 18-C , 24-H ) :   0.9420 B( 18-C , 25-H ) :   0.9409 B( 19-C , 20-O ) :   0.8534
B( 19-C , 26-H ) :   0.9325 B( 19-C , 27-H ) :   0.9373 B( 23-O , 28-H ) :   0.7996

FINAL SINGLE POINT ENERGY      -652.846560808168

DIPOLE MOMENT
-------------
                                X             Y             Z
Electronic contribution:     -3.86879      -4.63992       1.34434
Nuclear contribution   :      4.95875       6.29595      -2.18723
                        -----------------------------------------
Total Dipole Moment    :      1.08996       1.65603      -0.84289
                        -----------------------------------------
Magnitude (a.u.)       :      2.15428
Magnitude (Debye)      :      5.47574

Rotational constants in cm-1:     0.052835     0.013166     0.012262
Rotational constants in MHz :  1583.949475   394.710870   367.620326

                             ****ORCA TERMINATED NORMALLY****
TOTAL RUN TIME: 0 days 0 hours 29 minutes 0 seconds 387 msec
