                         Program Version 4.2.1 -  RELEASE  -
|  1> # Test redundant internal optimization
|  2> #
|  3> ! RKS B3LYP  Opt TightSCF SmallPrint
|  4>
|  5> %basis
|  6>         Basis "6-31G"
|  7> end
|  8>
|  9> %geom
| 10> Constraints
| 11> { D 4  0  19  14  225.0   C } # D for Dihedral angle
| 12> { D 0  19  14  12  285.0   C } # D for Dihedral angle
| 13> { D 0  4  3  2   C } # D for Dihedral angle
| 14> { D 4  3  2  1   C } # D for Dihedral angle
| 15> { D 3  2  1  0   C } # D for Dihedral angle
| 16> { D 2  1  0  4   C } # D for Dihedral angle
| 17> { D 1  0  4  3   C } # D for Dihedral angle
| 18> { D 14  15  16  17   C } # D for Dihedral angle
| 19> { D 15  16  17  12   C } # D for Dihedral angle
| 20> { D 16  17  12  14   C } # D for Dihedral angle
| 21> { D 17  12  14  15   C } # D for Dihedral angle
| 22> { D 12  14  15  16   C } # D for Dihedral angle
| 23> end
| 24> end
| 25>
| 26>
| 27> #%pal
| 28> #nprocs 8
| 29> #end
| 30>
| 31> * xyz 0 1
| 32> C  -21.048   26.222   46.251
| 33> C  -20.361   27.558   45.944
| 34> C  -20.329   28.222   47.341
| 35> C  -20.110   27.022   48.296
| 36> O  -20.473   25.807   47.535
| 37> H  -20.833   25.428   45.533
| 38> H  -19.344   27.382   45.576
| 39> H  -20.898   28.157   45.201
| 40> H  -19.543   28.978   47.434
| 41> H  -21.289   28.710   47.548
| 42> H  -20.733   27.082   49.195
| 43> H  -19.064   26.913   48.597
| 44> C  -23.101   26.674   44.033
| 45> H  -23.879   26.424   43.294
| 46> C  -23.222   25.800   45.287
| 47> C  -22.567   24.481   44.815
| 48> C  -21.440   24.966   43.869
| 49> O  -21.770   26.361   43.501
| 50> H  -23.123   27.748   44.226
| 51> O  -22.472   26.381   46.366
| 52> H  -24.257   25.666   45.619
| 53> H  -22.186   23.875   45.643
| 54> H  -23.297   23.874   44.265
| 55> H  -21.366   24.363   42.958
| 56> H  -20.462   24.986   44.361
| 57> *
| 58>
| 59>                          ****END OF INPUT****
 Total Charge           Charge          ....    0
 Multiplicity           Mult            ....    1
 Number of Electrons    NEL             ....   86
FINAL SINGLE POINT ENERGY      -538.398442021577
FINAL SINGLE POINT ENERGY      -538.426091141140
FINAL SINGLE POINT ENERGY      -538.428516136936
FINAL SINGLE POINT ENERGY      -538.428941089628
FINAL SINGLE POINT ENERGY      -538.429006542087
FINAL SINGLE POINT ENERGY      -538.429026047220
FINAL SINGLE POINT ENERGY      -538.429019001337
FINAL SINGLE POINT ENERGY      -538.429017660708
                    ***********************HURRAY********************

CARTESIAN COORDINATES (ANGSTROEM)
---------------------------------
  C    -20.784658   26.298914   46.289406
  C    -20.206045   27.698918   46.090117
  C    -20.390317   28.323308   47.493448
  C    -20.159062   27.123643   48.438307
  O    -20.321750   25.910611   47.597555
  H    -20.427743   25.544080   45.592621
  H    -19.141944   27.617298   45.837534
  H    -20.710515   28.248536   45.293217
  H    -19.694692   29.145777   47.683842
  H    -21.412134   28.700805   47.596331
  H    -20.877889   27.078816   49.260702
  H    -19.142813   27.091089   48.843168
  C    -23.074023   26.619674   43.972404
  H    -24.000879   26.446918   43.406281
  C    -23.059862   25.786030   45.257584
  C    -22.661762   24.397600   44.719691
  C    -21.681167   24.719857   43.563986
  O    -21.908867   26.145495   43.209264
  H    -22.944929   27.688259   44.150994
  O    -22.238092   26.354793   46.313886
  H    -24.050836   25.759213   45.720315
  H    -22.219658   23.769291   45.498564
  H    -23.558364   23.893649   44.343747
  H    -21.869673   24.107298   42.674934
  H    -20.629326   24.610129   43.840102

 Multiplicity           Mult            ....    1
 Number of Electrons    NEL             ....   86
 Basis Dimension        Dim             ....  127

ORBITAL ENERGIES
----------------

  NO   OCC          E(Eh)            E(eV)
   0   2.0000     -19.138819      -520.7937
   1   2.0000     -19.137090      -520.7467
   2   2.0000     -19.133170      -520.6400
   3   2.0000     -10.273965      -279.5688
   4   2.0000     -10.243187      -278.7313
   5   2.0000     -10.229611      -278.3619
   6   2.0000     -10.225271      -278.2438
   7   2.0000     -10.219377      -278.0834
   8   2.0000     -10.192350      -277.3479
   9   2.0000     -10.179861      -277.0081
  10   2.0000     -10.178022      -276.9581
  11   2.0000      -1.047872       -28.5140
  12   2.0000      -1.017819       -27.6963
  13   2.0000      -0.986711       -26.8498
  14   2.0000      -0.789030       -21.4706
  15   2.0000      -0.775648       -21.1065
  16   2.0000      -0.747032       -20.3278
  17   2.0000      -0.719767       -19.5859
  18   2.0000      -0.616714       -16.7816
  19   2.0000      -0.606830       -16.5127
  20   2.0000      -0.592375       -16.1193
  21   2.0000      -0.566827       -15.4241
  22   2.0000      -0.523443       -14.2436
  23   2.0000      -0.504482       -13.7277
  24   2.0000      -0.482039       -13.1169
  25   2.0000      -0.477035       -12.9808
  26   2.0000      -0.452580       -12.3153
  27   2.0000      -0.439748       -11.9662
  28   2.0000      -0.430445       -11.7130
  29   2.0000      -0.415109       -11.2957
  30   2.0000      -0.402433       -10.9508
  31   2.0000      -0.396017       -10.7762
  32   2.0000      -0.375203       -10.2098
  33   2.0000      -0.367244        -9.9932
  34   2.0000      -0.358231        -9.7479
  35   2.0000      -0.350810        -9.5460
  36   2.0000      -0.344580        -9.3765
  37   2.0000      -0.317378        -8.6363
  38   2.0000      -0.307298        -8.3620
  39   2.0000      -0.293996        -8.0000
  40   2.0000      -0.263325        -7.1654
  41   2.0000      -0.251690        -6.8488
  42   2.0000      -0.234988        -6.3943
  43   0.0000       0.073230         1.9927
  44   0.0000       0.091093         2.4788
  45   0.0000       0.100467         2.7338
  46   0.0000       0.104268         2.8373
  47   0.0000       0.108331         2.9478

MULLIKEN ATOMIC CHARGES
-----------------------
   0 C :    0.288222
   1 C :   -0.252029
   2 C :   -0.299679
   3 C :   -0.001325
   4 O :   -0.506901
   5 H :    0.144394
   6 H :    0.141564
   7 H :    0.153568
   8 H :    0.138511
   9 H :    0.158843
  10 H :    0.150258
  11 H :    0.138792
  12 C :   -0.018499
  13 H :    0.129805
  14 C :    0.090377
  15 C :   -0.322191
  16 C :   -0.019647
  17 O :   -0.526142
  18 H :    0.161988
  19 O :   -0.521933
  20 H :    0.150680
  21 H :    0.172047
  22 H :    0.154325
  23 H :    0.142385
  24 H :    0.152587
Sum of atomic charges:   -0.0000000

LOEWDIN ATOMIC CHARGES
----------------------
   0 C :    0.176984
   1 C :   -0.219238
   2 C :   -0.217622
   3 C :   -0.026715
   4 O :   -0.315516
   5 H :    0.102428
   6 H :    0.112520
   7 H :    0.120180
   8 H :    0.112698
   9 H :    0.117493
  10 H :    0.106794
  11 H :    0.100596
  12 C :   -0.051978
  13 H :    0.095212
  14 C :    0.044046
  15 C :   -0.241286
  16 C :   -0.038006
  17 O :   -0.338717
  18 H :    0.117092
  19 O :   -0.326257
  20 H :    0.114411
  21 H :    0.130367
  22 H :    0.121797
  23 H :    0.101443
  24 H :    0.101272

  Mayer bond orders larger than 0.100000
B(  0-C ,  1-C ) :   0.9392 B(  0-C ,  4-O ) :   0.9237 B(  0-C ,  5-H ) :   0.9089
B(  0-C , 19-O ) :   0.8284 B(  1-C ,  2-C ) :   0.9542 B(  1-C ,  6-H ) :   0.9369
B(  1-C ,  7-H ) :   0.9354 B(  2-C ,  3-C ) :   0.9537 B(  2-C ,  8-H ) :   0.9455
B(  2-C ,  9-H ) :   0.9441 B(  3-C ,  4-O ) :   0.8388 B(  3-C , 10-H ) :   0.9351
B(  3-C , 11-H ) :   0.9400 B( 12-C , 13-H ) :   0.9136 B( 12-C , 14-C ) :   0.9093
B( 12-C , 17-O ) :   0.8595 B( 12-C , 18-H ) :   0.9306 B( 14-C , 15-C ) :   0.9299
B( 14-C , 19-O ) :   0.8849 B( 14-C , 20-H ) :   0.9359 B( 15-C , 16-C ) :   0.9426
B( 15-C , 21-H ) :   0.9331 B( 15-C , 22-H ) :   0.9373 B( 16-C , 17-O ) :   0.8520
B( 16-C , 23-H ) :   0.9330 B( 16-C , 24-H ) :   0.9254

FINAL SINGLE POINT ENERGY      -538.429018777246

DIPOLE MOMENT
-------------
                                X             Y             Z
Electronic contribution:     -0.55089      -1.30454       0.18969
Nuclear contribution   :      0.24782       1.35866      -0.30161
                        -----------------------------------------
Total Dipole Moment    :     -0.30307       0.05412      -0.11192
                        -----------------------------------------
Magnitude (a.u.)       :      0.32758
Magnitude (Debye)      :      0.83263

Rotational constants in cm-1:     0.077782     0.022791     0.021552
Rotational constants in MHz :  2331.848315   683.270442   646.112806

                             ****ORCA TERMINATED NORMALLY****
TOTAL RUN TIME: 0 days 0 hours 10 minutes 44 seconds 195 msec
