                         Program Version 4.2.0 -  RELEASE  -
|  1> # Test redundant internal optimization
|  2> #
|  3> ! RKS B3LYP  Opt TightSCF SmallPrint
|  4>
|  5> %basis
|  6>         Basis "6-31G"
|  7> end
|  8>
|  9> %geom
| 10> Constraints
| 11> { D 4  0  15  12  210.0   C } # D for Dihedral angle
| 12> { D 0  15  12  16  330.0   C } # D for Dihedral angle
| 13> { D 0  4  3  2   C } # D for Dihedral angle
| 14> { D 4  3  2  1   C } # D for Dihedral angle
| 15> { D 3  2  1  0   C } # D for Dihedral angle
| 16> { D 2  1  0  4   C } # D for Dihedral angle
| 17> { D 1  0  4  3   C } # D for Dihedral angle
| 18> { D 16  20  19  18   C } # D for Dihedral angle
| 19> { D 20  19  18  17   C } # D for Dihedral angle
| 20> { D 19  18  17  16   C } # D for Dihedral angle
| 21> { D 18  17  16  20   C } # D for Dihedral angle
| 22> { D 17  16  20  19   C } # D for Dihedral angle
| 23> { D 15  12  16  20   C } # D for Dihedral angle
| 24> end
| 25> end
| 26>
| 27>
| 28> #%pal
| 29> #nprocs 8
| 30> #end
| 31>
| 32> * xyz 0 1
| 33> C  -21.048   26.222   46.251
| 34> C  -20.361   27.558   45.944
| 35> C  -20.329   28.222   47.341
| 36> C  -20.110   27.022   48.296
| 37> O  -20.473   25.807   47.535
| 38> H  -20.833   25.428   45.533
| 39> H  -19.344   27.382   45.576
| 40> H  -20.898   28.157   45.201
| 41> H  -19.543   28.978   47.434
| 42> H  -21.289   28.710   47.548
| 43> H  -20.733   27.082   49.195
| 44> H  -19.064   26.913   48.597
| 45> C  -23.389   26.110   45.076
| 46> H  -23.673   25.051   45.050
| 47> H  -24.307   26.712   45.053
| 48> O  -22.586   26.394   46.375
| 49> C  -22.581   26.431   43.788
| 50> C  -23.441   26.250   42.532
| 51> C  -24.265   27.559   42.526
| 52> C  -23.268   28.606   43.081
| 53> O  -22.198   27.846   43.763
| 54> H  -21.657   25.849   43.791
| 55> O  -22.535   26.167   41.273
| 56> H  -24.068   25.353   42.566
| 57> H  -24.635   27.823   41.530
| 58> H  -25.132   27.461   43.190
| 59> H  -23.734   29.290   43.799
| 60> H  -22.793   29.192   42.289
| 61> H  -21.897   27.056   41.219
| 62> *
| 63>
| 64>                          ****END OF INPUT****
 Total Charge           Charge          ....    0
 Multiplicity           Mult            ....    1
 Number of Electrons    NEL             ....  102
FINAL SINGLE POINT ENERGY      -652.825606163186
FINAL SINGLE POINT ENERGY      -652.848516031393
FINAL SINGLE POINT ENERGY      -652.853286545203
FINAL SINGLE POINT ENERGY      -652.855669947873
FINAL SINGLE POINT ENERGY      -652.855957802818
FINAL SINGLE POINT ENERGY      -652.856014900136
                    ***********************HURRAY********************

CARTESIAN COORDINATES (ANGSTROEM)
---------------------------------
  C    -20.908832   26.237241   46.205851
  C    -20.227612   27.593051   46.033181
  C    -20.378465   28.208544   47.444012
  C    -20.244707   26.982106   48.371457
  O    -20.488538   25.797486   47.509300
  H    -20.609276   25.460725   45.495444
  H    -19.168461   27.429835   45.795492
  H    -20.683289   28.188155   45.241954
  H    -19.625043   28.974166   47.652069
  H    -21.370238   28.659957   47.543673
  H    -20.972191   26.974233   49.187412
  H    -19.236888   26.867297   48.782686
  C    -23.172436   26.160760   45.057157
  H    -23.485103   25.104529   45.027412
  H    -24.064358   26.770742   45.228867
  O    -22.361746   26.369837   46.246758
  C    -22.561480   26.483365   43.688886
  C    -23.549056   26.266268   42.530594
  C    -24.349636   27.596820   42.545538
  C    -23.280668   28.644208   42.950669
  O    -22.158428   27.888064   43.559451
  H    -21.657440   25.889901   43.522791
  O    -22.844510   26.068238   41.275729
  H    -24.176809   25.382288   42.646601
  H    -24.789702   27.793578   41.564968
  H    -25.158931   27.545728   43.281730
  H    -23.653577   29.371897   43.677540
  H    -22.875104   29.185535   42.090605
  H    -22.131475   26.736445   41.194175

 Multiplicity           Mult            ....    1
 Number of Electrons    NEL             ....  102
 Basis Dimension        Dim             ....  149

ORBITAL ENERGIES
----------------

  NO   OCC          E(Eh)            E(eV)
   0   2.0000     -19.155922      -521.2591
   1   2.0000     -19.148317      -521.0522
   2   2.0000     -19.132904      -520.6328
   3   2.0000     -19.130044      -520.5550
   4   2.0000     -10.271498      -279.5017
   5   2.0000     -10.253536      -279.0129
   6   2.0000     -10.245871      -278.8043
   7   2.0000     -10.241966      -278.6981
   8   2.0000     -10.235581      -278.5243
   9   2.0000     -10.215269      -277.9716
  10   2.0000     -10.199709      -277.5482
  11   2.0000     -10.174584      -276.8645
  12   2.0000     -10.166957      -276.6570
  13   2.0000      -1.050049       -28.5733
  14   2.0000      -1.040554       -28.3149
  15   2.0000      -1.016962       -27.6729
  16   2.0000      -0.984186       -26.7811
  17   2.0000      -0.794774       -21.6269
  18   2.0000      -0.775581       -21.1046
  19   2.0000      -0.771053       -20.9814
  20   2.0000      -0.729562       -19.8524
  21   2.0000      -0.676525       -18.4092
  22   2.0000      -0.615345       -16.7444
  23   2.0000      -0.610561       -16.6142
  24   2.0000      -0.587772       -15.9941
  25   2.0000      -0.566533       -15.4161
  26   2.0000      -0.533241       -14.5102
  27   2.0000      -0.516011       -14.0414
  28   2.0000      -0.491381       -13.3712
  29   2.0000      -0.488769       -13.3001
  30   2.0000      -0.472686       -12.8624
  31   2.0000      -0.455718       -12.4007
  32   2.0000      -0.452406       -12.3106
  33   2.0000      -0.445569       -12.1246
  34   2.0000      -0.422436       -11.4951
  35   2.0000      -0.414826       -11.2880
  36   2.0000      -0.405913       -11.0455
  37   2.0000      -0.392268       -10.6742
  38   2.0000      -0.382765       -10.4156
  39   2.0000      -0.371223       -10.1015
  40   2.0000      -0.359212        -9.7747
  41   2.0000      -0.354694        -9.6517
  42   2.0000      -0.344312        -9.3692
  43   2.0000      -0.334706        -9.1078
  44   2.0000      -0.319222        -8.6865
  45   2.0000      -0.305970        -8.3259
  46   2.0000      -0.299201        -8.1417
  47   2.0000      -0.282153        -7.6778
  48   2.0000      -0.259187        -7.0528
  49   2.0000      -0.250196        -6.8082
  50   2.0000      -0.237924        -6.4742
  51   0.0000       0.055574         1.5122
  52   0.0000       0.082544         2.2461
  53   0.0000       0.086493         2.3536
  54   0.0000       0.089790         2.4433
  55   0.0000       0.096059         2.6139

MULLIKEN ATOMIC CHARGES
-----------------------
   0 C :    0.291800
   1 C :   -0.277759
   2 C :   -0.300435
   3 C :   -0.000440
   4 O :   -0.507180
   5 H :    0.134340
   6 H :    0.131778
   7 H :    0.192644
   8 H :    0.136064
   9 H :    0.156598
  10 H :    0.149639
  11 H :    0.136866
  12 C :    0.019579
  13 H :    0.131119
  14 H :    0.146628
  15 O :   -0.519710
  16 C :    0.034583
  17 C :    0.078126
  18 C :   -0.302927
  19 C :   -0.027326
  20 O :   -0.521498
  21 H :    0.167191
  22 O :   -0.597956
  23 H :    0.159361
  24 H :    0.166163
  25 H :    0.153415
  26 H :    0.154591
  27 H :    0.149703
  28 H :    0.365044
Sum of atomic charges:   -0.0000000

LOEWDIN ATOMIC CHARGES
----------------------
   0 C :    0.181574
   1 C :   -0.235798
   2 C :   -0.217100
   3 C :   -0.026432
   4 O :   -0.309011
   5 H :    0.093087
   6 H :    0.107947
   7 H :    0.136455
   8 H :    0.111488
   9 H :    0.116207
  10 H :    0.106473
  11 H :    0.099715
  12 C :   -0.036839
  13 H :    0.098354
  14 H :    0.110249
  15 O :   -0.333459
  16 C :   -0.001703
  17 C :    0.039285
  18 C :   -0.241142
  19 C :   -0.036977
  20 O :   -0.327706
  21 H :    0.114766
  22 O :   -0.411020
  23 H :    0.119177
  24 H :    0.128704
  25 H :    0.117070
  26 H :    0.108447
  27 H :    0.104424
  28 H :    0.283766

  Mayer bond orders larger than 0.100000
B(  0-C ,  1-C ) :   0.9355 B(  0-C ,  4-O ) :   0.9298 B(  0-C ,  5-H ) :   0.9205
B(  0-C , 15-O ) :   0.8214 B(  1-C ,  2-C ) :   0.9531 B(  1-C ,  6-H ) :   0.9351
B(  1-C ,  7-H ) :   0.9054 B(  2-C ,  3-C ) :   0.9547 B(  2-C ,  8-H ) :   0.9457
B(  2-C ,  9-H ) :   0.9447 B(  3-C ,  4-O ) :   0.8376 B(  3-C , 10-H ) :   0.9355
B(  3-C , 11-H ) :   0.9401 B( 12-C , 13-H ) :   0.9085 B( 12-C , 14-H ) :   0.9345
B( 12-C , 15-O ) :   0.8689 B( 12-C , 16-C ) :   0.8894 B( 16-C , 17-C ) :   0.8928
B( 16-C , 20-O ) :   0.8378 B( 16-C , 21-H ) :   0.9197 B( 17-C , 18-C ) :   0.9123
B( 17-C , 22-O ) :   0.8955 B( 17-C , 23-H ) :   0.9319 B( 18-C , 19-C ) :   0.9413
B( 18-C , 24-H ) :   0.9370 B( 18-C , 25-H ) :   0.9322 B( 19-C , 20-O ) :   0.8369
B( 19-C , 26-H ) :   0.9338 B( 19-C , 27-H ) :   0.9379 B( 22-O , 28-H ) :   0.7945

FINAL SINGLE POINT ENERGY      -652.856018030187

DIPOLE MOMENT
-------------
                                X             Y             Z
Electronic contribution:      0.51421      -3.89810      -0.78959
Nuclear contribution   :     -0.96034       4.96554       0.17772
                        -----------------------------------------
Total Dipole Moment    :     -0.44613       1.06744      -0.61187
                        -----------------------------------------
Magnitude (a.u.)       :      1.30875
Magnitude (Debye)      :      3.32658

Rotational constants in cm-1:     0.062826     0.013063     0.012374
Rotational constants in MHz :  1883.464170   391.621626   370.967330

                             ****ORCA TERMINATED NORMALLY****
TOTAL RUN TIME: 0 days 0 hours 23 minutes 40 seconds 162 msec
