                         Program Version 4.2.0 -  RELEASE  -
|  1> # Test redundant internal optimization
|  2> #
|  3> ! RKS B3LYP  Opt TightSCF SmallPrint
|  4>
|  5> %basis
|  6>         Basis "6-31G"
|  7> end
|  8>
|  9> %geom
| 10> Constraints
| 11> { D 4  0  15  12  315.0   C } # D for Dihedral angle
| 12> { D 0  15  12  16  345.0   C } # D for Dihedral angle
| 13> { D 0  4  3  2   C } # D for Dihedral angle
| 14> { D 4  3  2  1   C } # D for Dihedral angle
| 15> { D 3  2  1  0   C } # D for Dihedral angle
| 16> { D 2  1  0  4   C } # D for Dihedral angle
| 17> { D 1  0  4  3   C } # D for Dihedral angle
| 18> { D 16  20  19  18   C } # D for Dihedral angle
| 19> { D 20  19  18  17   C } # D for Dihedral angle
| 20> { D 19  18  17  16   C } # D for Dihedral angle
| 21> { D 18  17  16  20   C } # D for Dihedral angle
| 22> { D 17  16  20  19   C } # D for Dihedral angle
| 23> { D 15  12  16  20   C } # D for Dihedral angle
| 24> end
| 25> end
| 26>
| 27>
| 28> #%pal
| 29> #nprocs 8
| 30> #end
| 31>
| 32> * xyz 0 1
| 33> C  -21.048   26.222   46.251
| 34> C  -20.361   27.558   45.944
| 35> C  -20.329   28.222   47.341
| 36> C  -20.110   27.022   48.296
| 37> O  -20.473   25.807   47.535
| 38> H  -20.833   25.428   45.533
| 39> H  -19.344   27.382   45.576
| 40> H  -20.898   28.157   45.201
| 41> H  -19.543   28.978   47.434
| 42> H  -21.289   28.710   47.548
| 43> H  -20.733   27.082   49.195
| 44> H  -19.064   26.913   48.597
| 45> C  -23.319   25.255   47.135
| 46> H  -23.607   25.611   48.132
| 47> H  -24.231   24.960   46.599
| 48> O  -22.586   26.394   46.375
| 49> C  -22.440   23.984   47.306
| 50> C  -23.231   22.844   47.955
| 51> C  -24.047   22.306   46.755
| 52> C  -23.076   22.482   45.562
| 53> O  -22.048   23.453   45.996
| 54> H  -21.521   24.253   47.830
| 55> O  -22.259   21.756   48.488
| 56> H  -23.865   23.177   48.784
| 57> H  -24.361   21.265   46.888
| 58> H  -24.950   22.912   46.612
| 59> H  -23.577   22.867   44.666
| 60> H  -22.556   21.554   45.306
| 61> H  -21.614   21.407   47.673
| 62> *
| 63>
| 64>                          ****END OF INPUT****
 Total Charge           Charge          ....    0
 Multiplicity           Mult            ....    1
 Number of Electrons    NEL             ....  102
FINAL SINGLE POINT ENERGY      -652.831192626195
FINAL SINGLE POINT ENERGY      -652.854385370641
FINAL SINGLE POINT ENERGY      -652.858802294528
FINAL SINGLE POINT ENERGY      -652.861524621907
FINAL SINGLE POINT ENERGY      -652.861840654196
FINAL SINGLE POINT ENERGY      -652.861896884410
FINAL SINGLE POINT ENERGY      -652.861902303117
                    ***********************HURRAY********************

CARTESIAN COORDINATES (ANGSTROEM)
---------------------------------
  C    -20.963228   26.233711   46.234790
  C    -20.478004   27.661155   45.974723
  C    -20.420080   28.238594   47.406963
  C    -19.977706   27.028414   48.260749
  O    -20.249421   25.822886   47.431216
  H    -20.713085   25.485806   45.480148
  H    -19.482355   27.623622   45.518423
  H    -21.154556   28.208832   45.315762
  H    -19.727437   29.081281   47.495045
  H    -21.416603   28.577023   47.704678
  H    -20.527446   26.943251   49.202391
  H    -18.904129   27.025874   48.471442
  C    -23.141116   25.232608   47.075772
  H    -23.447129   25.616301   48.059172
  H    -24.042518   25.091201   46.470379
  O    -22.398492   26.294888   46.401002
  C    -22.420764   23.898259   47.291125
  C    -23.316286   22.829500   47.937018
  C    -24.119785   22.308407   46.713030
  C    -23.085824   22.385536   45.560129
  O    -22.011868   23.300349   46.012671
  H    -21.505488   24.058096   47.859860
  O    -22.513388   21.778067   48.538576
  H    -23.951300   23.206708   48.740291
  H    -24.481796   21.293526   46.892796
  H    -24.983606   22.954501   46.521539
  H    -23.516374   22.771620   44.631118
  H    -22.619872   21.417522   45.351964
  H    -21.743342   21.593460   47.960227

 Multiplicity           Mult            ....    1
 Number of Electrons    NEL             ....  102
 Basis Dimension        Dim             ....  149

ORBITAL ENERGIES
----------------

  NO   OCC          E(Eh)            E(eV)
   0   2.0000     -19.140690      -520.8446
   1   2.0000     -19.140654      -520.8437
   2   2.0000     -19.136100      -520.7197
   3   2.0000     -19.135122      -520.6932
   4   2.0000     -10.270705      -279.4801
   5   2.0000     -10.241164      -278.6763
   6   2.0000     -10.229235      -278.3516
   7   2.0000     -10.229042      -278.3464
   8   2.0000     -10.226357      -278.2733
   9   2.0000     -10.224916      -278.2341
  10   2.0000     -10.187983      -277.2291
  11   2.0000     -10.183160      -277.0979
  12   2.0000     -10.180907      -277.0366
  13   2.0000      -1.048054       -28.5190
  14   2.0000      -1.033103       -28.1122
  15   2.0000      -1.003858       -27.3164
  16   2.0000      -0.986267       -26.8377
  17   2.0000      -0.788710       -21.4619
  18   2.0000      -0.779458       -21.2101
  19   2.0000      -0.761613       -20.7246
  20   2.0000      -0.730922       -19.8894
  21   2.0000      -0.670979       -18.2583
  22   2.0000      -0.602351       -16.3908
  23   2.0000      -0.600543       -16.3416
  24   2.0000      -0.595722       -16.2104
  25   2.0000      -0.566459       -15.4141
  26   2.0000      -0.521628       -14.1942
  27   2.0000      -0.508817       -13.8456
  28   2.0000      -0.494076       -13.4445
  29   2.0000      -0.480678       -13.0799
  30   2.0000      -0.472789       -12.8652
  31   2.0000      -0.458109       -12.4658
  32   2.0000      -0.445329       -12.1180
  33   2.0000      -0.439745       -11.9661
  34   2.0000      -0.413445       -11.2504
  35   2.0000      -0.405449       -11.0328
  36   2.0000      -0.398866       -10.8537
  37   2.0000      -0.391363       -10.6495
  38   2.0000      -0.375653       -10.2220
  39   2.0000      -0.367067        -9.9884
  40   2.0000      -0.361059        -9.8249
  41   2.0000      -0.354787        -9.6542
  42   2.0000      -0.345648        -9.4056
  43   2.0000      -0.334376        -9.0988
  44   2.0000      -0.320921        -8.7327
  45   2.0000      -0.309584        -8.4242
  46   2.0000      -0.293010        -7.9732
  47   2.0000      -0.271190        -7.3795
  48   2.0000      -0.261102        -7.1049
  49   2.0000      -0.247111        -6.7242
  50   2.0000      -0.238833        -6.4990
  51   0.0000       0.067561         1.8384
  52   0.0000       0.087197         2.3728
  53   0.0000       0.088162         2.3990
  54   0.0000       0.100582         2.7370
  55   0.0000       0.106385         2.8949

MULLIKEN ATOMIC CHARGES
-----------------------
   0 C :    0.299867
   1 C :   -0.262104
   2 C :   -0.298676
   3 C :   -0.010161
   4 O :   -0.519806
   5 H :    0.174825
   6 H :    0.145047
   7 H :    0.160104
   8 H :    0.140547
   9 H :    0.158589
  10 H :    0.141542
  11 H :    0.146502
  12 C :    0.028123
  13 H :    0.129488
  14 H :    0.141980
  15 O :   -0.548504
  16 C :    0.016117
  17 C :    0.079113
  18 C :   -0.291098
  19 C :   -0.024495
  20 O :   -0.525905
  21 H :    0.210791
  22 O :   -0.603522
  23 H :    0.150208
  24 H :    0.160880
  25 H :    0.141748
  26 H :    0.145104
  27 H :    0.146526
  28 H :    0.367171
Sum of atomic charges:   -0.0000000

LOEWDIN ATOMIC CHARGES
----------------------
   0 C :    0.177532
   1 C :   -0.213342
   2 C :   -0.216363
   3 C :   -0.031775
   4 O :   -0.328308
   5 H :    0.111024
   6 H :    0.113966
   7 H :    0.126097
   8 H :    0.113335
   9 H :    0.117377
  10 H :    0.101813
  11 H :    0.104315
  12 C :   -0.033818
  13 H :    0.099281
  14 H :    0.105841
  15 O :   -0.334448
  16 C :   -0.007055
  17 C :    0.038140
  18 C :   -0.240154
  19 C :   -0.037455
  20 O :   -0.331944
  21 H :    0.136913
  22 O :   -0.414501
  23 H :    0.114439
  24 H :    0.126135
  25 H :    0.111360
  26 H :    0.103995
  27 H :    0.102838
  28 H :    0.284762

  Mayer bond orders larger than 0.100000
B(  0-C ,  1-C ) :   0.9426 B(  0-C ,  4-O ) :   0.8760 B(  0-C ,  5-H ) :   0.9130
B(  0-C , 15-O ) :   0.8486 B(  1-C ,  2-C ) :   0.9541 B(  1-C ,  6-H ) :   0.9397
B(  1-C ,  7-H ) :   0.9362 B(  2-C ,  3-C ) :   0.9560 B(  2-C ,  8-H ) :   0.9452
B(  2-C ,  9-H ) :   0.9449 B(  3-C ,  4-O ) :   0.8345 B(  3-C , 10-H ) :   0.9361
B(  3-C , 11-H ) :   0.9404 B( 12-C , 13-H ) :   0.9176 B( 12-C , 14-H ) :   0.9327
B( 12-C , 15-O ) :   0.8392 B( 12-C , 16-C ) :   0.9025 B( 16-C , 17-C ) :   0.8939
B( 16-C , 20-O ) :   0.8305 B( 16-C , 21-H ) :   0.8911 B( 17-C , 18-C ) :   0.9077
B( 17-C , 22-O ) :   0.8940 B( 17-C , 23-H ) :   0.9342 B( 18-C , 19-C ) :   0.9409
B( 18-C , 24-H ) :   0.9382 B( 18-C , 25-H ) :   0.9339 B( 19-C , 20-O ) :   0.8467
B( 19-C , 26-H ) :   0.9353 B( 19-C , 27-H ) :   0.9384 B( 22-O , 28-H ) :   0.7927

FINAL SINGLE POINT ENERGY      -652.861903886120

DIPOLE MOMENT
-------------
                                X             Y             Z
Electronic contribution:      0.99649      -3.07803       0.03378
Nuclear contribution   :     -1.30725       3.57861      -0.23923
                        -----------------------------------------
Total Dipole Moment    :     -0.31077       0.50058      -0.20545
                        -----------------------------------------
Magnitude (a.u.)       :      0.62400
Magnitude (Debye)      :      1.58607

Rotational constants in cm-1:     0.059495     0.014166     0.013161
Rotational constants in MHz :  1783.619252   424.672152   394.552963

                             ****ORCA TERMINATED NORMALLY****
TOTAL RUN TIME: 0 days 0 hours 23 minutes 25 seconds 864 msec
