                         Program Version 4.2.0 -  RELEASE  -
|  1> # Test redundant internal optimization
|  2> #
|  3> ! RKS B3LYP  Opt TightSCF SmallPrint
|  4>
|  5> %basis
|  6>         Basis "6-31G"
|  7> end
|  8>
|  9> %geom
| 10> Constraints
| 11> { D 4  0  15  12  0.0   C } # D for Dihedral angle
| 12> { D 0  15  12  16  210.0   C } # D for Dihedral angle
| 13> { D 0  4  3  2   C } # D for Dihedral angle
| 14> { D 4  3  2  1   C } # D for Dihedral angle
| 15> { D 3  2  1  0   C } # D for Dihedral angle
| 16> { D 2  1  0  4   C } # D for Dihedral angle
| 17> { D 1  0  4  3   C } # D for Dihedral angle
| 18> { D 16  20  19  18   C } # D for Dihedral angle
| 19> { D 20  19  18  17   C } # D for Dihedral angle
| 20> { D 19  18  17  16   C } # D for Dihedral angle
| 21> { D 18  17  16  20   C } # D for Dihedral angle
| 22> { D 17  16  20  19   C } # D for Dihedral angle
| 23> { D 15  12  16  20   C } # D for Dihedral angle
| 24> end
| 25> end
| 26>
| 27>
| 28> #%pal
| 29> #nprocs 8
| 30> #end
| 31>
| 32> * xyz 0 1
| 33> C  -21.048   26.222   46.251
| 34> C  -20.361   27.558   45.944
| 35> C  -20.329   28.222   47.341
| 36> C  -20.110   27.022   48.296
| 37> O  -20.473   25.807   47.535
| 38> H  -20.833   25.428   45.533
| 39> H  -19.344   27.382   45.576
| 40> H  -20.898   28.157   45.201
| 41> H  -19.543   28.978   47.434
| 42> H  -21.289   28.710   47.548
| 43> H  -20.733   27.082   49.195
| 44> H  -19.064   26.913   48.597
| 45> C  -23.172   26.101   47.783
| 46> H  -22.547   25.353   48.287
| 47> H  -23.176   27.012   48.395
| 48> O  -22.586   26.394   46.375
| 49> C  -24.628   25.562   47.728
| 50> C  -24.691   24.197   47.034
| 51> C  -24.219   23.249   48.163
| 52> C  -24.803   23.906   49.439
| 53> O  -25.131   25.303   49.081
| 54> H  -25.275   26.323   47.287
| 55> H  -25.723   23.969   46.744
| 56> O  -23.797   24.115   45.766
| 57> H  -24.567   22.221   48.026
| 58> H  -23.124   23.230   48.204
| 59> H  -24.093   23.906   50.272
| 60> H  -25.732   23.430   49.766
| 61> H  -22.758   24.339   46.033
| 62> *
| 63>
| 64>                          ****END OF INPUT****
 Total Charge           Charge          ....    0
 Multiplicity           Mult            ....    1
 Number of Electrons    NEL             ....  102
FINAL SINGLE POINT ENERGY      -652.826140520333
FINAL SINGLE POINT ENERGY      -652.850725204736
FINAL SINGLE POINT ENERGY      -652.857133254728
FINAL SINGLE POINT ENERGY      -652.859704106002
FINAL SINGLE POINT ENERGY      -652.861176546673
FINAL SINGLE POINT ENERGY      -652.862410996323
FINAL SINGLE POINT ENERGY      -652.863262934612
FINAL SINGLE POINT ENERGY      -652.863608905377
FINAL SINGLE POINT ENERGY      -652.863715296820
FINAL SINGLE POINT ENERGY      -652.863732194780
FINAL SINGLE POINT ENERGY      -652.863736581424
                    ***********************HURRAY********************

CARTESIAN COORDINATES (ANGSTROEM)
---------------------------------
  C    -21.043218   26.176054   46.389031
  C    -20.448857   27.518820   45.968173
  C    -20.327874   28.250347   47.324482
  C    -19.974844   27.115938   48.308897
  O    -20.358236   25.850528   47.610512
  H    -20.869710   25.347158   45.700509
  H    -19.463193   27.350661   45.519083
  H    -21.083585   28.042674   45.250505
  H    -19.566736   29.036298   47.311024
  H    -21.285095   28.712935   47.586005
  H    -20.520696   27.169451   49.253930
  H    -18.903568   27.039513   48.511599
  C    -23.106306   26.079959   47.864934
  H    -22.481714   25.390355   48.438344
  H    -23.167141   27.032110   48.403347
  O    -22.506949   26.295753   46.536541
  C    -24.520731   25.518385   47.674461
  C    -24.602167   24.141402   46.996181
  C    -24.237401   23.189627   48.171375
  C    -24.863691   23.889386   49.396123
  O    -25.111548   25.306023   48.994915
  H    -25.143765   26.260045   47.166322
  H    -25.641976   23.964442   46.694083
  O    -23.761212   23.967194   45.837270
  H    -24.627950   22.180547   48.015464
  H    -23.146804   23.121506   48.243272
  H    -24.214606   23.882870   50.277557
  H    -25.835691   23.470320   49.670480
  H    -23.231737   24.790698   45.719581

 Multiplicity           Mult            ....    1
 Number of Electrons    NEL             ....  102
 Basis Dimension        Dim             ....  149

ORBITAL ENERGIES
----------------

  NO   OCC          E(Eh)            E(eV)
   0   2.0000     -19.163271      -521.4591
   1   2.0000     -19.158991      -521.3427
   2   2.0000     -19.137978      -520.7708
   3   2.0000     -19.112267      -520.0712
   4   2.0000     -10.292913      -280.0844
   5   2.0000     -10.241784      -278.6931
   6   2.0000     -10.232419      -278.4383
   7   2.0000     -10.231433      -278.4115
   8   2.0000     -10.227769      -278.3118
   9   2.0000     -10.224090      -278.2116
  10   2.0000     -10.199614      -277.5456
  11   2.0000     -10.195611      -277.4367
  12   2.0000     -10.176019      -276.9035
  13   2.0000      -1.067860       -29.0579
  14   2.0000      -1.024138       -27.8682
  15   2.0000      -1.005717       -27.3670
  16   2.0000      -0.990498       -26.9528
  17   2.0000      -0.800853       -21.7923
  18   2.0000      -0.774037       -21.0626
  19   2.0000      -0.765801       -20.8385
  20   2.0000      -0.737821       -20.0771
  21   2.0000      -0.675942       -18.3933
  22   2.0000      -0.613379       -16.6909
  23   2.0000      -0.600212       -16.3326
  24   2.0000      -0.593165       -16.1408
  25   2.0000      -0.574101       -15.6221
  26   2.0000      -0.528066       -14.3694
  27   2.0000      -0.518491       -14.1089
  28   2.0000      -0.506095       -13.7715
  29   2.0000      -0.487331       -13.2609
  30   2.0000      -0.474786       -12.9196
  31   2.0000      -0.460439       -12.5292
  32   2.0000      -0.442779       -12.0486
  33   2.0000      -0.431764       -11.7489
  34   2.0000      -0.426001       -11.5921
  35   2.0000      -0.417224       -11.3532
  36   2.0000      -0.408068       -11.1041
  37   2.0000      -0.385000       -10.4764
  38   2.0000      -0.384294       -10.4572
  39   2.0000      -0.370917       -10.0932
  40   2.0000      -0.366868        -9.9830
  41   2.0000      -0.359019        -9.7694
  42   2.0000      -0.354499        -9.6464
  43   2.0000      -0.338217        -9.2034
  44   2.0000      -0.334108        -9.0915
  45   2.0000      -0.318200        -8.6587
  46   2.0000      -0.290199        -7.8967
  47   2.0000      -0.278511        -7.5787
  48   2.0000      -0.265811        -7.2331
  49   2.0000      -0.243740        -6.6325
  50   2.0000      -0.241799        -6.5797
  51   0.0000       0.058163         1.5827
  52   0.0000       0.072533         1.9737
  53   0.0000       0.091502         2.4899
  54   0.0000       0.098882         2.6907
  55   0.0000       0.100049         2.7225

MULLIKEN ATOMIC CHARGES
-----------------------
   0 C :    0.295457
   1 C :   -0.254670
   2 C :   -0.311746
   3 C :   -0.019242
   4 O :   -0.507380
   5 H :    0.166918
   6 H :    0.150209
   7 H :    0.164021
   8 H :    0.152623
   9 H :    0.160870
  10 H :    0.152225
  11 H :    0.156924
  12 C :   -0.019255
  13 H :    0.172789
  14 H :    0.147464
  15 O :   -0.570274
  16 C :    0.039724
  17 C :    0.124920
  18 C :   -0.303918
  19 C :   -0.021244
  20 O :   -0.521350
  21 H :    0.159778
  22 H :    0.141385
  23 O :   -0.644283
  24 H :    0.149454
  25 H :    0.156076
  26 H :    0.141836
  27 H :    0.148212
  28 H :    0.392481
Sum of atomic charges:   -0.0000000

LOEWDIN ATOMIC CHARGES
----------------------
   0 C :    0.180827
   1 C :   -0.218256
   2 C :   -0.218893
   3 C :   -0.031232
   4 O :   -0.311617
   5 H :    0.110252
   6 H :    0.116809
   7 H :    0.127431
   8 H :    0.120264
   9 H :    0.117187
  10 H :    0.107110
  11 H :    0.110774
  12 C :   -0.048879
  13 H :    0.115320
  14 H :    0.103993
  15 O :   -0.354729
  16 C :    0.016228
  17 C :    0.042832
  18 C :   -0.235676
  19 C :   -0.032671
  20 O :   -0.324052
  21 H :    0.113963
  22 H :    0.101261
  23 O :   -0.437620
  24 H :    0.120633
  25 H :    0.116275
  26 H :    0.101629
  27 H :    0.105636
  28 H :    0.285202

  Mayer bond orders larger than 0.100000
B(  0-C ,  1-C ) :   0.9355 B(  0-C ,  4-O ) :   0.9285 B(  0-C ,  5-H ) :   0.9268
B(  0-C , 15-O ) :   0.7973 B(  1-C ,  2-C ) :   0.9518 B(  1-C ,  6-H ) :   0.9345
B(  1-C ,  7-H ) :   0.9351 B(  2-C ,  3-C ) :   0.9536 B(  2-C ,  8-H ) :   0.9439
B(  2-C ,  9-H ) :   0.9442 B(  3-C ,  4-O ) :   0.8204 B(  3-C , 10-H ) :   0.9333
B(  3-C , 11-H ) :   0.9398 B( 12-C , 13-H ) :   0.9092 B( 12-C , 14-H ) :   0.9249
B( 12-C , 15-O ) :   0.7796 B( 12-C , 16-C ) :   0.9064 B( 16-C , 17-C ) :   0.9182
B( 16-C , 20-O ) :   0.8561 B( 16-C , 21-H ) :   0.9287 B( 17-C , 18-C ) :   0.9054
B( 17-C , 22-H ) :   0.9279 B( 17-C , 23-O ) :   0.9276 B( 18-C , 19-C ) :   0.9416
B( 18-C , 24-H ) :   0.9447 B( 18-C , 25-H ) :   0.9405 B( 19-C , 20-O ) :   0.8321
B( 19-C , 26-H ) :   0.9342 B( 19-C , 27-H ) :   0.9385 B( 23-O , 28-H ) :   0.7216

FINAL SINGLE POINT ENERGY      -652.863738171883

DIPOLE MOMENT
-------------
                                X             Y             Z
Electronic contribution:     -2.50021      -1.61436      -1.81776
Nuclear contribution   :      3.50137       2.55500       2.23165
                        -----------------------------------------
Total Dipole Moment    :      1.00115       0.94064       0.41390
                        -----------------------------------------
Magnitude (a.u.)       :      1.43472
Magnitude (Debye)      :      3.64676

Rotational constants in cm-1:     0.052266     0.014841     0.013639
Rotational constants in MHz :  1566.898760   444.913878   408.894688

                             ****ORCA TERMINATED NORMALLY****
TOTAL RUN TIME: 0 days 1 hours 6 minutes 40 seconds 78 msec
