                         Program Version 4.2.0 -  RELEASE  -
|  1> # Test redundant internal optimization
|  2> #
|  3> ! RKS B3LYP  Opt TightSCF SmallPrint
|  4>
|  5> %basis
|  6>         Basis "6-31G"
|  7> end
|  8>
|  9> %geom
| 10> Constraints
| 11> { D 4  0  15  12  345.0   C } # D for Dihedral angle
| 12> { D 0  15  12  16  165.0   C } # D for Dihedral angle
| 13> { D 0  4  3  2   C } # D for Dihedral angle
| 14> { D 4  3  2  1   C } # D for Dihedral angle
| 15> { D 3  2  1  0   C } # D for Dihedral angle
| 16> { D 2  1  0  4   C } # D for Dihedral angle
| 17> { D 1  0  4  3   C } # D for Dihedral angle
| 18> { D 16  20  19  18   C } # D for Dihedral angle
| 19> { D 20  19  18  17   C } # D for Dihedral angle
| 20> { D 19  18  17  16   C } # D for Dihedral angle
| 21> { D 18  17  16  20   C } # D for Dihedral angle
| 22> { D 17  16  20  19   C } # D for Dihedral angle
| 23> { D 15  12  16  20   C } # D for Dihedral angle
| 24> end
| 25> end
| 26>
| 27>
| 28> #%pal
| 29> #nprocs 8
| 30> #end
| 31>
| 32> * xyz 0 1
| 33> C  -21.048   26.222   46.251
| 34> C  -20.361   27.558   45.944
| 35> C  -20.329   28.222   47.341
| 36> C  -20.110   27.022   48.296
| 37> O  -20.473   25.807   47.535
| 38> H  -20.833   25.428   45.533
| 39> H  -19.344   27.382   45.576
| 40> H  -20.898   28.157   45.201
| 41> H  -19.543   28.978   47.434
| 42> H  -21.289   28.710   47.548
| 43> H  -20.733   27.082   49.195
| 44> H  -19.064   26.913   48.597
| 45> C  -23.221   25.764   47.645
| 46> H  -23.254   24.674   47.530
| 47> H  -22.617   25.997   48.532
| 48> O  -22.586   26.394   46.375
| 49> C  -24.665   26.272   47.910
| 50> C  -25.216   25.721   49.230
| 51> C  -24.535   26.648   50.265
| 52> C  -24.484   28.013   49.535
| 53> O  -24.670   27.727   48.096
| 54> H  -25.285   26.059   47.037
| 55> O  -26.759   25.889   49.275
| 56> H  -24.979   24.663   49.386
| 57> H  -25.082   26.701   51.212
| 58> H  -23.522   26.288   50.483
| 59> H  -23.527   28.528   49.676
| 60> H  -25.295   28.680   49.839
| 61> H  -27.020   26.942   49.121
| 62> *
| 63>
| 64>                          ****END OF INPUT****
 Total Charge           Charge          ....    0
 Multiplicity           Mult            ....    1
 Number of Electrons    NEL             ....  102
FINAL SINGLE POINT ENERGY      -652.832339992423
FINAL SINGLE POINT ENERGY      -652.855623095942
FINAL SINGLE POINT ENERGY      -652.860002550419
FINAL SINGLE POINT ENERGY      -652.860799966390
FINAL SINGLE POINT ENERGY      -652.860906814911
FINAL SINGLE POINT ENERGY      -652.860921265228
                    ***********************HURRAY********************

CARTESIAN COORDINATES (ANGSTROEM)
---------------------------------
  C    -21.131347   26.207247   46.303808
  C    -20.585279   27.596448   45.976334
  C    -20.389351   28.196468   47.385446
  C    -19.956827   26.981771   48.234128
  O    -20.360400   25.778353   47.450655
  H    -20.976605   25.444965   45.534916
  H    -19.630052   27.496301   45.447520
  H    -21.279523   28.170952   45.359767
  H    -19.647242   29.000443   47.403203
  H    -21.344546   28.596411   47.740021
  H    -20.441014   26.942827   49.214501
  H    -18.873059   26.914285   48.367115
  C    -23.112243   25.704288   47.749806
  H    -23.186600   24.612407   47.630144
  H    -22.475253   25.900314   48.618668
  O    -22.558854   26.318156   46.559437
  C    -24.505502   26.293623   47.941980
  C    -25.237185   25.786339   49.193390
  C    -24.645104   26.702189   50.296376
  C    -24.446708   28.051738   49.563032
  O    -24.469492   27.751451   48.111249
  H    -25.093223   26.110370   47.037457
  O    -26.674512   25.962532   49.063279
  H    -25.093134   24.723164   49.391219
  H    -25.328163   26.773394   51.146498
  H    -23.691749   26.297092   50.653322
  H    -23.496849   28.534165   49.815281
  H    -25.257873   28.760235   49.760329
  H    -26.854313   26.833071   48.649119

 Multiplicity           Mult            ....    1
 Number of Electrons    NEL             ....  102
 Basis Dimension        Dim             ....  149

ORBITAL ENERGIES
----------------

  NO   OCC          E(Eh)            E(eV)
   0   2.0000     -19.148931      -521.0689
   1   2.0000     -19.141910      -520.8779
   2   2.0000     -19.138842      -520.7944
   3   2.0000     -19.135841      -520.7127
   4   2.0000     -10.277496      -279.6649
   5   2.0000     -10.243163      -278.7306
   6   2.0000     -10.232757      -278.4475
   7   2.0000     -10.231958      -278.4257
   8   2.0000     -10.231692      -278.4185
   9   2.0000     -10.229197      -278.3506
  10   2.0000     -10.190443      -277.2961
  11   2.0000     -10.186378      -277.1854
  12   2.0000     -10.182556      -277.0814
  13   2.0000      -1.054519       -28.6949
  14   2.0000      -1.035941       -28.1894
  15   2.0000      -1.006391       -27.3853
  16   2.0000      -0.990419       -26.9507
  17   2.0000      -0.791263       -21.5314
  18   2.0000      -0.782543       -21.2941
  19   2.0000      -0.768709       -20.9176
  20   2.0000      -0.732678       -19.9372
  21   2.0000      -0.672397       -18.2968
  22   2.0000      -0.605290       -16.4708
  23   2.0000      -0.601801       -16.3758
  24   2.0000      -0.591811       -16.1040
  25   2.0000      -0.577999       -15.7282
  26   2.0000      -0.528171       -14.3723
  27   2.0000      -0.509091       -13.8531
  28   2.0000      -0.494815       -13.4646
  29   2.0000      -0.491116       -13.3639
  30   2.0000      -0.477833       -13.0025
  31   2.0000      -0.460461       -12.5298
  32   2.0000      -0.450816       -12.2673
  33   2.0000      -0.443702       -12.0737
  34   2.0000      -0.416110       -11.3229
  35   2.0000      -0.407521       -11.0892
  36   2.0000      -0.403109       -10.9692
  37   2.0000      -0.394886       -10.7454
  38   2.0000      -0.373611       -10.1665
  39   2.0000      -0.369330       -10.0500
  40   2.0000      -0.363401        -9.8886
  41   2.0000      -0.357647        -9.7321
  42   2.0000      -0.347346        -9.4518
  43   2.0000      -0.338750        -9.2178
  44   2.0000      -0.325378        -8.8540
  45   2.0000      -0.307569        -8.3694
  46   2.0000      -0.302720        -8.2374
  47   2.0000      -0.271721        -7.3939
  48   2.0000      -0.262881        -7.1534
  49   2.0000      -0.248436        -6.7603
  50   2.0000      -0.245629        -6.6839
  51   0.0000       0.051560         1.4030
  52   0.0000       0.079494         2.1632
  53   0.0000       0.093792         2.5522
  54   0.0000       0.098092         2.6692
  55   0.0000       0.101696         2.7673

MULLIKEN ATOMIC CHARGES
-----------------------
   0 C :    0.300239
   1 C :   -0.254633
   2 C :   -0.310431
   3 C :   -0.019612
   4 O :   -0.514356
   5 H :    0.151461
   6 H :    0.141342
   7 H :    0.167084
   8 H :    0.143831
   9 H :    0.172666
  10 H :    0.137907
  11 H :    0.151024
  12 C :    0.010668
  13 H :    0.132533
  14 H :    0.138452
  15 O :   -0.531887
  16 C :    0.064661
  17 C :    0.076557
  18 C :   -0.293888
  19 C :   -0.031776
  20 O :   -0.512336
  21 H :    0.169853
  22 O :   -0.602815
  23 H :    0.153708
  24 H :    0.164038
  25 H :    0.140556
  26 H :    0.141240
  27 H :    0.147288
  28 H :    0.366628
Sum of atomic charges:   -0.0000000

LOEWDIN ATOMIC CHARGES
----------------------
   0 C :    0.182826
   1 C :   -0.216617
   2 C :   -0.220426
   3 C :   -0.032899
   4 O :   -0.323439
   5 H :    0.100962
   6 H :    0.111742
   7 H :    0.129423
   8 H :    0.115724
   9 H :    0.122876
  10 H :    0.097949
  11 H :    0.106604
  12 C :   -0.036660
  13 H :    0.097750
  14 H :    0.098488
  15 O :   -0.331931
  16 C :    0.017495
  17 C :    0.035816
  18 C :   -0.241209
  19 C :   -0.039763
  20 O :   -0.323188
  21 H :    0.120723
  22 O :   -0.414523
  23 H :    0.116317
  24 H :    0.127167
  25 H :    0.111453
  26 H :    0.100447
  27 H :    0.102603
  28 H :    0.284289

  Mayer bond orders larger than 0.100000
B(  0-C ,  1-C ) :   0.9399 B(  0-C ,  4-O ) :   0.9053 B(  0-C ,  5-H ) :   0.9256
B(  0-C , 15-O ) :   0.8414 B(  1-C ,  2-C ) :   0.9533 B(  1-C ,  6-H ) :   0.9368
B(  1-C ,  7-H ) :   0.9344 B(  2-C ,  3-C ) :   0.9542 B(  2-C ,  8-H ) :   0.9444
B(  2-C ,  9-H ) :   0.9379 B(  3-C ,  4-O ) :   0.8315 B(  3-C , 10-H ) :   0.9321
B(  3-C , 11-H ) :   0.9405 B( 12-C , 13-H ) :   0.9138 B( 12-C , 14-H ) :   0.9121
B( 12-C , 15-O ) :   0.8343 B( 12-C , 16-C ) :   0.8980 B( 16-C , 17-C ) :   0.9005
B( 16-C , 20-O ) :   0.8582 B( 16-C , 21-H ) :   0.9228 B( 17-C , 18-C ) :   0.9104
B( 17-C , 22-O ) :   0.8961 B( 17-C , 23-H ) :   0.9326 B( 18-C , 19-C ) :   0.9400
B( 18-C , 24-H ) :   0.9372 B( 18-C , 25-H ) :   0.9344 B( 19-C , 20-O ) :   0.8548
B( 19-C , 26-H ) :   0.9338 B( 19-C , 27-H ) :   0.9374 B( 22-O , 28-H ) :   0.7930

FINAL SINGLE POINT ENERGY      -652.860924073838

DIPOLE MOMENT
-------------
                                X             Y             Z
Electronic contribution:     -3.52059      -2.83961      -3.02248
Nuclear contribution   :      4.30765       3.43261       3.64469
                        -----------------------------------------
Total Dipole Moment    :      0.78706       0.59299       0.62221
                        -----------------------------------------
Magnitude (a.u.)       :      1.16544
Magnitude (Debye)      :      2.96231

Rotational constants in cm-1:     0.055389     0.014181     0.013498
Rotational constants in MHz :  1660.516003   425.121419   404.656314

                             ****ORCA TERMINATED NORMALLY****
TOTAL RUN TIME: 0 days 0 hours 23 minutes 48 seconds 222 msec
