                         Program Version 4.2.0 -  RELEASE  -
|  1> # Test redundant internal optimization
|  2> #
|  3> ! RKS B3LYP  Opt TightSCF SmallPrint
|  4>
|  5> %basis
|  6>         Basis "6-31G"
|  7> end
|  8>
|  9> %geom
| 10> Constraints
| 11> { D 4  0  15  12  75.0   C } # D for Dihedral angle
| 12> { D 0  15  12  16  195.0   C } # D for Dihedral angle
| 13> { D 0  4  3  2   C } # D for Dihedral angle
| 14> { D 4  3  2  1   C } # D for Dihedral angle
| 15> { D 3  2  1  0   C } # D for Dihedral angle
| 16> { D 2  1  0  4   C } # D for Dihedral angle
| 17> { D 1  0  4  3   C } # D for Dihedral angle
| 18> { D 16  20  19  18   C } # D for Dihedral angle
| 19> { D 20  19  18  17   C } # D for Dihedral angle
| 20> { D 19  18  17  16   C } # D for Dihedral angle
| 21> { D 18  17  16  20   C } # D for Dihedral angle
| 22> { D 17  16  20  19   C } # D for Dihedral angle
| 23> { D 15  12  16  20   C } # D for Dihedral angle
| 24> end
| 25> end
| 26>
| 27>
| 28> #%pal
| 29> #nprocs 8
| 30> #end
| 31>
| 32> * xyz 0 1
| 33> C  -21.048   26.222   46.251
| 34> C  -20.361   27.558   45.944
| 35> C  -20.329   28.222   47.341
| 36> C  -20.110   27.022   48.296
| 37> O  -20.473   25.807   47.535
| 38> H  -20.833   25.428   45.533
| 39> H  -19.344   27.382   45.576
| 40> H  -20.898   28.157   45.201
| 41> H  -19.543   28.978   47.434
| 42> H  -21.289   28.710   47.548
| 43> H  -20.733   27.082   49.195
| 44> H  -19.064   26.913   48.597
| 45> C  -23.049   27.675   47.122
| 46> H  -22.442   27.806   48.026
| 47> H  -22.914   28.560   46.487
| 48> O  -22.586   26.394   46.375
| 49> C  -24.544   27.618   47.541
| 50> C  -25.451   27.345   46.335
| 51> C  -25.284   25.817   46.157
| 52> C  -25.140   25.306   47.612
| 53> O  -24.783   26.481   48.437
| 54> H  -24.794   28.522   48.099
| 55> H  -26.489   27.594   46.582
| 56> O  -25.042   28.147   45.070
| 57> H  -26.128   25.356   45.634
| 58> H  -24.375   25.603   45.581
| 59> H  -24.359   24.545   47.715
| 60> H  -26.078   24.907   48.009
| 61> H  -24.005   27.914   44.805
| 62> *
| 63>
| 64>                          ****END OF INPUT****
 Total Charge           Charge          ....    0
 Multiplicity           Mult            ....    1
 Number of Electrons    NEL             ....  102
FINAL SINGLE POINT ENERGY      -652.810897601170
FINAL SINGLE POINT ENERGY      -652.839839261835
FINAL SINGLE POINT ENERGY      -652.854827407592
FINAL SINGLE POINT ENERGY      -652.857773398047
FINAL SINGLE POINT ENERGY      -652.858188894493
FINAL SINGLE POINT ENERGY      -652.858247710075
FINAL SINGLE POINT ENERGY      -652.858255894224
                    ***********************HURRAY********************

CARTESIAN COORDINATES (ANGSTROEM)
---------------------------------
  C    -21.159941   26.375180   46.435214
  C    -20.298834   27.560272   45.976343
  C    -19.991701   28.280579   47.321774
  C    -19.868410   27.097005   48.314919
  O    -20.522726   25.939035   47.654492
  H    -21.111146   25.521065   45.758027
  H    -19.379956   27.169937   45.527639
  H    -20.801020   28.199261   45.244252
  H    -19.068126   28.865894   47.273336
  H    -20.799362   28.961510   47.599587
  H    -20.360895   27.282183   49.273843
  H    -18.828226   26.811758   48.496164
  C    -23.140304   27.745175   47.220714
  H    -22.638079   27.892039   48.182952
  H    -23.024031   28.647805   46.605731
  O    -22.586299   26.578849   46.542333
  C    -24.624189   27.527585   47.510945
  C    -25.508706   27.290460   46.274866
  C    -25.351811   25.754346   46.055663
  C    -25.246233   25.216982   47.498622
  O    -24.895096   26.378299   48.358158
  H    -24.961699   28.409178   48.070064
  H    -26.543424   27.557065   46.499633
  O    -25.149837   28.098175   45.125816
  H    -26.198168   25.329439   45.507909
  H    -24.428751   25.567518   45.502894
  H    -24.469147   24.456515   47.610137
  H    -26.197213   24.825371   47.872605
  H    -24.334669   27.732520   44.723365

 Multiplicity           Mult            ....    1
 Number of Electrons    NEL             ....  102
 Basis Dimension        Dim             ....  149

ORBITAL ENERGIES
----------------

  NO   OCC          E(Eh)            E(eV)
   0   2.0000     -19.153294      -521.1876
   1   2.0000     -19.145302      -520.9702
   2   2.0000     -19.138702      -520.7906
   3   2.0000     -19.130323      -520.5626
   4   2.0000     -10.284902      -279.8664
   5   2.0000     -10.234218      -278.4872
   6   2.0000     -10.233376      -278.4643
   7   2.0000     -10.232581      -278.4427
   8   2.0000     -10.229492      -278.3586
   9   2.0000     -10.217133      -278.0223
  10   2.0000     -10.197697      -277.4934
  11   2.0000     -10.197313      -277.4830
  12   2.0000     -10.176085      -276.9054
  13   2.0000      -1.057716       -28.7819
  14   2.0000      -1.025453       -27.9040
  15   2.0000      -1.008065       -27.4309
  16   2.0000      -0.999420       -27.1956
  17   2.0000      -0.793671       -21.5969
  18   2.0000      -0.776427       -21.1277
  19   2.0000      -0.764527       -20.8038
  20   2.0000      -0.735002       -20.0004
  21   2.0000      -0.680828       -18.5263
  22   2.0000      -0.609315       -16.5803
  23   2.0000      -0.603140       -16.4123
  24   2.0000      -0.598963       -16.2986
  25   2.0000      -0.563216       -15.3259
  26   2.0000      -0.526053       -14.3146
  27   2.0000      -0.511422       -13.9165
  28   2.0000      -0.503103       -13.6901
  29   2.0000      -0.487121       -13.2552
  30   2.0000      -0.474931       -12.9235
  31   2.0000      -0.458407       -12.4739
  32   2.0000      -0.440308       -11.9814
  33   2.0000      -0.432771       -11.7763
  34   2.0000      -0.424631       -11.5548
  35   2.0000      -0.417414       -11.3584
  36   2.0000      -0.403774       -10.9873
  37   2.0000      -0.397442       -10.8149
  38   2.0000      -0.387894       -10.5551
  39   2.0000      -0.370579       -10.0840
  40   2.0000      -0.365524        -9.9464
  41   2.0000      -0.358085        -9.7440
  42   2.0000      -0.345019        -9.3885
  43   2.0000      -0.323822        -8.8116
  44   2.0000      -0.318421        -8.6647
  45   2.0000      -0.309127        -8.4118
  46   2.0000      -0.303372        -8.2552
  47   2.0000      -0.274830        -7.4785
  48   2.0000      -0.260258        -7.0820
  49   2.0000      -0.258664        -7.0386
  50   2.0000      -0.236246        -6.4286
  51   0.0000       0.059410         1.6166
  52   0.0000       0.082238         2.2378
  53   0.0000       0.090572         2.4646
  54   0.0000       0.094638         2.5752
  55   0.0000       0.100181         2.7261

MULLIKEN ATOMIC CHARGES
-----------------------
   0 C :    0.306466
   1 C :   -0.283384
   2 C :   -0.315829
   3 C :   -0.012114
   4 O :   -0.498398
   5 H :    0.162241
   6 H :    0.158573
   7 H :    0.145895
   8 H :    0.148112
   9 H :    0.151031
  10 H :    0.152430
  11 H :    0.148673
  12 C :   -0.019203
  13 H :    0.152806
  14 H :    0.134874
  15 O :   -0.534000
  16 C :    0.090062
  17 C :    0.086790
  18 C :   -0.309607
  19 C :   -0.002965
  20 O :   -0.518980
  21 H :    0.146326
  22 H :    0.158925
  23 O :   -0.609834
  24 H :    0.141507
  25 H :    0.165581
  26 H :    0.156423
  27 H :    0.137036
  28 H :    0.360562
Sum of atomic charges:   -0.0000000

LOEWDIN ATOMIC CHARGES
----------------------
   0 C :    0.173869
   1 C :   -0.229667
   2 C :   -0.224589
   3 C :   -0.032992
   4 O :   -0.316283
   5 H :    0.111282
   6 H :    0.123533
   7 H :    0.116378
   8 H :    0.117120
   9 H :    0.111250
  10 H :    0.106076
  11 H :    0.105652
  12 C :   -0.051266
  13 H :    0.107904
  14 H :    0.097356
  15 O :   -0.326423
  16 C :    0.020354
  17 C :    0.037742
  18 C :   -0.241962
  19 C :   -0.023638
  20 O :   -0.320672
  21 H :    0.112937
  22 H :    0.115125
  23 O :   -0.414241
  24 H :    0.113628
  25 H :    0.121980
  26 H :    0.110214
  27 H :    0.099371
  28 H :    0.279964

  Mayer bond orders larger than 0.100000
B(  0-C ,  1-C ) :   0.9209 B(  0-C ,  4-O ) :   0.9145 B(  0-C ,  5-H ) :   0.9370
B(  0-C , 15-O ) :   0.8862 B(  1-C ,  2-C ) :   0.9544 B(  1-C ,  6-H ) :   0.9352
B(  1-C ,  7-H ) :   0.9365 B(  2-C ,  3-C ) :   0.9480 B(  2-C ,  8-H ) :   0.9450
B(  2-C ,  9-H ) :   0.9396 B(  3-C ,  4-O ) :   0.8425 B(  3-C , 10-H ) :   0.9320
B(  3-C , 11-H ) :   0.9384 B( 12-C , 13-H ) :   0.9137 B( 12-C , 14-H ) :   0.9013
B( 12-C , 15-O ) :   0.8305 B( 12-C , 16-C ) :   0.9074 B( 16-C , 17-C ) :   0.8867
B( 16-C , 20-O ) :   0.8903 B( 16-C , 21-H ) :   0.9291 B( 17-C , 18-C ) :   0.9352
B( 17-C , 22-H ) :   0.9367 B( 17-C , 23-O ) :   0.8966 B( 18-C , 19-C ) :   0.9457
B( 18-C , 24-H ) :   0.9415 B( 18-C , 25-H ) :   0.9261 B( 19-C , 20-O ) :   0.8341
B( 19-C , 26-H ) :   0.9312 B( 19-C , 27-H ) :   0.9382 B( 23-O , 28-H ) :   0.7944

FINAL SINGLE POINT ENERGY      -652.858255794981

DIPOLE MOMENT
-------------
                                X             Y             Z
Electronic contribution:     -2.92235      -1.96003       0.65308
Nuclear contribution   :      3.88459       2.47376      -1.15080
                        -----------------------------------------
Total Dipole Moment    :      0.96223       0.51373      -0.49772
                        -----------------------------------------
Magnitude (a.u.)       :      1.19897
Magnitude (Debye)      :      3.04755

Rotational constants in cm-1:     0.049374     0.015771     0.014364
Rotational constants in MHz :  1480.193373   472.816620   430.627168

                             ****ORCA TERMINATED NORMALLY****
TOTAL RUN TIME: 0 days 0 hours 42 minutes 20 seconds 657 msec
