                         Program Version 4.2.0 -  RELEASE  -
|  1> # Test redundant internal optimization
|  2> #
|  3> ! RKS B3LYP  Opt TightSCF SmallPrint
|  4>
|  5> %basis
|  6>         Basis "6-31G"
|  7> end
|  8>
|  9> %geom
| 10> Constraints
| 11> { D 4  0  15  12  240.0   C } # D for Dihedral angle
| 12> { D 0  15  12  16  165.0   C } # D for Dihedral angle
| 13> { D 0  4  3  2   C } # D for Dihedral angle
| 14> { D 4  3  2  1   C } # D for Dihedral angle
| 15> { D 3  2  1  0   C } # D for Dihedral angle
| 16> { D 2  1  0  4   C } # D for Dihedral angle
| 17> { D 1  0  4  3   C } # D for Dihedral angle
| 18> { D 16  20  19  18   C } # D for Dihedral angle
| 19> { D 20  19  18  17   C } # D for Dihedral angle
| 20> { D 19  18  17  16   C } # D for Dihedral angle
| 21> { D 18  17  16  20   C } # D for Dihedral angle
| 22> { D 17  16  20  19   C } # D for Dihedral angle
| 23> { D 15  12  16  20   C } # D for Dihedral angle
| 24> end
| 25> end
| 26>
| 27>
| 28> #%pal
| 29> #nprocs 8
| 30> #end
| 31>
| 32> * xyz 0 1
| 33> C  -21.048   26.222   46.251
| 34> C  -20.361   27.558   45.944
| 35> C  -20.329   28.222   47.341
| 36> C  -20.110   27.022   48.296
| 37> O  -20.473   25.807   47.535
| 38> H  -20.833   25.428   45.533
| 39> H  -19.344   27.382   45.576
| 40> H  -20.898   28.157   45.201
| 41> H  -19.543   28.978   47.434
| 42> H  -21.289   28.710   47.548
| 43> H  -20.733   27.082   49.195
| 44> H  -19.064   26.913   48.597
| 45> C  -23.430   25.483   45.442
| 46> H  -23.372   25.864   44.415
| 47> H  -23.038   24.457   45.450
| 48> O  -22.586   26.394   46.375
| 49> C  -24.926   25.420   45.857
| 50> C  -25.081   24.979   47.317
| 51> C  -24.767   26.291   48.075
| 52> C  -25.354   27.383   47.147
| 53> O  -25.526   26.757   45.818
| 54> H  -25.470   24.804   45.139
| 55> H  -26.112   24.661   47.506
| 56> O  -24.129   23.815   47.708
| 57> H  -25.204   26.317   49.079
| 58> H  -23.682   26.415   48.180
| 59> H  -24.694   28.253   47.052
| 60> H  -26.341   27.722   47.473
| 61> H  -23.091   24.112   47.527
| 62> *
| 63>
| 64>                          ****END OF INPUT****
 Total Charge           Charge          ....    0
 Multiplicity           Mult            ....    1
 Number of Electrons    NEL             ....  102
FINAL SINGLE POINT ENERGY      -652.835431149925
FINAL SINGLE POINT ENERGY      -652.858615469957
FINAL SINGLE POINT ENERGY      -652.863233237515
FINAL SINGLE POINT ENERGY      -652.864926818351
FINAL SINGLE POINT ENERGY      -652.865109952150
FINAL SINGLE POINT ENERGY      -652.865137334819
FINAL SINGLE POINT ENERGY      -652.865137948714
                    ***********************HURRAY********************

CARTESIAN COORDINATES (ANGSTROEM)
---------------------------------
  C    -21.065873   26.181029   46.179560
  C    -20.397589   27.528115   45.903161
  C    -20.432270   28.191781   47.299738
  C    -20.225692   26.998661   48.259202
  O    -20.540210   25.781268   47.464993
  H    -20.824693   25.381709   45.472915
  H    -19.365528   27.361578   45.573356
  H    -20.926785   28.102450   45.139500
  H    -19.662943   28.960154   47.420733
  H    -21.410469   28.654581   47.462047
  H    -20.883413   27.028639   49.131641
  H    -19.189002   26.894716   48.592120
  C    -23.315241   25.503159   45.410762
  H    -23.262666   25.875689   44.379418
  H    -22.949527   24.466829   45.434987
  O    -22.500810   26.349031   46.276500
  C    -24.767869   25.512748   45.868717
  C    -24.990545   25.002170   47.303993
  C    -24.750181   26.294963   48.146352
  C    -25.315692   27.402437   47.231470
  O    -25.396873   26.825399   45.863537
  H    -25.326454   24.906755   45.145014
  H    -26.013619   24.637033   47.416712
  O    -24.142255   23.889325   47.676473
  H    -25.255665   26.250913   49.115432
  H    -23.676910   26.421825   48.298449
  H    -24.676366   28.289361   47.196983
  H    -26.331507   27.699217   47.508247
  H    -23.231351   24.216465   47.838985

 Multiplicity           Mult            ....    1
 Number of Electrons    NEL             ....  102
 Basis Dimension        Dim             ....  149

ORBITAL ENERGIES
----------------

  NO   OCC          E(Eh)            E(eV)
   0   2.0000     -19.150961      -521.1241
   1   2.0000     -19.148424      -521.0551
   2   2.0000     -19.133206      -520.6410
   3   2.0000     -19.131866      -520.6046
   4   2.0000     -10.287288      -279.9313
   5   2.0000     -10.233170      -278.4587
   6   2.0000     -10.233046      -278.4553
   7   2.0000     -10.232178      -278.4317
   8   2.0000     -10.229076      -278.3473
   9   2.0000     -10.219550      -278.0881
  10   2.0000     -10.191806      -277.3331
  11   2.0000     -10.191198      -277.3166
  12   2.0000     -10.175936      -276.9013
  13   2.0000      -1.061240       -28.8778
  14   2.0000      -1.023763       -27.8580
  15   2.0000      -1.005226       -27.3536
  16   2.0000      -0.999590       -27.2002
  17   2.0000      -0.793329       -21.5876
  18   2.0000      -0.772030       -21.0080
  19   2.0000      -0.763438       -20.7742
  20   2.0000      -0.734494       -19.9866
  21   2.0000      -0.676997       -18.4220
  22   2.0000      -0.605172       -16.4676
  23   2.0000      -0.600841       -16.3497
  24   2.0000      -0.595994       -16.2178
  25   2.0000      -0.573840       -15.6150
  26   2.0000      -0.528046       -14.3689
  27   2.0000      -0.506189       -13.7741
  28   2.0000      -0.500203       -13.6112
  29   2.0000      -0.487576       -13.2676
  30   2.0000      -0.474570       -12.9137
  31   2.0000      -0.458755       -12.4834
  32   2.0000      -0.443383       -12.0651
  33   2.0000      -0.432775       -11.7764
  34   2.0000      -0.421797       -11.4777
  35   2.0000      -0.412348       -11.2205
  36   2.0000      -0.402889       -10.9632
  37   2.0000      -0.399676       -10.8757
  38   2.0000      -0.374957       -10.2031
  39   2.0000      -0.371225       -10.1015
  40   2.0000      -0.362659        -9.8685
  41   2.0000      -0.355267        -9.6673
  42   2.0000      -0.349213        -9.5026
  43   2.0000      -0.326459        -8.8834
  44   2.0000      -0.320612        -8.7243
  45   2.0000      -0.311787        -8.4842
  46   2.0000      -0.304202        -8.2778
  47   2.0000      -0.275164        -7.4876
  48   2.0000      -0.258970        -7.0469
  49   2.0000      -0.254838        -6.9345
  50   2.0000      -0.237047        -6.4504
  51   0.0000       0.064627         1.7586
  52   0.0000       0.083949         2.2844
  53   0.0000       0.084981         2.3125
  54   0.0000       0.095963         2.6113
  55   0.0000       0.106149         2.8885

MULLIKEN ATOMIC CHARGES
-----------------------
   0 C :    0.280391
   1 C :   -0.250551
   2 C :   -0.303988
   3 C :   -0.005125
   4 O :   -0.510656
   5 H :    0.147324
   6 H :    0.145925
   7 H :    0.154863
   8 H :    0.145546
   9 H :    0.163154
  10 H :    0.148607
  11 H :    0.146064
  12 C :   -0.020136
  13 H :    0.146596
  14 H :    0.143832
  15 O :   -0.529635
  16 C :    0.087141
  17 C :    0.089767
  18 C :   -0.312709
  19 C :   -0.002496
  20 O :   -0.522135
  21 H :    0.151185
  22 H :    0.158683
  23 O :   -0.613169
  24 H :    0.139809
  25 H :    0.169570
  26 H :    0.142997
  27 H :    0.139219
  28 H :    0.369928
Sum of atomic charges:   -0.0000000

LOEWDIN ATOMIC CHARGES
----------------------
   0 C :    0.173696
   1 C :   -0.219197
   2 C :   -0.216622
   3 C :   -0.028115
   4 O :   -0.324026
   5 H :    0.101989
   6 H :    0.114471
   7 H :    0.123024
   8 H :    0.116083
   9 H :    0.118727
  10 H :    0.105367
  11 H :    0.104642
  12 C :   -0.046645
  13 H :    0.103381
  14 H :    0.103875
  15 O :   -0.336515
  16 C :    0.018660
  17 C :    0.039192
  18 C :   -0.243351
  19 C :   -0.024680
  20 O :   -0.323939
  21 H :    0.115136
  22 H :    0.114485
  23 O :   -0.414685
  24 H :    0.113424
  25 H :    0.122809
  26 H :    0.102894
  27 H :    0.100349
  28 H :    0.285568

  Mayer bond orders larger than 0.100000
B(  0-C ,  1-C ) :   0.9434 B(  0-C ,  4-O ) :   0.9184 B(  0-C ,  5-H ) :   0.9181
B(  0-C , 15-O ) :   0.8406 B(  1-C ,  2-C ) :   0.9551 B(  1-C ,  6-H ) :   0.9360
B(  1-C ,  7-H ) :   0.9370 B(  2-C ,  3-C ) :   0.9545 B(  2-C ,  8-H ) :   0.9448
B(  2-C ,  9-H ) :   0.9431 B(  3-C ,  4-O ) :   0.8344 B(  3-C , 10-H ) :   0.9342
B(  3-C , 11-H ) :   0.9395 B( 12-C , 13-H ) :   0.9225 B( 12-C , 14-H ) :   0.9003
B( 12-C , 15-O ) :   0.8244 B( 12-C , 16-C ) :   0.9192 B( 16-C , 17-C ) :   0.8857
B( 16-C , 20-O ) :   0.8825 B( 16-C , 21-H ) :   0.9276 B( 17-C , 18-C ) :   0.9343
B( 17-C , 22-H ) :   0.9373 B( 17-C , 23-O ) :   0.9028 B( 18-C , 19-C ) :   0.9475
B( 18-C , 24-H ) :   0.9411 B( 18-C , 25-H ) :   0.9247 B( 19-C , 20-O ) :   0.8376
B( 19-C , 26-H ) :   0.9326 B( 19-C , 27-H ) :   0.9386 B( 23-O , 28-H ) :   0.7848

FINAL SINGLE POINT ENERGY      -652.865124738408

DIPOLE MOMENT
-------------
                                X             Y             Z
Electronic contribution:     -2.47346      -3.98991      -1.51837
Nuclear contribution   :      3.36079       4.86836       1.50424
                        -----------------------------------------
Total Dipole Moment    :      0.88733       0.87845      -0.01413
                        -----------------------------------------
Magnitude (a.u.)       :      1.24869
Magnitude (Debye)      :      3.17392

Rotational constants in cm-1:     0.043881     0.016790     0.016031
Rotational constants in MHz :  1315.507233   503.365784   480.602271

                             ****ORCA TERMINATED NORMALLY****
TOTAL RUN TIME: 0 days 0 hours 56 minutes 41 seconds 121 msec
