                         Program Version 4.2.0 -  RELEASE  -
|  1> # Test redundant internal optimization
|  2> #
|  3> ! RKS B3LYP  Opt TightSCF SmallPrint
|  4>
|  5> %basis
|  6>         Basis "6-31G"
|  7> end
|  8>
|  9> %geom
| 10> Constraints
| 11> { D 4  0  15  12  225.0   C } # D for Dihedral angle
| 12> { D 0  15  12  16  240.0   C } # D for Dihedral angle
| 13> { D 0  4  3  2   C } # D for Dihedral angle
| 14> { D 4  3  2  1   C } # D for Dihedral angle
| 15> { D 3  2  1  0   C } # D for Dihedral angle
| 16> { D 2  1  0  4   C } # D for Dihedral angle
| 17> { D 1  0  4  3   C } # D for Dihedral angle
| 18> { D 16  20  19  18   C } # D for Dihedral angle
| 19> { D 20  19  18  17   C } # D for Dihedral angle
| 20> { D 19  18  17  16   C } # D for Dihedral angle
| 21> { D 18  17  16  20   C } # D for Dihedral angle
| 22> { D 17  16  20  19   C } # D for Dihedral angle
| 23> { D 15  12  16  20   C } # D for Dihedral angle
| 24> end
| 25> end
| 26>
| 27>
| 28> #%pal
| 29> #nprocs 8
| 30> #end
| 31>
| 32> * xyz 0 1
| 33> C  -21.048   26.222   46.251
| 34> C  -20.361   27.558   45.944
| 35> C  -20.329   28.222   47.341
| 36> C  -20.110   27.022   48.296
| 37> O  -20.473   25.807   47.535
| 38> H  -20.833   25.428   45.533
| 39> H  -19.344   27.382   45.576
| 40> H  -20.898   28.157   45.201
| 41> H  -19.543   28.978   47.434
| 42> H  -21.289   28.710   47.548
| 43> H  -20.733   27.082   49.195
| 44> H  -19.064   26.913   48.597
| 45> C  -23.415   25.773   45.218
| 46> H  -22.735   25.299   44.499
| 47> H  -24.097   25.004   45.604
| 48> O  -22.586   26.394   46.375
| 49> C  -24.271   26.825   44.460
| 50> C  -25.162   26.162   43.404
| 51> C  -26.322   25.616   44.270
| 52> C  -26.474   26.692   45.374
| 53> O  -25.217   27.472   45.376
| 54> H  -23.616   27.608   44.072
| 55> O  -25.682   27.227   42.400
| 56> H  -24.647   25.377   42.839
| 57> H  -27.245   25.470   43.700
| 58> H  -26.042   24.650   44.708
| 59> H  -26.626   26.255   46.367
| 60> H  -27.288   27.392   45.165
| 61> H  -26.201   28.024   42.944
| 62> *
| 63>
| 64>                          ****END OF INPUT****
 Total Charge           Charge          ....    0
 Multiplicity           Mult            ....    1
 Number of Electrons    NEL             ....  102
FINAL SINGLE POINT ENERGY      -652.830887575127
FINAL SINGLE POINT ENERGY      -652.853277046360
FINAL SINGLE POINT ENERGY      -652.856931823275
FINAL SINGLE POINT ENERGY      -652.857558285565
FINAL SINGLE POINT ENERGY      -652.857627540811
FINAL SINGLE POINT ENERGY      -652.857634822245
FINAL SINGLE POINT ENERGY      -652.857636447606
                    ***********************HURRAY********************

CARTESIAN COORDINATES (ANGSTROEM)
---------------------------------
  C    -21.068851   26.190068   46.162000
  C    -20.459320   27.562149   45.879363
  C    -20.510844   28.229413   47.275121
  C    -20.248147   27.046570   48.231510
  O    -20.519576   25.819810   47.437649
  H    -20.805321   25.400776   45.449996
  H    -19.422094   27.439096   45.543999
  H    -21.011934   28.117163   45.117376
  H    -19.774633   29.030781   47.387116
  H    -21.508907   28.644318   47.443477
  H    -20.903089   27.046496   49.105908
  H    -19.205380   26.983829   48.556919
  C    -23.328172   25.700653   45.233766
  H    -22.694595   25.206036   44.480866
  H    -23.957855   24.936391   45.705780
  O    -22.514145   26.299579   46.273546
  C    -24.192022   26.758705   44.546274
  C    -25.122976   26.189872   43.465914
  C    -26.319510   25.682134   44.314248
  C    -26.404325   26.725015   45.456073
  O    -25.097694   27.426325   45.483944
  H    -23.544054   27.540435   44.136532
  O    -25.525298   27.228386   42.530897
  H    -24.668604   25.411151   42.851340
  H    -27.227642   25.633750   43.708172
  H    -26.110472   24.679547   44.703270
  H    -26.583828   26.269561   46.434201
  H    -27.173398   27.482857   45.276685
  H    -25.748314   28.040135   43.034058

 Multiplicity           Mult            ....    1
 Number of Electrons    NEL             ....  102
 Basis Dimension        Dim             ....  149

ORBITAL ENERGIES
----------------

  NO   OCC          E(Eh)            E(eV)
   0   2.0000     -19.142444      -520.8924
   1   2.0000     -19.141614      -520.8698
   2   2.0000     -19.137637      -520.7616
   3   2.0000     -19.136273      -520.7245
   4   2.0000     -10.278604      -279.6950
   5   2.0000     -10.245856      -278.8039
   6   2.0000     -10.236225      -278.5418
   7   2.0000     -10.235989      -278.5354
   8   2.0000     -10.231224      -278.4058
   9   2.0000     -10.220710      -278.1197
  10   2.0000     -10.191850      -277.3343
  11   2.0000     -10.182595      -277.0825
  12   2.0000     -10.181061      -277.0408
  13   2.0000      -1.050490       -28.5853
  14   2.0000      -1.037908       -28.2429
  15   2.0000      -1.008359       -27.4388
  16   2.0000      -0.991715       -26.9859
  17   2.0000      -0.788392       -21.4532
  18   2.0000      -0.781237       -21.2585
  19   2.0000      -0.768338       -20.9075
  20   2.0000      -0.730338       -19.8735
  21   2.0000      -0.675414       -18.3790
  22   2.0000      -0.607077       -16.5194
  23   2.0000      -0.596381       -16.2283
  24   2.0000      -0.594947       -16.1893
  25   2.0000      -0.583280       -15.8719
  26   2.0000      -0.525589       -14.3020
  27   2.0000      -0.513514       -13.9734
  28   2.0000      -0.496225       -13.5030
  29   2.0000      -0.488697       -13.2981
  30   2.0000      -0.473408       -12.8821
  31   2.0000      -0.457458       -12.4481
  32   2.0000      -0.452185       -12.3046
  33   2.0000      -0.443065       -12.0564
  34   2.0000      -0.427842       -11.6422
  35   2.0000      -0.410543       -11.1714
  36   2.0000      -0.397764       -10.8237
  37   2.0000      -0.395081       -10.7507
  38   2.0000      -0.374898       -10.2015
  39   2.0000      -0.369148       -10.0450
  40   2.0000      -0.362545        -9.8653
  41   2.0000      -0.354054        -9.6343
  42   2.0000      -0.348985        -9.4964
  43   2.0000      -0.332791        -9.0557
  44   2.0000      -0.312232        -8.4963
  45   2.0000      -0.310858        -8.4589
  46   2.0000      -0.301928        -8.2159
  47   2.0000      -0.273813        -7.4508
  48   2.0000      -0.263881        -7.1806
  49   2.0000      -0.254788        -6.9331
  50   2.0000      -0.235738        -6.4148
  51   0.0000       0.064083         1.7438
  52   0.0000       0.079106         2.1526
  53   0.0000       0.086562         2.3555
  54   0.0000       0.088954         2.4206
  55   0.0000       0.100741         2.7413

MULLIKEN ATOMIC CHARGES
-----------------------
   0 C :    0.281097
   1 C :   -0.254510
   2 C :   -0.301117
   3 C :   -0.000718
   4 O :   -0.501773
   5 H :    0.136464
   6 H :    0.140470
   7 H :    0.143972
   8 H :    0.139587
   9 H :    0.171316
  10 H :    0.154106
  11 H :    0.139284
  12 C :   -0.000182
  13 H :    0.120157
  14 H :    0.145339
  15 O :   -0.501343
  16 C :    0.068214
  17 C :    0.073550
  18 C :   -0.297712
  19 C :   -0.024632
  20 O :   -0.509464
  21 H :    0.158680
  22 O :   -0.601486
  23 H :    0.150696
  24 H :    0.163781
  25 H :    0.145154
  26 H :    0.150419
  27 H :    0.145137
  28 H :    0.365515
Sum of atomic charges:   -0.0000000

LOEWDIN ATOMIC CHARGES
----------------------
   0 C :    0.177128
   1 C :   -0.224602
   2 C :   -0.216815
   3 C :   -0.025421
   4 O :   -0.311294
   5 H :    0.095305
   6 H :    0.111222
   7 H :    0.115266
   8 H :    0.113326
   9 H :    0.123872
  10 H :    0.109319
  11 H :    0.100993
  12 C :   -0.036763
  13 H :    0.094709
  14 H :    0.105015
  15 O :   -0.322704
  16 C :    0.010235
  17 C :    0.033723
  18 C :   -0.241085
  19 C :   -0.036862
  20 O :   -0.321539
  21 H :    0.113774
  22 O :   -0.414381
  23 H :    0.114260
  24 H :    0.126997
  25 H :    0.113377
  26 H :    0.106939
  27 H :    0.102240
  28 H :    0.283763

  Mayer bond orders larger than 0.100000
B(  0-C ,  1-C ) :   0.9369 B(  0-C ,  4-O ) :   0.9372 B(  0-C ,  5-H ) :   0.9172
B(  0-C , 15-O ) :   0.8433 B(  1-C ,  2-C ) :   0.9569 B(  1-C ,  6-H ) :   0.9352
B(  1-C ,  7-H ) :   0.9372 B(  2-C ,  3-C ) :   0.9549 B(  2-C ,  8-H ) :   0.9451
B(  2-C ,  9-H ) :   0.9413 B(  3-C ,  4-O ) :   0.8357 B(  3-C , 10-H ) :   0.9346
B(  3-C , 11-H ) :   0.9399 B( 12-C , 13-H ) :   0.9120 B( 12-C , 14-H ) :   0.9290
B( 12-C , 15-O ) :   0.8548 B( 12-C , 16-C ) :   0.8877 B( 16-C , 17-C ) :   0.8944
B( 16-C , 20-O ) :   0.8695 B( 16-C , 21-H ) :   0.9257 B( 17-C , 18-C ) :   0.9119
B( 17-C , 22-O ) :   0.8925 B( 17-C , 23-H ) :   0.9336 B( 18-C , 19-C ) :   0.9377
B( 18-C , 24-H ) :   0.9375 B( 18-C , 25-H ) :   0.9338 B( 19-C , 20-O ) :   0.8502
B( 19-C , 26-H ) :   0.9344 B( 19-C , 27-H ) :   0.9379 B( 22-O , 28-H ) :   0.7933

FINAL SINGLE POINT ENERGY      -652.857636527134

DIPOLE MOMENT
-------------
                                X             Y             Z
Electronic contribution:     -0.77375      -0.78235      -0.39493
Nuclear contribution   :      0.72016       0.80788       0.12576
                        -----------------------------------------
Total Dipole Moment    :     -0.05359       0.02552      -0.26918
                        -----------------------------------------
Magnitude (a.u.)       :      0.27564
Magnitude (Debye)      :      0.70063

Rotational constants in cm-1:     0.063199     0.011430     0.011203
Rotational constants in MHz :  1894.665158   342.658149   335.846702

                             ****ORCA TERMINATED NORMALLY****
TOTAL RUN TIME: 0 days 0 hours 21 minutes 19 seconds 654 msec
