                         Program Version 4.2.0 -  RELEASE  -
|  1> # Test redundant internal optimization
|  2> #
|  3> ! RKS B3LYP  Opt TightSCF SmallPrint
|  4>
|  5> %basis
|  6>         Basis "6-31G"
|  7> end
|  8>
|  9> %geom
| 10> Constraints
| 11> { D 4  0  15  12  165.0   C } # D for Dihedral angle
| 12> { D 0  15  12  16  180.0   C } # D for Dihedral angle
| 13> { D 0  4  3  2   C } # D for Dihedral angle
| 14> { D 4  3  2  1   C } # D for Dihedral angle
| 15> { D 3  2  1  0   C } # D for Dihedral angle
| 16> { D 2  1  0  4   C } # D for Dihedral angle
| 17> { D 1  0  4  3   C } # D for Dihedral angle
| 18> { D 16  20  19  18   C } # D for Dihedral angle
| 19> { D 20  19  18  17   C } # D for Dihedral angle
| 20> { D 19  18  17  16   C } # D for Dihedral angle
| 21> { D 18  17  16  20   C } # D for Dihedral angle
| 22> { D 17  16  20  19   C } # D for Dihedral angle
| 23> { D 15  12  16  20   C } # D for Dihedral angle
| 24> end
| 25> end
| 26>
| 27>
| 28> #%pal
| 29> #nprocs 8
| 30> #end
| 31>
| 32> * xyz 0 1
| 33> C  -21.048   26.222   46.251
| 34> C  -20.361   27.558   45.944
| 35> C  -20.329   28.222   47.341
| 36> C  -20.110   27.022   48.296
| 37> O  -20.473   25.807   47.535
| 38> H  -20.833   25.428   45.533
| 39> H  -19.344   27.382   45.576
| 40> H  -20.898   28.157   45.201
| 41> H  -19.543   28.978   47.434
| 42> H  -21.289   28.710   47.548
| 43> H  -20.733   27.082   49.195
| 44> H  -19.064   26.913   48.597
| 45> C  -23.260   27.170   45.210
| 46> H  -22.827   28.177   45.148
| 47> H  -23.081   26.660   44.255
| 48> O  -22.586   26.394   46.375
| 49> C  -24.797   27.309   45.391
| 50> C  -25.462   25.940   45.576
| 51> C  -25.159   25.643   47.064
| 52> C  -25.230   27.043   47.724
| 53> O  -25.104   28.031   46.630
| 54> H  -25.202   27.900   44.568
| 55> O  -26.992   26.056   45.342
| 56> H  -25.066   25.174   44.901
| 57> H  -25.866   24.936   47.509
| 58> H  -24.152   25.220   47.166
| 59> H  -24.427   27.207   48.451
| 60> H  -26.192   27.226   48.213
| 61> H  -27.411   26.818   46.008
| 62> *
| 63>
| 64>                          ****END OF INPUT****
 Total Charge           Charge          ....    0
 Multiplicity           Mult            ....    1
 Number of Electrons    NEL             ....  102
FINAL SINGLE POINT ENERGY      -652.832758034871
FINAL SINGLE POINT ENERGY      -652.855377112628
FINAL SINGLE POINT ENERGY      -652.859936044434
FINAL SINGLE POINT ENERGY      -652.860914565789
FINAL SINGLE POINT ENERGY      -652.861046984124
FINAL SINGLE POINT ENERGY      -652.861066538748
                    ***********************HURRAY********************

CARTESIAN COORDINATES (ANGSTROEM)
---------------------------------
  C    -21.093695   26.271633   46.176357
  C    -20.314149   27.557982   45.907785
  C    -20.366179   28.261106   47.287965
  C    -20.296671   27.078018   48.274613
  O    -20.663923   25.873609   47.484567
  H    -20.881784   25.445124   45.490870
  H    -19.283950   27.287767   45.648509
  H    -20.711863   28.171006   45.095888
  H    -19.543962   28.969443   47.426335
  H    -21.311187   28.802568   47.396868
  H    -20.993450   27.171596   49.111032
  H    -19.287962   26.901869   48.659016
  C    -23.208299   27.184005   45.191109
  H    -22.826763   28.209721   45.118150
  H    -23.051651   26.684392   44.221118
  O    -22.539728   26.467041   46.261157
  C    -24.704223   27.267868   45.488236
  C    -25.462028   25.939990   45.635293
  C    -25.181988   25.578079   47.118254
  C    -25.159532   26.960444   47.816018
  O    -24.964116   27.969376   46.745465
  H    -25.161211   27.868502   44.692352
  O    -26.879834   26.132155   45.364067
  H    -25.139671   25.169607   44.933856
  H    -25.960756   24.916529   47.508816
  H    -24.207928   25.093726   47.198243
  H    -24.338129   27.047877   48.531700
  H    -26.102995   27.203973   48.316281
  H    -27.201372   26.899994   45.882080

 Multiplicity           Mult            ....    1
 Number of Electrons    NEL             ....  102
 Basis Dimension        Dim             ....  149

ORBITAL ENERGIES
----------------

  NO   OCC          E(Eh)            E(eV)
   0   2.0000     -19.146411      -521.0003
   1   2.0000     -19.144726      -520.9545
   2   2.0000     -19.136244      -520.7237
   3   2.0000     -19.132057      -520.6097
   4   2.0000     -10.285615      -279.8858
   5   2.0000     -10.236256      -278.5427
   6   2.0000     -10.233651      -278.4718
   7   2.0000     -10.233435      -278.4659
   8   2.0000     -10.228962      -278.3442
   9   2.0000     -10.219295      -278.0811
  10   2.0000     -10.193568      -277.3811
  11   2.0000     -10.191076      -277.3133
  12   2.0000     -10.170664      -276.7578
  13   2.0000      -1.058719       -28.8092
  14   2.0000      -1.030269       -28.0350
  15   2.0000      -1.002682       -27.2844
  16   2.0000      -0.993989       -27.0478
  17   2.0000      -0.791497       -21.5377
  18   2.0000      -0.776893       -21.1403
  19   2.0000      -0.761202       -20.7134
  20   2.0000      -0.734889       -19.9973
  21   2.0000      -0.676326       -18.4038
  22   2.0000      -0.606371       -16.5002
  23   2.0000      -0.598170       -16.2770
  24   2.0000      -0.592933       -16.1345
  25   2.0000      -0.571561       -15.5530
  26   2.0000      -0.528563       -14.3829
  27   2.0000      -0.505206       -13.7474
  28   2.0000      -0.502202       -13.6656
  29   2.0000      -0.485721       -13.2171
  30   2.0000      -0.476203       -12.9582
  31   2.0000      -0.457970       -12.4620
  32   2.0000      -0.449518       -12.2320
  33   2.0000      -0.439659       -11.9637
  34   2.0000      -0.421649       -11.4736
  35   2.0000      -0.409137       -11.1332
  36   2.0000      -0.405010       -11.0209
  37   2.0000      -0.383624       -10.4389
  38   2.0000      -0.382047       -10.3960
  39   2.0000      -0.365690        -9.9509
  40   2.0000      -0.360797        -9.8178
  41   2.0000      -0.355755        -9.6806
  42   2.0000      -0.354356        -9.6425
  43   2.0000      -0.327539        -8.9128
  44   2.0000      -0.315406        -8.5826
  45   2.0000      -0.305238        -8.3059
  46   2.0000      -0.298889        -8.1332
  47   2.0000      -0.267829        -7.2880
  48   2.0000      -0.262154        -7.1336
  49   2.0000      -0.257598        -7.0096
  50   2.0000      -0.240829        -6.5533
  51   0.0000       0.067785         1.8445
  52   0.0000       0.078881         2.1465
  53   0.0000       0.097434         2.6513
  54   0.0000       0.101495         2.7618
  55   0.0000       0.108767         2.9597

MULLIKEN ATOMIC CHARGES
-----------------------
   0 C :    0.318452
   1 C :   -0.294658
   2 C :   -0.301368
   3 C :   -0.001880
   4 O :   -0.501927
   5 H :    0.145494
   6 H :    0.152443
   7 H :    0.146060
   8 H :    0.144905
   9 H :    0.168996
  10 H :    0.153968
  11 H :    0.144171
  12 C :    0.004033
  13 H :    0.141836
  14 H :    0.120901
  15 O :   -0.524576
  16 C :    0.064064
  17 C :    0.075494
  18 C :   -0.291766
  19 C :   -0.017971
  20 O :   -0.529587
  21 H :    0.154240
  22 O :   -0.603785
  23 H :    0.150607
  24 H :    0.147053
  25 H :    0.187635
  26 H :    0.153214
  27 H :    0.132227
  28 H :    0.361728
Sum of atomic charges:   -0.0000000

LOEWDIN ATOMIC CHARGES
----------------------
   0 C :    0.183831
   1 C :   -0.233617
   2 C :   -0.217404
   3 C :   -0.025065
   4 O :   -0.304486
   5 H :    0.099044
   6 H :    0.118967
   7 H :    0.115078
   8 H :    0.115893
   9 H :    0.121099
  10 H :    0.109002
  11 H :    0.103803
  12 C :   -0.041002
  13 H :    0.099798
  14 H :    0.091515
  15 O :   -0.334960
  16 C :    0.015668
  17 C :    0.039463
  18 C :   -0.243297
  19 C :   -0.032253
  20 O :   -0.332284
  21 H :    0.114808
  22 O :   -0.418002
  23 H :    0.115435
  24 H :    0.117440
  25 H :    0.136895
  26 H :    0.108686
  27 H :    0.094622
  28 H :    0.281321

  Mayer bond orders larger than 0.100000
B(  0-C ,  1-C ) :   0.9308 B(  0-C ,  4-O ) :   0.9406 B(  0-C ,  5-H ) :   0.9225
B(  0-C , 15-O ) :   0.8231 B(  1-C ,  2-C ) :   0.9499 B(  1-C ,  6-H ) :   0.9338
B(  1-C ,  7-H ) :   0.9282 B(  2-C ,  3-C ) :   0.9555 B(  2-C ,  8-H ) :   0.9449
B(  2-C ,  9-H ) :   0.9416 B(  3-C ,  4-O ) :   0.8324 B(  3-C , 10-H ) :   0.9344
B(  3-C , 11-H ) :   0.9397 B( 12-C , 13-H ) :   0.9070 B( 12-C , 14-H ) :   0.9090
B( 12-C , 15-O ) :   0.8449 B( 12-C , 16-C ) :   0.9058 B( 16-C , 17-C ) :   0.9085
B( 16-C , 20-O ) :   0.8776 B( 16-C , 21-H ) :   0.9229 B( 17-C , 18-C ) :   0.9246
B( 17-C , 22-O ) :   0.8891 B( 17-C , 23-H ) :   0.9357 B( 18-C , 19-C ) :   0.9473
B( 18-C , 24-H ) :   0.9374 B( 18-C , 25-H ) :   0.9141 B( 19-C , 20-O ) :   0.8345
B( 19-C , 26-H ) :   0.9338 B( 19-C , 27-H ) :   0.9377 B( 22-O , 28-H ) :   0.7965

FINAL SINGLE POINT ENERGY      -652.861067875353

DIPOLE MOMENT
-------------
                                X             Y             Z
Electronic contribution:     -3.38120      -2.01624      -1.01193
Nuclear contribution   :      4.40301       2.70475       0.85846
                        -----------------------------------------
Total Dipole Moment    :      1.02181       0.68851      -0.15347
                        -----------------------------------------
Magnitude (a.u.)       :      1.24165
Magnitude (Debye)      :      3.15603

Rotational constants in cm-1:     0.057657     0.014244     0.013778
Rotational constants in MHz :  1728.513143   427.011851   413.039214

                             ****ORCA TERMINATED NORMALLY****
TOTAL RUN TIME: 0 days 0 hours 23 minutes 43 seconds 271 msec
