                         Program Version 4.2.0 -  RELEASE  -
|  1> # Test redundant internal optimization
|  2> #
|  3> ! RKS B3LYP  Opt TightSCF SmallPrint
|  4>
|  5> %basis
|  6>         Basis "6-31G"
|  7> end
|  8>
|  9> %geom
| 10> Constraints
| 11> { D 4  0  15  12  120.0   C } # D for Dihedral angle
| 12> { D 0  15  12  16  195.0   C } # D for Dihedral angle
| 13> { D 0  4  3  2   C } # D for Dihedral angle
| 14> { D 4  3  2  1   C } # D for Dihedral angle
| 15> { D 3  2  1  0   C } # D for Dihedral angle
| 16> { D 2  1  0  4   C } # D for Dihedral angle
| 17> { D 1  0  4  3   C } # D for Dihedral angle
| 18> { D 16  20  19  18   C } # D for Dihedral angle
| 19> { D 20  19  18  17   C } # D for Dihedral angle
| 20> { D 19  18  17  16   C } # D for Dihedral angle
| 21> { D 18  17  16  20   C } # D for Dihedral angle
| 22> { D 17  16  20  19   C } # D for Dihedral angle
| 23> { D 15  12  16  20   C } # D for Dihedral angle
| 24> end
| 25> end
| 26>
| 27>
| 28> #%pal
| 29> #nprocs 8
| 30> #end
| 31>
| 32> * xyz 0 1
| 33> C  -21.048   26.222   46.251
| 34> C  -20.361   27.558   45.944
| 35> C  -20.329   28.222   47.341
| 36> C  -20.110   27.022   48.296
| 37> O  -20.473   25.807   47.535
| 38> H  -20.833   25.428   45.533
| 39> H  -19.344   27.382   45.576
| 40> H  -20.898   28.157   45.201
| 41> H  -19.543   28.978   47.434
| 42> H  -21.289   28.710   47.548
| 43> H  -20.733   27.082   49.195
| 44> H  -19.064   26.913   48.597
| 45> C  -23.119   27.818   46.058
| 46> H  -22.477   28.562   46.546
| 47> H  -23.098   28.004   44.976
| 48> O  -22.586   26.394   46.375
| 49> C  -24.578   28.036   46.547
| 50> C  -24.669   27.963   48.075
| 51> C  -24.158   29.364   48.487
| 52> C  -24.692   30.279   47.357
| 53> O  -25.029   29.393   46.223
| 54> H  -25.238   27.345   46.020
| 55> O  -26.147   27.768   48.511
| 56> H  -24.074   27.150   48.504
| 57> H  -24.513   29.671   49.476
| 58> H  -23.062   29.373   48.508
| 59> H  -23.951   31.016   47.029
| 60> H  -25.608   30.803   47.642
| 61> H  -26.764   28.572   48.093
| 62> *
| 63>
| 64>                          ****END OF INPUT****
 Total Charge           Charge          ....    0
 Multiplicity           Mult            ....    1
 Number of Electrons    NEL             ....  102
FINAL SINGLE POINT ENERGY      -652.820421736491
FINAL SINGLE POINT ENERGY      -652.845393816941
FINAL SINGLE POINT ENERGY      -652.853046324741
FINAL SINGLE POINT ENERGY      -652.855168164116
FINAL SINGLE POINT ENERGY      -652.855488626503
FINAL SINGLE POINT ENERGY      -652.855548536889
FINAL SINGLE POINT ENERGY      -652.855554994595
                    ***********************HURRAY********************

CARTESIAN COORDINATES (ANGSTROEM)
---------------------------------
  C    -21.215889   26.329277   46.331808
  C    -20.214568   27.411836   45.912466
  C    -19.985202   28.178040   47.246754
  C    -20.066936   27.045675   48.299157
  O    -20.746689   25.912030   47.629413
  H    -21.181912   25.430472   45.713317
  H    -19.291047   26.920752   45.589869
  H    -20.565025   28.050710   45.097278
  H    -19.017988   28.689499   47.267435
  H    -20.761013   28.931265   47.411974
  H    -20.634613   27.326959   49.190550
  H    -19.080015   26.685950   48.603277
  C    -23.117234   28.017492   46.028357
  H    -22.515636   28.819094   46.470483
  H    -23.132009   28.161796   44.941006
  O    -22.619419   26.696011   46.373891
  C    -24.548047   28.086638   46.562667
  C    -24.682589   27.966687   48.087408
  C    -24.326427   29.403573   48.547048
  C    -24.909732   30.291266   47.419613
  O    -25.120802   29.401559   46.249596
  H    -25.162303   27.335006   46.060346
  O    -26.044087   27.612293   48.456723
  H    -24.046414   27.191184   48.509584
  H    -24.765297   29.615659   49.524894
  H    -23.239913   29.522306   48.628181
  H    -24.241624   31.108118   47.129277
  H    -25.884174   30.714652   47.680863
  H    -26.671396   28.136200   47.914763

 Multiplicity           Mult            ....    1
 Number of Electrons    NEL             ....  102
 Basis Dimension        Dim             ....  149

ORBITAL ENERGIES
----------------

  NO   OCC          E(Eh)            E(eV)
   0   2.0000     -19.145992      -520.9889
   1   2.0000     -19.145263      -520.9691
   2   2.0000     -19.142821      -520.9027
   3   2.0000     -19.133181      -520.6403
   4   2.0000     -10.283631      -279.8318
   5   2.0000     -10.235541      -278.5232
   6   2.0000     -10.233925      -278.4793
   7   2.0000     -10.233357      -278.4638
   8   2.0000     -10.232602      -278.4433
   9   2.0000     -10.231948      -278.4255
  10   2.0000     -10.199752      -277.5494
  11   2.0000     -10.199227      -277.5351
  12   2.0000     -10.189113      -277.2599
  13   2.0000      -1.054163       -28.6852
  14   2.0000      -1.036055       -28.1925
  15   2.0000      -1.003454       -27.3054
  16   2.0000      -0.998453       -27.1693
  17   2.0000      -0.795262       -21.6402
  18   2.0000      -0.782248       -21.2861
  19   2.0000      -0.771764       -21.0008
  20   2.0000      -0.734985       -19.9999
  21   2.0000      -0.681597       -18.5472
  22   2.0000      -0.610476       -16.6119
  23   2.0000      -0.604332       -16.4447
  24   2.0000      -0.596968       -16.2443
  25   2.0000      -0.577380       -15.7113
  26   2.0000      -0.526340       -14.3224
  27   2.0000      -0.514102       -13.9894
  28   2.0000      -0.506890       -13.7932
  29   2.0000      -0.495594       -13.4858
  30   2.0000      -0.475632       -12.9426
  31   2.0000      -0.455807       -12.4031
  32   2.0000      -0.453105       -12.3296
  33   2.0000      -0.442264       -12.0346
  34   2.0000      -0.430655       -11.7187
  35   2.0000      -0.415539       -11.3074
  36   2.0000      -0.410703       -11.1758
  37   2.0000      -0.392648       -10.6845
  38   2.0000      -0.388307       -10.5664
  39   2.0000      -0.370481       -10.0813
  40   2.0000      -0.365794        -9.9538
  41   2.0000      -0.361968        -9.8497
  42   2.0000      -0.354789        -9.6543
  43   2.0000      -0.332972        -9.0606
  44   2.0000      -0.318663        -8.6713
  45   2.0000      -0.306054        -8.3282
  46   2.0000      -0.296278        -8.0621
  47   2.0000      -0.274911        -7.4807
  48   2.0000      -0.265890        -7.2352
  49   2.0000      -0.255225        -6.9450
  50   2.0000      -0.247439        -6.7332
  51   0.0000       0.050590         1.3766
  52   0.0000       0.065232         1.7751
  53   0.0000       0.087765         2.3882
  54   0.0000       0.095718         2.6046
  55   0.0000       0.101404         2.7593

MULLIKEN ATOMIC CHARGES
-----------------------
   0 C :    0.320075
   1 C :   -0.300465
   2 C :   -0.314765
   3 C :   -0.005232
   4 O :   -0.494504
   5 H :    0.162022
   6 H :    0.159768
   7 H :    0.150556
   8 H :    0.148266
   9 H :    0.151967
  10 H :    0.147209
  11 H :    0.148365
  12 C :   -0.002174
  13 H :    0.121688
  14 H :    0.148470
  15 O :   -0.535234
  16 C :    0.057403
  17 C :    0.088996
  18 C :   -0.301937
  19 C :   -0.029711
  20 O :   -0.528549
  21 H :    0.171487
  22 O :   -0.600743
  23 H :    0.184218
  24 H :    0.161857
  25 H :    0.138201
  26 H :    0.143032
  27 H :    0.148137
  28 H :    0.361598
Sum of atomic charges:   -0.0000000

LOEWDIN ATOMIC CHARGES
----------------------
   0 C :    0.182012
   1 C :   -0.231294
   2 C :   -0.221899
   3 C :   -0.031112
   4 O :   -0.312173
   5 H :    0.108264
   6 H :    0.124936
   7 H :    0.117678
   8 H :    0.117538
   9 H :    0.107331
  10 H :    0.104530
  11 H :    0.105642
  12 C :   -0.037846
  13 H :    0.089460
  14 H :    0.103260
  15 O :   -0.333183
  16 C :    0.019201
  17 C :    0.038466
  18 C :   -0.242546
  19 C :   -0.038601
  20 O :   -0.331631
  21 H :    0.121148
  22 O :   -0.412662
  23 H :    0.131544
  24 H :    0.126932
  25 H :    0.108741
  26 H :    0.102004
  27 H :    0.103556
  28 H :    0.280706

  Mayer bond orders larger than 0.100000
B(  0-C ,  1-C ) :   0.9319 B(  0-C ,  4-O ) :   0.9171 B(  0-C ,  5-H ) :   0.9314
B(  0-C , 15-O ) :   0.8637 B(  1-C ,  2-C ) :   0.9506 B(  1-C ,  6-H ) :   0.9338
B(  1-C ,  7-H ) :   0.9308 B(  2-C ,  3-C ) :   0.9477 B(  2-C ,  8-H ) :   0.9451
B(  2-C ,  9-H ) :   0.9366 B(  3-C ,  4-O ) :   0.8465 B(  3-C , 10-H ) :   0.9340
B(  3-C , 11-H ) :   0.9388 B( 12-C , 13-H ) :   0.9043 B( 12-C , 14-H ) :   0.9185
B( 12-C , 15-O ) :   0.8290 B( 12-C , 16-C ) :   0.9019 B( 16-C , 17-C ) :   0.9125
B( 16-C , 20-O ) :   0.8437 B( 16-C , 21-H ) :   0.9236 B( 17-C , 18-C ) :   0.9111
B( 17-C , 22-O ) :   0.8903 B( 17-C , 23-H ) :   0.9200 B( 18-C , 19-C ) :   0.9405
B( 18-C , 24-H ) :   0.9384 B( 18-C , 25-H ) :   0.9355 B( 19-C , 20-O ) :   0.8441
B( 19-C , 26-H ) :   0.9359 B( 19-C , 27-H ) :   0.9381 B( 22-O , 28-H ) :   0.7960

FINAL SINGLE POINT ENERGY      -652.855556333452

DIPOLE MOMENT
-------------
                                X             Y             Z
Electronic contribution:     -4.89037      -4.83422      -1.16879
Nuclear contribution   :      6.11863       6.28694       0.92228
                        -----------------------------------------
Total Dipole Moment    :      1.22826       1.45272      -0.24650
                        -----------------------------------------
Magnitude (a.u.)       :      1.91828
Magnitude (Debye)      :      4.87588

Rotational constants in cm-1:     0.048114     0.014425     0.014184
Rotational constants in MHz :  1442.425930   432.448625   425.223733

                             ****ORCA TERMINATED NORMALLY****
TOTAL RUN TIME: 0 days 0 hours 24 minutes 35 seconds 246 msec
