                         Program Version 4.2.0 -  RELEASE  -
|  1> # Test redundant internal optimization
|  2> #
|  3> ! RKS B3LYP  Opt TightSCF SmallPrint
|  4>
|  5> %basis
|  6>         Basis "6-31G"
|  7> end
|  8>
|  9> %geom
| 10> Constraints
| 11> { D 4  0  15  12  285.0   C } # D for Dihedral angle
| 12> { D 0  15  12  16  90.0   C } # D for Dihedral angle
| 13> { D 0  4  3  2   C } # D for Dihedral angle
| 14> { D 4  3  2  1   C } # D for Dihedral angle
| 15> { D 3  2  1  0   C } # D for Dihedral angle
| 16> { D 2  1  0  4   C } # D for Dihedral angle
| 17> { D 1  0  4  3   C } # D for Dihedral angle
| 18> { D 16  20  19  18   C } # D for Dihedral angle
| 19> { D 20  19  18  17   C } # D for Dihedral angle
| 20> { D 19  18  17  16   C } # D for Dihedral angle
| 21> { D 18  17  16  20   C } # D for Dihedral angle
| 22> { D 17  16  20  19   C } # D for Dihedral angle
| 23> { D 15  12  16  20   C } # D for Dihedral angle
| 24> end
| 25> end
| 26>
| 27>
| 28> #%pal
| 29> #nprocs 8
| 30> #end
| 31>
| 32> * xyz 0 1
| 33> C  -21.048   26.222   46.251
| 34> C  -20.361   27.558   45.944
| 35> C  -20.329   28.222   47.341
| 36> C  -20.110   27.022   48.296
| 37> O  -20.473   25.807   47.535
| 38> H  -20.833   25.428   45.533
| 39> H  -19.344   27.382   45.576
| 40> H  -20.898   28.157   45.201
| 41> H  -19.543   28.978   47.434
| 42> H  -21.289   28.710   47.548
| 43> H  -20.733   27.082   49.195
| 44> H  -19.064   26.913   48.597
| 45> C  -23.396   25.070   46.435
| 46> H  -24.385   25.230   45.988
| 47> H  -22.886   24.281   45.867
| 48> O  -22.586   26.394   46.375
| 49> C  -23.594   24.553   47.887
| 50> C  -24.450   25.522   48.711
| 51> C  -25.877   25.170   48.226
| 52> C  -25.799   23.642   47.985
| 53> O  -24.363   23.304   47.885
| 54> H  -22.619   24.328   48.323
| 55> H  -24.340   25.305   49.779
| 56> O  -24.083   27.013   48.474
| 57> H  -26.650   25.440   48.952
| 58> H  -26.097   25.699   47.291
| 59> H  -26.305   23.336   47.063
| 60> H  -26.209   23.067   48.820
| 61> H  -24.186   27.252   47.410
| 62> *
| 63>
| 64>                          ****END OF INPUT****
 Total Charge           Charge          ....    0
 Multiplicity           Mult            ....    1
 Number of Electrons    NEL             ....  102
FINAL SINGLE POINT ENERGY      -652.838062670001
FINAL SINGLE POINT ENERGY      -652.863852352062
FINAL SINGLE POINT ENERGY      -652.870111273924
FINAL SINGLE POINT ENERGY      -652.872215274272
FINAL SINGLE POINT ENERGY      -652.873207913436
FINAL SINGLE POINT ENERGY      -652.873619621462
FINAL SINGLE POINT ENERGY      -652.873717600351
FINAL SINGLE POINT ENERGY      -652.873734996798
FINAL SINGLE POINT ENERGY      -652.873736034654
                    ***********************HURRAY********************

CARTESIAN COORDINATES (ANGSTROEM)
---------------------------------
  C    -21.079404   26.133691   46.250160
  C    -20.489754   27.515203   45.964206
  C    -20.547922   28.178432   47.359859
  C    -20.266366   27.003513   48.321765
  O    -20.521109   25.765102   47.530487
  H    -20.819380   25.335145   45.549566
  H    -19.454457   27.398468   45.625532
  H    -21.055221   28.055170   45.202188
  H    -19.817595   28.985820   47.469152
  H    -21.543182   28.594197   47.540699
  H    -20.929525   26.999903   49.189450
  H    -19.224457   26.953776   48.648297
  C    -23.309665   25.035469   46.371356
  H    -24.248792   25.262330   45.859029
  H    -22.796598   24.232789   45.828384
  O    -22.519607   26.275047   46.309246
  C    -23.542155   24.605832   47.826616
  C    -24.366111   25.594994   48.668319
  C    -25.816310   25.263907   48.212520
  C    -25.771293   23.740155   47.975430
  O    -24.328974   23.373372   47.844523
  H    -22.577871   24.376667   48.285264
  H    -24.249296   25.342855   49.727323
  O    -23.996729   26.985015   48.533505
  H    -26.555806   25.554321   48.963736
  H    -26.038768   25.818040   47.293659
  H    -26.298893   23.426041   47.068957
  H    -26.161401   23.170613   48.824223
  H    -23.523362   27.111132   47.678551

 Multiplicity           Mult            ....    1
 Number of Electrons    NEL             ....  102
 Basis Dimension        Dim             ....  149

ORBITAL ENERGIES
----------------

  NO   OCC          E(Eh)            E(eV)
   0   2.0000     -19.165226      -521.5123
   1   2.0000     -19.149256      -521.0778
   2   2.0000     -19.137007      -520.7444
   3   2.0000     -19.119058      -520.2560
   4   2.0000     -10.290832      -280.0278
   5   2.0000     -10.237123      -278.5663
   6   2.0000     -10.230114      -278.3756
   7   2.0000     -10.228842      -278.3409
   8   2.0000     -10.226254      -278.2705
   9   2.0000     -10.225222      -278.2424
  10   2.0000     -10.193126      -277.3691
  11   2.0000     -10.190520      -277.2981
  12   2.0000     -10.179384      -276.9951
  13   2.0000      -1.066592       -29.0234
  14   2.0000      -1.022341       -27.8193
  15   2.0000      -1.005600       -27.3638
  16   2.0000      -0.995024       -27.0760
  17   2.0000      -0.795919       -21.6581
  18   2.0000      -0.770645       -20.9703
  19   2.0000      -0.765167       -20.8212
  20   2.0000      -0.734328       -19.9821
  21   2.0000      -0.678180       -18.4542
  22   2.0000      -0.604713       -16.4551
  23   2.0000      -0.599136       -16.3033
  24   2.0000      -0.594675       -16.1819
  25   2.0000      -0.582480       -15.8501
  26   2.0000      -0.524105       -14.2616
  27   2.0000      -0.522417       -14.2157
  28   2.0000      -0.495628       -13.4867
  29   2.0000      -0.486983       -13.2515
  30   2.0000      -0.470826       -12.8118
  31   2.0000      -0.457293       -12.4436
  32   2.0000      -0.439999       -11.9730
  33   2.0000      -0.438492       -11.9320
  34   2.0000      -0.422416       -11.4945
  35   2.0000      -0.411671       -11.2021
  36   2.0000      -0.406960       -11.0739
  37   2.0000      -0.390450       -10.6247
  38   2.0000      -0.380881       -10.3643
  39   2.0000      -0.364526        -9.9193
  40   2.0000      -0.362603        -9.8669
  41   2.0000      -0.354686        -9.6515
  42   2.0000      -0.351100        -9.5539
  43   2.0000      -0.341194        -9.2844
  44   2.0000      -0.332182        -9.0391
  45   2.0000      -0.313787        -8.5386
  46   2.0000      -0.295974        -8.0539
  47   2.0000      -0.281124        -7.6498
  48   2.0000      -0.264074        -7.1858
  49   2.0000      -0.249824        -6.7981
  50   2.0000      -0.237806        -6.4710
  51   0.0000       0.057842         1.5740
  52   0.0000       0.083885         2.2826
  53   0.0000       0.093469         2.5434
  54   0.0000       0.098202         2.6722
  55   0.0000       0.103699         2.8218

MULLIKEN ATOMIC CHARGES
-----------------------
   0 C :    0.287280
   1 C :   -0.261116
   2 C :   -0.307256
   3 C :   -0.014849
   4 O :   -0.506938
   5 H :    0.152208
   6 H :    0.151336
   7 H :    0.158866
   8 H :    0.146860
   9 H :    0.166738
  10 H :    0.167593
  11 H :    0.146378
  12 C :   -0.048542
  13 H :    0.157184
  14 H :    0.158248
  15 O :   -0.543870
  16 C :    0.057964
  17 C :    0.110415
  18 C :   -0.305661
  19 C :   -0.021669
  20 O :   -0.520174
  21 H :    0.182433
  22 H :    0.151395
  23 O :   -0.646369
  24 H :    0.151937
  25 H :    0.143295
  26 H :    0.140089
  27 H :    0.150441
  28 H :    0.395782
Sum of atomic charges:    0.0000000

LOEWDIN ATOMIC CHARGES
----------------------
   0 C :    0.173112
   1 C :   -0.214963
   2 C :   -0.216609
   3 C :   -0.030771
   4 O :   -0.326610
   5 H :    0.103002
   6 H :    0.117771
   7 H :    0.125028
   8 H :    0.116889
   9 H :    0.119889
  10 H :    0.114967
  11 H :    0.105593
  12 C :   -0.047350
  13 H :    0.111654
  14 H :    0.112985
  15 O :   -0.332254
  16 C :    0.005254
  17 C :    0.040913
  18 C :   -0.239387
  19 C :   -0.033156
  20 O :   -0.324669
  21 H :    0.125530
  22 H :    0.108084
  23 O :   -0.435437
  24 H :    0.121090
  25 H :    0.110023
  26 H :    0.100848
  27 H :    0.106217
  28 H :    0.282358

  Mayer bond orders larger than 0.100000
B(  0-C ,  1-C ) :   0.9503 B(  0-C ,  4-O ) :   0.9207 B(  0-C ,  5-H ) :   0.9189
B(  0-C , 15-O ) :   0.8225 B(  1-C ,  2-C ) :   0.9539 B(  1-C ,  6-H ) :   0.9388
B(  1-C ,  7-H ) :   0.9357 B(  2-C ,  3-C ) :   0.9535 B(  2-C ,  8-H ) :   0.9448
B(  2-C ,  9-H ) :   0.9412 B(  3-C ,  4-O ) :   0.8240 B(  3-C , 10-H ) :   0.9288
B(  3-C , 11-H ) :   0.9397 B( 12-C , 13-H ) :   0.9382 B( 12-C , 14-H ) :   0.9258
B( 12-C , 15-O ) :   0.7997 B( 12-C , 16-C ) :   0.8864 B( 16-C , 17-C ) :   0.9125
B( 16-C , 20-O ) :   0.8456 B( 16-C , 21-H ) :   0.9168 B( 17-C , 18-C ) :   0.9036
B( 17-C , 22-H ) :   0.9332 B( 17-C , 23-O ) :   0.9258 B( 18-C , 19-C ) :   0.9394
B( 18-C , 24-H ) :   0.9441 B( 18-C , 25-H ) :   0.9437 B( 19-C , 20-O ) :   0.8359
B( 19-C , 26-H ) :   0.9342 B( 19-C , 27-H ) :   0.9383 B( 23-O , 28-H ) :   0.7181

FINAL SINGLE POINT ENERGY      -652.873736354025

DIPOLE MOMENT
-------------
                                X             Y             Z
Electronic contribution:      0.47358      -2.97097       0.09885
Nuclear contribution   :     -0.22399       3.45019      -0.81544
                        -----------------------------------------
Total Dipole Moment    :      0.24959       0.47922      -0.71658
                        -----------------------------------------
Magnitude (a.u.)       :      0.89746
Magnitude (Debye)      :      2.28117

Rotational constants in cm-1:     0.056968     0.015466     0.014453
Rotational constants in MHz :  1707.868426   463.662589   433.284884

                             ****ORCA TERMINATED NORMALLY****
TOTAL RUN TIME: 0 days 0 hours 38 minutes 56 seconds 802 msec
