                         Program Version 4.2.0 -  RELEASE  -
|  1> # Test redundant internal optimization
|  2> #
|  3> ! RKS B3LYP  Opt TightSCF SmallPrint
|  4>
|  5> %basis
|  6>         Basis "6-31G"
|  7> end
|  8>
|  9> %geom
| 10> Constraints
| 11> { D 4  0  15  12  315.0   C } # D for Dihedral angle
| 12> { D 0  15  12  16  300.0   C } # D for Dihedral angle
| 13> { D 0  4  3  2   C } # D for Dihedral angle
| 14> { D 4  3  2  1   C } # D for Dihedral angle
| 15> { D 3  2  1  0   C } # D for Dihedral angle
| 16> { D 2  1  0  4   C } # D for Dihedral angle
| 17> { D 1  0  4  3   C } # D for Dihedral angle
| 18> { D 16  20  19  18   C } # D for Dihedral angle
| 19> { D 20  19  18  17   C } # D for Dihedral angle
| 20> { D 19  18  17  16   C } # D for Dihedral angle
| 21> { D 18  17  16  20   C } # D for Dihedral angle
| 22> { D 17  16  20  19   C } # D for Dihedral angle
| 23> { D 15  12  16  20   C } # D for Dihedral angle
| 24> end
| 25> end
| 26>
| 27>
| 28> #%pal
| 29> #nprocs 8
| 30> #end
| 31>
| 32> * xyz 0 1
| 33> C  -21.048   26.222   46.251
| 34> C  -20.361   27.558   45.944
| 35> C  -20.329   28.222   47.341
| 36> C  -20.110   27.022   48.296
| 37> O  -20.473   25.807   47.535
| 38> H  -20.833   25.428   45.533
| 39> H  -19.344   27.382   45.576
| 40> H  -20.898   28.157   45.201
| 41> H  -19.543   28.978   47.434
| 42> H  -21.289   28.710   47.548
| 43> H  -20.733   27.082   49.195
| 44> H  -19.064   26.913   48.597
| 45> C  -23.319   25.255   47.135
| 46> H  -22.932   25.196   48.160
| 47> H  -24.396   25.458   47.186
| 48> O  -22.586   26.394   46.375
| 49> C  -23.131   23.867   46.462
| 50> C  -23.960   22.789   47.170
| 51> C  -25.372   23.049   46.593
| 52> C  -25.081   23.488   45.136
| 53> O  -23.658   23.885   45.093
| 54> H  -22.065   23.644   46.392
| 55> H  -23.604   21.792   46.885
| 56> O  -23.912   22.901   48.718
| 57> H  -26.020   22.168   46.642
| 58> H  -25.862   23.857   47.149
| 59> H  -25.700   24.336   44.822
| 60> H  -25.210   22.671   44.421
| 61> H  -24.265   23.891   49.028
| 62> *
| 63>
| 64>                          ****END OF INPUT****
 Total Charge           Charge          ....    0
 Multiplicity           Mult            ....    1
 Number of Electrons    NEL             ....  102
FINAL SINGLE POINT ENERGY      -652.831035158703
FINAL SINGLE POINT ENERGY      -652.855166869174
FINAL SINGLE POINT ENERGY      -652.860031730118
FINAL SINGLE POINT ENERGY      -652.860888877966
FINAL SINGLE POINT ENERGY      -652.861036558166
FINAL SINGLE POINT ENERGY      -652.861062319437
FINAL SINGLE POINT ENERGY      -652.861066334749
                    ***********************HURRAY********************

CARTESIAN COORDINATES (ANGSTROEM)
---------------------------------
  C    -21.056739   26.174573   46.252120
  C    -20.443274   27.543567   45.957596
  C    -20.401598   28.178559   47.365056
  C    -20.100725   26.976697   48.288069
  O    -20.435459   25.762462   47.495007
  H    -20.834600   25.389696   45.524883
  H    -19.434760   27.406356   45.551701
  H    -21.041608   28.114174   45.244378
  H    -19.644978   28.964748   47.450882
  H    -21.378548   28.610858   47.599888
  H    -20.697005   26.976267   49.204372
  H    -19.041513   26.894269   48.548577
  C    -23.223593   25.327535   47.091545
  H    -22.866816   25.278672   48.127790
  H    -24.255066   25.691853   47.073159
  O    -22.485036   26.358932   46.373939
  C    -23.116243   23.929831   46.476574
  C    -23.956620   22.875174   47.219321
  C    -25.373015   23.102815   46.606415
  C    -25.051473   23.478008   45.142631
  O    -23.623604   23.881595   45.107880
  H    -22.065617   23.632501   46.426102
  H    -23.589753   21.878569   46.964221
  O    -23.901671   22.918963   48.664166
  H    -26.005135   22.214991   46.690556
  H    -25.872840   23.925901   47.133998
  H    -25.664060   24.304615   44.768823
  H    -25.159111   22.625914   44.464459
  H    -24.377541   23.703907   49.003891

 Multiplicity           Mult            ....    1
 Number of Electrons    NEL             ....  102
 Basis Dimension        Dim             ....  149

ORBITAL ENERGIES
----------------

  NO   OCC          E(Eh)            E(eV)
   0   2.0000     -19.147675      -521.0347
   1   2.0000     -19.140838      -520.8487
   2   2.0000     -19.138140      -520.7753
   3   2.0000     -19.135342      -520.6991
   4   2.0000     -10.272154      -279.5195
   5   2.0000     -10.243402      -278.7371
   6   2.0000     -10.229219      -278.3512
   7   2.0000     -10.227307      -278.2992
   8   2.0000     -10.225187      -278.2415
   9   2.0000     -10.225097      -278.2390
  10   2.0000     -10.193789      -277.3871
  11   2.0000     -10.183323      -277.1023
  12   2.0000     -10.181234      -277.0455
  13   2.0000      -1.051443       -28.6112
  14   2.0000      -1.031576       -28.0706
  15   2.0000      -1.013743       -27.5853
  16   2.0000      -0.988323       -26.8936
  17   2.0000      -0.787089       -21.4178
  18   2.0000      -0.779733       -21.2176
  19   2.0000      -0.762018       -20.7356
  20   2.0000      -0.731280       -19.8991
  21   2.0000      -0.676698       -18.4139
  22   2.0000      -0.609643       -16.5892
  23   2.0000      -0.601132       -16.3576
  24   2.0000      -0.596037       -16.2190
  25   2.0000      -0.560037       -15.2394
  26   2.0000      -0.528322       -14.3764
  27   2.0000      -0.508437       -13.8353
  28   2.0000      -0.497344       -13.5334
  29   2.0000      -0.487768       -13.2728
  30   2.0000      -0.466915       -12.7054
  31   2.0000      -0.454683       -12.3726
  32   2.0000      -0.437363       -11.9013
  33   2.0000      -0.433460       -11.7951
  34   2.0000      -0.425427       -11.5764
  35   2.0000      -0.415936       -11.3182
  36   2.0000      -0.402954       -10.9649
  37   2.0000      -0.399037       -10.8583
  38   2.0000      -0.377581       -10.2745
  39   2.0000      -0.367401        -9.9975
  40   2.0000      -0.355355        -9.6697
  41   2.0000      -0.353461        -9.6182
  42   2.0000      -0.344389        -9.3713
  43   2.0000      -0.329989        -8.9794
  44   2.0000      -0.327990        -8.9251
  45   2.0000      -0.312139        -8.4937
  46   2.0000      -0.294672        -8.0184
  47   2.0000      -0.270176        -7.3519
  48   2.0000      -0.265664        -7.2291
  49   2.0000      -0.253976        -6.9110
  50   2.0000      -0.233339        -6.3495
  51   0.0000       0.053525         1.4565
  52   0.0000       0.079638         2.1671
  53   0.0000       0.090007         2.4492
  54   0.0000       0.091647         2.4939
  55   0.0000       0.105498         2.8708

MULLIKEN ATOMIC CHARGES
-----------------------
   0 C :    0.282291
   1 C :   -0.260639
   2 C :   -0.299487
   3 C :   -0.007366
   4 O :   -0.518698
   5 H :    0.161297
   6 H :    0.144339
   7 H :    0.161860
   8 H :    0.141247
   9 H :    0.159299
  10 H :    0.142946
  11 H :    0.145476
  12 C :   -0.012018
  13 H :    0.143780
  14 H :    0.139532
  15 O :   -0.518020
  16 C :    0.068144
  17 C :    0.089102
  18 C :   -0.324618
  19 C :   -0.011691
  20 O :   -0.512449
  21 H :    0.174068
  22 H :    0.165132
  23 O :   -0.597408
  24 H :    0.158585
  25 H :    0.132866
  26 H :    0.146591
  27 H :    0.150481
  28 H :    0.355363
Sum of atomic charges:    0.0000000

LOEWDIN ATOMIC CHARGES
----------------------
   0 C :    0.171691
   1 C :   -0.212638
   2 C :   -0.217035
   3 C :   -0.028874
   4 O :   -0.331388
   5 H :    0.102579
   6 H :    0.113627
   7 H :    0.126865
   8 H :    0.113577
   9 H :    0.117656
  10 H :    0.102536
  11 H :    0.104138
  12 C :   -0.053880
  13 H :    0.104232
  14 H :    0.106422
  15 O :   -0.319214
  16 C :    0.006395
  17 C :    0.038216
  18 C :   -0.242138
  19 C :   -0.030313
  20 O :   -0.320885
  21 H :    0.120763
  22 H :    0.118522
  23 O :   -0.404836
  24 H :    0.122892
  25 H :    0.103699
  26 H :    0.103979
  27 H :    0.106207
  28 H :    0.277204

  Mayer bond orders larger than 0.100000
B(  0-C ,  1-C ) :   0.9486 B(  0-C ,  4-O ) :   0.8876 B(  0-C ,  5-H ) :   0.9158
B(  0-C , 15-O ) :   0.8591 B(  1-C ,  2-C ) :   0.9538 B(  1-C ,  6-H ) :   0.9400
B(  1-C ,  7-H ) :   0.9354 B(  2-C ,  3-C ) :   0.9557 B(  2-C ,  8-H ) :   0.9452
B(  2-C ,  9-H ) :   0.9448 B(  3-C ,  4-O ) :   0.8352 B(  3-C , 10-H ) :   0.9357
B(  3-C , 11-H ) :   0.9407 B( 12-C , 13-H ) :   0.9007 B( 12-C , 14-H ) :   0.9392
B( 12-C , 15-O ) :   0.8592 B( 12-C , 16-C ) :   0.8871 B( 16-C , 17-C ) :   0.8705
B( 16-C , 20-O ) :   0.8593 B( 16-C , 21-H ) :   0.9233 B( 17-C , 18-C ) :   0.9195
B( 17-C , 22-H ) :   0.9347 B( 17-C , 23-O ) :   0.9013 B( 18-C , 19-C ) :   0.9403
B( 18-C , 24-H ) :   0.9420 B( 18-C , 25-H ) :   0.9417 B( 19-C , 20-O ) :   0.8488
B( 19-C , 26-H ) :   0.9312 B( 19-C , 27-H ) :   0.9375 B( 23-O , 28-H ) :   0.7974

FINAL SINGLE POINT ENERGY      -652.861067175222

DIPOLE MOMENT
-------------
                                X             Y             Z
Electronic contribution:      0.31090      -3.07737      -0.77424
Nuclear contribution   :     -0.87489       3.69065       1.04994
                        -----------------------------------------
Total Dipole Moment    :     -0.56399       0.61328       0.27570
                        -----------------------------------------
Magnitude (a.u.)       :      0.87761
Magnitude (Debye)      :      2.23072

Rotational constants in cm-1:     0.056594     0.013785     0.012147
Rotational constants in MHz :  1696.638880   413.275873   364.152835

                             ****ORCA TERMINATED NORMALLY****
TOTAL RUN TIME: 0 days 1 hours 53 minutes 51 seconds 46 msec
