                         Program Version 4.2.0 -  RELEASE  -
|  1> # Test redundant internal optimization
|  2> #
|  3> ! RKS B3LYP  Opt TightSCF SmallPrint
|  4>
|  5> %basis
|  6>         Basis "6-31G"
|  7> end
|  8>
|  9> %geom
| 10> Constraints
| 11> { D 4  0  15  12  210.0   C } # D for Dihedral angle
| 12> { D 0  15  12  16  120.0   C } # D for Dihedral angle
| 13> { D 0  4  3  2   C } # D for Dihedral angle
| 14> { D 4  3  2  1   C } # D for Dihedral angle
| 15> { D 3  2  1  0   C } # D for Dihedral angle
| 16> { D 2  1  0  4   C } # D for Dihedral angle
| 17> { D 1  0  4  3   C } # D for Dihedral angle
| 18> { D 16  20  19  18   C } # D for Dihedral angle
| 19> { D 20  19  18  17   C } # D for Dihedral angle
| 20> { D 19  18  17  16   C } # D for Dihedral angle
| 21> { D 18  17  16  20   C } # D for Dihedral angle
| 22> { D 17  16  20  19   C } # D for Dihedral angle
| 23> { D 15  12  16  20   C } # D for Dihedral angle
| 24> end
| 25> end
| 26>
| 27>
| 28> #%pal
| 29> #nprocs 8
| 30> #end
| 31>
| 32> * xyz 0 1
| 33> C  -21.048   26.222   46.251
| 34> C  -20.361   27.558   45.944
| 35> C  -20.329   28.222   47.341
| 36> C  -20.110   27.022   48.296
| 37> O  -20.473   25.807   47.535
| 38> H  -20.833   25.428   45.533
| 39> H  -19.344   27.382   45.576
| 40> H  -20.898   28.157   45.201
| 41> H  -19.543   28.978   47.434
| 42> H  -21.289   28.710   47.548
| 43> H  -20.733   27.082   49.195
| 44> H  -19.064   26.913   48.597
| 45> C  -23.389   26.110   45.076
| 46> H  -23.933   27.017   44.782
| 47> H  -22.711   25.836   44.258
| 48> O  -22.586   26.394   46.375
| 49> C  -24.417   24.957   45.245
| 50> C  -25.509   25.329   46.255
| 51> C  -26.431   26.232   45.402
| 52> C  -26.352   25.587   43.996
| 53> O  -25.145   24.733   43.992
| 54> H  -23.883   24.033   45.475
| 55> H  -26.042   24.428   46.579
| 56> O  -24.955   26.050   47.515
| 57> H  -27.455   26.275   45.785
| 58> H  -26.038   27.256   45.381
| 59> H  -26.267   26.331   43.197
| 60> H  -27.207   24.939   43.786
| 61> H  -24.416   26.955   47.213
| 62> *
| 63>
| 64>                          ****END OF INPUT****
 Total Charge           Charge          ....    0
 Multiplicity           Mult            ....    1
 Number of Electrons    NEL             ....  102
FINAL SINGLE POINT ENERGY      -652.829618077249
FINAL SINGLE POINT ENERGY      -652.853709237458
FINAL SINGLE POINT ENERGY      -652.859753770143
FINAL SINGLE POINT ENERGY      -652.862175181158
FINAL SINGLE POINT ENERGY      -652.863688908245
FINAL SINGLE POINT ENERGY      -652.864656559403
FINAL SINGLE POINT ENERGY      -652.865202561735
FINAL SINGLE POINT ENERGY      -652.865347744957
FINAL SINGLE POINT ENERGY      -652.865369894226
FINAL SINGLE POINT ENERGY      -652.865373701397
                    ***********************HURRAY********************

CARTESIAN COORDINATES (ANGSTROEM)
---------------------------------
  C    -21.103780   26.205271   46.186639
  C    -20.364891   27.513220   45.917654
  C    -20.444863   28.215009   47.293708
  C    -20.342570   27.041040   48.288349
  O    -20.670049   25.821066   47.494874
  H    -20.878014   25.382262   45.502113
  H    -19.325173   27.290845   45.649866
  H    -20.814909   28.097441   45.110375
  H    -19.649101   28.952131   47.435289
  H    -21.408133   28.724102   47.393628
  H    -21.046737   27.111147   49.120563
  H    -19.331184   26.894038   48.676891
  C    -23.305073   26.155454   44.984805
  H    -23.780547   27.090864   44.672617
  H    -22.635239   25.824553   44.182409
  O    -22.550788   26.417272   46.216897
  C    -24.340590   25.060632   45.264628
  C    -25.409757   25.434061   46.305569
  C    -26.386469   26.297568   45.457722
  C    -26.340910   25.622716   44.071448
  O    -25.101328   24.788258   44.046872
  H    -23.818833   24.135287   45.526750
  H    -25.917526   24.516525   46.626014
  O    -24.935581   26.113466   47.484431
  H    -27.391079   26.316171   45.888259
  H    -26.013538   27.326900   45.431970
  H    -26.299453   26.335308   43.241442
  H    -27.178047   24.938601   43.906711
  H    -23.976838   26.321790   47.384507

 Multiplicity           Mult            ....    1
 Number of Electrons    NEL             ....  102
 Basis Dimension        Dim             ....  149

ORBITAL ENERGIES
----------------

  NO   OCC          E(Eh)            E(eV)
   0   2.0000     -19.161765      -521.4181
   1   2.0000     -19.152060      -521.1541
   2   2.0000     -19.140149      -520.8299
   3   2.0000     -19.109636      -519.9996
   4   2.0000     -10.293929      -280.1121
   5   2.0000     -10.240861      -278.6680
   6   2.0000     -10.233423      -278.4656
   7   2.0000     -10.232818      -278.4491
   8   2.0000     -10.228188      -278.3231
   9   2.0000     -10.226037      -278.2646
  10   2.0000     -10.195622      -277.4370
  11   2.0000     -10.194109      -277.3958
  12   2.0000     -10.177603      -276.9467
  13   2.0000      -1.066131       -29.0109
  14   2.0000      -1.024995       -27.8915
  15   2.0000      -1.007813       -27.4240
  16   2.0000      -0.989219       -26.9180
  17   2.0000      -0.796118       -21.6635
  18   2.0000      -0.772967       -21.0335
  19   2.0000      -0.766841       -20.8668
  20   2.0000      -0.737627       -20.0719
  21   2.0000      -0.680192       -18.5090
  22   2.0000      -0.609169       -16.5763
  23   2.0000      -0.601700       -16.3731
  24   2.0000      -0.594973       -16.1900
  25   2.0000      -0.579244       -15.7620
  26   2.0000      -0.528839       -14.3904
  27   2.0000      -0.523191       -14.2368
  28   2.0000      -0.499147       -13.5825
  29   2.0000      -0.488692       -13.2980
  30   2.0000      -0.473497       -12.8845
  31   2.0000      -0.459331       -12.4990
  32   2.0000      -0.449892       -12.2422
  33   2.0000      -0.434850       -11.8329
  34   2.0000      -0.426473       -11.6049
  35   2.0000      -0.413703       -11.2574
  36   2.0000      -0.409851       -11.1526
  37   2.0000      -0.385627       -10.4935
  38   2.0000      -0.382454       -10.4071
  39   2.0000      -0.368730       -10.0336
  40   2.0000      -0.365036        -9.9331
  41   2.0000      -0.364012        -9.9053
  42   2.0000      -0.347642        -9.4598
  43   2.0000      -0.341965        -9.3053
  44   2.0000      -0.323568        -8.8047
  45   2.0000      -0.320927        -8.7329
  46   2.0000      -0.283192        -7.7061
  47   2.0000      -0.280002        -7.6193
  48   2.0000      -0.266227        -7.2444
  49   2.0000      -0.245272        -6.6742
  50   2.0000      -0.240004        -6.5308
  51   0.0000       0.057016         1.5515
  52   0.0000       0.079631         2.1669
  53   0.0000       0.088186         2.3997
  54   0.0000       0.098464         2.6793
  55   0.0000       0.105112         2.8602

MULLIKEN ATOMIC CHARGES
-----------------------
   0 C :    0.302477
   1 C :   -0.261435
   2 C :   -0.302168
   3 C :   -0.009113
   4 O :   -0.500618
   5 H :    0.149461
   6 H :    0.149405
   7 H :    0.147791
   8 H :    0.147326
   9 H :    0.163835
  10 H :    0.161217
  11 H :    0.148206
  12 C :   -0.029800
  13 H :    0.151460
  14 H :    0.151527
  15 O :   -0.554006
  16 C :    0.057879
  17 C :    0.128315
  18 C :   -0.305063
  19 C :   -0.019775
  20 O :   -0.523032
  21 H :    0.156890
  22 H :    0.144171
  23 O :   -0.644607
  24 H :    0.152305
  25 H :    0.147541
  26 H :    0.140588
  27 H :    0.149348
  28 H :    0.399875
Sum of atomic charges:   -0.0000000

LOEWDIN ATOMIC CHARGES
----------------------
   0 C :    0.182624
   1 C :   -0.225904
   2 C :   -0.216810
   3 C :   -0.025789
   4 O :   -0.303325
   5 H :    0.102423
   6 H :    0.116350
   7 H :    0.117677
   8 H :    0.117306
   9 H :    0.119818
  10 H :    0.112558
  11 H :    0.106075
  12 C :   -0.044744
  13 H :    0.106887
  14 H :    0.109846
  15 O :   -0.347575
  16 C :    0.012864
  17 C :    0.043664
  18 C :   -0.236441
  19 C :   -0.032499
  20 O :   -0.326592
  21 H :    0.114113
  22 H :    0.103267
  23 O :   -0.436588
  24 H :    0.121550
  25 H :    0.112067
  26 H :    0.100989
  27 H :    0.106205
  28 H :    0.289984

  Mayer bond orders larger than 0.100000
B(  0-C ,  1-C ) :   0.9355 B(  0-C ,  4-O ) :   0.9517 B(  0-C ,  5-H ) :   0.9196
B(  0-C , 15-O ) :   0.7898 B(  1-C ,  2-C ) :   0.9526 B(  1-C ,  6-H ) :   0.9334
B(  1-C ,  7-H ) :   0.9376 B(  2-C ,  3-C ) :   0.9544 B(  2-C ,  8-H ) :   0.9444
B(  2-C ,  9-H ) :   0.9436 B(  3-C ,  4-O ) :   0.8274 B(  3-C , 10-H ) :   0.9337
B(  3-C , 11-H ) :   0.9394 B( 12-C , 13-H ) :   0.9304 B( 12-C , 14-H ) :   0.9246
B( 12-C , 15-O ) :   0.7924 B( 12-C , 16-C ) :   0.8935 B( 16-C , 17-C ) :   0.9165
B( 16-C , 20-O ) :   0.8534 B( 16-C , 21-H ) :   0.9308 B( 17-C , 18-C ) :   0.9038
B( 17-C , 22-H ) :   0.9287 B( 17-C , 23-O ) :   0.9345 B( 18-C , 19-C ) :   0.9396
B( 18-C , 24-H ) :   0.9446 B( 18-C , 25-H ) :   0.9422 B( 19-C , 20-O ) :   0.8325
B( 19-C , 26-H ) :   0.9346 B( 19-C , 27-H ) :   0.9385 B( 23-O , 28-H ) :   0.7215

FINAL SINGLE POINT ENERGY      -652.865374446863

DIPOLE MOMENT
-------------
                                X             Y             Z
Electronic contribution:     -0.51572      -4.54537       0.85628
Nuclear contribution   :      1.33594       5.61822      -1.56814
                        -----------------------------------------
Total Dipole Moment    :      0.82022       1.07285      -0.71185
                        -----------------------------------------
Magnitude (a.u.)       :      1.52660
Magnitude (Debye)      :      3.88031

Rotational constants in cm-1:     0.060632     0.012942     0.012081
Rotational constants in MHz :  1817.687395   387.985604   362.185090

                             ****ORCA TERMINATED NORMALLY****
TOTAL RUN TIME: 0 days 0 hours 51 minutes 51 seconds 121 msec
