                         Program Version 4.2.1 -  RELEASE  -
|  1> # Test redundant internal optimization
|  2> #
|  3> ! RKS B3LYP  Opt TightSCF SmallPrint
|  4>
|  5> %basis
|  6>         Basis "6-31G"
|  7> end
|  8>
|  9> %geom
| 10> Constraints
| 11> { D 4  0  19  14  255.0   C } # D for Dihedral angle
| 12> { D 0  19  14  12  165.0   C } # D for Dihedral angle
| 13> { D 0  4  3  2   C } # D for Dihedral angle
| 14> { D 4  3  2  1   C } # D for Dihedral angle
| 15> { D 3  2  1  0   C } # D for Dihedral angle
| 16> { D 2  1  0  4   C } # D for Dihedral angle
| 17> { D 1  0  4  3   C } # D for Dihedral angle
| 18> { D 14  15  16  17   C } # D for Dihedral angle
| 19> { D 15  16  17  12   C } # D for Dihedral angle
| 20> { D 16  17  12  14   C } # D for Dihedral angle
| 21> { D 17  12  14  15   C } # D for Dihedral angle
| 22> { D 12  14  15  16   C } # D for Dihedral angle
| 23> end
| 24> end
| 25>
| 26>
| 27> #%pal
| 28> #nprocs 8
| 29> #end
| 30>
| 31> * xyz 0 1
| 32> C  -21.048   26.222   46.251
| 33> C  -20.361   27.558   45.944
| 34> C  -20.329   28.222   47.341
| 35> C  -20.110   27.022   48.296
| 36> O  -20.473   25.807   47.535
| 37> H  -20.833   25.428   45.533
| 38> H  -19.344   27.382   45.576
| 39> H  -20.898   28.157   45.201
| 40> H  -19.543   28.978   47.434
| 41> H  -21.289   28.710   47.548
| 42> H  -20.733   27.082   49.195
| 43> H  -19.064   26.913   48.597
| 44> C  -24.689   25.381   46.255
| 45> H  -25.218   24.437   46.053
| 46> C  -23.236   25.322   45.767
| 47> C  -23.405   25.562   44.249
| 48> C  -24.590   26.558   44.179
| 49> O  -25.285   26.477   45.483
| 50> H  -24.801   25.636   47.310
| 51> O  -22.472   26.381   46.366
| 52> H  -22.745   24.370   45.995
| 53> H  -22.500   25.956   43.777
| 54> H  -23.662   24.621   43.745
| 55> H  -25.298   26.314   43.380
| 56> H  -24.258   27.593   44.055
| 57> *
| 58>
| 59>                          ****END OF INPUT****
 Total Charge           Charge          ....    0
 Multiplicity           Mult            ....    1
 Number of Electrons    NEL             ....   86
FINAL SINGLE POINT ENERGY      -538.432162503089
FINAL SINGLE POINT ENERGY      -538.433999716717
FINAL SINGLE POINT ENERGY      -538.434260142385
FINAL SINGLE POINT ENERGY      -538.434277928587
FINAL SINGLE POINT ENERGY      -538.434283884691
                    ***********************HURRAY********************

CARTESIAN COORDINATES (ANGSTROEM)
---------------------------------
  C    -20.977455   26.199567   46.223651
  C    -20.371605   27.578085   45.957810
  C    -20.402883   28.216923   47.366909
  C    -20.125931   27.015151   48.297781
  O    -20.406689   25.802119   47.490331
  H    -20.717745   25.419697   45.501899
  H    -19.339934   27.461369   45.605010
  H    -20.941151   28.142059   45.216359
  H    -19.663939   29.015108   47.484828
  H    -21.397283   28.630743   47.558156
  H    -20.766004   27.003938   49.183482
  H    -19.078417   26.949746   48.607409
  C    -24.648856   25.452188   46.276662
  H    -25.228463   24.529961   46.123282
  C    -23.227783   25.293690   45.734493
  C    -23.444067   25.509598   44.224742
  C    -24.567056   26.573502   44.174950
  O    -25.208825   26.562400   45.505602
  H    -24.665761   25.735942   47.329337
  O    -22.412948   26.348403   46.325925
  H    -22.794578   24.313043   45.969975
  H    -22.531665   25.832463   43.714892
  H    -23.770610   24.567839   43.767572
  H    -25.318207   26.353285   43.408338
  H    -24.176146   27.582179   44.015605

 Multiplicity           Mult            ....    1
 Number of Electrons    NEL             ....   86
 Basis Dimension        Dim             ....  127

ORBITAL ENERGIES
----------------

  NO   OCC          E(Eh)            E(eV)
   0   2.0000     -19.140720      -520.8455
   1   2.0000     -19.136196      -520.7224
   2   2.0000     -19.127330      -520.4811
   3   2.0000     -10.278509      -279.6925
   4   2.0000     -10.241107      -278.6747
   5   2.0000     -10.222074      -278.1568
   6   2.0000     -10.221531      -278.1420
   7   2.0000     -10.220883      -278.1244
   8   2.0000     -10.188787      -277.2510
   9   2.0000     -10.183809      -277.1155
  10   2.0000     -10.182552      -277.0813
  11   2.0000      -1.052303       -28.6346
  12   2.0000      -1.014007       -27.5925
  13   2.0000      -0.989419       -26.9235
  14   2.0000      -0.790130       -21.5005
  15   2.0000      -0.776274       -21.1235
  16   2.0000      -0.742383       -20.2013
  17   2.0000      -0.719103       -19.5678
  18   2.0000      -0.607956       -16.5433
  19   2.0000      -0.599107       -16.3025
  20   2.0000      -0.595776       -16.2119
  21   2.0000      -0.576418       -15.6851
  22   2.0000      -0.522394       -14.2151
  23   2.0000      -0.502549       -13.6750
  24   2.0000      -0.482177       -13.1207
  25   2.0000      -0.477476       -12.9928
  26   2.0000      -0.455356       -12.3909
  27   2.0000      -0.441218       -12.0062
  28   2.0000      -0.423990       -11.5373
  29   2.0000      -0.419141       -11.4054
  30   2.0000      -0.402086       -10.9413
  31   2.0000      -0.383568       -10.4374
  32   2.0000      -0.377756       -10.2793
  33   2.0000      -0.367999       -10.0138
  34   2.0000      -0.356993        -9.7143
  35   2.0000      -0.353497        -9.6191
  36   2.0000      -0.343818        -9.3558
  37   2.0000      -0.318713        -8.6726
  38   2.0000      -0.305512        -8.3134
  39   2.0000      -0.297091        -8.0843
  40   2.0000      -0.267067        -7.2673
  41   2.0000      -0.247615        -6.7379
  42   2.0000      -0.232486        -6.3263
  43   0.0000       0.076585         2.0840
  44   0.0000       0.091809         2.4982
  45   0.0000       0.099112         2.6970
  46   0.0000       0.110199         2.9987
  47   0.0000       0.117738         3.2038

MULLIKEN ATOMIC CHARGES
-----------------------
   0 C :    0.283598
   1 C :   -0.253722
   2 C :   -0.300860
   3 C :   -0.000557
   4 O :   -0.507643
   5 H :    0.136617
   6 H :    0.141520
   7 H :    0.149540
   8 H :    0.140067
   9 H :    0.168538
  10 H :    0.150091
  11 H :    0.139719
  12 C :    0.000614
  13 H :    0.125986
  14 C :    0.064018
  15 C :   -0.295275
  16 C :    0.007535
  17 O :   -0.518809
  18 H :    0.170618
  19 O :   -0.510943
  20 H :    0.138104
  21 H :    0.147061
  22 H :    0.141353
  23 H :    0.135727
  24 H :    0.147104
Sum of atomic charges:   -0.0000000

LOEWDIN ATOMIC CHARGES
----------------------
   0 C :    0.172716
   1 C :   -0.218439
   2 C :   -0.216235
   3 C :   -0.026485
   4 O :   -0.323806
   5 H :    0.096622
   6 H :    0.111709
   7 H :    0.119577
   8 H :    0.113182
   9 H :    0.122239
  10 H :    0.107025
  11 H :    0.101235
  12 C :   -0.033579
  13 H :    0.092120
  14 C :    0.038830
  15 C :   -0.237194
  16 C :   -0.027485
  17 O :   -0.328353
  18 H :    0.124629
  19 O :   -0.323488
  20 H :    0.101875
  21 H :    0.116901
  22 H :    0.112781
  23 H :    0.098563
  24 H :    0.105058

  Mayer bond orders larger than 0.100000
B(  0-C ,  1-C ) :   0.9444 B(  0-C ,  4-O ) :   0.9223 B(  0-C ,  5-H ) :   0.9181
B(  0-C , 19-O ) :   0.8511 B(  1-C ,  2-C ) :   0.9575 B(  1-C ,  6-H ) :   0.9387
B(  1-C ,  7-H ) :   0.9374 B(  2-C ,  3-C ) :   0.9546 B(  2-C ,  8-H ) :   0.9452
B(  2-C ,  9-H ) :   0.9426 B(  3-C ,  4-O ) :   0.8377 B(  3-C , 10-H ) :   0.9351
B(  3-C , 11-H ) :   0.9401 B( 12-C , 13-H ) :   0.9155 B( 12-C , 14-C ) :   0.9372
B( 12-C , 17-O ) :   0.8678 B( 12-C , 18-H ) :   0.9302 B( 14-C , 15-C ) :   0.9307
B( 14-C , 19-O ) :   0.8341 B( 14-C , 20-H ) :   0.9201 B( 15-C , 16-C ) :   0.9433
B( 15-C , 21-H ) :   0.9401 B( 15-C , 22-H ) :   0.9366 B( 16-C , 17-O ) :   0.8618
B( 16-C , 23-H ) :   0.9328 B( 16-C , 24-H ) :   0.9367

FINAL SINGLE POINT ENERGY      -538.434284490302

DIPOLE MOMENT
-------------
                                X             Y             Z
Electronic contribution:     -1.68320      -1.77010       1.75954
Nuclear contribution   :      2.39880       1.65781      -2.43834
                        -----------------------------------------
Total Dipole Moment    :      0.71560      -0.11229      -0.67880
                        -----------------------------------------
Magnitude (a.u.)       :      0.99270
Magnitude (Debye)      :      2.52325

Rotational constants in cm-1:     0.080766     0.019999     0.019460
Rotational constants in MHz :  2421.295976   599.550859   583.406081

                             ****ORCA TERMINATED NORMALLY****
TOTAL RUN TIME: 0 days 0 hours 5 minutes 43 seconds 865 msec
