                         Program Version 4.2.0 -  RELEASE  -
|  1> # Test redundant internal optimization
|  2> #
|  3> ! RKS B3LYP  Opt TightSCF SmallPrint
|  4>
|  5> %basis
|  6>         Basis "6-31G"
|  7> end
|  8>
|  9> %geom
| 10> Constraints
| 11> { D 4  0  15  12  315.0   C } # D for Dihedral angle
| 12> { D 0  15  12  16  210.0   C } # D for Dihedral angle
| 13> { D 0  4  3  2   C } # D for Dihedral angle
| 14> { D 4  3  2  1   C } # D for Dihedral angle
| 15> { D 3  2  1  0   C } # D for Dihedral angle
| 16> { D 2  1  0  4   C } # D for Dihedral angle
| 17> { D 1  0  4  3   C } # D for Dihedral angle
| 18> { D 16  20  19  18   C } # D for Dihedral angle
| 19> { D 20  19  18  17   C } # D for Dihedral angle
| 20> { D 19  18  17  16   C } # D for Dihedral angle
| 21> { D 18  17  16  20   C } # D for Dihedral angle
| 22> { D 17  16  20  19   C } # D for Dihedral angle
| 23> { D 15  12  16  20   C } # D for Dihedral angle
| 24> end
| 25> end
| 26>
| 27>
| 28> #%pal
| 29> #nprocs 8
| 30> #end
| 31>
| 32> * xyz 0 1
| 33> C  -21.048   26.222   46.251
| 34> C  -20.361   27.558   45.944
| 35> C  -20.329   28.222   47.341
| 36> C  -20.110   27.022   48.296
| 37> O  -20.473   25.807   47.535
| 38> H  -20.833   25.428   45.533
| 39> H  -19.344   27.382   45.576
| 40> H  -20.898   28.157   45.201
| 41> H  -19.543   28.978   47.434
| 42> H  -21.289   28.710   47.548
| 43> H  -20.733   27.082   49.195
| 44> H  -19.064   26.913   48.597
| 45> C  -23.319   25.255   47.135
| 46> H  -22.766   24.316   47.001
| 47> H  -23.363   25.476   48.209
| 48> O  -22.586   26.394   46.375
| 49> C  -24.775   25.040   46.636
| 50> C  -25.586   26.339   46.710
| 51> C  -25.099   27.084   45.444
| 52> C  -24.873   25.938   44.426
| 53> O  -24.783   24.689   45.213
| 54> H  -25.217   24.200   47.175
| 55> O  -27.103   26.025   46.611
| 56> H  -25.409   26.906   47.630
| 57> H  -25.819   27.826   45.084
| 58> H  -24.157   27.606   45.653
| 59> H  -23.952   26.066   43.848
| 60> H  -25.712   25.823   43.734
| 61> H  -27.304   25.458   45.695
| 62> *
| 63>
| 64>                          ****END OF INPUT****
 Total Charge           Charge          ....    0
 Multiplicity           Mult            ....    1
 Number of Electrons    NEL             ....  102
FINAL SINGLE POINT ENERGY      -652.840342033941
FINAL SINGLE POINT ENERGY      -652.863570468463
FINAL SINGLE POINT ENERGY      -652.867672188564
FINAL SINGLE POINT ENERGY      -652.868681682958
FINAL SINGLE POINT ENERGY      -652.868793530290
FINAL SINGLE POINT ENERGY      -652.868807497476
                    ***********************HURRAY********************

CARTESIAN COORDINATES (ANGSTROEM)
---------------------------------
  C    -21.085436   26.146425   46.295435
  C    -20.446771   27.494931   45.965329
  C    -20.405310   28.171223   47.352987
  C    -20.132195   26.993420   48.314445
  O    -20.482125   25.761878   47.553365
  H    -20.874906   25.326026   45.602283
  H    -19.437016   27.326484   45.574883
  H    -21.023352   28.057294   45.227669
  H    -19.636411   28.947116   47.420179
  H    -21.375801   28.628361   47.567927
  H    -20.736420   27.029722   49.224610
  H    -19.076899   26.900615   48.586201
  C    -23.234282   25.302473   47.134368
  H    -22.713582   24.343902   47.020702
  H    -23.255420   25.552227   48.202488
  O    -22.516504   26.337167   46.394715
  C    -24.654987   25.148444   46.598577
  C    -25.562496   26.386119   46.664391
  C    -25.156864   27.144163   45.372192
  C    -24.864115   25.997143   44.372968
  O    -24.664306   24.772776   45.183865
  H    -25.120043   24.320233   47.147435
  O    -26.965137   25.995682   46.661337
  H    -25.433254   26.977649   47.571275
  H    -25.963942   27.804387   45.041572
  H    -24.254868   27.728146   45.561394
  H    -23.960985   26.179538   43.784149
  H    -25.700195   25.799802   43.693489
  H    -27.114376   25.348653   45.939770

 Multiplicity           Mult            ....    1
 Number of Electrons    NEL             ....  102
 Basis Dimension        Dim             ....  149

ORBITAL ENERGIES
----------------

  NO   OCC          E(Eh)            E(eV)
   0   2.0000     -19.148022      -521.0442
   1   2.0000     -19.147538      -521.0310
   2   2.0000     -19.135577      -520.7055
   3   2.0000     -19.132466      -520.6209
   4   2.0000     -10.282133      -279.7911
   5   2.0000     -10.234336      -278.4904
   6   2.0000     -10.231126      -278.4031
   7   2.0000     -10.230961      -278.3986
   8   2.0000     -10.228687      -278.3367
   9   2.0000     -10.221520      -278.1417
  10   2.0000     -10.190777      -277.3051
  11   2.0000     -10.190308      -277.2924
  12   2.0000     -10.174850      -276.8718
  13   2.0000      -1.059452       -28.8291
  14   2.0000      -1.030098       -28.0304
  15   2.0000      -1.002081       -27.2680
  16   2.0000      -0.993564       -27.0362
  17   2.0000      -0.794501       -21.6195
  18   2.0000      -0.774516       -21.0756
  19   2.0000      -0.762298       -20.7432
  20   2.0000      -0.733206       -19.9515
  21   2.0000      -0.671438       -18.2708
  22   2.0000      -0.604930       -16.4610
  23   2.0000      -0.597022       -16.2458
  24   2.0000      -0.594839       -16.1864
  25   2.0000      -0.572753       -15.5854
  26   2.0000      -0.525324       -14.2948
  27   2.0000      -0.508341       -13.8327
  28   2.0000      -0.496239       -13.5033
  29   2.0000      -0.488667       -13.2973
  30   2.0000      -0.468174       -12.7397
  31   2.0000      -0.462306       -12.5800
  32   2.0000      -0.447095       -12.1661
  33   2.0000      -0.434842       -11.8327
  34   2.0000      -0.420188       -11.4339
  35   2.0000      -0.409329       -11.1384
  36   2.0000      -0.402388       -10.9495
  37   2.0000      -0.385700       -10.4954
  38   2.0000      -0.378280       -10.2935
  39   2.0000      -0.364159        -9.9093
  40   2.0000      -0.362379        -9.8608
  41   2.0000      -0.357039        -9.7155
  42   2.0000      -0.348946        -9.4953
  43   2.0000      -0.339553        -9.2397
  44   2.0000      -0.321080        -8.7370
  45   2.0000      -0.305015        -8.2999
  46   2.0000      -0.298183        -8.1140
  47   2.0000      -0.271053        -7.3757
  48   2.0000      -0.263844        -7.1796
  49   2.0000      -0.258772        -7.0415
  50   2.0000      -0.240129        -6.5342
  51   0.0000       0.067131         1.8267
  52   0.0000       0.082158         2.2356
  53   0.0000       0.099076         2.6960
  54   0.0000       0.104552         2.8450
  55   0.0000       0.107389         2.9222

MULLIKEN ATOMIC CHARGES
-----------------------
   0 C :    0.293859
   1 C :   -0.263527
   2 C :   -0.300111
   3 C :   -0.009099
   4 O :   -0.512860
   5 H :    0.156195
   6 H :    0.148139
   7 H :    0.156350
   8 H :    0.144849
   9 H :    0.158242
  10 H :    0.146401
  11 H :    0.147538
  12 C :    0.010142
  13 H :    0.156687
  14 H :    0.136819
  15 O :   -0.537970
  16 C :    0.060435
  17 C :    0.079508
  18 C :   -0.292652
  19 C :   -0.017762
  20 O :   -0.526933
  21 H :    0.156670
  22 O :   -0.603367
  23 H :    0.148507
  24 H :    0.147550
  25 H :    0.174415
  26 H :    0.145084
  27 H :    0.135304
  28 H :    0.361589
Sum of atomic charges:   -0.0000000

LOEWDIN ATOMIC CHARGES
----------------------
   0 C :    0.175749
   1 C :   -0.214444
   2 C :   -0.216785
   3 C :   -0.029340
   4 O :   -0.327098
   5 H :    0.101720
   6 H :    0.115976
   7 H :    0.123442
   8 H :    0.115439
   9 H :    0.116925
  10 H :    0.104569
  11 H :    0.105363
  12 C :   -0.035224
  13 H :    0.113049
  14 H :    0.101490
  15 O :   -0.335823
  16 C :    0.011960
  17 C :    0.039345
  18 C :   -0.243749
  19 C :   -0.033715
  20 O :   -0.330961
  21 H :    0.116085
  22 O :   -0.417685
  23 H :    0.114674
  24 H :    0.117716
  25 H :    0.129384
  26 H :    0.104870
  27 H :    0.095699
  28 H :    0.281367

  Mayer bond orders larger than 0.100000
B(  0-C ,  1-C ) :   0.9505 B(  0-C ,  4-O ) :   0.8984 B(  0-C ,  5-H ) :   0.9191
B(  0-C , 15-O ) :   0.8475 B(  1-C ,  2-C ) :   0.9535 B(  1-C ,  6-H ) :   0.9384
B(  1-C ,  7-H ) :   0.9363 B(  2-C ,  3-C ) :   0.9557 B(  2-C ,  8-H ) :   0.9448
B(  2-C ,  9-H ) :   0.9450 B(  3-C ,  4-O ) :   0.8343 B(  3-C , 10-H ) :   0.9352
B(  3-C , 11-H ) :   0.9403 B( 12-C , 13-H ) :   0.9170 B( 12-C , 14-H ) :   0.9167
B( 12-C , 15-O ) :   0.8255 B( 12-C , 16-C ) :   0.9039 B( 16-C , 17-C ) :   0.9085
B( 16-C , 20-O ) :   0.8670 B( 16-C , 21-H ) :   0.9216 B( 17-C , 18-C ) :   0.9242
B( 17-C , 22-O ) :   0.8907 B( 17-C , 23-H ) :   0.9364 B( 18-C , 19-C ) :   0.9473
B( 18-C , 24-H ) :   0.9374 B( 18-C , 25-H ) :   0.9184 B( 19-C , 20-O ) :   0.8420
B( 19-C , 26-H ) :   0.9347 B( 19-C , 27-H ) :   0.9367 B( 22-O , 28-H ) :   0.7966

FINAL SINGLE POINT ENERGY      -652.868807377873

DIPOLE MOMENT
-------------
                                X             Y             Z
Electronic contribution:     -3.04662      -4.78778      -0.05579
Nuclear contribution   :      3.91742       5.63940      -0.04052
                        -----------------------------------------
Total Dipole Moment    :      0.87080       0.85163      -0.09632
                        -----------------------------------------
Magnitude (a.u.)       :      1.22182
Magnitude (Debye)      :      3.10561

Rotational constants in cm-1:     0.057212     0.013527     0.013277
Rotational constants in MHz :  1715.158546   405.526499   398.037078

                             ****ORCA TERMINATED NORMALLY****
TOTAL RUN TIME: 0 days 0 hours 13 minutes 39 seconds 808 msec
