                         Program Version 4.2.1 -  RELEASE  -
|  1> # Test redundant internal optimization
|  2> #
|  3> ! RKS B3LYP  Opt TightSCF SmallPrint
|  4>
|  5> %basis
|  6>         Basis "6-31G"
|  7> end
|  8>
|  9> %geom
| 10> Constraints
| 11> { D 4  0  19  14  345.0   C } # D for Dihedral angle
| 12> { D 0  19  14  12  90.0   C } # D for Dihedral angle
| 13> { D 0  4  3  2   C } # D for Dihedral angle
| 14> { D 4  3  2  1   C } # D for Dihedral angle
| 15> { D 3  2  1  0   C } # D for Dihedral angle
| 16> { D 2  1  0  4   C } # D for Dihedral angle
| 17> { D 1  0  4  3   C } # D for Dihedral angle
| 18> { D 14  15  16  17   C } # D for Dihedral angle
| 19> { D 15  16  17  12   C } # D for Dihedral angle
| 20> { D 16  17  12  14   C } # D for Dihedral angle
| 21> { D 17  12  14  15   C } # D for Dihedral angle
| 22> { D 12  14  15  16   C } # D for Dihedral angle
| 23> end
| 24> end
| 25>
| 26>
| 27> #%pal
| 28> #nprocs 8
| 29> #end
| 30>
| 31> * xyz 0 1
| 32> C  -21.048   26.222   46.251
| 33> C  -20.361   27.558   45.944
| 34> C  -20.329   28.222   47.341
| 35> C  -20.110   27.022   48.296
| 36> O  -20.473   25.807   47.535
| 37> H  -20.833   25.428   45.533
| 38> H  -19.344   27.382   45.576
| 39> H  -20.898   28.157   45.201
| 40> H  -19.543   28.978   47.434
| 41> H  -21.289   28.710   47.548
| 42> H  -20.733   27.082   49.195
| 43> H  -19.064   26.913   48.597
| 44> C  -23.053   26.814   48.690
| 45> H  -23.204   26.323   49.664
| 46> C  -23.040   25.792   47.547
| 47> C  -24.550   25.522   47.350
| 48> C  -25.195   26.901   47.637
| 49> O  -24.186   27.691   48.377
| 50> H  -22.165   27.445   48.742
| 51> O  -22.472   26.381   46.366
| 52> H  -22.474   24.885   47.787
| 53> H  -24.789   25.150   46.349
| 54> H  -24.898   24.776   48.076
| 55> H  -26.104   26.823   48.243
| 56> H  -25.427   27.453   46.721
| 57> *
| 58>
| 59>                          ****END OF INPUT****
 Total Charge           Charge          ....    0
 Multiplicity           Mult            ....    1
 Number of Electrons    NEL             ....   86
FINAL SINGLE POINT ENERGY      -538.415880257010
FINAL SINGLE POINT ENERGY      -538.429224047773
FINAL SINGLE POINT ENERGY      -538.431176203988
FINAL SINGLE POINT ENERGY      -538.431610737113
FINAL SINGLE POINT ENERGY      -538.431657929216
FINAL SINGLE POINT ENERGY      -538.431672688317
                    ***********************HURRAY********************

CARTESIAN COORDINATES (ANGSTROEM)
---------------------------------
  C    -21.016241   26.216429   46.344613
  C    -20.437335   27.570236   45.930890
  C    -20.241661   28.262001   47.300227
  C    -19.842672   27.095091   48.232011
  O    -20.265282   25.852392   47.524668
  H    -20.826349   25.410950   45.627991
  H    -19.477991   27.408103   45.426435
  H    -21.107560   28.117513   45.264930
  H    -19.478662   29.045898   47.272481
  H    -21.186008   28.714719   47.619918
  H    -20.319506   27.129526   49.214565
  H    -18.760019   27.015568   48.369042
  C    -23.236392   26.720016   48.844810
  H    -23.530042   26.182401   49.759290
  C    -23.116692   25.737101   47.680258
  C    -24.591793   25.543691   47.285501
  C    -25.218023   26.936373   47.535086
  O    -24.281262   27.657806   48.426479
  H    -22.342966   27.305862   49.044401
  O    -22.458560   26.307158   46.507053
  H    -22.620895   24.806052   47.973839
  H    -24.676429   25.216745   46.247233
  H    -25.047894   24.784427   47.931363
  H    -26.198741   26.877352   48.019881
  H    -25.303025   27.523591   46.617033

 Multiplicity           Mult            ....    1
 Number of Electrons    NEL             ....   86
 Basis Dimension        Dim             ....  127

ORBITAL ENERGIES
----------------

  NO   OCC          E(Eh)            E(eV)
   0   2.0000     -19.150399      -521.1089
   1   2.0000     -19.136047      -520.7183
   2   2.0000     -19.126043      -520.4461
   3   2.0000     -10.277955      -279.6774
   4   2.0000     -10.236525      -278.5500
   5   2.0000     -10.231547      -278.4145
   6   2.0000     -10.218792      -278.0675
   7   2.0000     -10.216862      -278.0149
   8   2.0000     -10.187736      -277.2224
   9   2.0000     -10.184343      -277.1300
  10   2.0000     -10.181438      -277.0510
  11   2.0000      -1.052971       -28.6528
  12   2.0000      -1.012024       -27.5386
  13   2.0000      -0.987728       -26.8774
  14   2.0000      -0.792277       -21.5589
  15   2.0000      -0.777562       -21.1585
  16   2.0000      -0.738819       -20.1043
  17   2.0000      -0.720529       -19.6066
  18   2.0000      -0.616365       -16.7721
  19   2.0000      -0.600541       -16.3416
  20   2.0000      -0.593125       -16.1397
  21   2.0000      -0.564765       -15.3680
  22   2.0000      -0.514033       -13.9876
  23   2.0000      -0.503693       -13.7062
  24   2.0000      -0.491319       -13.3695
  25   2.0000      -0.481950       -13.1145
  26   2.0000      -0.451513       -12.2863
  27   2.0000      -0.439755       -11.9663
  28   2.0000      -0.425808       -11.5868
  29   2.0000      -0.413451       -11.2506
  30   2.0000      -0.410234       -11.1630
  31   2.0000      -0.377886       -10.2828
  32   2.0000      -0.369792       -10.0626
  33   2.0000      -0.362424        -9.8621
  34   2.0000      -0.360150        -9.8002
  35   2.0000      -0.354626        -9.6499
  36   2.0000      -0.343551        -9.3485
  37   2.0000      -0.330098        -8.9824
  38   2.0000      -0.304907        -8.2969
  39   2.0000      -0.299910        -8.1610
  40   2.0000      -0.264310        -7.1922
  41   2.0000      -0.250381        -6.8132
  42   2.0000      -0.230983        -6.2854
  43   0.0000       0.079248         2.1565
  44   0.0000       0.093303         2.5389
  45   0.0000       0.099861         2.7173
  46   0.0000       0.108316         2.9474
  47   0.0000       0.112647         3.0653

MULLIKEN ATOMIC CHARGES
-----------------------
   0 C :    0.307957
   1 C :   -0.260332
   2 C :   -0.316207
   3 C :   -0.021142
   4 O :   -0.516997
   5 H :    0.150600
   6 H :    0.144279
   7 H :    0.163502
   8 H :    0.146673
   9 H :    0.175769
  10 H :    0.145336
  11 H :    0.150437
  12 C :    0.005409
  13 H :    0.121238
  14 C :    0.074566
  15 C :   -0.287723
  16 C :   -0.001059
  17 O :   -0.526790
  18 H :    0.147239
  19 O :   -0.537964
  20 H :    0.146898
  21 H :    0.159372
  22 H :    0.140632
  23 H :    0.133775
  24 H :    0.154534
Sum of atomic charges:   -0.0000000

LOEWDIN ATOMIC CHARGES
----------------------
   0 C :    0.181884
   1 C :   -0.216945
   2 C :   -0.221074
   3 C :   -0.034437
   4 O :   -0.323660
   5 H :    0.098923
   6 H :    0.113731
   7 H :    0.127663
   8 H :    0.117257
   9 H :    0.122653
  10 H :    0.100266
  11 H :    0.106458
  12 C :   -0.044833
  13 H :    0.091560
  14 C :    0.042758
  15 C :   -0.223575
  16 C :   -0.028445
  17 O :   -0.334802
  18 H :    0.110867
  19 O :   -0.337428
  20 H :    0.107300
  21 H :    0.127157
  22 H :    0.111433
  23 H :    0.096965
  24 H :    0.108324

  Mayer bond orders larger than 0.100000
B(  0-C ,  1-C ) :   0.9367 B(  0-C ,  4-O ) :   0.9034 B(  0-C ,  5-H ) :   0.9285
B(  0-C , 19-O ) :   0.8507 B(  1-C ,  2-C ) :   0.9532 B(  1-C ,  6-H ) :   0.9367
B(  1-C ,  7-H ) :   0.9353 B(  2-C ,  3-C ) :   0.9546 B(  2-C ,  8-H ) :   0.9442
B(  2-C ,  9-H ) :   0.9358 B(  3-C ,  4-O ) :   0.8311 B(  3-C , 10-H ) :   0.9237
B(  3-C , 11-H ) :   0.9384 B( 12-C , 13-H ) :   0.9120 B( 12-C , 14-C ) :   0.9169
B( 12-C , 17-O ) :   0.8683 B( 12-C , 18-H ) :   0.9223 B( 14-C , 15-C ) :   0.9559
B( 14-C , 19-O ) :   0.8222 B( 14-C , 20-H ) :   0.9193 B( 15-C , 16-C ) :   0.9467
B( 15-C , 21-H ) :   0.9380 B( 15-C , 22-H ) :   0.9428 B( 16-C , 17-O ) :   0.8532
B( 16-C , 23-H ) :   0.9333 B( 16-C , 24-H ) :   0.9365

FINAL SINGLE POINT ENERGY      -538.431673784267

DIPOLE MOMENT
-------------
                                X             Y             Z
Electronic contribution:     -0.21757      -1.56259      -0.44659
Nuclear contribution   :      0.56982       1.37652       0.37977
                        -----------------------------------------
Total Dipole Moment    :      0.35225      -0.18607      -0.06681
                        -----------------------------------------
Magnitude (a.u.)       :      0.40394
Magnitude (Debye)      :      1.02672

Rotational constants in cm-1:     0.071632     0.024301     0.023036
Rotational constants in MHz :  2147.475254   728.533732   690.597676

                             ****ORCA TERMINATED NORMALLY****
TOTAL RUN TIME: 0 days 0 hours 16 minutes 44 seconds 137 msec
