                         Program Version 4.2.0 -  RELEASE  -
|  1> # Test redundant internal optimization
|  2> #
|  3> ! RKS B3LYP  Opt TightSCF SmallPrint
|  4>
|  5> %basis
|  6>         Basis "6-31G"
|  7> end
|  8>
|  9> %geom
| 10> Constraints
| 11> { D 4  0  15  12  15.0   C } # D for Dihedral angle
| 12> { D 0  15  12  16  270.0   C } # D for Dihedral angle
| 13> { D 0  4  3  2   C } # D for Dihedral angle
| 14> { D 4  3  2  1   C } # D for Dihedral angle
| 15> { D 3  2  1  0   C } # D for Dihedral angle
| 16> { D 2  1  0  4   C } # D for Dihedral angle
| 17> { D 1  0  4  3   C } # D for Dihedral angle
| 18> { D 16  20  19  18   C } # D for Dihedral angle
| 19> { D 20  19  18  17   C } # D for Dihedral angle
| 20> { D 19  18  17  16   C } # D for Dihedral angle
| 21> { D 18  17  16  20   C } # D for Dihedral angle
| 22> { D 17  16  20  19   C } # D for Dihedral angle
| 23> { D 15  12  16  20   C } # D for Dihedral angle
| 24> end
| 25> end
| 26>
| 27>
| 28> #%pal
| 29> #nprocs 8
| 30> #end
| 31>
| 32> * xyz 0 1
| 33> C  -21.048   26.222   46.251
| 34> C  -20.361   27.558   45.944
| 35> C  -20.329   28.222   47.341
| 36> C  -20.110   27.022   48.296
| 37> O  -20.473   25.807   47.535
| 38> H  -20.833   25.428   45.533
| 39> H  -19.344   27.382   45.576
| 40> H  -20.898   28.157   45.201
| 41> H  -19.543   28.978   47.434
| 42> H  -21.289   28.710   47.548
| 43> H  -20.733   27.082   49.195
| 44> H  -19.064   26.913   48.597
| 45> C  -23.128   26.462   47.829
| 46> H  -22.365   26.910   48.479
| 47> H  -24.028   27.089   47.875
| 48> O  -22.586   26.394   46.375
| 49> C  -23.496   25.064   48.399
| 50> C  -24.134   25.180   49.788
| 51> C  -25.583   25.588   49.435
| 52> C  -25.855   24.818   48.118
| 53> O  -24.534   24.433   47.577
| 54> H  -22.617   24.418   48.357
| 55> H  -24.118   24.207   50.292
| 56> O  -23.422   26.215   50.702
| 57> H  -26.300   25.334   50.222
| 58> H  -25.640   26.671   49.267
| 59> H  -26.382   25.429   47.376
| 60> H  -26.418   23.895   48.283
| 61> H  -23.426   27.198   50.218
| 62> *
| 63>
| 64>                          ****END OF INPUT****
 Total Charge           Charge          ....    0
 Multiplicity           Mult            ....    1
 Number of Electrons    NEL             ....  102
FINAL SINGLE POINT ENERGY      -652.821533432249
FINAL SINGLE POINT ENERGY      -652.845236598174
FINAL SINGLE POINT ENERGY      -652.850273782871
FINAL SINGLE POINT ENERGY      -652.852579117723
FINAL SINGLE POINT ENERGY      -652.852852598419
FINAL SINGLE POINT ENERGY      -652.852960961812
FINAL SINGLE POINT ENERGY      -652.852969932166
FINAL SINGLE POINT ENERGY      -652.852971378453
                    ***********************HURRAY********************

CARTESIAN COORDINATES (ANGSTROEM)
---------------------------------
  C    -21.103633   26.250180   46.359408
  C    -20.406320   27.544650   45.930690
  C    -20.168608   28.245833   47.293000
  C    -19.881307   27.061722   48.246927
  O    -20.398461   25.849276   47.555445
  H    -20.995254   25.431340   45.645893
  H    -19.454730   27.297542   45.446261
  H    -21.018353   28.129896   45.241385
  H    -19.339541   28.959353   47.262462
  H    -21.068954   28.790482   47.598452
  H    -20.371899   27.149095   49.220824
  H    -18.810866   26.897840   48.402055
  C    -23.124126   26.518688   47.845481
  H    -22.451977   27.004119   48.559261
  H    -24.007013   27.153306   47.705710
  O    -22.539963   26.423264   46.518895
  C    -23.522142   25.148079   48.398908
  C    -24.191893   25.215496   49.782633
  C    -25.669552   25.541277   49.409386
  C    -25.862853   24.764604   48.087370
  O    -24.507317   24.464866   47.565967
  H    -22.633456   24.512460   48.403687
  H    -24.125751   24.239019   50.267730
  O    -23.583557   26.137703   50.724497
  H    -26.373079   25.238396   50.189761
  H    -25.778027   26.624123   49.256717
  H    -26.417910   25.335630   47.335793
  H    -26.366685   23.805510   48.242019
  H    -23.883772   27.052251   50.546386

 Multiplicity           Mult            ....    1
 Number of Electrons    NEL             ....  102
 Basis Dimension        Dim             ....  149

ORBITAL ENERGIES
----------------

  NO   OCC          E(Eh)            E(eV)
   0   2.0000     -19.148631      -521.0607
   1   2.0000     -19.148391      -521.0542
   2   2.0000     -19.133067      -520.6372
   3   2.0000     -19.130864      -520.5773
   4   2.0000     -10.274980      -279.5964
   5   2.0000     -10.241775      -278.6929
   6   2.0000     -10.231339      -278.4089
   7   2.0000     -10.226837      -278.2864
   8   2.0000     -10.226603      -278.2800
   9   2.0000     -10.220355      -278.1100
  10   2.0000     -10.194794      -277.4144
  11   2.0000     -10.192066      -277.3402
  12   2.0000     -10.184146      -277.1247
  13   2.0000      -1.051687       -28.6178
  14   2.0000      -1.030358       -28.0375
  15   2.0000      -1.011218       -27.5166
  16   2.0000      -0.988734       -26.9048
  17   2.0000      -0.788923       -21.4677
  18   2.0000      -0.779470       -21.2105
  19   2.0000      -0.765132       -20.8203
  20   2.0000      -0.732028       -19.9195
  21   2.0000      -0.676942       -18.4205
  22   2.0000      -0.608990       -16.5715
  23   2.0000      -0.602980       -16.4079
  24   2.0000      -0.597486       -16.2584
  25   2.0000      -0.562986       -15.3196
  26   2.0000      -0.521007       -14.1773
  27   2.0000      -0.513465       -13.9721
  28   2.0000      -0.500515       -13.6197
  29   2.0000      -0.492563       -13.4033
  30   2.0000      -0.464891       -12.6503
  31   2.0000      -0.457872       -12.4593
  32   2.0000      -0.437242       -11.8980
  33   2.0000      -0.430607       -11.7174
  34   2.0000      -0.423991       -11.5374
  35   2.0000      -0.416768       -11.3408
  36   2.0000      -0.410246       -11.1634
  37   2.0000      -0.396940       -10.8013
  38   2.0000      -0.376400       -10.2424
  39   2.0000      -0.371733       -10.1154
  40   2.0000      -0.359821        -9.7912
  41   2.0000      -0.353013        -9.6060
  42   2.0000      -0.347642        -9.4598
  43   2.0000      -0.326390        -8.8815
  44   2.0000      -0.324770        -8.8374
  45   2.0000      -0.313810        -8.5392
  46   2.0000      -0.304208        -8.2779
  47   2.0000      -0.268541        -7.3074
  48   2.0000      -0.260250        -7.0818
  49   2.0000      -0.255365        -6.9488
  50   2.0000      -0.226417        -6.1611
  51   0.0000       0.050692         1.3794
  52   0.0000       0.075140         2.0447
  53   0.0000       0.085639         2.3304
  54   0.0000       0.092623         2.5204
  55   0.0000       0.104209         2.8357

MULLIKEN ATOMIC CHARGES
-----------------------
   0 C :    0.295399
   1 C :   -0.254996
   2 C :   -0.311133
   3 C :   -0.023762
   4 O :   -0.511824
   5 H :    0.165169
   6 H :    0.145029
   7 H :    0.158358
   8 H :    0.148162
   9 H :    0.148466
  10 H :    0.154045
  11 H :    0.151657
  12 C :   -0.024989
  13 H :    0.133108
  14 H :    0.136378
  15 O :   -0.520716
  16 C :    0.096273
  17 C :    0.080350
  18 C :   -0.331979
  19 C :   -0.011969
  20 O :   -0.504939
  21 H :    0.178633
  22 H :    0.168161
  23 O :   -0.602051
  24 H :    0.158161
  25 H :    0.131911
  26 H :    0.145700
  27 H :    0.149934
  28 H :    0.353462
Sum of atomic charges:   -0.0000000

LOEWDIN ATOMIC CHARGES
----------------------
   0 C :    0.180902
   1 C :   -0.222337
   2 C :   -0.221960
   3 C :   -0.036316
   4 O :   -0.319651
   5 H :    0.110621
   6 H :    0.114424
   7 H :    0.124362
   8 H :    0.117637
   9 H :    0.110234
  10 H :    0.104562
  11 H :    0.107320
  12 C :   -0.049463
  13 H :    0.099965
  14 H :    0.103049
  15 O :   -0.323662
  16 C :    0.011337
  17 C :    0.033558
  18 C :   -0.243552
  19 C :   -0.031025
  20 O :   -0.313947
  21 H :    0.125478
  22 H :    0.119384
  23 O :   -0.410698
  24 H :    0.122277
  25 H :    0.102554
  26 H :    0.103283
  27 H :    0.105826
  28 H :    0.275839

  Mayer bond orders larger than 0.100000
B(  0-C ,  1-C ) :   0.9236 B(  0-C ,  4-O ) :   0.9019 B(  0-C ,  5-H ) :   0.9314
B(  0-C , 15-O ) :   0.8605 B(  1-C ,  2-C ) :   0.9524 B(  1-C ,  6-H ) :   0.9351
B(  1-C ,  7-H ) :   0.9370 B(  2-C ,  3-C ) :   0.9506 B(  2-C ,  8-H ) :   0.9451
B(  2-C ,  9-H ) :   0.9453 B(  3-C ,  4-O ) :   0.8314 B(  3-C , 10-H ) :   0.9266
B(  3-C , 11-H ) :   0.9392 B( 12-C , 13-H ) :   0.8968 B( 12-C , 14-H ) :   0.9393
B( 12-C , 15-O ) :   0.8582 B( 12-C , 16-C ) :   0.8848 B( 16-C , 17-C ) :   0.8719
B( 16-C , 20-O ) :   0.8639 B( 16-C , 21-H ) :   0.9233 B( 17-C , 18-C ) :   0.9264
B( 17-C , 22-H ) :   0.9321 B( 17-C , 23-O ) :   0.8881 B( 18-C , 19-C ) :   0.9402
B( 18-C , 24-H ) :   0.9410 B( 18-C , 25-H ) :   0.9407 B( 19-C , 20-O ) :   0.8543
B( 19-C , 26-H ) :   0.9309 B( 19-C , 27-H ) :   0.9372 B( 23-O , 28-H ) :   0.8005

FINAL SINGLE POINT ENERGY      -652.852970775157

DIPOLE MOMENT
-------------
                                X             Y             Z
Electronic contribution:     -0.24570      -4.39808      -0.91156
Nuclear contribution   :      0.02302       5.75584       1.29515
                        -----------------------------------------
Total Dipole Moment    :     -0.22268       1.35776       0.38359
                        -----------------------------------------
Magnitude (a.u.)       :      1.42837
Magnitude (Debye)      :      3.63062

Rotational constants in cm-1:     0.051996     0.014989     0.013129
Rotational constants in MHz :  1558.786789   449.373476   393.603442

                             ****ORCA TERMINATED NORMALLY****
TOTAL RUN TIME: 0 days 0 hours 25 minutes 50 seconds 159 msec
