                         Program Version 4.2.1 -  RELEASE  -
|  1> # Test redundant internal optimization
|  2> #
|  3> ! RKS B3LYP  Opt TightSCF SmallPrint
|  4>
|  5> %basis
|  6>         Basis "6-31G"
|  7> end
|  8>
|  9> %geom
| 10> Constraints
| 11> { D 4  0  19  14  255.0   C } # D for Dihedral angle
| 12> { D 0  19  14  12  75.0   C } # D for Dihedral angle
| 13> { D 0  4  3  2   C } # D for Dihedral angle
| 14> { D 4  3  2  1   C } # D for Dihedral angle
| 15> { D 3  2  1  0   C } # D for Dihedral angle
| 16> { D 2  1  0  4   C } # D for Dihedral angle
| 17> { D 1  0  4  3   C } # D for Dihedral angle
| 18> { D 14  15  16  17   C } # D for Dihedral angle
| 19> { D 15  16  17  12   C } # D for Dihedral angle
| 20> { D 16  17  12  14   C } # D for Dihedral angle
| 21> { D 17  12  14  15   C } # D for Dihedral angle
| 22> { D 12  14  15  16   C } # D for Dihedral angle
| 23> end
| 24> end
| 25>
| 26>
| 27> #%pal
| 28> #nprocs 8
| 29> #end
| 30>
| 31> * xyz 0 1
| 32> C  -21.048   26.222   46.251
| 33> C  -20.361   27.558   45.944
| 34> C  -20.329   28.222   47.341
| 35> C  -20.110   27.022   48.296
| 36> O  -20.473   25.807   47.535
| 37> H  -20.833   25.428   45.533
| 38> H  -19.344   27.382   45.576
| 39> H  -20.898   28.157   45.201
| 40> H  -19.543   28.978   47.434
| 41> H  -21.289   28.710   47.548
| 42> H  -20.733   27.082   49.195
| 43> H  -19.064   26.913   48.597
| 44> C  -23.181   24.070   46.649
| 45> H  -23.501   23.174   46.095
| 46> C  -23.236   25.322   45.767
| 47> C  -24.746   25.657   45.791
| 48> C  -25.173   25.255   47.225
| 49> O  -24.117   24.356   47.742
| 50> H  -22.208   23.880   47.105
| 51> O  -22.472   26.381   46.366
| 52> H  -22.855   25.151   44.754
| 53> H  -24.952   26.710   45.574
| 54> H  -25.279   25.052   45.047
| 55> H  -26.134   24.730   47.247
| 56> H  -25.224   26.114   47.902
| 57> *
| 58>
| 59>                          ****END OF INPUT****
 Total Charge           Charge          ....    0
 Multiplicity           Mult            ....    1
 Number of Electrons    NEL             ....   86
FINAL SINGLE POINT ENERGY      -538.432542522579
FINAL SINGLE POINT ENERGY      -538.434769168619
FINAL SINGLE POINT ENERGY      -538.435094425313
FINAL SINGLE POINT ENERGY      -538.435124308793
FINAL SINGLE POINT ENERGY      -538.435133593713
                    ***********************HURRAY********************

CARTESIAN COORDINATES (ANGSTROEM)
---------------------------------
  C    -20.978835   26.183462   46.242441
  C    -20.384693   27.561784   45.950168
  C    -20.420455   28.227939   47.347056
  C    -20.132737   27.045340   48.300068
  O    -20.404223   25.816155   47.515054
  H    -20.714760   25.394403   45.532176
  H    -19.352084   27.446878   45.599619
  H    -20.958583   28.104948   45.196628
  H    -19.688054   29.034271   47.449379
  H    -21.418031   28.636925   47.532112
  H    -20.772497   27.042799   49.185649
  H    -19.084327   26.994446   48.609210
  C    -23.229292   24.003180   46.622485
  H    -23.619479   23.145679   46.052477
  C    -23.217346   25.258510   45.752384
  C    -24.692707   25.696878   45.816627
  C    -25.114357   25.316514   47.256970
  O    -24.112419   24.343069   47.738271
  H    -22.256387   23.752492   47.048279
  O    -22.416694   26.331772   46.328863
  H    -22.879202   25.058176   44.726010
  H    -24.791731   26.765180   45.609804
  H    -25.270693   25.139600   45.071526
  H    -26.109826   24.859959   47.295392
  H    -25.083590   26.172640   47.936352

 Multiplicity           Mult            ....    1
 Number of Electrons    NEL             ....   86
 Basis Dimension        Dim             ....  127

ORBITAL ENERGIES
----------------

  NO   OCC          E(Eh)            E(eV)
   0   2.0000     -19.140997      -520.8530
   1   2.0000     -19.135824      -520.7122
   2   2.0000     -19.123490      -520.3766
   3   2.0000     -10.277835      -279.6741
   4   2.0000     -10.239978      -278.6440
   5   2.0000     -10.220966      -278.1266
   6   2.0000     -10.216735      -278.0115
   7   2.0000     -10.216310      -277.9999
   8   2.0000     -10.184498      -277.1343
   9   2.0000     -10.183342      -277.1028
  10   2.0000     -10.182683      -277.0849
  11   2.0000      -1.051751       -28.6196
  12   2.0000      -1.010569       -27.4990
  13   2.0000      -0.988715       -26.9043
  14   2.0000      -0.789842       -21.4927
  15   2.0000      -0.774646       -21.0792
  16   2.0000      -0.734272       -19.9806
  17   2.0000      -0.720586       -19.6081
  18   2.0000      -0.608585       -16.5604
  19   2.0000      -0.596094       -16.2205
  20   2.0000      -0.591898       -16.1064
  21   2.0000      -0.575706       -15.6658
  22   2.0000      -0.520899       -14.1744
  23   2.0000      -0.500433       -13.6175
  24   2.0000      -0.482074       -13.1179
  25   2.0000      -0.473805       -12.8929
  26   2.0000      -0.447132       -12.1671
  27   2.0000      -0.440760       -11.9937
  28   2.0000      -0.434680       -11.8282
  29   2.0000      -0.408600       -11.1186
  30   2.0000      -0.404593       -11.0095
  31   2.0000      -0.382043       -10.3959
  32   2.0000      -0.365786        -9.9535
  33   2.0000      -0.363463        -9.8903
  34   2.0000      -0.353936        -9.6311
  35   2.0000      -0.353075        -9.6077
  36   2.0000      -0.342556        -9.3214
  37   2.0000      -0.319760        -8.7011
  38   2.0000      -0.304076        -8.2743
  39   2.0000      -0.299415        -8.1475
  40   2.0000      -0.264923        -7.2089
  41   2.0000      -0.245806        -6.6887
  42   2.0000      -0.229580        -6.2472
  43   0.0000       0.080121         2.1802
  44   0.0000       0.096286         2.6201
  45   0.0000       0.103126         2.8062
  46   0.0000       0.117318         3.1924
  47   0.0000       0.125280         3.4090

MULLIKEN ATOMIC CHARGES
-----------------------
   0 C :    0.284576
   1 C :   -0.253028
   2 C :   -0.300384
   3 C :    0.000876
   4 O :   -0.505992
   5 H :    0.137271
   6 H :    0.141964
   7 H :    0.148107
   8 H :    0.139829
   9 H :    0.163053
  10 H :    0.155399
  11 H :    0.139682
  12 C :    0.001764
  13 H :    0.116091
  14 C :    0.057765
  15 C :   -0.290887
  16 C :    0.003372
  17 O :   -0.517348
  18 H :    0.179436
  19 O :   -0.509988
  20 H :    0.122744
  21 H :    0.157992
  22 H :    0.141920
  23 H :    0.131232
  24 H :    0.154554
Sum of atomic charges:    0.0000000

LOEWDIN ATOMIC CHARGES
----------------------
   0 C :    0.171973
   1 C :   -0.217306
   2 C :   -0.216232
   3 C :   -0.025662
   4 O :   -0.321935
   5 H :    0.096661
   6 H :    0.111972
   7 H :    0.119437
   8 H :    0.113006
   9 H :    0.119528
  10 H :    0.109956
  11 H :    0.101315
  12 C :   -0.047536
  13 H :    0.088291
  14 C :    0.036332
  15 C :   -0.223556
  16 C :   -0.028152
  17 O :   -0.327021
  18 H :    0.126491
  19 O :   -0.323450
  20 H :    0.092650
  21 H :    0.126015
  22 H :    0.112893
  23 H :    0.096132
  24 H :    0.108198

  Mayer bond orders larger than 0.100000
B(  0-C ,  1-C ) :   0.9474 B(  0-C ,  4-O ) :   0.9164 B(  0-C ,  5-H ) :   0.9182
B(  0-C , 19-O ) :   0.8491 B(  1-C ,  2-C ) :   0.9578 B(  1-C ,  6-H ) :   0.9387
B(  1-C ,  7-H ) :   0.9384 B(  2-C ,  3-C ) :   0.9542 B(  2-C ,  8-H ) :   0.9453
B(  2-C ,  9-H ) :   0.9439 B(  3-C ,  4-O ) :   0.8359 B(  3-C , 10-H ) :   0.9342
B(  3-C , 11-H ) :   0.9401 B( 12-C , 13-H ) :   0.9095 B( 12-C , 14-C ) :   0.9108
B( 12-C , 17-O ) :   0.8722 B( 12-C , 18-H ) :   0.9237 B( 14-C , 15-C ) :   0.9612
B( 14-C , 19-O ) :   0.8444 B( 14-C , 20-H ) :   0.9200 B( 15-C , 16-C ) :   0.9477
B( 15-C , 21-H ) :   0.9374 B( 15-C , 22-H ) :   0.9415 B( 16-C , 17-O ) :   0.8592
B( 16-C , 23-H ) :   0.9329 B( 16-C , 24-H ) :   0.9358

FINAL SINGLE POINT ENERGY      -538.435134534225

DIPOLE MOMENT
-------------
                                X             Y             Z
Electronic contribution:      0.13440      -3.01064       1.34423
Nuclear contribution   :     -0.01429       3.72559      -2.45768
                        -----------------------------------------
Total Dipole Moment    :      0.12011       0.71495      -1.11345
                        -----------------------------------------
Magnitude (a.u.)       :      1.32867
Magnitude (Debye)      :      3.37720

Rotational constants in cm-1:     0.075515     0.021792     0.020643
Rotational constants in MHz :  2263.873990   653.310074   618.848336

                             ****ORCA TERMINATED NORMALLY****
TOTAL RUN TIME: 0 days 0 hours 5 minutes 59 seconds 473 msec
