                         Program Version 4.2.0 -  RELEASE  -
|  1> # Test redundant internal optimization
|  2> #
|  3> ! RKS B3LYP  Opt TightSCF SmallPrint
|  4>
|  5> %basis
|  6>         Basis "6-31G"
|  7> end
|  8>
|  9> %geom
| 10> Constraints
| 11> { D 4  0  15  12  150.0   C } # D for Dihedral angle
| 12> { D 0  15  12  16  195.0   C } # D for Dihedral angle
| 13> { D 0  4  3  2   C } # D for Dihedral angle
| 14> { D 4  3  2  1   C } # D for Dihedral angle
| 15> { D 3  2  1  0   C } # D for Dihedral angle
| 16> { D 2  1  0  4   C } # D for Dihedral angle
| 17> { D 1  0  4  3   C } # D for Dihedral angle
| 18> { D 16  20  19  18   C } # D for Dihedral angle
| 19> { D 20  19  18  17   C } # D for Dihedral angle
| 20> { D 19  18  17  16   C } # D for Dihedral angle
| 21> { D 18  17  16  20   C } # D for Dihedral angle
| 22> { D 17  16  20  19   C } # D for Dihedral angle
| 23> { D 15  12  16  20   C } # D for Dihedral angle
| 24> end
| 25> end
| 26>
| 27>
| 28> #%pal
| 29> #nprocs 8
| 30> #end
| 31>
| 32> * xyz 0 1
| 33> C  -21.048   26.222   46.251
| 34> C  -20.361   27.558   45.944
| 35> C  -20.329   28.222   47.341
| 36> C  -20.110   27.022   48.296
| 37> O  -20.473   25.807   47.535
| 38> H  -20.833   25.428   45.533
| 39> H  -19.344   27.382   45.576
| 40> H  -20.898   28.157   45.201
| 41> H  -19.543   28.978   47.434
| 42> H  -21.289   28.710   47.548
| 43> H  -20.733   27.082   49.195
| 44> H  -19.064   26.913   48.597
| 45> C  -23.210   27.459   45.431
| 46> H  -22.588   28.363   45.445
| 47> H  -23.247   27.083   44.401
| 48> O  -22.586   26.394   46.375
| 49> C  -24.655   27.854   45.844
| 50> C  -24.673   28.547   47.211
| 51> C  -24.222   29.980   46.842
| 52> C  -24.855   30.200   45.445
| 53> O  -25.194   28.859   44.922
| 54> H  -25.300   26.976   45.773
| 55> O  -26.118   28.557   47.783
| 56> H  -24.016   28.069   47.945
| 57> H  -24.548   30.728   47.571
| 58> H  -23.128   30.026   46.783
| 59> H  -24.170   30.694   44.748
| 60> H  -25.785   30.772   45.494
| 61> H  -26.796   29.032   47.064
| 62> *
| 63>
| 64>                          ****END OF INPUT****
 Total Charge           Charge          ....    0
 Multiplicity           Mult            ....    1
 Number of Electrons    NEL             ....  102
FINAL SINGLE POINT ENERGY      -652.826721714860
FINAL SINGLE POINT ENERGY      -652.850547122729
FINAL SINGLE POINT ENERGY      -652.854555525691
FINAL SINGLE POINT ENERGY      -652.856617140521
FINAL SINGLE POINT ENERGY      -652.856824458266
FINAL SINGLE POINT ENERGY      -652.856876843362
                    ***********************HURRAY********************

CARTESIAN COORDINATES (ANGSTROEM)
---------------------------------
  C    -21.157339   26.276702   46.242111
  C    -20.235632   27.454513   45.925075
  C    -20.239032   28.238112   47.263629
  C    -20.320393   27.109482   48.314114
  O    -20.799742   25.910979   47.582859
  H    -20.998627   25.392003   45.619926
  H    -19.236653   27.054870   45.718387
  H    -20.534784   28.056367   45.064011
  H    -19.346083   28.858311   47.385629
  H    -21.116009   28.891990   47.322942
  H    -21.016316   27.326270   49.128510
  H    -19.343520   26.851136   48.732822
  C    -23.161229   27.545951   45.324793
  H    -22.558407   28.461354   45.268949
  H    -23.246370   27.133311   44.311101
  O    -22.587668   26.578704   46.244550
  C    -24.557541   27.878673   45.853312
  C    -24.595180   28.543711   47.236705
  C    -24.263281   30.016570   46.885922
  C    -24.944917   30.214209   45.508121
  O    -25.194306   28.856694   44.963527
  H    -25.175914   26.977543   45.841709
  O    -25.915559   28.422278   47.834683
  H    -23.906943   28.086719   47.944987
  H    -24.648535   30.693529   47.652624
  H    -23.179157   30.158973   46.817106
  H    -24.323396   30.772974   44.800748
  H    -25.915866   30.713063   45.586632
  H    -26.597602   28.599010   47.152516

 Multiplicity           Mult            ....    1
 Number of Electrons    NEL             ....  102
 Basis Dimension        Dim             ....  149

ORBITAL ENERGIES
----------------

  NO   OCC          E(Eh)            E(eV)
   0   2.0000     -19.146430      -521.0009
   1   2.0000     -19.143644      -520.9250
   2   2.0000     -19.143458      -520.9200
   3   2.0000     -19.135384      -520.7003
   4   2.0000     -10.284573      -279.8575
   5   2.0000     -10.236450      -278.5480
   6   2.0000     -10.234898      -278.5057
   7   2.0000     -10.234535      -278.4959
   8   2.0000     -10.233525      -278.4684
   9   2.0000     -10.230704      -278.3916
  10   2.0000     -10.197661      -277.4925
  11   2.0000     -10.197135      -277.4782
  12   2.0000     -10.190908      -277.3087
  13   2.0000      -1.055825       -28.7305
  14   2.0000      -1.037270       -28.2256
  15   2.0000      -1.004919       -27.3452
  16   2.0000      -0.996704       -27.1217
  17   2.0000      -0.794917       -21.6308
  18   2.0000      -0.782438       -21.2912
  19   2.0000      -0.771458       -20.9924
  20   2.0000      -0.735430       -20.0121
  21   2.0000      -0.680728       -18.5236
  22   2.0000      -0.609279       -16.5793
  23   2.0000      -0.605459       -16.4754
  24   2.0000      -0.595500       -16.2044
  25   2.0000      -0.578849       -15.7513
  26   2.0000      -0.527946       -14.3661
  27   2.0000      -0.514814       -14.0088
  28   2.0000      -0.505763       -13.7625
  29   2.0000      -0.496332       -13.5059
  30   2.0000      -0.477109       -12.9828
  31   2.0000      -0.457596       -12.4518
  32   2.0000      -0.452337       -12.3087
  33   2.0000      -0.445263       -12.1162
  34   2.0000      -0.428704       -11.6656
  35   2.0000      -0.415786       -11.3141
  36   2.0000      -0.407275       -11.0825
  37   2.0000      -0.394057       -10.7228
  38   2.0000      -0.384976       -10.4757
  39   2.0000      -0.371913       -10.1203
  40   2.0000      -0.367063        -9.9883
  41   2.0000      -0.360588        -9.8121
  42   2.0000      -0.356834        -9.7100
  43   2.0000      -0.334022        -9.0892
  44   2.0000      -0.318474        -8.6661
  45   2.0000      -0.307549        -8.3688
  46   2.0000      -0.299505        -8.1499
  47   2.0000      -0.273842        -7.4516
  48   2.0000      -0.265450        -7.2233
  49   2.0000      -0.254378        -6.9220
  50   2.0000      -0.247859        -6.7446
  51   0.0000       0.052617         1.4318
  52   0.0000       0.065023         1.7694
  53   0.0000       0.089789         2.4433
  54   0.0000       0.095209         2.5908
  55   0.0000       0.101552         2.7634

MULLIKEN ATOMIC CHARGES
-----------------------
   0 C :    0.324750
   1 C :   -0.299999
   2 C :   -0.308869
   3 C :   -0.002014
   4 O :   -0.495081
   5 H :    0.151895
   6 H :    0.155845
   7 H :    0.145898
   8 H :    0.146964
   9 H :    0.153355
  10 H :    0.154232
  11 H :    0.146667
  12 C :   -0.006461
  13 H :    0.121781
  14 H :    0.146723
  15 O :   -0.529174
  16 C :    0.059491
  17 C :    0.088928
  18 C :   -0.308996
  19 C :   -0.036522
  20 O :   -0.527199
  21 H :    0.173509
  22 O :   -0.601003
  23 H :    0.177421
  24 H :    0.164191
  25 H :    0.144568
  26 H :    0.145822
  27 H :    0.150334
  28 H :    0.362943
Sum of atomic charges:    0.0000000

LOEWDIN ATOMIC CHARGES
----------------------
   0 C :    0.186286
   1 C :   -0.233484
   2 C :   -0.219035
   3 C :   -0.026972
   4 O :   -0.303019
   5 H :    0.102288
   6 H :    0.121848
   7 H :    0.114942
   8 H :    0.116929
   9 H :    0.108734
  10 H :    0.108710
  11 H :    0.105112
  12 C :   -0.040020
  13 H :    0.088233
  14 H :    0.103196
  15 O :   -0.338547
  16 C :    0.019442
  17 C :    0.038397
  18 C :   -0.244461
  19 C :   -0.040368
  20 O :   -0.330530
  21 H :    0.121802
  22 O :   -0.412749
  23 H :    0.127310
  24 H :    0.127622
  25 H :    0.109352
  26 H :    0.102974
  27 H :    0.104302
  28 H :    0.281705

  Mayer bond orders larger than 0.100000
B(  0-C ,  1-C ) :   0.9301 B(  0-C ,  4-O ) :   0.9343 B(  0-C ,  5-H ) :   0.9254
B(  0-C , 15-O ) :   0.8335 B(  1-C ,  2-C ) :   0.9498 B(  1-C ,  6-H ) :   0.9334
B(  1-C ,  7-H ) :   0.9278 B(  2-C ,  3-C ) :   0.9520 B(  2-C ,  8-H ) :   0.9455
B(  2-C ,  9-H ) :   0.9385 B(  3-C ,  4-O ) :   0.8388 B(  3-C , 10-H ) :   0.9334
B(  3-C , 11-H ) :   0.9390 B( 12-C , 13-H ) :   0.9085 B( 12-C , 14-H ) :   0.9171
B( 12-C , 15-O ) :   0.8323 B( 12-C , 16-C ) :   0.9028 B( 16-C , 17-C ) :   0.9129
B( 16-C , 20-O ) :   0.8426 B( 16-C , 21-H ) :   0.9237 B( 17-C , 18-C ) :   0.9104
B( 17-C , 22-O ) :   0.8931 B( 17-C , 23-H ) :   0.9219 B( 18-C , 19-C ) :   0.9415
B( 18-C , 24-H ) :   0.9370 B( 18-C , 25-H ) :   0.9297 B( 19-C , 20-O ) :   0.8443
B( 19-C , 26-H ) :   0.9352 B( 19-C , 27-H ) :   0.9372 B( 22-O , 28-H ) :   0.7955

FINAL SINGLE POINT ENERGY      -652.856880985251

DIPOLE MOMENT
-------------
                                X             Y             Z
Electronic contribution:     -4.52472      -5.36351      -0.06695
Nuclear contribution   :      5.65035       6.76467      -0.54494
                        -----------------------------------------
Total Dipole Moment    :      1.12564       1.40116      -0.61190
                        -----------------------------------------
Magnitude (a.u.)       :      1.89861
Magnitude (Debye)      :      4.82588

Rotational constants in cm-1:     0.048236     0.014546     0.014188
Rotational constants in MHz :  1446.074238   436.078795   425.337477

                             ****ORCA TERMINATED NORMALLY****
TOTAL RUN TIME: 0 days 0 hours 27 minutes 37 seconds 413 msec
