                         Program Version 4.2.0 -  RELEASE  -
|  1> # Test redundant internal optimization
|  2> #
|  3> ! RKS B3LYP  Opt TightSCF SmallPrint
|  4>
|  5> %basis
|  6>         Basis "6-31G"
|  7> end
|  8>
|  9> %geom
| 10> Constraints
| 11> { D 4  0  15  12  225.0   C } # D for Dihedral angle
| 12> { D 0  15  12  16  90.0   C } # D for Dihedral angle
| 13> { D 0  4  3  2   C } # D for Dihedral angle
| 14> { D 4  3  2  1   C } # D for Dihedral angle
| 15> { D 3  2  1  0   C } # D for Dihedral angle
| 16> { D 2  1  0  4   C } # D for Dihedral angle
| 17> { D 1  0  4  3   C } # D for Dihedral angle
| 18> { D 16  20  19  18   C } # D for Dihedral angle
| 19> { D 20  19  18  17   C } # D for Dihedral angle
| 20> { D 19  18  17  16   C } # D for Dihedral angle
| 21> { D 18  17  16  20   C } # D for Dihedral angle
| 22> { D 17  16  20  19   C } # D for Dihedral angle
| 23> { D 15  12  16  20   C } # D for Dihedral angle
| 24> end
| 25> end
| 26>
| 27>
| 28> #%pal
| 29> #nprocs 8
| 30> #end
| 31>
| 32> * xyz 0 1
| 33> C  -21.048   26.222   46.251
| 34> C  -20.361   27.558   45.944
| 35> C  -20.329   28.222   47.341
| 36> C  -20.110   27.022   48.296
| 37> O  -20.473   25.807   47.535
| 38> H  -20.833   25.428   45.533
| 39> H  -19.344   27.382   45.576
| 40> H  -20.898   28.157   45.201
| 41> H  -19.543   28.978   47.434
| 42> H  -21.289   28.710   47.548
| 43> H  -20.733   27.082   49.195
| 44> H  -19.064   26.913   48.597
| 45> C  -23.415   25.773   45.218
| 46> H  -24.332   26.358   45.075
| 47> H  -22.844   25.796   44.281
| 48> O  -22.586   26.394   46.375
| 49> C  -23.816   24.297   45.491
| 50> C  -24.762   24.190   46.693
| 51> C  -26.114   24.603   46.066
| 52> C  -26.027   24.025   44.631
| 53> O  -24.596   23.761   44.370
| 54> H  -22.913   23.690   45.571
| 55> H  -24.801   23.155   47.050
| 56> O  -24.345   25.101   47.880
| 57> H  -26.975   24.216   46.620
| 58> H  -26.198   25.696   46.038
| 59> H  -26.407   24.720   43.875
| 60> H  -26.554   23.073   44.532
| 61> H  -24.299   26.144   47.546
| 62> *
| 63>
| 64>                          ****END OF INPUT****
 Total Charge           Charge          ....    0
 Multiplicity           Mult            ....    1
 Number of Electrons    NEL             ....  102
FINAL SINGLE POINT ENERGY      -652.829482652395
FINAL SINGLE POINT ENERGY      -652.854257587044
FINAL SINGLE POINT ENERGY      -652.860411649483
FINAL SINGLE POINT ENERGY      -652.862915560601
FINAL SINGLE POINT ENERGY      -652.864428340333
FINAL SINGLE POINT ENERGY      -652.865434489154
FINAL SINGLE POINT ENERGY      -652.865950520641
FINAL SINGLE POINT ENERGY      -652.866082002085
FINAL SINGLE POINT ENERGY      -652.866100190958
FINAL SINGLE POINT ENERGY      -652.866104240212
                    ***********************HURRAY********************

CARTESIAN COORDINATES (ANGSTROEM)
---------------------------------
  C    -21.097599   26.180273   46.202171
  C    -20.387493   27.503072   45.925492
  C    -20.454727   28.196188   47.306165
  C    -20.312581   27.019870   48.294098
  O    -20.631889   25.796542   47.503174
  H    -20.868010   25.364071   45.512225
  H    -19.349128   27.301789   45.636623
  H    -20.868065   28.079199   45.130857
  H    -19.670511   28.947488   47.437495
  H    -21.425857   28.685914   47.425113
  H    -21.001744   27.074587   49.139784
  H    -19.291549   26.890645   48.663328
  C    -23.340795   25.809264   45.157712
  H    -24.198670   26.474563   45.034787
  H    -22.769426   25.805228   44.221781
  O    -22.546546   26.389619   46.251592
  C    -23.782022   24.383356   45.508088
  C    -24.715035   24.281654   46.727402
  C    -26.085757   24.680433   46.109422
  C    -26.013894   24.091247   44.686103
  O    -24.568688   23.831978   44.406228
  H    -22.901644   23.741430   45.615984
  H    -24.751549   23.234574   47.051081
  O    -24.357467   25.085131   47.867842
  H    -26.923065   24.285303   46.690675
  H    -26.165887   25.772844   46.105130
  H    -26.403658   24.763909   43.915531
  H    -26.523025   23.127045   44.602246
  H    -23.602719   25.675786   47.634870

 Multiplicity           Mult            ....    1
 Number of Electrons    NEL             ....  102
 Basis Dimension        Dim             ....  149

ORBITAL ENERGIES
----------------

  NO   OCC          E(Eh)            E(eV)
   0   2.0000     -19.162850      -521.4477
   1   2.0000     -19.151506      -521.1390
   2   2.0000     -19.140125      -520.8293
   3   2.0000     -19.108800      -519.9769
   4   2.0000     -10.292637      -280.0769
   5   2.0000     -10.240520      -278.6587
   6   2.0000     -10.233213      -278.4599
   7   2.0000     -10.232592      -278.4430
   8   2.0000     -10.228258      -278.3251
   9   2.0000     -10.225906      -278.2611
  10   2.0000     -10.194521      -277.4070
  11   2.0000     -10.192984      -277.3652
  12   2.0000     -10.177638      -276.9476
  13   2.0000      -1.065573       -28.9957
  14   2.0000      -1.024684       -27.8831
  15   2.0000      -1.007263       -27.4090
  16   2.0000      -0.988875       -26.9087
  17   2.0000      -0.795467       -21.6458
  18   2.0000      -0.771725       -20.9997
  19   2.0000      -0.766162       -20.8483
  20   2.0000      -0.738062       -20.0837
  21   2.0000      -0.679762       -18.4973
  22   2.0000      -0.608138       -16.5483
  23   2.0000      -0.603290       -16.4164
  24   2.0000      -0.594521       -16.1778
  25   2.0000      -0.577966       -15.7272
  26   2.0000      -0.528410       -14.3788
  27   2.0000      -0.523023       -14.2322
  28   2.0000      -0.497248       -13.5308
  29   2.0000      -0.487832       -13.2746
  30   2.0000      -0.470738       -12.8094
  31   2.0000      -0.458628       -12.4799
  32   2.0000      -0.451222       -12.2784
  33   2.0000      -0.433506       -11.7963
  34   2.0000      -0.425843       -11.5878
  35   2.0000      -0.412480       -11.2241
  36   2.0000      -0.409222       -11.1355
  37   2.0000      -0.384534       -10.4637
  38   2.0000      -0.382131       -10.3983
  39   2.0000      -0.368599       -10.0301
  40   2.0000      -0.364668        -9.9231
  41   2.0000      -0.362618        -9.8673
  42   2.0000      -0.346882        -9.4391
  43   2.0000      -0.340710        -9.2712
  44   2.0000      -0.327027        -8.8989
  45   2.0000      -0.321351        -8.7444
  46   2.0000      -0.289548        -7.8790
  47   2.0000      -0.277191        -7.5428
  48   2.0000      -0.265908        -7.2357
  49   2.0000      -0.242744        -6.6054
  50   2.0000      -0.239140        -6.5073
  51   0.0000       0.057247         1.5578
  52   0.0000       0.080916         2.2018
  53   0.0000       0.091927         2.5015
  54   0.0000       0.097849         2.6626
  55   0.0000       0.104235         2.8364

MULLIKEN ATOMIC CHARGES
-----------------------
   0 C :    0.288045
   1 C :   -0.254123
   2 C :   -0.303089
   3 C :   -0.009137
   4 O :   -0.501983
   5 H :    0.151402
   6 H :    0.148687
   7 H :    0.149587
   8 H :    0.146787
   9 H :    0.165474
  10 H :    0.161288
  11 H :    0.148015
  12 C :   -0.049338
  13 H :    0.163572
  14 H :    0.154209
  15 O :   -0.538882
  16 C :    0.049986
  17 C :    0.129555
  18 C :   -0.305709
  19 C :   -0.020181
  20 O :   -0.521755
  21 H :    0.158688
  22 H :    0.145673
  23 O :   -0.642806
  24 H :    0.151543
  25 H :    0.149088
  26 H :    0.140842
  27 H :    0.149914
  28 H :    0.394646
Sum of atomic charges:   -0.0000000

LOEWDIN ATOMIC CHARGES
----------------------
   0 C :    0.176371
   1 C :   -0.221595
   2 C :   -0.216792
   3 C :   -0.026234
   4 O :   -0.308319
   5 H :    0.103654
   6 H :    0.115666
   7 H :    0.119529
   8 H :    0.117006
   9 H :    0.120720
  10 H :    0.112501
  11 H :    0.105995
  12 C :   -0.048753
  13 H :    0.116263
  14 H :    0.108855
  15 O :   -0.340168
  16 C :    0.006232
  17 C :    0.044111
  18 C :   -0.236783
  19 C :   -0.032366
  20 O :   -0.326138
  21 H :    0.112752
  22 H :    0.103602
  23 O :   -0.435308
  24 H :    0.121590
  25 H :    0.112518
  26 H :    0.101229
  27 H :    0.106252
  28 H :    0.287612

  Mayer bond orders larger than 0.100000
B(  0-C ,  1-C ) :   0.9402 B(  0-C ,  4-O ) :   0.9438 B(  0-C ,  5-H ) :   0.9181
B(  0-C , 15-O ) :   0.7926 B(  1-C ,  2-C ) :   0.9535 B(  1-C ,  6-H ) :   0.9346
B(  1-C ,  7-H ) :   0.9377 B(  2-C ,  3-C ) :   0.9542 B(  2-C ,  8-H ) :   0.9444
B(  2-C ,  9-H ) :   0.9431 B(  3-C ,  4-O ) :   0.8271 B(  3-C , 10-H ) :   0.9337
B(  3-C , 11-H ) :   0.9396 B( 12-C , 13-H ) :   0.9357 B( 12-C , 14-H ) :   0.9268
B( 12-C , 15-O ) :   0.8056 B( 12-C , 16-C ) :   0.8841 B( 16-C , 17-C ) :   0.9155
B( 16-C , 20-O ) :   0.8546 B( 16-C , 21-H ) :   0.9287 B( 17-C , 18-C ) :   0.9038
B( 17-C , 22-H ) :   0.9289 B( 17-C , 23-O ) :   0.9342 B( 18-C , 19-C ) :   0.9389
B( 18-C , 24-H ) :   0.9448 B( 18-C , 25-H ) :   0.9427 B( 19-C , 20-O ) :   0.8304
B( 19-C , 26-H ) :   0.9347 B( 19-C , 27-H ) :   0.9387 B( 23-O , 28-H ) :   0.7215

FINAL SINGLE POINT ENERGY      -652.866105498906

DIPOLE MOMENT
-------------
                                X             Y             Z
Electronic contribution:      0.07756      -3.70467       0.43136
Nuclear contribution   :      0.45567       4.78618      -1.13859
                        -----------------------------------------
Total Dipole Moment    :      0.53323       1.08151      -0.70723
                        -----------------------------------------
Magnitude (a.u.)       :      1.39792
Magnitude (Debye)      :      3.55323

Rotational constants in cm-1:     0.062488     0.013392     0.012299
Rotational constants in MHz :  1873.337882   401.496636   368.722394

                             ****ORCA TERMINATED NORMALLY****
TOTAL RUN TIME: 0 days 0 hours 35 minutes 21 seconds 785 msec
