                         Program Version 4.2.0 -  RELEASE  -
|  1> # Test redundant internal optimization
|  2> #
|  3> ! RKS B3LYP  Opt TightSCF SmallPrint
|  4>
|  5> %basis
|  6>         Basis "6-31G"
|  7> end
|  8>
|  9> %geom
| 10> Constraints
| 11> { D 4  0  15  12  300.0   C } # D for Dihedral angle
| 12> { D 0  15  12  16  240.0   C } # D for Dihedral angle
| 13> { D 0  4  3  2   C } # D for Dihedral angle
| 14> { D 4  3  2  1   C } # D for Dihedral angle
| 15> { D 3  2  1  0   C } # D for Dihedral angle
| 16> { D 2  1  0  4   C } # D for Dihedral angle
| 17> { D 1  0  4  3   C } # D for Dihedral angle
| 18> { D 16  20  19  18   C } # D for Dihedral angle
| 19> { D 20  19  18  17   C } # D for Dihedral angle
| 20> { D 19  18  17  16   C } # D for Dihedral angle
| 21> { D 18  17  16  20   C } # D for Dihedral angle
| 22> { D 17  16  20  19   C } # D for Dihedral angle
| 23> { D 15  12  16  20   C } # D for Dihedral angle
| 24> end
| 25> end
| 26>
| 27>
| 28> #%pal
| 29> #nprocs 8
| 30> #end
| 31>
| 32> * xyz 0 1
| 33> C  -21.048   26.222   46.251
| 34> C  -20.361   27.558   45.944
| 35> C  -20.329   28.222   47.341
| 36> C  -20.110   27.022   48.296
| 37> O  -20.473   25.807   47.535
| 38> H  -20.833   25.428   45.533
| 39> H  -19.344   27.382   45.576
| 40> H  -20.898   28.157   45.201
| 41> H  -19.543   28.978   47.434
| 42> H  -21.289   28.710   47.548
| 43> H  -20.733   27.082   49.195
| 44> H  -19.064   26.913   48.597
| 45> C  -23.362   25.116   46.798
| 46> H  -22.651   24.294   46.946
| 47> H  -23.893   25.285   47.743
| 48> O  -22.586   26.394   46.375
| 49> C  -24.409   24.672   45.740
| 50> C  -25.233   23.480   46.239
| 51> C  -26.249   24.173   47.179
| 52> C  -26.516   25.525   46.472
| 53> O  -25.400   25.731   45.523
| 54> H  -23.905   24.505   44.785
| 55> H  -25.749   23.000   45.399
| 56> O  -24.377   22.407   46.965
| 57> H  -27.164   23.588   47.320
| 58> H  -25.799   24.335   48.165
| 59> H  -26.549   26.366   47.174
| 60> H  -27.439   25.516   45.887
| 61> H  -23.851   22.864   47.811
| 62> *
| 63>
| 64>                          ****END OF INPUT****
 Total Charge           Charge          ....    0
 Multiplicity           Mult            ....    1
 Number of Electrons    NEL             ....  102
FINAL SINGLE POINT ENERGY      -652.831015530930
FINAL SINGLE POINT ENERGY      -652.855422081550
FINAL SINGLE POINT ENERGY      -652.859874762087
FINAL SINGLE POINT ENERGY      -652.860714683419
FINAL SINGLE POINT ENERGY      -652.860861332566
FINAL SINGLE POINT ENERGY      -652.860886248895
FINAL SINGLE POINT ENERGY      -652.860890170564
                    ***********************HURRAY********************

CARTESIAN COORDINATES (ANGSTROEM)
---------------------------------
  C    -21.092658   26.150110   46.264332
  C    -20.501274   27.518705   45.926664
  C    -20.443485   28.187421   47.317362
  C    -20.112136   27.011619   48.263223
  O    -20.444686   25.775125   47.506696
  H    -20.874109   25.341227   45.559754
  H    -19.497500   27.384128   45.508214
  H    -21.118743   28.064803   45.210783
  H    -19.695572   28.984843   47.370551
  H    -21.421941   28.612231   47.558473
  H    -20.694183   27.028010   49.188425
  H    -19.047776   26.948887   48.508720
  C    -23.245252   25.146443   46.874923
  H    -22.553253   24.314761   47.051371
  H    -23.715768   25.411523   47.829641
  O    -22.515781   26.324511   46.417367
  C    -24.290742   24.741605   45.837730
  C    -25.144254   23.533760   46.260618
  C    -26.227530   24.206106   47.158251
  C    -26.447965   25.567147   46.461509
  O    -25.270293   25.794953   45.585925
  H    -23.784527   24.571554   44.882243
  H    -25.605561   23.088999   45.376477
  O    -24.421375   22.442673   46.879699
  H    -27.139689   23.607366   47.224380
  H    -25.832427   24.333619   48.175143
  H    -26.534018   26.399205   47.167553
  H    -27.330485   25.561579   45.814775
  H    -24.154019   22.679088   47.791197

 Multiplicity           Mult            ....    1
 Number of Electrons    NEL             ....  102
 Basis Dimension        Dim             ....  149

ORBITAL ENERGIES
----------------

  NO   OCC          E(Eh)            E(eV)
   0   2.0000     -19.148727      -521.0633
   1   2.0000     -19.139764      -520.8195
   2   2.0000     -19.139140      -520.8025
   3   2.0000     -19.134382      -520.6730
   4   2.0000     -10.275164      -279.6014
   5   2.0000     -10.243885      -278.7503
   6   2.0000     -10.228832      -278.3407
   7   2.0000     -10.228218      -278.3239
   8   2.0000     -10.225667      -278.2546
   9   2.0000     -10.224111      -278.2122
  10   2.0000     -10.194694      -277.4117
  11   2.0000     -10.182314      -277.0748
  12   2.0000     -10.181567      -277.0545
  13   2.0000      -1.051920       -28.6242
  14   2.0000      -1.032037       -28.0831
  15   2.0000      -1.013561       -27.5804
  16   2.0000      -0.989607       -26.9286
  17   2.0000      -0.787059       -21.4170
  18   2.0000      -0.780306       -21.2332
  19   2.0000      -0.764050       -20.7909
  20   2.0000      -0.728717       -19.8294
  21   2.0000      -0.677396       -18.4329
  22   2.0000      -0.610142       -16.6028
  23   2.0000      -0.597730       -16.2650
  24   2.0000      -0.591071       -16.0839
  25   2.0000      -0.570292       -15.5184
  26   2.0000      -0.529904       -14.4194
  27   2.0000      -0.508114       -13.8265
  28   2.0000      -0.495939       -13.4952
  29   2.0000      -0.491280       -13.3684
  30   2.0000      -0.466998       -12.7077
  31   2.0000      -0.449290       -12.2258
  32   2.0000      -0.446578       -12.1520
  33   2.0000      -0.431086       -11.7304
  34   2.0000      -0.426450       -11.6043
  35   2.0000      -0.414072       -11.2675
  36   2.0000      -0.406165       -11.0523
  37   2.0000      -0.399521       -10.8715
  38   2.0000      -0.376538       -10.2461
  39   2.0000      -0.364200        -9.9104
  40   2.0000      -0.354502        -9.6465
  41   2.0000      -0.352987        -9.6053
  42   2.0000      -0.343505        -9.3472
  43   2.0000      -0.336054        -9.1445
  44   2.0000      -0.322760        -8.7827
  45   2.0000      -0.312720        -8.5095
  46   2.0000      -0.294572        -8.0157
  47   2.0000      -0.270323        -7.3559
  48   2.0000      -0.268101        -7.2954
  49   2.0000      -0.252890        -6.8815
  50   2.0000      -0.235007        -6.3949
  51   0.0000       0.053056         1.4437
  52   0.0000       0.078786         2.1439
  53   0.0000       0.090822         2.4714
  54   0.0000       0.096166         2.6168
  55   0.0000       0.106189         2.8896

MULLIKEN ATOMIC CHARGES
-----------------------
   0 C :    0.276220
   1 C :   -0.260557
   2 C :   -0.299282
   3 C :   -0.004649
   4 O :   -0.516045
   5 H :    0.144888
   6 H :    0.143755
   7 H :    0.164698
   8 H :    0.140365
   9 H :    0.164507
  10 H :    0.142583
  11 H :    0.143141
  12 C :   -0.019712
  13 H :    0.152272
  14 H :    0.131397
  15 O :   -0.508407
  16 C :    0.097694
  17 C :    0.085974
  18 C :   -0.329355
  19 C :   -0.009148
  20 O :   -0.504641
  21 H :    0.153062
  22 H :    0.166942
  23 O :   -0.600372
  24 H :    0.158562
  25 H :    0.135010
  26 H :    0.145236
  27 H :    0.148342
  28 H :    0.357521
Sum of atomic charges:    0.0000000

LOEWDIN ATOMIC CHARGES
----------------------
   0 C :    0.170390
   1 C :   -0.213820
   2 C :   -0.216244
   3 C :   -0.028643
   4 O :   -0.334809
   5 H :    0.095897
   6 H :    0.113601
   7 H :    0.128100
   8 H :    0.113102
   9 H :    0.120291
  10 H :    0.103032
  11 H :    0.102805
  12 C :   -0.051642
  13 H :    0.111861
  14 H :    0.099317
  15 O :   -0.316387
  16 C :    0.015750
  17 C :    0.033939
  18 C :   -0.242981
  19 C :   -0.030084
  20 O :   -0.314865
  21 H :    0.114525
  22 H :    0.119436
  23 O :   -0.407487
  24 H :    0.122773
  25 H :    0.104492
  26 H :    0.103535
  27 H :    0.105492
  28 H :    0.278623

  Mayer bond orders larger than 0.100000
B(  0-C ,  1-C ) :   0.9506 B(  0-C ,  4-O ) :   0.8932 B(  0-C ,  5-H ) :   0.9188
B(  0-C , 15-O ) :   0.8742 B(  1-C ,  2-C ) :   0.9555 B(  1-C ,  6-H ) :   0.9403
B(  1-C ,  7-H ) :   0.9347 B(  2-C ,  3-C ) :   0.9561 B(  2-C ,  8-H ) :   0.9452
B(  2-C ,  9-H ) :   0.9439 B(  3-C ,  4-O ) :   0.8369 B(  3-C , 10-H ) :   0.9365
B(  3-C , 11-H ) :   0.9405 B( 12-C , 13-H ) :   0.9025 B( 12-C , 14-H ) :   0.9344
B( 12-C , 15-O ) :   0.8362 B( 12-C , 16-C ) :   0.8998 B( 16-C , 17-C ) :   0.8717
B( 16-C , 20-O ) :   0.8669 B( 16-C , 21-H ) :   0.9322 B( 17-C , 18-C ) :   0.9230
B( 17-C , 22-H ) :   0.9328 B( 17-C , 23-O ) :   0.8968 B( 18-C , 19-C ) :   0.9399
B( 18-C , 24-H ) :   0.9417 B( 18-C , 25-H ) :   0.9403 B( 19-C , 20-O ) :   0.8516
B( 19-C , 26-H ) :   0.9312 B( 19-C , 27-H ) :   0.9379 B( 23-O , 28-H ) :   0.7973

FINAL SINGLE POINT ENERGY      -652.860890413034

DIPOLE MOMENT
-------------
                                X             Y             Z
Electronic contribution:     -0.58375      -2.99871      -2.28553
Nuclear contribution   :      0.45452       3.35507       3.04498
                        -----------------------------------------
Total Dipole Moment    :     -0.12922       0.35636       0.75945
                        -----------------------------------------
Magnitude (a.u.)       :      0.84880
Magnitude (Debye)      :      2.15747

Rotational constants in cm-1:     0.055201     0.012498     0.011411
Rotational constants in MHz :  1654.869751   374.691061   342.082789

                             ****ORCA TERMINATED NORMALLY****
TOTAL RUN TIME: 0 days 1 hours 5 minutes 13 seconds 654 msec
