                         Program Version 4.2.1 -  RELEASE  -
|  1> # Test redundant internal optimization
|  2> #
|  3> ! RKS B3LYP  Opt TightSCF SmallPrint
|  4>
|  5> %basis
|  6>         Basis "6-31G"
|  7> end
|  8>
|  9> %geom
| 10> Constraints
| 11> { D 4  0  19  14  330.0   C } # D for Dihedral angle
| 12> { D 0  19  14  12  270.0   C } # D for Dihedral angle
| 13> { D 0  4  3  2   C } # D for Dihedral angle
| 14> { D 4  3  2  1   C } # D for Dihedral angle
| 15> { D 3  2  1  0   C } # D for Dihedral angle
| 16> { D 2  1  0  4   C } # D for Dihedral angle
| 17> { D 1  0  4  3   C } # D for Dihedral angle
| 18> { D 14  15  16  17   C } # D for Dihedral angle
| 19> { D 15  16  17  12   C } # D for Dihedral angle
| 20> { D 16  17  12  14   C } # D for Dihedral angle
| 21> { D 17  12  14  15   C } # D for Dihedral angle
| 22> { D 12  14  15  16   C } # D for Dihedral angle
| 23> end
| 24> end
| 25>
| 26>
| 27> #%pal
| 28> #nprocs 8
| 29> #end
| 30>
| 31> * xyz 0 1
| 32> C  -21.048   26.222   46.251
| 33> C  -20.361   27.558   45.944
| 34> C  -20.329   28.222   47.341
| 35> C  -20.110   27.022   48.296
| 36> O  -20.473   25.807   47.535
| 37> H  -20.833   25.428   45.533
| 38> H  -19.344   27.382   45.576
| 39> H  -20.898   28.157   45.201
| 40> H  -19.543   28.978   47.434
| 41> H  -21.289   28.710   47.548
| 42> H  -20.733   27.082   49.195
| 43> H  -19.064   26.913   48.597
| 44> C  -23.506   24.201   46.688
| 45> H  -24.225   23.653   47.317
| 46> C  -23.087   25.523   47.341
| 47> C  -22.047   25.045   48.381
| 48> C  -21.353   23.859   47.665
| 49> O  -22.254   23.446   46.565
| 50> H  -23.917   24.303   45.682
| 51> O  -22.472   26.381   46.366
| 52> H  -23.925   26.063   47.795
| 53> H  -21.341   25.830   48.668
| 54> H  -22.555   24.702   49.291
| 55> H  -21.186   23.005   48.331
| 56> H  -20.400   24.145   47.210
| 57> *
| 58>
| 59>                          ****END OF INPUT****
 Total Charge           Charge          ....    0
 Multiplicity           Mult            ....    1
 Number of Electrons    NEL             ....   86
FINAL SINGLE POINT ENERGY      -538.276489544943
FINAL SINGLE POINT ENERGY      -538.340507815082
FINAL SINGLE POINT ENERGY      -538.377648547502
FINAL SINGLE POINT ENERGY      -538.399793146331
FINAL SINGLE POINT ENERGY      -538.413105858418
FINAL SINGLE POINT ENERGY      -538.420908373502
FINAL SINGLE POINT ENERGY      -538.425004495693
FINAL SINGLE POINT ENERGY      -538.426625888308
FINAL SINGLE POINT ENERGY      -538.427025454517
FINAL SINGLE POINT ENERGY      -538.427219143440
FINAL SINGLE POINT ENERGY      -538.427333015236
FINAL SINGLE POINT ENERGY      -538.427371858749
FINAL SINGLE POINT ENERGY      -538.427388872233
FINAL SINGLE POINT ENERGY      -538.427393898432
                    ***********************HURRAY********************

CARTESIAN COORDINATES (ANGSTROEM)
---------------------------------
  C    -20.870155   26.362739   46.175042
  C    -20.493258   27.819402   45.900148
  C    -20.291384   28.368387   47.331332
  C    -19.688131   27.165636   48.090093
  O    -19.999677   25.966841   47.260937
  H    -20.638569   25.663640   45.366233
  H    -19.557112   27.843932   45.330689
  H    -21.269696   28.344416   45.340919
  H    -19.637844   29.245379   47.360420
  H    -21.260281   28.646155   47.756671
  H    -20.112053   27.031309   49.089884
  H    -18.597873   27.210887   48.168209
  C    -23.440265   24.140633   46.575910
  H    -24.348244   23.704795   47.020671
  C    -23.023473   25.408138   47.323170
  C    -22.318637   24.821017   48.559384
  C    -21.627200   23.547918   48.017050
  O    -22.299679   23.229483   46.726418
  H    -23.597804   24.312768   45.510783
  O    -22.296432   26.311272   46.425441
  H    -23.890538   26.011967   47.608121
  H    -21.623268   25.509827   49.036118
  H    -23.096820   24.561390   49.287440
  H    -21.741270   22.689838   48.689903
  H    -20.573336   23.719231   47.800016

 Multiplicity           Mult            ....    1
 Number of Electrons    NEL             ....   86
 Basis Dimension        Dim             ....  127

ORBITAL ENERGIES
----------------

  NO   OCC          E(Eh)            E(eV)
   0   2.0000     -19.149790      -521.0923
   1   2.0000     -19.135218      -520.6957
   2   2.0000     -19.122663      -520.3541
   3   2.0000     -10.278719      -279.6982
   4   2.0000     -10.238899      -278.6146
   5   2.0000     -10.232751      -278.4473
   6   2.0000     -10.213470      -277.9226
   7   2.0000     -10.208852      -277.7970
   8   2.0000     -10.189363      -277.2667
   9   2.0000     -10.184781      -277.1420
  10   2.0000     -10.182063      -277.0680
  11   2.0000      -1.050766       -28.5928
  12   2.0000      -1.006428       -27.3863
  13   2.0000      -0.985360       -26.8130
  14   2.0000      -0.794000       -21.6058
  15   2.0000      -0.776719       -21.1356
  16   2.0000      -0.739038       -20.1102
  17   2.0000      -0.717697       -19.5295
  18   2.0000      -0.619584       -16.8597
  19   2.0000      -0.601144       -16.3580
  20   2.0000      -0.591907       -16.1066
  21   2.0000      -0.560519       -15.2525
  22   2.0000      -0.513887       -13.9836
  23   2.0000      -0.496839       -13.5197
  24   2.0000      -0.487350       -13.2615
  25   2.0000      -0.486099       -13.2274
  26   2.0000      -0.447126       -12.1669
  27   2.0000      -0.443030       -12.0555
  28   2.0000      -0.416582       -11.3358
  29   2.0000      -0.412252       -11.2180
  30   2.0000      -0.400992       -10.9116
  31   2.0000      -0.386476       -10.5165
  32   2.0000      -0.373189       -10.1550
  33   2.0000      -0.366045        -9.9606
  34   2.0000      -0.360401        -9.8070
  35   2.0000      -0.352141        -9.5823
  36   2.0000      -0.339688        -9.2434
  37   2.0000      -0.326698        -8.8899
  38   2.0000      -0.299948        -8.1620
  39   2.0000      -0.297346        -8.0912
  40   2.0000      -0.262563        -7.1447
  41   2.0000      -0.252962        -6.8834
  42   2.0000      -0.225364        -6.1325
  43   0.0000       0.073414         1.9977
  44   0.0000       0.091192         2.4815
  45   0.0000       0.101930         2.7736
  46   0.0000       0.108680         2.9573
  47   0.0000       0.119951         3.2640

MULLIKEN ATOMIC CHARGES
-----------------------
   0 C :    0.316174
   1 C :   -0.257995
   2 C :   -0.302700
   3 C :   -0.020101
   4 O :   -0.514636
   5 H :    0.160409
   6 H :    0.145651
   7 H :    0.161274
   8 H :    0.144031
   9 H :    0.157872
  10 H :    0.139504
  11 H :    0.153457
  12 C :   -0.004994
  13 H :    0.118194
  14 C :    0.092204
  15 C :   -0.302755
  16 C :   -0.017008
  17 O :   -0.528359
  18 H :    0.161772
  19 O :   -0.551534
  20 H :    0.143620
  21 H :    0.154804
  22 H :    0.139821
  23 H :    0.128422
  24 H :    0.182873
Sum of atomic charges:   -0.0000000

LOEWDIN ATOMIC CHARGES
----------------------
   0 C :    0.186616
   1 C :   -0.215505
   2 C :   -0.217424
   3 C :   -0.033991
   4 O :   -0.319116
   5 H :    0.103051
   6 H :    0.114054
   7 H :    0.126787
   8 H :    0.115672
   9 H :    0.116777
  10 H :    0.098022
  11 H :    0.107208
  12 C :   -0.046357
  13 H :    0.088397
  14 C :    0.049228
  15 C :   -0.233972
  16 C :   -0.037708
  17 O :   -0.338274
  18 H :    0.118296
  19 O :   -0.342183
  20 H :    0.109124
  21 H :    0.123731
  22 H :    0.113239
  23 H :    0.094150
  24 H :    0.120178

  Mayer bond orders larger than 0.100000
B(  0-C ,  1-C ) :   0.9369 B(  0-C ,  4-O ) :   0.8908 B(  0-C ,  5-H ) :   0.9233
B(  0-C , 19-O ) :   0.8456 B(  1-C ,  2-C ) :   0.9555 B(  1-C ,  6-H ) :   0.9379
B(  1-C ,  7-H ) :   0.9363 B(  2-C ,  3-C ) :   0.9564 B(  2-C ,  8-H ) :   0.9445
B(  2-C ,  9-H ) :   0.9445 B(  3-C ,  4-O ) :   0.8331 B(  3-C , 10-H ) :   0.9255
B(  3-C , 11-H ) :   0.9393 B( 12-C , 13-H ) :   0.9116 B( 12-C , 14-C ) :   0.9139
B( 12-C , 17-O ) :   0.8734 B( 12-C , 18-H ) :   0.9330 B( 14-C , 15-C ) :   0.9457
B( 14-C , 19-O ) :   0.8552 B( 14-C , 20-H ) :   0.9346 B( 15-C , 16-C ) :   0.9477
B( 15-C , 21-H ) :   0.9262 B( 15-C , 22-H ) :   0.9327 B( 16-C , 17-O ) :   0.8470
B( 16-C , 23-H ) :   0.9334 B( 16-C , 24-H ) :   0.9193

FINAL SINGLE POINT ENERGY      -538.427396928747

DIPOLE MOMENT
-------------
                                X             Y             Z
Electronic contribution:     -0.74046      -2.93139      -2.65097
Nuclear contribution   :      0.78004       4.07470       3.38438
                        -----------------------------------------
Total Dipole Moment    :      0.03958       1.14331       0.73340
                        -----------------------------------------
Magnitude (a.u.)       :      1.35890
Magnitude (Debye)      :      3.45404

Rotational constants in cm-1:     0.074105     0.025902     0.023429
Rotational constants in MHz :  2221.605430   776.517988   702.373053

                             ****ORCA TERMINATED NORMALLY****
TOTAL RUN TIME: 0 days 0 hours 18 minutes 57 seconds 269 msec
