                         Program Version 4.2.0 -  RELEASE  -
|  1> # Test redundant internal optimization
|  2> #
|  3> ! RKS B3LYP  Opt TightSCF SmallPrint
|  4>
|  5> %basis
|  6>         Basis "6-31G"
|  7> end
|  8>
|  9> %geom
| 10> Constraints
| 11> { D 4  0  15  12  270.0   C } # D for Dihedral angle
| 12> { D 0  15  12  16  45.0   C } # D for Dihedral angle
| 13> { D 0  4  3  2   C } # D for Dihedral angle
| 14> { D 4  3  2  1   C } # D for Dihedral angle
| 15> { D 3  2  1  0   C } # D for Dihedral angle
| 16> { D 2  1  0  4   C } # D for Dihedral angle
| 17> { D 1  0  4  3   C } # D for Dihedral angle
| 18> { D 16  20  19  18   C } # D for Dihedral angle
| 19> { D 20  19  18  17   C } # D for Dihedral angle
| 20> { D 19  18  17  16   C } # D for Dihedral angle
| 21> { D 18  17  16  20   C } # D for Dihedral angle
| 22> { D 17  16  20  19   C } # D for Dihedral angle
| 23> { D 15  12  16  20   C } # D for Dihedral angle
| 24> end
| 25> end
| 26>
| 27>
| 28> #%pal
| 29> #nprocs 8
| 30> #end
| 31>
| 32> * xyz 0 1
| 33> C  -21.048   26.222   46.251
| 34> C  -20.361   27.558   45.944
| 35> C  -20.329   28.222   47.341
| 36> C  -20.110   27.022   48.296
| 37> O  -20.473   25.807   47.535
| 38> H  -20.833   25.428   45.533
| 39> H  -19.344   27.382   45.576
| 40> H  -20.898   28.157   45.201
| 41> H  -19.543   28.978   47.434
| 42> H  -21.289   28.710   47.548
| 43> H  -20.733   27.082   49.195
| 44> H  -19.064   26.913   48.597
| 45> C  -23.420   25.119   46.072
| 46> H  -24.446   25.264   46.432
| 47> H  -23.458   24.933   44.991
| 48> O  -22.586   26.394   46.375
| 49> C  -22.839   23.847   46.750
| 50> C  -23.617   22.592   46.338
| 51> C  -23.026   22.303   44.937
| 52> C  -21.543   22.725   45.088
| 53> O  -21.472   23.595   46.282
| 54> H  -22.783   24.010   47.828
| 55> O  -23.305   21.426   47.315
| 56> H  -24.701   22.746   46.317
| 57> H  -23.133   21.255   44.639
| 58> H  -23.528   22.920   44.182
| 59> H  -21.174   23.280   44.218
| 60> H  -20.882   21.873   45.270
| 61> H  -22.224   21.255   47.351
| 62> *
| 63>
| 64>                          ****END OF INPUT****
 Total Charge           Charge          ....    0
 Multiplicity           Mult            ....    1
 Number of Electrons    NEL             ....  102
FINAL SINGLE POINT ENERGY      -652.828781215218
FINAL SINGLE POINT ENERGY      -652.852698059063
FINAL SINGLE POINT ENERGY      -652.857612244558
FINAL SINGLE POINT ENERGY      -652.860022694242
FINAL SINGLE POINT ENERGY      -652.860307635230
FINAL SINGLE POINT ENERGY      -652.860361558984
                    ***********************HURRAY********************

CARTESIAN COORDINATES (ANGSTROEM)
---------------------------------
  C    -20.900183   26.247988   46.213432
  C    -20.429718   27.685400   45.985515
  C    -20.494800   28.272005   47.416204
  C    -20.090758   27.071758   48.300655
  O    -20.271046   25.864051   47.459201
  H    -20.596322   25.509158   45.474339
  H    -19.398381   27.670830   45.614007
  H    -21.059845   28.218344   45.270528
  H    -19.831402   29.131771   47.551069
  H    -21.519258   28.585874   47.635849
  H    -20.709480   26.975501   49.197036
  H    -19.036398   27.096660   48.593193
  C    -23.172886   25.137489   46.085584
  H    -24.144981   25.398986   46.515331
  H    -23.300104   25.034338   44.995890
  O    -22.341469   26.299917   46.345722
  C    -22.714463   23.798321   46.673787
  C    -23.634711   22.619471   46.320173
  C    -23.108188   22.220738   44.915295
  C    -21.585560   22.483798   45.023449
  O    -21.392196   23.383560   46.189055
  H    -22.607240   23.905481   47.757079
  O    -23.485014   21.538324   47.279319
  H    -24.697448   22.867012   46.327598
  H    -23.347393   21.177560   44.695203
  H    -23.568635   22.849681   44.144881
  H    -21.174668   22.962663   44.128829
  H    -21.013200   21.572757   45.222454
  H    -22.536254   21.438565   47.505324

 Multiplicity           Mult            ....    1
 Number of Electrons    NEL             ....  102
 Basis Dimension        Dim             ....  149

ORBITAL ENERGIES
----------------

  NO   OCC          E(Eh)            E(eV)
   0   2.0000     -19.145291      -520.9699
   1   2.0000     -19.140010      -520.8262
   2   2.0000     -19.135962      -520.7160
   3   2.0000     -19.125714      -520.4371
   4   2.0000     -10.265698      -279.3438
   5   2.0000     -10.245732      -278.8006
   6   2.0000     -10.234281      -278.4890
   7   2.0000     -10.233389      -278.4647
   8   2.0000     -10.233299      -278.4622
   9   2.0000     -10.214326      -277.9459
  10   2.0000     -10.192252      -277.3453
  11   2.0000     -10.175956      -276.9018
  12   2.0000     -10.175819      -276.8981
  13   2.0000      -1.045081       -28.4381
  14   2.0000      -1.035019       -28.1643
  15   2.0000      -1.007680       -27.4204
  16   2.0000      -0.983734       -26.7687
  17   2.0000      -0.788253       -21.4495
  18   2.0000      -0.777985       -21.1701
  19   2.0000      -0.764001       -20.7895
  20   2.0000      -0.726100       -19.7582
  21   2.0000      -0.672464       -18.2987
  22   2.0000      -0.606234       -16.4965
  23   2.0000      -0.599516       -16.3137
  24   2.0000      -0.588008       -16.0005
  25   2.0000      -0.570927       -15.5357
  26   2.0000      -0.525204       -14.2915
  27   2.0000      -0.508182       -13.8283
  28   2.0000      -0.493971       -13.4416
  29   2.0000      -0.479488       -13.0475
  30   2.0000      -0.472583       -12.8596
  31   2.0000      -0.455571       -12.3967
  32   2.0000      -0.445920       -12.1341
  33   2.0000      -0.436937       -11.8896
  34   2.0000      -0.419458       -11.4140
  35   2.0000      -0.408829       -11.1248
  36   2.0000      -0.396075       -10.7778
  37   2.0000      -0.390380       -10.6228
  38   2.0000      -0.376187       -10.2366
  39   2.0000      -0.366185        -9.9644
  40   2.0000      -0.361075        -9.8254
  41   2.0000      -0.347300        -9.4505
  42   2.0000      -0.339495        -9.2381
  43   2.0000      -0.333958        -9.0875
  44   2.0000      -0.319357        -8.6901
  45   2.0000      -0.304885        -8.2963
  46   2.0000      -0.290311        -7.8998
  47   2.0000      -0.273802        -7.4505
  48   2.0000      -0.260897        -7.0994
  49   2.0000      -0.251780        -6.8513
  50   2.0000      -0.231941        -6.3114
  51   0.0000       0.061898         1.6843
  52   0.0000       0.084412         2.2970
  53   0.0000       0.091083         2.4785
  54   0.0000       0.099820         2.7162
  55   0.0000       0.107399         2.9225

MULLIKEN ATOMIC CHARGES
-----------------------
   0 C :    0.297847
   1 C :   -0.255601
   2 C :   -0.296003
   3 C :   -0.002756
   4 O :   -0.502105
   5 H :    0.157216
   6 H :    0.141058
   7 H :    0.147544
   8 H :    0.134671
   9 H :    0.159614
  10 H :    0.141881
  11 H :    0.138032
  12 C :    0.005626
  13 H :    0.151104
  14 H :    0.121842
  15 O :   -0.533342
  16 C :    0.046493
  17 C :    0.078053
  18 C :   -0.289543
  19 C :   -0.036338
  20 O :   -0.505613
  21 H :    0.179189
  22 O :   -0.601691
  23 H :    0.153743
  24 H :    0.161998
  25 H :    0.142666
  26 H :    0.142843
  27 H :    0.152910
  28 H :    0.368662
Sum of atomic charges:   -0.0000000

LOEWDIN ATOMIC CHARGES
----------------------
   0 C :    0.174450
   1 C :   -0.216735
   2 C :   -0.216205
   3 C :   -0.029865
   4 O :   -0.318435
   5 H :    0.107277
   6 H :    0.111521
   7 H :    0.119273
   8 H :    0.110145
   9 H :    0.117822
  10 H :    0.102476
  11 H :    0.100083
  12 C :   -0.038007
  13 H :    0.116908
  14 H :    0.088694
  15 O :   -0.330689
  16 C :    0.003058
  17 C :    0.036934
  18 C :   -0.240563
  19 C :   -0.041345
  20 O :   -0.317136
  21 H :    0.124744
  22 O :   -0.413121
  23 H :    0.116209
  24 H :    0.127079
  25 H :    0.112216
  26 H :    0.102017
  27 H :    0.105573
  28 H :    0.285622

  Mayer bond orders larger than 0.100000
B(  0-C ,  1-C ) :   0.9442 B(  0-C ,  4-O ) :   0.9056 B(  0-C ,  5-H ) :   0.9146
B(  0-C , 15-O ) :   0.8331 B(  1-C ,  2-C ) :   0.9567 B(  1-C ,  6-H ) :   0.9413
B(  1-C ,  7-H ) :   0.9380 B(  2-C ,  3-C ) :   0.9536 B(  2-C ,  8-H ) :   0.9463
B(  2-C ,  9-H ) :   0.9444 B(  3-C ,  4-O ) :   0.8472 B(  3-C , 10-H ) :   0.9359
B(  3-C , 11-H ) :   0.9402 B( 12-C , 13-H ) :   0.9292 B( 12-C , 14-H ) :   0.9228
B( 12-C , 15-O ) :   0.8681 B( 12-C , 16-C ) :   0.8925 B( 16-C , 17-C ) :   0.8942
B( 16-C , 20-O ) :   0.8479 B( 16-C , 21-H ) :   0.9188 B( 17-C , 18-C ) :   0.9107
B( 17-C , 22-O ) :   0.8967 B( 17-C , 23-H ) :   0.9331 B( 18-C , 19-C ) :   0.9397
B( 18-C , 24-H ) :   0.9376 B( 18-C , 25-H ) :   0.9329 B( 19-C , 20-O ) :   0.8477
B( 19-C , 26-H ) :   0.9344 B( 19-C , 27-H ) :   0.9373 B( 22-O , 28-H ) :   0.7920

FINAL SINGLE POINT ENERGY      -652.860365815405

DIPOLE MOMENT
-------------
                                X             Y             Z
Electronic contribution:     -0.55594      -3.20061       2.11474
Nuclear contribution   :      0.52282       3.51226      -2.99721
                        -----------------------------------------
Total Dipole Moment    :     -0.03312       0.31166      -0.88247
                        -----------------------------------------
Magnitude (a.u.)       :      0.93647
Magnitude (Debye)      :      2.38033

Rotational constants in cm-1:     0.062224     0.013325     0.013153
Rotational constants in MHz :  1865.416536   399.464635   394.303024

                             ****ORCA TERMINATED NORMALLY****
TOTAL RUN TIME: 0 days 0 hours 22 minutes 9 seconds 829 msec
