                         Program Version 4.2.0 -  RELEASE  -
|  1> # Test redundant internal optimization
|  2> #
|  3> ! RKS B3LYP  Opt TightSCF SmallPrint
|  4>
|  5> %basis
|  6>         Basis "6-31G"
|  7> end
|  8>
|  9> %geom
| 10> Constraints
| 11> { D 4  0  15  12  90.0   C } # D for Dihedral angle
| 12> { D 0  15  12  16  225.0   C } # D for Dihedral angle
| 13> { D 0  4  3  2   C } # D for Dihedral angle
| 14> { D 4  3  2  1   C } # D for Dihedral angle
| 15> { D 3  2  1  0   C } # D for Dihedral angle
| 16> { D 2  1  0  4   C } # D for Dihedral angle
| 17> { D 1  0  4  3   C } # D for Dihedral angle
| 18> { D 16  20  19  18   C } # D for Dihedral angle
| 19> { D 20  19  18  17   C } # D for Dihedral angle
| 20> { D 19  18  17  16   C } # D for Dihedral angle
| 21> { D 18  17  16  20   C } # D for Dihedral angle
| 22> { D 17  16  20  19   C } # D for Dihedral angle
| 23> { D 15  12  16  20   C } # D for Dihedral angle
| 24> end
| 25> end
| 26>
| 27>
| 28> #%pal
| 29> #nprocs 8
| 30> #end
| 31>
| 32> * xyz 0 1
| 33> C  -21.048   26.222   46.251
| 34> C  -20.361   27.558   45.944
| 35> C  -20.329   28.222   47.341
| 36> C  -20.110   27.022   48.296
| 37> O  -20.473   25.807   47.535
| 38> H  -20.833   25.428   45.533
| 39> H  -19.344   27.382   45.576
| 40> H  -20.898   28.157   45.201
| 41> H  -19.543   28.978   47.434
| 42> H  -21.289   28.710   47.548
| 43> H  -20.733   27.082   49.195
| 44> H  -19.064   26.913   48.597
| 45> C  -23.061   27.816   46.783
| 46> H  -22.205   28.387   47.164
| 47> H  -23.470   28.348   45.915
| 48> O  -22.586   26.394   46.375
| 49> C  -24.159   27.789   47.882
| 50> C  -24.685   29.198   48.177
| 51> C  -25.657   29.424   46.995
| 52> C  -26.252   28.014   46.755
| 53> O  -25.338   27.055   47.412
| 54> H  -23.778   27.257   48.756
| 55> H  -25.226   29.207   49.130
| 56> O  -23.560   30.268   48.244
| 57> H  -26.427   30.170   47.215
| 58> H  -25.103   29.765   46.112
| 59> H  -26.326   27.766   45.690
| 60> H  -27.235   27.891   47.217
| 61> H  -23.004   30.279   47.301
| 62> *
| 63>
| 64>                          ****END OF INPUT****
 Total Charge           Charge          ....    0
 Multiplicity           Mult            ....    1
 Number of Electrons    NEL             ....  102
FINAL SINGLE POINT ENERGY      -652.778033709251
FINAL SINGLE POINT ENERGY      -652.820046498858
FINAL SINGLE POINT ENERGY      -652.840277120899
FINAL SINGLE POINT ENERGY      -652.844761366570
FINAL SINGLE POINT ENERGY      -652.845530915753
FINAL SINGLE POINT ENERGY      -652.845820689750
FINAL SINGLE POINT ENERGY      -652.845856450776
FINAL SINGLE POINT ENERGY      -652.845865674279
FINAL SINGLE POINT ENERGY      -652.845865292806
                    ***********************HURRAY********************

CARTESIAN COORDINATES (ANGSTROEM)
---------------------------------
  C    -21.174086   26.351477   46.406383
  C    -20.157450   27.401763   45.930361
  C    -19.788710   28.128202   47.261240
  C    -19.840828   26.970571   48.292822
  O    -20.620451   25.883671   47.658603
  H    -21.195278   25.467166   45.767253
  H    -19.284930   26.879762   45.525773
  H    -20.553409   28.069925   45.160082
  H    -18.794271   28.584241   47.217922
  H    -20.498765   28.921744   47.503313
  H    -20.320323   27.256379   49.233817
  H    -18.847818   26.565801   48.508833
  C    -23.086070   28.012296   46.785909
  H    -22.336839   28.659039   47.249688
  H    -23.424949   28.482488   45.852200
  O    -22.571807   26.692579   46.460979
  C    -24.239065   27.850871   47.776710
  C    -24.902983   29.179664   48.174859
  C    -25.904901   29.401850   47.002484
  C    -26.352653   27.962251   46.663242
  O    -25.340989   27.051220   47.252355
  H    -23.858791   27.299749   48.641327
  H    -25.439292   29.049485   49.117443
  O    -23.987296   30.279947   48.416097
  H    -26.736496   30.053472   47.282748
  H    -25.379705   29.865885   46.156354
  H    -26.415856   27.778711   45.586078
  H    -27.314785   27.710684   47.119377
  H    -23.728201   30.698108   47.569749

 Multiplicity           Mult            ....    1
 Number of Electrons    NEL             ....  102
 Basis Dimension        Dim             ....  149

ORBITAL ENERGIES
----------------

  NO   OCC          E(Eh)            E(eV)
   0   2.0000     -19.153099      -521.1823
   1   2.0000     -19.137525      -520.7585
   2   2.0000     -19.135569      -520.7053
   3   2.0000     -19.134245      -520.6693
   4   2.0000     -10.275188      -279.6021
   5   2.0000     -10.246174      -278.8126
   6   2.0000     -10.230949      -278.3983
   7   2.0000     -10.229313      -278.3538
   8   2.0000     -10.228035      -278.3190
   9   2.0000     -10.225720      -278.2560
  10   2.0000     -10.197807      -277.4964
  11   2.0000     -10.193624      -277.3826
  12   2.0000     -10.192897      -277.3628
  13   2.0000      -1.046482       -28.4762
  14   2.0000      -1.034532       -28.1510
  15   2.0000      -1.015051       -27.6209
  16   2.0000      -0.991644       -26.9840
  17   2.0000      -0.787552       -21.4304
  18   2.0000      -0.784015       -21.3341
  19   2.0000      -0.771363       -20.9899
  20   2.0000      -0.731260       -19.8986
  21   2.0000      -0.684238       -18.6191
  22   2.0000      -0.612950       -16.6792
  23   2.0000      -0.604750       -16.4561
  24   2.0000      -0.596407       -16.2291
  25   2.0000      -0.568662       -15.4741
  26   2.0000      -0.523540       -14.2462
  27   2.0000      -0.514579       -14.0024
  28   2.0000      -0.502441       -13.6721
  29   2.0000      -0.494513       -13.4564
  30   2.0000      -0.467585       -12.7236
  31   2.0000      -0.458399       -12.4737
  32   2.0000      -0.439594       -11.9620
  33   2.0000      -0.434691       -11.8285
  34   2.0000      -0.428506       -11.6602
  35   2.0000      -0.419460       -11.4141
  36   2.0000      -0.416363       -11.3298
  37   2.0000      -0.401336       -10.9209
  38   2.0000      -0.381984       -10.3943
  39   2.0000      -0.378416       -10.2972
  40   2.0000      -0.360760        -9.8168
  41   2.0000      -0.356262        -9.6944
  42   2.0000      -0.345980        -9.4146
  43   2.0000      -0.329142        -8.9564
  44   2.0000      -0.318094        -8.6558
  45   2.0000      -0.310515        -8.4496
  46   2.0000      -0.288268        -7.8442
  47   2.0000      -0.272944        -7.4272
  48   2.0000      -0.267024        -7.2661
  49   2.0000      -0.249903        -6.8002
  50   2.0000      -0.236316        -6.4305
  51   0.0000       0.045356         1.2342
  52   0.0000       0.071081         1.9342
  53   0.0000       0.083995         2.2856
  54   0.0000       0.090732         2.4690
  55   0.0000       0.099182         2.6989

MULLIKEN ATOMIC CHARGES
-----------------------
   0 C :    0.303852
   1 C :   -0.289739
   2 C :   -0.316660
   3 C :   -0.007483
   4 O :   -0.498830
   5 H :    0.166921
   6 H :    0.159191
   7 H :    0.143772
   8 H :    0.144109
   9 H :    0.153454
  10 H :    0.147304
  11 H :    0.146371
  12 C :   -0.023738
  13 H :    0.131930
  14 H :    0.123844
  15 O :   -0.508714
  16 C :    0.107988
  17 C :    0.079251
  18 C :   -0.330045
  19 C :   -0.005842
  20 O :   -0.500080
  21 H :    0.166437
  22 H :    0.168715
  23 O :   -0.601055
  24 H :    0.159780
  25 H :    0.131258
  26 H :    0.146307
  27 H :    0.147432
  28 H :    0.354270
Sum of atomic charges:   -0.0000000

LOEWDIN ATOMIC CHARGES
----------------------
   0 C :    0.175199
   1 C :   -0.231024
   2 C :   -0.224279
   3 C :   -0.033212
   4 O :   -0.319716
   5 H :    0.112597
   6 H :    0.124285
   7 H :    0.115201
   8 H :    0.115062
   9 H :    0.107883
  10 H :    0.104324
  11 H :    0.104164
  12 C :   -0.051930
  13 H :    0.100228
  14 H :    0.092381
  15 O :   -0.307514
  16 C :    0.021559
  17 C :    0.032620
  18 C :   -0.242088
  19 C :   -0.029014
  20 O :   -0.309064
  21 H :    0.121982
  22 H :    0.119865
  23 O :   -0.410789
  24 H :    0.122791
  25 H :    0.102387
  26 H :    0.103969
  27 H :    0.105496
  28 H :    0.276635

  Mayer bond orders larger than 0.100000
B(  0-C ,  1-C ) :   0.9196 B(  0-C ,  4-O ) :   0.8980 B(  0-C ,  5-H ) :   0.9356
B(  0-C , 15-O ) :   0.9142 B(  1-C ,  2-C ) :   0.9537 B(  1-C ,  6-H ) :   0.9353
B(  1-C ,  7-H ) :   0.9370 B(  2-C ,  3-C ) :   0.9459 B(  2-C ,  8-H ) :   0.9447
B(  2-C ,  9-H ) :   0.9350 B(  3-C ,  4-O ) :   0.8516 B(  3-C , 10-H ) :   0.9336
B(  3-C , 11-H ) :   0.9390 B( 12-C , 13-H ) :   0.8859 B( 12-C , 14-H ) :   0.9297
B( 12-C , 15-O ) :   0.8449 B( 12-C , 16-C ) :   0.9009 B( 16-C , 17-C ) :   0.8693
B( 16-C , 20-O ) :   0.8745 B( 16-C , 21-H ) :   0.9289 B( 17-C , 18-C ) :   0.9274
B( 17-C , 22-H ) :   0.9325 B( 17-C , 23-O ) :   0.8896 B( 18-C , 19-C ) :   0.9393
B( 18-C , 24-H ) :   0.9410 B( 18-C , 25-H ) :   0.9397 B( 19-C , 20-O ) :   0.8533
B( 19-C , 26-H ) :   0.9312 B( 19-C , 27-H ) :   0.9376 B( 23-O , 28-H ) :   0.8002

FINAL SINGLE POINT ENERGY      -652.845852748125

DIPOLE MOMENT
-------------
                                X             Y             Z
Electronic contribution:     -2.15958      -4.50067       1.41767
Nuclear contribution   :      2.48406       6.22841      -2.22902
                        -----------------------------------------
Total Dipole Moment    :      0.32448       1.72773      -0.81135
                        -----------------------------------------
Magnitude (a.u.)       :      1.93614
Magnitude (Debye)      :      4.92128

Rotational constants in cm-1:     0.050392     0.014056     0.012561
Rotational constants in MHz :  1510.701403   421.401264   376.574033

                             ****ORCA TERMINATED NORMALLY****
TOTAL RUN TIME: 0 days 0 hours 32 minutes 24 seconds 728 msec
