                         Program Version 4.2.0 -  RELEASE  -
|  1> # Test redundant internal optimization
|  2> #
|  3> ! RKS B3LYP  Opt TightSCF SmallPrint
|  4>
|  5> %basis
|  6>         Basis "6-31G"
|  7> end
|  8>
|  9> %geom
| 10> Constraints
| 11> { D 4  0  15  12  105.0   C } # D for Dihedral angle
| 12> { D 0  15  12  16  135.0   C } # D for Dihedral angle
| 13> { D 0  4  3  2   C } # D for Dihedral angle
| 14> { D 4  3  2  1   C } # D for Dihedral angle
| 15> { D 3  2  1  0   C } # D for Dihedral angle
| 16> { D 2  1  0  4   C } # D for Dihedral angle
| 17> { D 1  0  4  3   C } # D for Dihedral angle
| 18> { D 16  20  19  18   C } # D for Dihedral angle
| 19> { D 20  19  18  17   C } # D for Dihedral angle
| 20> { D 19  18  17  16   C } # D for Dihedral angle
| 21> { D 18  17  16  20   C } # D for Dihedral angle
| 22> { D 17  16  20  19   C } # D for Dihedral angle
| 23> { D 15  12  16  20   C } # D for Dihedral angle
| 24> end
| 25> end
| 26>
| 27>
| 28> #%pal
| 29> #nprocs 8
| 30> #end
| 31>
| 32> * xyz 0 1
| 33> C  -21.048   26.222   46.251
| 34> C  -20.361   27.558   45.944
| 35> C  -20.329   28.222   47.341
| 36> C  -20.110   27.022   48.296
| 37> O  -20.473   25.807   47.535
| 38> H  -20.833   25.428   45.533
| 39> H  -19.344   27.382   45.576
| 40> H  -20.898   28.157   45.201
| 41> H  -19.543   28.978   47.434
| 42> H  -21.289   28.710   47.548
| 43> H  -20.733   27.082   49.195
| 44> H  -19.064   26.913   48.597
| 45> C  -23.085   27.864   46.420
| 46> H  -23.365   28.120   47.450
| 47> H  -22.289   28.550   46.102
| 48> O  -22.586   26.394   46.375
| 49> C  -24.315   28.110   45.503
| 50> C  -25.534   27.314   45.983
| 51> C  -26.039   28.190   47.154
| 52> C  -25.737   29.631   46.672
| 53> O  -24.743   29.510   45.584
| 54> H  -24.031   27.922   44.466
| 55> H  -26.286   27.263   45.187
| 56> O  -25.184   25.865   46.420
| 57> H  -27.100   28.036   47.372
| 58> H  -25.473   27.960   48.066
| 59> H  -25.325   30.261   47.466
| 60> H  -26.618   30.123   46.251
| 61> H  -24.432   25.893   47.216
| 62> *
| 63>
| 64>                          ****END OF INPUT****
 Total Charge           Charge          ....    0
 Multiplicity           Mult            ....    1
 Number of Electrons    NEL             ....  102
FINAL SINGLE POINT ENERGY      -652.813329683644
FINAL SINGLE POINT ENERGY      -652.840298686964
FINAL SINGLE POINT ENERGY      -652.852911643284
FINAL SINGLE POINT ENERGY      -652.856420614332
FINAL SINGLE POINT ENERGY      -652.858141172808
FINAL SINGLE POINT ENERGY      -652.859149766218
FINAL SINGLE POINT ENERGY      -652.859630092501
FINAL SINGLE POINT ENERGY      -652.859747428837
FINAL SINGLE POINT ENERGY      -652.859767351018
                    ***********************HURRAY********************

CARTESIAN COORDINATES (ANGSTROEM)
---------------------------------
  C    -21.214596   26.364369   46.378897
  C    -20.245922   27.470490   45.948860
  C    -19.940916   28.178764   47.298538
  C    -19.953845   27.002620   48.304567
  O    -20.668617   25.894275   47.624528
  H    -21.233983   25.496718   45.719155
  H    -19.343292   26.994354   45.553034
  H    -20.642174   28.137889   45.178954
  H    -18.977420   28.696753   47.283989
  H    -20.711491   28.916130   47.541238
  H    -20.471939   27.238670   49.238138
  H    -18.950079   26.635207   48.534812
  C    -23.140398   28.096309   46.543330
  H    -23.414126   28.336690   47.577118
  H    -22.405163   28.826333   46.197516
  O    -22.618713   26.727735   46.498304
  C    -24.354033   28.154282   45.607684
  C    -25.536290   27.257821   46.015292
  C    -26.207642   28.109976   47.132014
  C    -25.997951   29.557306   46.643538
  O    -24.905249   29.507082   45.624279
  H    -24.022114   27.956075   44.584389
  H    -26.220159   27.178764   45.162044
  O    -25.208378   25.919228   46.426668
  H    -27.262589   27.852765   47.257710
  H    -25.701074   27.913824   48.083224
  H    -25.701762   30.248181   47.439283
  H    -26.877042   29.962919   46.134434
  H    -24.240043   25.855472   46.606465

 Multiplicity           Mult            ....    1
 Number of Electrons    NEL             ....  102
 Basis Dimension        Dim             ....  149

ORBITAL ENERGIES
----------------

  NO   OCC          E(Eh)            E(eV)
   0   2.0000     -19.162979      -521.4512
   1   2.0000     -19.149587      -521.0867
   2   2.0000     -19.141273      -520.8605
   3   2.0000     -19.109527      -519.9967
   4   2.0000     -10.294134      -280.1176
   5   2.0000     -10.242257      -278.7060
   6   2.0000     -10.236529      -278.5501
   7   2.0000     -10.234335      -278.4904
   8   2.0000     -10.228837      -278.3408
   9   2.0000     -10.227046      -278.2921
  10   2.0000     -10.204705      -277.6841
  11   2.0000     -10.202710      -277.6299
  12   2.0000     -10.178027      -276.9582
  13   2.0000      -1.063438       -28.9376
  14   2.0000      -1.025995       -27.9187
  15   2.0000      -1.008396       -27.4399
  16   2.0000      -0.989630       -26.9292
  17   2.0000      -0.800330       -21.7781
  18   2.0000      -0.778928       -21.1957
  19   2.0000      -0.767977       -20.8977
  20   2.0000      -0.739445       -20.1213
  21   2.0000      -0.685713       -18.6592
  22   2.0000      -0.614637       -16.7251
  23   2.0000      -0.601852       -16.3772
  24   2.0000      -0.596212       -16.2238
  25   2.0000      -0.577026       -15.7017
  26   2.0000      -0.535343       -14.5674
  27   2.0000      -0.514546       -14.0015
  28   2.0000      -0.511920       -13.9301
  29   2.0000      -0.487775       -13.2730
  30   2.0000      -0.476866       -12.9762
  31   2.0000      -0.464376       -12.6363
  32   2.0000      -0.440945       -11.9987
  33   2.0000      -0.437245       -11.8981
  34   2.0000      -0.427603       -11.6357
  35   2.0000      -0.424081       -11.5398
  36   2.0000      -0.411181       -11.1888
  37   2.0000      -0.393391       -10.7047
  38   2.0000      -0.387403       -10.5418
  39   2.0000      -0.372647       -10.1402
  40   2.0000      -0.366620        -9.9762
  41   2.0000      -0.364800        -9.9267
  42   2.0000      -0.347069        -9.4442
  43   2.0000      -0.341550        -9.2941
  44   2.0000      -0.323308        -8.7977
  45   2.0000      -0.312638        -8.5073
  46   2.0000      -0.289744        -7.8843
  47   2.0000      -0.277312        -7.5460
  48   2.0000      -0.269336        -7.3290
  49   2.0000      -0.247523        -6.7354
  50   2.0000      -0.239005        -6.5036
  51   0.0000       0.055813         1.5187
  52   0.0000       0.070409         1.9159
  53   0.0000       0.089784         2.4431
  54   0.0000       0.097849         2.6626
  55   0.0000       0.101380         2.7587

MULLIKEN ATOMIC CHARGES
-----------------------
   0 C :    0.326325
   1 C :   -0.308545
   2 C :   -0.312916
   3 C :   -0.008462
   4 O :   -0.493829
   5 H :    0.170867
   6 H :    0.165164
   7 H :    0.157196
   8 H :    0.151349
   9 H :    0.155327
  10 H :    0.151225
  11 H :    0.151395
  12 C :   -0.021682
  13 H :    0.149442
  14 H :    0.156791
  15 O :   -0.571843
  16 C :    0.064072
  17 C :    0.118088
  18 C :   -0.298496
  19 C :   -0.025636
  20 O :   -0.524763
  21 H :    0.150977
  22 H :    0.147807
  23 O :   -0.639369
  24 H :    0.152473
  25 H :    0.144261
  26 H :    0.142374
  27 H :    0.150542
  28 H :    0.399865
Sum of atomic charges:   -0.0000000

LOEWDIN ATOMIC CHARGES
----------------------
   0 C :    0.182312
   1 C :   -0.231353
   2 C :   -0.222422
   3 C :   -0.030085
   4 O :   -0.312497
   5 H :    0.114793
   6 H :    0.127705
   7 H :    0.119939
   8 H :    0.119285
   9 H :    0.112153
  10 H :    0.106987
  11 H :    0.107112
  12 C :   -0.045177
  13 H :    0.103751
  14 H :    0.110855
  15 O :   -0.338330
  16 C :    0.016091
  17 C :    0.041842
  18 C :   -0.236930
  19 C :   -0.033361
  20 O :   -0.327527
  21 H :    0.111721
  22 H :    0.105081
  23 O :   -0.433348
  24 H :    0.121911
  25 H :    0.111115
  26 H :    0.101432
  27 H :    0.106395
  28 H :    0.290551

  Mayer bond orders larger than 0.100000
B(  0-C ,  1-C ) :   0.9363 B(  0-C ,  4-O ) :   0.9283 B(  0-C ,  5-H ) :   0.9323
B(  0-C , 15-O ) :   0.8302 B(  1-C ,  2-C ) :   0.9509 B(  1-C ,  6-H ) :   0.9325
B(  1-C ,  7-H ) :   0.9285 B(  2-C ,  3-C ) :   0.9471 B(  2-C ,  8-H ) :   0.9447
B(  2-C ,  9-H ) :   0.9391 B(  3-C ,  4-O ) :   0.8406 B(  3-C , 10-H ) :   0.9344
B(  3-C , 11-H ) :   0.9390 B( 12-C , 13-H ) :   0.9263 B( 12-C , 14-H ) :   0.9120
B( 12-C , 15-O ) :   0.7866 B( 12-C , 16-C ) :   0.8933 B( 16-C , 17-C ) :   0.9139
B( 16-C , 20-O ) :   0.8545 B( 16-C , 21-H ) :   0.9309 B( 17-C , 18-C ) :   0.9012
B( 17-C , 22-H ) :   0.9296 B( 17-C , 23-O ) :   0.9406 B( 18-C , 19-C ) :   0.9378
B( 18-C , 24-H ) :   0.9445 B( 18-C , 25-H ) :   0.9434 B( 19-C , 20-O ) :   0.8300
B( 19-C , 26-H ) :   0.9342 B( 19-C , 27-H ) :   0.9385 B( 23-O , 28-H ) :   0.7214

FINAL SINGLE POINT ENERGY      -652.859769518763

DIPOLE MOMENT
-------------
                                X             Y             Z
Electronic contribution:     -1.76546      -4.03356      -1.80621
Nuclear contribution   :      2.94645       5.23884       1.96823
                        -----------------------------------------
Total Dipole Moment    :      1.18099       1.20528       0.16203
                        -----------------------------------------
Magnitude (a.u.)       :      1.69520
Magnitude (Debye)      :      4.30885

Rotational constants in cm-1:     0.052915     0.013893     0.012595
Rotational constants in MHz :  1586.361256   416.500117   377.596179

                             ****ORCA TERMINATED NORMALLY****
TOTAL RUN TIME: 0 days 1 hours 58 minutes 27 seconds 198 msec
