                         Program Version 4.2.0 -  RELEASE  -
|  1> # Test redundant internal optimization
|  2> #
|  3> ! RKS B3LYP  Opt TightSCF SmallPrint
|  4>
|  5> %basis
|  6>         Basis "6-31G"
|  7> end
|  8>
|  9> %geom
| 10> Constraints
| 11> { D 4  0  15  12  255.0   C } # D for Dihedral angle
| 12> { D 0  15  12  16  150.0   C } # D for Dihedral angle
| 13> { D 0  4  3  2   C } # D for Dihedral angle
| 14> { D 4  3  2  1   C } # D for Dihedral angle
| 15> { D 3  2  1  0   C } # D for Dihedral angle
| 16> { D 2  1  0  4   C } # D for Dihedral angle
| 17> { D 1  0  4  3   C } # D for Dihedral angle
| 18> { D 16  20  19  18   C } # D for Dihedral angle
| 19> { D 20  19  18  17   C } # D for Dihedral angle
| 20> { D 19  18  17  16   C } # D for Dihedral angle
| 21> { D 18  17  16  20   C } # D for Dihedral angle
| 22> { D 17  16  20  19   C } # D for Dihedral angle
| 23> { D 15  12  16  20   C } # D for Dihedral angle
| 24> end
| 25> end
| 26>
| 27>
| 28> #%pal
| 29> #nprocs 8
| 30> #end
| 31>
| 32> * xyz 0 1
| 33> C  -21.048   26.222   46.251
| 34> C  -20.361   27.558   45.944
| 35> C  -20.329   28.222   47.341
| 36> C  -20.110   27.022   48.296
| 37> O  -20.473   25.807   47.535
| 38> H  -20.833   25.428   45.533
| 39> H  -19.344   27.382   45.576
| 40> H  -20.898   28.157   45.201
| 41> H  -19.543   28.978   47.434
| 42> H  -21.289   28.710   47.548
| 43> H  -20.733   27.082   49.195
| 44> H  -19.064   26.913   48.597
| 45> C  -23.431   25.260   45.734
| 46> H  -23.635   25.509   44.685
| 47> H  -22.882   24.310   45.760
| 48> O  -22.586   26.394   46.375
| 49> C  -24.789   25.040   46.456
| 50> C  -25.544   23.841   45.872
| 51> C  -24.817   22.654   46.547
| 52> C  -24.472   23.206   47.952
| 53> O  -24.570   24.679   47.861
| 54> H  -25.353   25.976   46.451
| 55> H  -26.596   23.873   46.175
| 56> O  -25.484   23.780   44.321
| 57> H  -25.433   21.750   46.594
| 58> H  -23.903   22.408   45.993
| 59> H  -23.460   22.934   48.273
| 60> H  -25.185   22.882   48.715
| 61> H  -24.439   23.746   43.992
| 62> *
| 63>
| 64>                          ****END OF INPUT****
 Total Charge           Charge          ....    0
 Multiplicity           Mult            ....    1
 Number of Electrons    NEL             ....  102
FINAL SINGLE POINT ENERGY      -652.827074510064
FINAL SINGLE POINT ENERGY      -652.851097233109
FINAL SINGLE POINT ENERGY      -652.855567325950
FINAL SINGLE POINT ENERGY      -652.856378916692
FINAL SINGLE POINT ENERGY      -652.856535921673
FINAL SINGLE POINT ENERGY      -652.856582146875
FINAL SINGLE POINT ENERGY      -652.856592203857
FINAL SINGLE POINT ENERGY      -652.856594345747
                    ***********************HURRAY********************

CARTESIAN COORDINATES (ANGSTROEM)
---------------------------------
  C    -21.014604   26.171836   46.186070
  C    -20.453288   27.576726   45.967066
  C    -20.522182   28.173720   47.393024
  C    -20.214951   26.955542   48.292409
  O    -20.445489   25.758406   47.446556
  H    -20.723688   25.420802   45.445492
  H    -19.414025   27.505338   45.624432
  H    -21.032406   28.141253   45.233424
  H    -19.812347   28.992871   47.541683
  H    -21.532215   28.547065   47.585042
  H    -20.866374   26.895108   49.167304
  H    -19.169184   26.916249   48.612823
  C    -23.238703   25.230353   45.647354
  H    -23.463709   25.497323   44.605032
  H    -22.674131   24.286248   45.658194
  O    -22.454196   26.278617   46.269918
  C    -24.547557   25.081306   46.421682
  C    -25.454729   23.958990   45.890608
  C    -24.848411   22.701386   46.583207
  C    -24.406191   23.251939   47.956915
  O    -24.336550   24.729271   47.820594
  H    -25.050923   26.052187   46.430317
  H    -26.477223   24.127965   46.235180
  O    -25.564661   23.872112   44.448025
  H    -25.569509   21.883367   46.661418
  H    -23.989345   22.341435   46.000530
  H    -23.427627   22.878494   48.272535
  H    -25.137028   23.037839   48.742729
  H    -24.762754   23.459251   44.067437

 Multiplicity           Mult            ....    1
 Number of Electrons    NEL             ....  102
 Basis Dimension        Dim             ....  149

ORBITAL ENERGIES
----------------

  NO   OCC          E(Eh)            E(eV)
   0   2.0000     -19.149746      -521.0911
   1   2.0000     -19.136666      -520.7351
   2   2.0000     -19.133524      -520.6497
   3   2.0000     -19.131125      -520.5844
   4   2.0000     -10.275060      -279.5986
   5   2.0000     -10.244395      -278.7641
   6   2.0000     -10.230345      -278.3818
   7   2.0000     -10.228240      -278.3245
   8   2.0000     -10.227171      -278.2955
   9   2.0000     -10.217081      -278.0209
  10   2.0000     -10.195104      -277.4229
  11   2.0000     -10.179800      -277.0064
  12   2.0000     -10.178582      -276.9733
  13   2.0000      -1.047531       -28.5048
  14   2.0000      -1.032190       -28.0873
  15   2.0000      -1.013330       -27.5741
  16   2.0000      -0.988704       -26.9040
  17   2.0000      -0.784101       -21.3365
  18   2.0000      -0.779480       -21.2107
  19   2.0000      -0.764183       -20.7945
  20   2.0000      -0.725520       -19.7424
  21   2.0000      -0.677503       -18.4358
  22   2.0000      -0.610171       -16.6036
  23   2.0000      -0.591687       -16.1006
  24   2.0000      -0.585890       -15.9429
  25   2.0000      -0.579092       -15.7579
  26   2.0000      -0.528465       -14.3803
  27   2.0000      -0.509654       -13.8684
  28   2.0000      -0.494418       -13.4538
  29   2.0000      -0.482996       -13.1430
  30   2.0000      -0.466772       -12.7015
  31   2.0000      -0.455895       -12.4055
  32   2.0000      -0.444417       -12.0932
  33   2.0000      -0.430560       -11.7161
  34   2.0000      -0.424226       -11.5438
  35   2.0000      -0.418214       -11.3802
  36   2.0000      -0.400618       -10.9014
  37   2.0000      -0.395249       -10.7553
  38   2.0000      -0.377765       -10.2795
  39   2.0000      -0.369505       -10.0547
  40   2.0000      -0.350675        -9.5424
  41   2.0000      -0.347315        -9.4509
  42   2.0000      -0.343172        -9.3382
  43   2.0000      -0.328651        -8.9430
  44   2.0000      -0.315049        -8.5729
  45   2.0000      -0.313125        -8.5206
  46   2.0000      -0.299391        -8.1468
  47   2.0000      -0.270657        -7.3649
  48   2.0000      -0.261089        -7.1046
  49   2.0000      -0.242543        -6.5999
  50   2.0000      -0.236685        -6.4405
  51   0.0000       0.050277         1.3681
  52   0.0000       0.077791         2.1168
  53   0.0000       0.089165         2.4263
  54   0.0000       0.099141         2.6978
  55   0.0000       0.108847         2.9619

MULLIKEN ATOMIC CHARGES
-----------------------
   0 C :    0.283952
   1 C :   -0.253394
   2 C :   -0.299554
   3 C :    0.000837
   4 O :   -0.504459
   5 H :    0.133231
   6 H :    0.139732
   7 H :    0.148291
   8 H :    0.137508
   9 H :    0.166973
  10 H :    0.156565
  11 H :    0.136458
  12 C :   -0.008558
  13 H :    0.133770
  14 H :    0.122424
  15 O :   -0.511737
  16 C :    0.099922
  17 C :    0.079509
  18 C :   -0.332467
  19 C :   -0.008558
  20 O :   -0.502074
  21 H :    0.163477
  22 H :    0.169239
  23 O :   -0.599752
  24 H :    0.159912
  25 H :    0.133811
  26 H :    0.151449
  27 H :    0.148739
  28 H :    0.354755
Sum of atomic charges:   -0.0000000

LOEWDIN ATOMIC CHARGES
----------------------
   0 C :    0.175122
   1 C :   -0.218460
   2 C :   -0.215925
   3 C :   -0.025977
   4 O :   -0.321915
   5 H :    0.094885
   6 H :    0.110749
   7 H :    0.119559
   8 H :    0.111873
   9 H :    0.121546
  10 H :    0.110475
  11 H :    0.099597
  12 C :   -0.047723
  13 H :    0.097738
  14 H :    0.090584
  15 O :   -0.321431
  16 C :    0.021806
  17 C :    0.034067
  18 C :   -0.244107
  19 C :   -0.029334
  20 O :   -0.310791
  21 H :    0.119598
  22 H :    0.119877
  23 O :   -0.408295
  24 H :    0.123139
  25 H :    0.103741
  26 H :    0.106981
  27 H :    0.105522
  28 H :    0.277099

  Mayer bond orders larger than 0.100000
B(  0-C ,  1-C ) :   0.9463 B(  0-C ,  4-O ) :   0.9243 B(  0-C ,  5-H ) :   0.9204
B(  0-C , 15-O ) :   0.8564 B(  1-C ,  2-C ) :   0.9586 B(  1-C ,  6-H ) :   0.9391
B(  1-C ,  7-H ) :   0.9381 B(  2-C ,  3-C ) :   0.9549 B(  2-C ,  8-H ) :   0.9456
B(  2-C ,  9-H ) :   0.9429 B(  3-C ,  4-O ) :   0.8374 B(  3-C , 10-H ) :   0.9340
B(  3-C , 11-H ) :   0.9402 B( 12-C , 13-H ) :   0.9075 B( 12-C , 14-H ) :   0.9169
B( 12-C , 15-O ) :   0.8462 B( 12-C , 16-C ) :   0.9047 B( 16-C , 17-C ) :   0.8732
B( 16-C , 20-O ) :   0.8758 B( 16-C , 21-H ) :   0.9300 B( 17-C , 18-C ) :   0.9265
B( 17-C , 22-H ) :   0.9327 B( 17-C , 23-O ) :   0.8937 B( 18-C , 19-C ) :   0.9391
B( 18-C , 24-H ) :   0.9412 B( 18-C , 25-H ) :   0.9392 B( 19-C , 20-O ) :   0.8498
B( 19-C , 26-H ) :   0.9304 B( 19-C , 27-H ) :   0.9377 B( 23-O , 28-H ) :   0.7992

FINAL SINGLE POINT ENERGY      -652.856594627807

DIPOLE MOMENT
-------------
                                X             Y             Z
Electronic contribution:     -2.50118      -0.80132      -0.34991
Nuclear contribution   :      3.00233       0.37724      -0.13386
                        -----------------------------------------
Total Dipole Moment    :      0.50115      -0.42408      -0.48377
                        -----------------------------------------
Magnitude (a.u.)       :      0.81549
Magnitude (Debye)      :      2.07282

Rotational constants in cm-1:     0.056270     0.013043     0.011718
Rotational constants in MHz :  1686.942056   391.018210   351.306785

                             ****ORCA TERMINATED NORMALLY****
TOTAL RUN TIME: 0 days 1 hours 7 minutes 37 seconds 621 msec
