                         Program Version 4.2.0 -  RELEASE  -
|  1> # Test redundant internal optimization
|  2> #
|  3> ! RKS B3LYP  Opt TightSCF SmallPrint
|  4>
|  5> %basis
|  6>         Basis "6-31G"
|  7> end
|  8>
|  9> %geom
| 10> Constraints
| 11> { D 4  0  15  12  45.0   C } # D for Dihedral angle
| 12> { D 0  15  12  16  195.0   C } # D for Dihedral angle
| 13> { D 0  4  3  2   C } # D for Dihedral angle
| 14> { D 4  3  2  1   C } # D for Dihedral angle
| 15> { D 3  2  1  0   C } # D for Dihedral angle
| 16> { D 2  1  0  4   C } # D for Dihedral angle
| 17> { D 1  0  4  3   C } # D for Dihedral angle
| 18> { D 16  20  19  18   C } # D for Dihedral angle
| 19> { D 20  19  18  17   C } # D for Dihedral angle
| 20> { D 19  18  17  16   C } # D for Dihedral angle
| 21> { D 18  17  16  20   C } # D for Dihedral angle
| 22> { D 17  16  20  19   C } # D for Dihedral angle
| 23> { D 15  12  16  20   C } # D for Dihedral angle
| 24> end
| 25> end
| 26>
| 27>
| 28> #%pal
| 29> #nprocs 8
| 30> #end
| 31>
| 32> * xyz 0 1
| 33> C  -21.048   26.222   46.251
| 34> C  -20.361   27.558   45.944
| 35> C  -20.329   28.222   47.341
| 36> C  -20.110   27.022   48.296
| 37> O  -20.473   25.807   47.535
| 38> H  -20.833   25.428   45.533
| 39> H  -19.344   27.382   45.576
| 40> H  -20.898   28.157   45.201
| 41> H  -19.543   28.978   47.434
| 42> H  -21.289   28.710   47.548
| 43> H  -20.733   27.082   49.195
| 44> H  -19.064   26.913   48.597
| 45> C  -23.065   27.161   47.638
| 46> H  -22.516   26.795   48.514
| 47> H  -22.866   28.236   47.533
| 48> O  -22.586   26.394   46.375
| 49> C  -24.586   26.986   47.906
| 50> C  -25.417   27.396   46.685
| 51> C  -25.277   26.149   45.779
| 52> C  -25.242   24.979   46.793
| 53> O  -24.911   25.571   48.107
| 54> H  -24.849   27.509   48.827
| 55> O  -26.899   27.609   47.097
| 56> H  -25.057   28.312   46.205
| 57> H  -26.096   26.053   45.058
| 58> H  -24.338   26.198   45.213
| 59> H  -24.490   24.224   46.539
| 60> H  -26.214   24.487   46.897
| 61> H  -27.282   26.703   47.579
| 62> *
| 63>
| 64>                          ****END OF INPUT****
 Total Charge           Charge          ....    0
 Multiplicity           Mult            ....    1
 Number of Electrons    NEL             ....  102
FINAL SINGLE POINT ENERGY      -652.823273688827
FINAL SINGLE POINT ENERGY      -652.847965088513
FINAL SINGLE POINT ENERGY      -652.857934281536
FINAL SINGLE POINT ENERGY      -652.859960342248
FINAL SINGLE POINT ENERGY      -652.860293134104
FINAL SINGLE POINT ENERGY      -652.860350101596
FINAL SINGLE POINT ENERGY      -652.860352831514
                    ***********************HURRAY********************

CARTESIAN COORDINATES (ANGSTROEM)
---------------------------------
  C    -21.165707   26.316609   46.445822
  C    -20.381343   27.551276   45.982574
  C    -20.088840   28.273737   47.328703
  C    -19.880415   27.092389   48.307828
  O    -20.482254   25.903804   47.648731
  H    -21.095580   25.479671   45.749415
  H    -19.450544   27.220087   45.509909
  H    -20.942534   28.162540   45.271454
  H    -19.203233   28.914492   47.272871
  H    -20.932279   28.902704   47.627237
  H    -20.360408   27.241739   49.279104
  H    -18.822854   26.861277   48.464106
  C    -23.153734   27.185488   47.728241
  H    -22.672277   26.821135   48.642058
  H    -23.004408   28.271999   47.644063
  O    -22.597980   26.483465   46.582410
  C    -24.653175   26.907019   47.833483
  C    -25.518763   27.328682   46.637435
  C    -25.367230   26.107200   45.690888
  C    -25.284953   24.913957   46.674320
  O    -24.941081   25.484823   47.998915
  H    -25.008763   27.409175   48.741759
  O    -26.897116   27.541872   47.054164
  H    -25.209577   28.269788   46.181442
  H    -26.219166   26.040005   45.007933
  H    -24.441562   26.201107   45.122113
  H    -24.510414   24.196233   46.393291
  H    -26.239100   24.388499   46.789401
  H    -27.190710   26.772227   47.586333

 Multiplicity           Mult            ....    1
 Number of Electrons    NEL             ....  102
 Basis Dimension        Dim             ....  149

ORBITAL ENERGIES
----------------

  NO   OCC          E(Eh)            E(eV)
   0   2.0000     -19.149962      -521.0969
   1   2.0000     -19.148555      -521.0587
   2   2.0000     -19.133793      -520.6570
   3   2.0000     -19.132253      -520.6151
   4   2.0000     -10.283643      -279.8322
   5   2.0000     -10.235144      -278.5124
   6   2.0000     -10.233932      -278.4794
   7   2.0000     -10.233569      -278.4696
   8   2.0000     -10.232013      -278.4272
   9   2.0000     -10.218487      -278.0592
  10   2.0000     -10.197662      -277.4925
  11   2.0000     -10.193388      -277.3762
  12   2.0000     -10.172741      -276.8144
  13   2.0000      -1.058651       -28.8073
  14   2.0000      -1.029822       -28.0229
  15   2.0000      -1.003634       -27.3103
  16   2.0000      -0.995044       -27.0765
  17   2.0000      -0.793685       -21.5973
  18   2.0000      -0.779499       -21.2112
  19   2.0000      -0.762469       -20.7478
  20   2.0000      -0.735733       -20.0203
  21   2.0000      -0.675484       -18.3808
  22   2.0000      -0.608812       -16.5666
  23   2.0000      -0.603917       -16.4334
  24   2.0000      -0.593808       -16.1583
  25   2.0000      -0.568733       -15.4760
  26   2.0000      -0.523767       -14.2524
  27   2.0000      -0.512591       -13.9483
  28   2.0000      -0.499595       -13.5947
  29   2.0000      -0.485780       -13.2188
  30   2.0000      -0.476211       -12.9583
  31   2.0000      -0.458049       -12.4642
  32   2.0000      -0.449745       -12.2382
  33   2.0000      -0.438122       -11.9219
  34   2.0000      -0.423776       -11.5315
  35   2.0000      -0.412154       -11.2153
  36   2.0000      -0.402226       -10.9451
  37   2.0000      -0.384071       -10.4511
  38   2.0000      -0.383372       -10.4321
  39   2.0000      -0.367289        -9.9944
  40   2.0000      -0.365486        -9.9454
  41   2.0000      -0.359925        -9.7941
  42   2.0000      -0.349040        -9.4979
  43   2.0000      -0.328261        -8.9324
  44   2.0000      -0.323159        -8.7936
  45   2.0000      -0.311235        -8.4691
  46   2.0000      -0.297630        -8.0989
  47   2.0000      -0.270550        -7.3620
  48   2.0000      -0.262946        -7.1551
  49   2.0000      -0.256194        -6.9714
  50   2.0000      -0.239144        -6.5075
  51   0.0000       0.066327         1.8049
  52   0.0000       0.076519         2.0822
  53   0.0000       0.087600         2.3837
  54   0.0000       0.103355         2.8124
  55   0.0000       0.107510         2.9255

MULLIKEN ATOMIC CHARGES
-----------------------
   0 C :    0.304904
   1 C :   -0.267751
   2 C :   -0.313747
   3 C :   -0.016100
   4 O :   -0.504164
   5 H :    0.163835
   6 H :    0.153251
   7 H :    0.152009
   8 H :    0.148966
   9 H :    0.148603
  10 H :    0.146459
  11 H :    0.152057
  12 C :   -0.002247
  13 H :    0.161719
  14 H :    0.123571
  15 O :   -0.530838
  16 C :    0.065147
  17 C :    0.079154
  18 C :   -0.285258
  19 C :   -0.018880
  20 O :   -0.523133
  21 H :    0.153923
  22 O :   -0.605053
  23 H :    0.145347
  24 H :    0.146475
  25 H :    0.171964
  26 H :    0.154095
  27 H :    0.133435
  28 H :    0.362255
Sum of atomic charges:   -0.0000000

LOEWDIN ATOMIC CHARGES
----------------------
   0 C :    0.178184
   1 C :   -0.227499
   2 C :   -0.223131
   3 C :   -0.033773
   4 O :   -0.315812
   5 H :    0.112344
   6 H :    0.119919
   7 H :    0.120527
   8 H :    0.117625
   9 H :    0.109403
  10 H :    0.102907
  11 H :    0.107096
  12 C :   -0.042678
  13 H :    0.113992
  14 H :    0.090091
  15 O :   -0.325583
  16 C :    0.015872
  17 C :    0.039472
  18 C :   -0.241886
  19 C :   -0.032788
  20 O :   -0.326908
  21 H :    0.114744
  22 O :   -0.418154
  23 H :    0.112941
  24 H :    0.117329
  25 H :    0.129348
  26 H :    0.109699
  27 H :    0.095022
  28 H :    0.281699

  Mayer bond orders larger than 0.100000
B(  0-C ,  1-C ) :   0.9172 B(  0-C ,  4-O ) :   0.9104 B(  0-C ,  5-H ) :   0.9365
B(  0-C , 15-O ) :   0.8745 B(  1-C ,  2-C ) :   0.9561 B(  1-C ,  6-H ) :   0.9346
B(  1-C ,  7-H ) :   0.9373 B(  2-C ,  3-C ) :   0.9483 B(  2-C ,  8-H ) :   0.9447
B(  2-C ,  9-H ) :   0.9408 B(  3-C ,  4-O ) :   0.8384 B(  3-C , 10-H ) :   0.9319
B(  3-C , 11-H ) :   0.9394 B( 12-C , 13-H ) :   0.9101 B( 12-C , 14-H ) :   0.9016
B( 12-C , 15-O ) :   0.8395 B( 12-C , 16-C ) :   0.9052 B( 16-C , 17-C ) :   0.9076
B( 16-C , 20-O ) :   0.8806 B( 16-C , 21-H ) :   0.9234 B( 17-C , 18-C ) :   0.9248
B( 17-C , 22-O ) :   0.8889 B( 17-C , 23-H ) :   0.9372 B( 18-C , 19-C ) :   0.9463
B( 18-C , 24-H ) :   0.9375 B( 18-C , 25-H ) :   0.9192 B( 19-C , 20-O ) :   0.8386
B( 19-C , 26-H ) :   0.9337 B( 19-C , 27-H ) :   0.9371 B( 22-O , 28-H ) :   0.7964

FINAL SINGLE POINT ENERGY      -652.860350814244

DIPOLE MOMENT
-------------
                                X             Y             Z
Electronic contribution:     -3.52479      -3.07696       1.54014
Nuclear contribution   :      4.55936       3.82067      -1.88479
                        -----------------------------------------
Total Dipole Moment    :      1.03456       0.74372      -0.34465
                        -----------------------------------------
Magnitude (a.u.)       :      1.31993
Magnitude (Debye)      :      3.35500

Rotational constants in cm-1:     0.059145     0.013557     0.013225
Rotational constants in MHz :  1773.110305   406.424641   396.484944

                             ****ORCA TERMINATED NORMALLY****
TOTAL RUN TIME: 0 days 0 hours 22 minutes 32 seconds 191 msec
