                         Program Version 4.2.0 -  RELEASE  -
|  1> # Test redundant internal optimization
|  2> #
|  3> ! RKS B3LYP  Opt TightSCF SmallPrint
|  4>
|  5> %basis
|  6>         Basis "6-31G"
|  7> end
|  8>
|  9> %geom
| 10> Constraints
| 11> { D 4  0  15  12  45.0   C } # D for Dihedral angle
| 12> { D 0  15  12  16  270.0   C } # D for Dihedral angle
| 13> { D 0  4  3  2   C } # D for Dihedral angle
| 14> { D 4  3  2  1   C } # D for Dihedral angle
| 15> { D 3  2  1  0   C } # D for Dihedral angle
| 16> { D 2  1  0  4   C } # D for Dihedral angle
| 17> { D 1  0  4  3   C } # D for Dihedral angle
| 18> { D 16  20  19  18   C } # D for Dihedral angle
| 19> { D 20  19  18  17   C } # D for Dihedral angle
| 20> { D 19  18  17  16   C } # D for Dihedral angle
| 21> { D 18  17  16  20   C } # D for Dihedral angle
| 22> { D 17  16  20  19   C } # D for Dihedral angle
| 23> { D 15  12  16  20   C } # D for Dihedral angle
| 24> end
| 25> end
| 26>
| 27>
| 28> #%pal
| 29> #nprocs 8
| 30> #end
| 31>
| 32> * xyz 0 1
| 33> C  -21.048   26.222   46.251
| 34> C  -20.361   27.558   45.944
| 35> C  -20.329   28.222   47.341
| 36> C  -20.110   27.022   48.296
| 37> O  -20.473   25.807   47.535
| 38> H  -20.833   25.428   45.533
| 39> H  -19.344   27.382   45.576
| 40> H  -20.898   28.157   45.201
| 41> H  -19.543   28.978   47.434
| 42> H  -21.289   28.710   47.548
| 43> H  -20.733   27.082   49.195
| 44> H  -19.064   26.913   48.597
| 45> C  -23.065   27.161   47.638
| 46> H  -22.300   27.892   47.929
| 47> H  -23.995   27.705   47.427
| 48> O  -22.586   26.394   46.375
| 49> C  -23.330   26.222   48.847
| 50> C  -23.910   26.996   50.036
| 51> C  -25.395   27.138   49.623
| 52> C  -25.682   25.810   48.880
| 53> O  -24.368   25.240   48.515
| 54> H  -22.420   25.663   49.072
| 55> H  -23.819   26.403   50.952
| 56> O  -23.217   28.366   50.269
| 57> H  -26.061   27.291   50.479
| 58> H  -25.518   27.993   48.947
| 59> H  -26.275   25.958   47.970
| 60> H  -26.186   25.076   49.516
| 61> H  -23.296   28.979   49.365
| 62> *
| 63>
| 64>                          ****END OF INPUT****
 Total Charge           Charge          ....    0
 Multiplicity           Mult            ....    1
 Number of Electrons    NEL             ....  102
FINAL SINGLE POINT ENERGY      -652.805353227136
FINAL SINGLE POINT ENERGY      -652.832691447431
FINAL SINGLE POINT ENERGY      -652.847392115866
FINAL SINGLE POINT ENERGY      -652.850270857925
FINAL SINGLE POINT ENERGY      -652.850896868652
FINAL SINGLE POINT ENERGY      -652.851058432693
FINAL SINGLE POINT ENERGY      -652.851076059513
FINAL SINGLE POINT ENERGY      -652.851068845891
FINAL SINGLE POINT ENERGY      -652.851066845186
                    ***********************HURRAY********************

CARTESIAN COORDINATES (ANGSTROEM)
---------------------------------
  C    -21.136719   26.313118   46.393624
  C    -20.310916   27.506057   45.888150
  C    -19.969548   28.247848   47.214273
  C    -19.792479   27.081630   48.218979
  O    -20.449508   25.899934   47.600208
  H    -21.095285   25.459541   45.714722
  H    -19.401339   27.126820   45.410699
  H    -20.861660   28.119651   45.171259
  H    -19.057690   28.848243   47.131492
  H    -20.778407   28.922622   47.506312
  H    -20.255551   27.276337   49.191566
  H    -18.742187   26.816316   48.368331
  C    -23.114534   27.237941   47.666684
  H    -22.457438   28.040142   48.015208
  H    -24.033667   27.687421   47.275330
  O    -22.560730   26.511682   46.533810
  C    -23.425577   26.297182   48.837277
  C    -24.061580   27.003020   50.045885
  C    -25.561810   27.059965   49.629649
  C    -25.750568   25.736336   48.855369
  O    -24.394935   25.264811   48.481987
  H    -22.508162   25.764391   49.096726
  H    -23.934799   26.384242   50.936954
  O    -23.469079   28.281564   50.397590
  H    -26.229558   27.150759   50.490405
  H    -25.727093   27.930256   48.979558
  H    -26.352439   25.855491   47.948800
  H    -26.202291   24.956010   49.476060
  H    -23.812452   28.988669   49.814093

 Multiplicity           Mult            ....    1
 Number of Electrons    NEL             ....  102
 Basis Dimension        Dim             ....  149

ORBITAL ENERGIES
----------------

  NO   OCC          E(Eh)            E(eV)
   0   2.0000     -19.151226      -521.1314
   1   2.0000     -19.143760      -520.9282
   2   2.0000     -19.137548      -520.7591
   3   2.0000     -19.130931      -520.5791
   4   2.0000     -10.274822      -279.5921
   5   2.0000     -10.243084      -278.7285
   6   2.0000     -10.229007      -278.3454
   7   2.0000     -10.228335      -278.3271
   8   2.0000     -10.226981      -278.2903
   9   2.0000     -10.221419      -278.1390
  10   2.0000     -10.195143      -277.4239
  11   2.0000     -10.192713      -277.3578
  12   2.0000     -10.187448      -277.2146
  13   2.0000      -1.049796       -28.5664
  14   2.0000      -1.031983       -28.0817
  15   2.0000      -1.011924       -27.5358
  16   2.0000      -0.991096       -26.9691
  17   2.0000      -0.787617       -21.4321
  18   2.0000      -0.780893       -21.2492
  19   2.0000      -0.767233       -20.8775
  20   2.0000      -0.731076       -19.8936
  21   2.0000      -0.680426       -18.5153
  22   2.0000      -0.609900       -16.5962
  23   2.0000      -0.602930       -16.4066
  24   2.0000      -0.599450       -16.3119
  25   2.0000      -0.564148       -15.3513
  26   2.0000      -0.519677       -14.1411
  27   2.0000      -0.515986       -14.0407
  28   2.0000      -0.501791       -13.6544
  29   2.0000      -0.492137       -13.3917
  30   2.0000      -0.463802       -12.6207
  31   2.0000      -0.456958       -12.4344
  32   2.0000      -0.437993       -11.9184
  33   2.0000      -0.431022       -11.7287
  34   2.0000      -0.425908       -11.5895
  35   2.0000      -0.417120       -11.3504
  36   2.0000      -0.412888       -11.2353
  37   2.0000      -0.399856       -10.8806
  38   2.0000      -0.378047       -10.2872
  39   2.0000      -0.376946       -10.2572
  40   2.0000      -0.359519        -9.7830
  41   2.0000      -0.355697        -9.6790
  42   2.0000      -0.342932        -9.3317
  43   2.0000      -0.327924        -8.9233
  44   2.0000      -0.318011        -8.6535
  45   2.0000      -0.315264        -8.5788
  46   2.0000      -0.304183        -8.2773
  47   2.0000      -0.270814        -7.3692
  48   2.0000      -0.260504        -7.0887
  49   2.0000      -0.254837        -6.9345
  50   2.0000      -0.229129        -6.2349
  51   0.0000       0.048499         1.3197
  52   0.0000       0.075837         2.0636
  53   0.0000       0.084748         2.3061
  54   0.0000       0.092006         2.5036
  55   0.0000       0.098865         2.6902

MULLIKEN ATOMIC CHARGES
-----------------------
   0 C :    0.295608
   1 C :   -0.264294
   2 C :   -0.317290
   3 C :   -0.021535
   4 O :   -0.506233
   5 H :    0.167934
   6 H :    0.151688
   7 H :    0.151888
   8 H :    0.145729
   9 H :    0.151078
  10 H :    0.154500
  11 H :    0.150670
  12 C :   -0.033433
  13 H :    0.126502
  14 H :    0.139059
  15 O :   -0.508336
  16 C :    0.090897
  17 C :    0.080776
  18 C :   -0.324285
  19 C :   -0.014407
  20 O :   -0.502137
  21 H :    0.184303
  22 H :    0.167102
  23 O :   -0.603208
  24 H :    0.157502
  25 H :    0.128564
  26 H :    0.147690
  27 H :    0.149486
  28 H :    0.354182
Sum of atomic charges:   -0.0000000

LOEWDIN ATOMIC CHARGES
----------------------
   0 C :    0.176294
   1 C :   -0.226665
   2 C :   -0.223922
   3 C :   -0.037248
   4 O :   -0.321340
   5 H :    0.113998
   6 H :    0.119221
   7 H :    0.120676
   8 H :    0.115835
   9 H :    0.108127
  10 H :    0.106312
  11 H :    0.106993
  12 C :   -0.052900
  13 H :    0.095998
  14 H :    0.105461
  15 O :   -0.309625
  16 C :    0.009744
  17 C :    0.032615
  18 C :   -0.241491
  19 C :   -0.031671
  20 O :   -0.311030
  21 H :    0.127965
  22 H :    0.119017
  23 O :   -0.412213
  24 H :    0.122076
  25 H :    0.101675
  26 H :    0.104065
  27 H :    0.105647
  28 H :    0.276385

  Mayer bond orders larger than 0.100000
B(  0-C ,  1-C ) :   0.9147 B(  0-C ,  4-O ) :   0.8927 B(  0-C ,  5-H ) :   0.9356
B(  0-C , 15-O ) :   0.8970 B(  1-C ,  2-C ) :   0.9546 B(  1-C ,  6-H ) :   0.9350
B(  1-C ,  7-H ) :   0.9380 B(  2-C ,  3-C ) :   0.9471 B(  2-C ,  8-H ) :   0.9445
B(  2-C ,  9-H ) :   0.9386 B(  3-C ,  4-O ) :   0.8399 B(  3-C , 10-H ) :   0.9287
B(  3-C , 11-H ) :   0.9392 B( 12-C , 13-H ) :   0.8917 B( 12-C , 14-H ) :   0.9415
B( 12-C , 15-O ) :   0.8601 B( 12-C , 16-C ) :   0.8873 B( 16-C , 17-C ) :   0.8676
B( 16-C , 20-O ) :   0.8656 B( 16-C , 21-H ) :   0.9176 B( 17-C , 18-C ) :   0.9267
B( 17-C , 22-H ) :   0.9331 B( 17-C , 23-O ) :   0.8873 B( 18-C , 19-C ) :   0.9394
B( 18-C , 24-H ) :   0.9413 B( 18-C , 25-H ) :   0.9412 B( 19-C , 20-O ) :   0.8546
B( 19-C , 26-H ) :   0.9303 B( 19-C , 27-H ) :   0.9372 B( 23-O , 28-H ) :   0.7999

FINAL SINGLE POINT ENERGY      -652.851066562397

DIPOLE MOMENT
-------------
                                X             Y             Z
Electronic contribution:     -0.64912      -4.41630      -0.17887
Nuclear contribution   :      0.46341       5.93533       0.16276
                        -----------------------------------------
Total Dipole Moment    :     -0.18570       1.51903      -0.01611
                        -----------------------------------------
Magnitude (a.u.)       :      1.53043
Magnitude (Debye)      :      3.89003

Rotational constants in cm-1:     0.049712     0.015783     0.013892
Rotational constants in MHz :  1490.327684   473.153558   416.477653

                             ****ORCA TERMINATED NORMALLY****
TOTAL RUN TIME: 0 days 0 hours 54 minutes 2 seconds 803 msec
