                         Program Version 4.2.0 -  RELEASE  -
|  1> # Test redundant internal optimization
|  2> #
|  3> ! RKS B3LYP  Opt TightSCF SmallPrint
|  4>
|  5> %basis
|  6>         Basis "6-31G"
|  7> end
|  8>
|  9> %geom
| 10> Constraints
| 11> { D 4  0  15  12  105.0   C } # D for Dihedral angle
| 12> { D 0  15  12  16  150.0   C } # D for Dihedral angle
| 13> { D 0  4  3  2   C } # D for Dihedral angle
| 14> { D 4  3  2  1   C } # D for Dihedral angle
| 15> { D 3  2  1  0   C } # D for Dihedral angle
| 16> { D 2  1  0  4   C } # D for Dihedral angle
| 17> { D 1  0  4  3   C } # D for Dihedral angle
| 18> { D 16  20  19  18   C } # D for Dihedral angle
| 19> { D 20  19  18  17   C } # D for Dihedral angle
| 20> { D 19  18  17  16   C } # D for Dihedral angle
| 21> { D 18  17  16  20   C } # D for Dihedral angle
| 22> { D 17  16  20  19   C } # D for Dihedral angle
| 23> { D 15  12  16  20   C } # D for Dihedral angle
| 24> end
| 25> end
| 26>
| 27>
| 28> #%pal
| 29> #nprocs 8
| 30> #end
| 31>
| 32> * xyz 0 1
| 33> C  -21.048   26.222   46.251
| 34> C  -20.361   27.558   45.944
| 35> C  -20.329   28.222   47.341
| 36> C  -20.110   27.022   48.296
| 37> O  -20.473   25.807   47.535
| 38> H  -20.833   25.428   45.533
| 39> H  -19.344   27.382   45.576
| 40> H  -20.898   28.157   45.201
| 41> H  -19.543   28.978   47.434
| 42> H  -21.289   28.710   47.548
| 43> H  -20.733   27.082   49.195
| 44> H  -19.064   26.913   48.597
| 45> C  -23.085   27.864   46.420
| 46> H  -23.109   28.206   47.462
| 47> H  -22.403   28.518   45.861
| 48> O  -22.586   26.394   46.375
| 49> C  -24.506   28.036   45.816
| 50> C  -24.571   27.493   44.383
| 51> C  -24.692   25.970   44.630
| 52> C  -25.548   25.889   45.919
| 53> O  -25.478   27.223   46.555
| 54> H  -24.815   29.077   45.919
| 55> O  -25.838   28.034   43.666
| 56> H  -23.694   27.757   43.782
| 57> H  -25.151   25.439   43.790
| 58> H  -23.699   25.536   44.799
| 59> H  -25.177   25.136   46.622
| 60> H  -26.602   25.688   45.708
| 61> H  -26.729   27.780   44.251
| 62> *
| 63>
| 64>                          ****END OF INPUT****
 Total Charge           Charge          ....    0
 Multiplicity           Mult            ....    1
 Number of Electrons    NEL             ....  102
FINAL SINGLE POINT ENERGY      -652.817834493682
FINAL SINGLE POINT ENERGY      -652.842412112192
FINAL SINGLE POINT ENERGY      -652.852974547543
FINAL SINGLE POINT ENERGY      -652.854990270550
FINAL SINGLE POINT ENERGY      -652.855328864048
FINAL SINGLE POINT ENERGY      -652.855373384375
FINAL SINGLE POINT ENERGY      -652.855376998433
                    ***********************HURRAY********************

CARTESIAN COORDINATES (ANGSTROEM)
---------------------------------
  C    -21.188350   26.354877   46.385849
  C    -20.281200   27.519134   45.971197
  C    -20.061633   28.257050   47.321406
  C    -20.026497   27.090233   48.339414
  O    -20.646590   25.931322   47.654671
  H    -21.115595   25.480447   45.737610
  H    -19.338123   27.099826   45.606323
  H    -20.694753   28.153786   45.182771
  H    -19.134276   28.837686   47.329296
  H    -20.886417   28.943968   47.534129
  H    -20.584871   27.302673   49.255408
  H    -19.006676   26.795022   48.602158
  C    -23.197810   27.936207   46.480477
  H    -23.303111   28.270578   47.520110
  H    -22.575825   28.659515   45.938965
  O    -22.615481   26.603664   46.460084
  C    -24.584969   27.923833   45.837480
  C    -24.667661   27.482249   44.368580
  C    -24.734862   25.937418   44.504272
  C    -25.556863   25.738648   45.802073
  O    -25.509630   27.029908   46.530124
  H    -24.992085   28.937913   45.942275
  O    -25.854636   28.036318   43.734548
  H    -23.832348   27.826912   43.757619
  H    -25.210568   25.492725   43.625555
  H    -23.728966   25.533915   44.623090
  H    -25.135117   24.962229   46.444757
  H    -26.611891   25.516980   45.610103
  H    -26.631197   27.865961   44.308654

 Multiplicity           Mult            ....    1
 Number of Electrons    NEL             ....  102
 Basis Dimension        Dim             ....  149

ORBITAL ENERGIES
----------------

  NO   OCC          E(Eh)            E(eV)
   0   2.0000     -19.147802      -521.0382
   1   2.0000     -19.141975      -520.8796
   2   2.0000     -19.135686      -520.7085
   3   2.0000     -19.135421      -520.7013
   4   2.0000     -10.285654      -279.8869
   5   2.0000     -10.237119      -278.5662
   6   2.0000     -10.236953      -278.5617
   7   2.0000     -10.234040      -278.4824
   8   2.0000     -10.230943      -278.3981
   9   2.0000     -10.219876      -278.0970
  10   2.0000     -10.200320      -277.5648
  11   2.0000     -10.198465      -277.5143
  12   2.0000     -10.175712      -276.8952
  13   2.0000      -1.054967       -28.7071
  14   2.0000      -1.031733       -28.0749
  15   2.0000      -1.004256       -27.3272
  16   2.0000      -0.995609       -27.0919
  17   2.0000      -0.795249       -21.6398
  18   2.0000      -0.780550       -21.2398
  19   2.0000      -0.764938       -20.8150
  20   2.0000      -0.736785       -20.0489
  21   2.0000      -0.680348       -18.5132
  22   2.0000      -0.610379       -16.6093
  23   2.0000      -0.603870       -16.4321
  24   2.0000      -0.596445       -16.2301
  25   2.0000      -0.568822       -15.4784
  26   2.0000      -0.525001       -14.2860
  27   2.0000      -0.513819       -13.9817
  28   2.0000      -0.507772       -13.8172
  29   2.0000      -0.487121       -13.2552
  30   2.0000      -0.473905       -12.8956
  31   2.0000      -0.456707       -12.4276
  32   2.0000      -0.450998       -12.2723
  33   2.0000      -0.435829       -11.8595
  34   2.0000      -0.426339       -11.6013
  35   2.0000      -0.421809       -11.4780
  36   2.0000      -0.403503       -10.9799
  37   2.0000      -0.388821       -10.5804
  38   2.0000      -0.385146       -10.4804
  39   2.0000      -0.367566       -10.0020
  40   2.0000      -0.364742        -9.9251
  41   2.0000      -0.362863        -9.8740
  42   2.0000      -0.352935        -9.6038
  43   2.0000      -0.326936        -8.8964
  44   2.0000      -0.319075        -8.6825
  45   2.0000      -0.303423        -8.2566
  46   2.0000      -0.298124        -8.1124
  47   2.0000      -0.273442        -7.4407
  48   2.0000      -0.264615        -7.2005
  49   2.0000      -0.257560        -7.0086
  50   2.0000      -0.238505        -6.4900
  51   0.0000       0.064219         1.7475
  52   0.0000       0.074346         2.0231
  53   0.0000       0.086768         2.3611
  54   0.0000       0.098741         2.6869
  55   0.0000       0.105909         2.8819

MULLIKEN ATOMIC CHARGES
-----------------------
   0 C :    0.316908
   1 C :   -0.305450
   2 C :   -0.308744
   3 C :   -0.006416
   4 O :   -0.495150
   5 H :    0.159090
   6 H :    0.160831
   7 H :    0.148397
   8 H :    0.148347
   9 H :    0.150240
  10 H :    0.150767
  11 H :    0.146734
  12 C :    0.007516
  13 H :    0.150803
  14 H :    0.125168
  15 O :   -0.529494
  16 C :    0.069210
  17 C :    0.076646
  18 C :   -0.280785
  19 C :   -0.022492
  20 O :   -0.523939
  21 H :    0.151910
  22 O :   -0.604270
  23 H :    0.141398
  24 H :    0.146090
  25 H :    0.166048
  26 H :    0.161041
  27 H :    0.135786
  28 H :    0.363808
Sum of atomic charges:   -0.0000000

LOEWDIN ATOMIC CHARGES
----------------------
   0 C :    0.177987
   1 C :   -0.232673
   2 C :   -0.222001
   3 C :   -0.030396
   4 O :   -0.315159
   5 H :    0.107932
   6 H :    0.125314
   7 H :    0.115159
   8 H :    0.117505
   9 H :    0.110349
  10 H :    0.106627
  11 H :    0.104692
  12 C :   -0.037225
  13 H :    0.106251
  14 H :    0.094974
  15 O :   -0.324020
  16 C :    0.013304
  17 C :    0.038814
  18 C :   -0.239330
  19 C :   -0.033200
  20 O :   -0.328124
  21 H :    0.113950
  22 O :   -0.417455
  23 H :    0.110943
  24 H :    0.117290
  25 H :    0.126268
  26 H :    0.113300
  27 H :    0.096159
  28 H :    0.282766

  Mayer bond orders larger than 0.100000
B(  0-C ,  1-C ) :   0.9305 B(  0-C ,  4-O ) :   0.9147 B(  0-C ,  5-H ) :   0.9336
B(  0-C , 15-O ) :   0.8745 B(  1-C ,  2-C ) :   0.9513 B(  1-C ,  6-H ) :   0.9333
B(  1-C ,  7-H ) :   0.9296 B(  2-C ,  3-C ) :   0.9484 B(  2-C ,  8-H ) :   0.9454
B(  2-C ,  9-H ) :   0.9406 B(  3-C ,  4-O ) :   0.8462 B(  3-C , 10-H ) :   0.9338
B(  3-C , 11-H ) :   0.9391 B( 12-C , 13-H ) :   0.9168 B( 12-C , 14-H ) :   0.8986
B( 12-C , 15-O ) :   0.8475 B( 12-C , 16-C ) :   0.9009 B( 16-C , 17-C ) :   0.9058
B( 16-C , 20-O ) :   0.8778 B( 16-C , 21-H ) :   0.9219 B( 17-C , 18-C ) :   0.9244
B( 17-C , 22-O ) :   0.8917 B( 17-C , 23-H ) :   0.9372 B( 18-C , 19-C ) :   0.9471
B( 18-C , 24-H ) :   0.9373 B( 18-C , 25-H ) :   0.9212 B( 19-C , 20-O ) :   0.8383
B( 19-C , 26-H ) :   0.9325 B( 19-C , 27-H ) :   0.9368 B( 22-O , 28-H ) :   0.7952

FINAL SINGLE POINT ENERGY      -652.855375691001

DIPOLE MOMENT
-------------
                                X             Y             Z
Electronic contribution:     -4.13852      -1.82661       0.40449
Nuclear contribution   :      5.20319       2.46843      -0.57880
                        -----------------------------------------
Total Dipole Moment    :      1.06467       0.64182      -0.17431
                        -----------------------------------------
Magnitude (a.u.)       :      1.25532
Magnitude (Debye)      :      3.19078

Rotational constants in cm-1:     0.059353     0.013491     0.012902
Rotational constants in MHz :  1779.366986   404.456534   386.784858

                             ****ORCA TERMINATED NORMALLY****
TOTAL RUN TIME: 0 days 1 hours 19 minutes 8 seconds 928 msec
