                         Program Version 4.2.0 -  RELEASE  -
|  1> # Test redundant internal optimization
|  2> #
|  3> ! RKS B3LYP  Opt TightSCF SmallPrint
|  4>
|  5> %basis
|  6>         Basis "6-31G"
|  7> end
|  8>
|  9> %geom
| 10> Constraints
| 11> { D 4  0  15  12  240.0   C } # D for Dihedral angle
| 12> { D 0  15  12  16  0.0   C } # D for Dihedral angle
| 13> { D 0  4  3  2   C } # D for Dihedral angle
| 14> { D 4  3  2  1   C } # D for Dihedral angle
| 15> { D 3  2  1  0   C } # D for Dihedral angle
| 16> { D 2  1  0  4   C } # D for Dihedral angle
| 17> { D 1  0  4  3   C } # D for Dihedral angle
| 18> { D 16  20  19  18   C } # D for Dihedral angle
| 19> { D 20  19  18  17   C } # D for Dihedral angle
| 20> { D 19  18  17  16   C } # D for Dihedral angle
| 21> { D 18  17  16  20   C } # D for Dihedral angle
| 22> { D 17  16  20  19   C } # D for Dihedral angle
| 23> { D 15  12  16  20   C } # D for Dihedral angle
| 24> end
| 25> end
| 26>
| 27>
| 28> #%pal
| 29> #nprocs 8
| 30> #end
| 31>
| 32> * xyz 0 1
| 33> C  -21.048   26.222   46.251
| 34> C  -20.361   27.558   45.944
| 35> C  -20.329   28.222   47.341
| 36> C  -20.110   27.022   48.296
| 37> O  -20.473   25.807   47.535
| 38> H  -20.833   25.428   45.533
| 39> H  -19.344   27.382   45.576
| 40> H  -20.898   28.157   45.201
| 41> H  -19.543   28.978   47.434
| 42> H  -21.289   28.710   47.548
| 43> H  -20.733   27.082   49.195
| 44> H  -19.064   26.913   48.597
| 45> C  -23.430   25.483   45.442
| 46> H  -24.087   24.850   46.052
| 47> H  -24.058   26.090   44.778
| 48> O  -22.586   26.394   46.375
| 49> C  -22.553   24.560   44.551
| 50> C  -23.411   23.761   43.564
| 51> C  -23.691   24.815   42.466
| 52> C  -22.379   25.637   42.427
| 53> O  -21.671   25.361   43.695
| 54> H  -21.912   23.949   45.190
| 55> O  -22.594   22.572   42.988
| 56> H  -24.328   23.364   44.015
| 57> H  -23.931   24.365   41.497
| 58> H  -24.536   25.449   42.759
| 59> H  -22.562   26.715   42.345
| 60> H  -21.716   25.328   41.613
| 61> H  -21.672   22.947   42.531
| 62> *
| 63>
| 64>                          ****END OF INPUT****
 Total Charge           Charge          ....    0
 Multiplicity           Mult            ....    1
 Number of Electrons    NEL             ....  102
FINAL SINGLE POINT ENERGY      -652.826240479476
FINAL SINGLE POINT ENERGY      -652.848759815765
FINAL SINGLE POINT ENERGY      -652.854570183952
FINAL SINGLE POINT ENERGY      -652.856800176366
FINAL SINGLE POINT ENERGY      -652.857085812661
FINAL SINGLE POINT ENERGY      -652.857135117949
                    ***********************HURRAY********************

CARTESIAN COORDINATES (ANGSTROEM)
---------------------------------
  C    -20.849739   26.233479   46.222835
  C    -20.305937   27.650001   46.034362
  C    -20.469489   28.247023   47.453371
  C    -20.189113   27.034522   48.369911
  O    -20.345355   25.833846   47.515147
  H    -20.500475   25.507887   45.493741
  H    -19.247791   27.598738   45.751167
  H    -20.851707   28.198632   45.264546
  H    -19.787038   29.080676   47.643721
  H    -21.496570   28.599551   47.586055
  H    -20.885258   26.962439   49.209985
  H    -19.162699   27.019093   48.750057
  C    -23.168651   25.506843   45.418561
  H    -23.816945   24.919362   46.082843
  H    -23.800062   26.215509   44.868112
  O    -22.300249   26.308777   46.267178
  C    -22.496847   24.545101   44.440352
  C    -23.494573   23.786122   43.551047
  C    -23.777863   24.827151   42.433817
  C    -22.409677   25.536871   42.262939
  O    -21.624720   25.243054   43.487289
  H    -21.862691   23.836469   44.981942
  O    -22.899165   22.571931   43.021379
  H    -24.393163   23.459017   44.075424
  H    -24.117907   24.332205   41.521182
  H    -24.554396   25.529443   42.755003
  H    -22.504900   26.621252   42.153930
  H    -21.838513   25.148888   41.414095
  H    -21.990508   22.767119   42.709008

 Multiplicity           Mult            ....    1
 Number of Electrons    NEL             ....  102
 Basis Dimension        Dim             ....  149

ORBITAL ENERGIES
----------------

  NO   OCC          E(Eh)            E(eV)
   0   2.0000     -19.154525      -521.2211
   1   2.0000     -19.145972      -520.9884
   2   2.0000     -19.131588      -520.5970
   3   2.0000     -19.126793      -520.4665
   4   2.0000     -10.266236      -279.3585
   5   2.0000     -10.251628      -278.9610
   6   2.0000     -10.243309      -278.7346
   7   2.0000     -10.240675      -278.6629
   8   2.0000     -10.234644      -278.4988
   9   2.0000     -10.214660      -277.9550
  10   2.0000     -10.197901      -277.4990
  11   2.0000     -10.175172      -276.8805
  12   2.0000     -10.172741      -276.8144
  13   2.0000      -1.048707       -28.5368
  14   2.0000      -1.037365       -28.2281
  15   2.0000      -1.014986       -27.6192
  16   2.0000      -0.982455       -26.7340
  17   2.0000      -0.793322       -21.5874
  18   2.0000      -0.777519       -21.1574
  19   2.0000      -0.768625       -20.9153
  20   2.0000      -0.728489       -19.8232
  21   2.0000      -0.675220       -18.3737
  22   2.0000      -0.613584       -16.6965
  23   2.0000      -0.608400       -16.5554
  24   2.0000      -0.587361       -15.9829
  25   2.0000      -0.565945       -15.4001
  26   2.0000      -0.534759       -14.5515
  27   2.0000      -0.511210       -13.9107
  28   2.0000      -0.493234       -13.4216
  29   2.0000      -0.484321       -13.1790
  30   2.0000      -0.475398       -12.9362
  31   2.0000      -0.456713       -12.4278
  32   2.0000      -0.450473       -12.2580
  33   2.0000      -0.436907       -11.8888
  34   2.0000      -0.427906       -11.6439
  35   2.0000      -0.410149       -11.1607
  36   2.0000      -0.402488       -10.9523
  37   2.0000      -0.393805       -10.7160
  38   2.0000      -0.381692       -10.3864
  39   2.0000      -0.369107       -10.0439
  40   2.0000      -0.361833        -9.8460
  41   2.0000      -0.346273        -9.4226
  42   2.0000      -0.342479        -9.3193
  43   2.0000      -0.336225        -9.1492
  44   2.0000      -0.322007        -8.7622
  45   2.0000      -0.306067        -8.3285
  46   2.0000      -0.299015        -8.1366
  47   2.0000      -0.280058        -7.6208
  48   2.0000      -0.257134        -6.9970
  49   2.0000      -0.251951        -6.8559
  50   2.0000      -0.234230        -6.3737
  51   0.0000       0.058124         1.5816
  52   0.0000       0.081240         2.2107
  53   0.0000       0.087069         2.3693
  54   0.0000       0.094270         2.5652
  55   0.0000       0.101467         2.7611

MULLIKEN ATOMIC CHARGES
-----------------------
   0 C :    0.275880
   1 C :   -0.243868
   2 C :   -0.298830
   3 C :    0.000754
   4 O :   -0.507472
   5 H :    0.176206
   6 H :    0.138992
   7 H :    0.143794
   8 H :    0.134674
   9 H :    0.159093
  10 H :    0.146416
  11 H :    0.136524
  12 C :    0.045627
  13 H :    0.141605
  14 H :    0.133672
  15 O :   -0.541761
  16 C :    0.012101
  17 C :    0.080986
  18 C :   -0.299426
  19 C :   -0.029219
  20 O :   -0.529184
  21 H :    0.178515
  22 O :   -0.598139
  23 H :    0.158408
  24 H :    0.165894
  25 H :    0.149099
  26 H :    0.153525
  27 H :    0.150139
  28 H :    0.365996
Sum of atomic charges:   -0.0000000

LOEWDIN ATOMIC CHARGES
----------------------
   0 C :    0.174978
   1 C :   -0.216094
   2 C :   -0.217714
   3 C :   -0.027092
   4 O :   -0.321668
   5 H :    0.113509
   6 H :    0.110678
   7 H :    0.117428
   8 H :    0.110478
   9 H :    0.117610
  10 H :    0.104678
  11 H :    0.099305
  12 C :   -0.030226
  13 H :    0.106752
  14 H :    0.099136
  15 O :   -0.335396
  16 C :   -0.002855
  17 C :    0.040623
  18 C :   -0.240501
  19 C :   -0.037200
  20 O :   -0.336072
  21 H :    0.121215
  22 O :   -0.410694
  23 H :    0.118975
  24 H :    0.128386
  25 H :    0.115276
  26 H :    0.107703
  27 H :    0.104626
  28 H :    0.284157

  Mayer bond orders larger than 0.100000
B(  0-C ,  1-C ) :   0.9428 B(  0-C ,  4-O ) :   0.9141 B(  0-C ,  5-H ) :   0.9006
B(  0-C , 15-O ) :   0.8326 B(  1-C ,  2-C ) :   0.9564 B(  1-C ,  6-H ) :   0.9391
B(  1-C ,  7-H ) :   0.9405 B(  2-C ,  3-C ) :   0.9543 B(  2-C ,  8-H ) :   0.9462
B(  2-C ,  9-H ) :   0.9441 B(  3-C ,  4-O ) :   0.8425 B(  3-C , 10-H ) :   0.9355
B(  3-C , 11-H ) :   0.9403 B( 12-C , 13-H ) :   0.9158 B( 12-C , 14-H ) :   0.9261
B( 12-C , 15-O ) :   0.8544 B( 12-C , 16-C ) :   0.9002 B( 16-C , 17-C ) :   0.8982
B( 16-C , 20-O ) :   0.8301 B( 16-C , 21-H ) :   0.9169 B( 17-C , 18-C ) :   0.9114
B( 17-C , 22-O ) :   0.8965 B( 17-C , 23-H ) :   0.9326 B( 18-C , 19-C ) :   0.9413
B( 18-C , 24-H ) :   0.9371 B( 18-C , 25-H ) :   0.9325 B( 19-C , 20-O ) :   0.8391
B( 19-C , 26-H ) :   0.9342 B( 19-C , 27-H ) :   0.9380 B( 22-O , 28-H ) :   0.7938

FINAL SINGLE POINT ENERGY      -652.857138163151

DIPOLE MOMENT
-------------
                                X             Y             Z
Electronic contribution:      0.47525      -4.72443       0.40947
Nuclear contribution   :     -0.83768       5.55226      -1.28648
                        -----------------------------------------
Total Dipole Moment    :     -0.36243       0.82784      -0.87701
                        -----------------------------------------
Magnitude (a.u.)       :      1.25929
Magnitude (Debye)      :      3.20086

Rotational constants in cm-1:     0.065526     0.012570     0.011946
Rotational constants in MHz :  1964.414911   376.824770   358.142252

                             ****ORCA TERMINATED NORMALLY****
TOTAL RUN TIME: 0 days 0 hours 21 minutes 48 seconds 587 msec
