                         Program Version 4.2.0 -  RELEASE  -
|  1> # Test redundant internal optimization
|  2> #
|  3> ! RKS B3LYP  Opt TightSCF SmallPrint
|  4>
|  5> %basis
|  6>         Basis "6-31G"
|  7> end
|  8>
|  9> %geom
| 10> Constraints
| 11> { D 4  0  15  12  345.0   C } # D for Dihedral angle
| 12> { D 0  15  12  16  255.0   C } # D for Dihedral angle
| 13> { D 0  4  3  2   C } # D for Dihedral angle
| 14> { D 4  3  2  1   C } # D for Dihedral angle
| 15> { D 3  2  1  0   C } # D for Dihedral angle
| 16> { D 2  1  0  4   C } # D for Dihedral angle
| 17> { D 1  0  4  3   C } # D for Dihedral angle
| 18> { D 16  20  19  18   C } # D for Dihedral angle
| 19> { D 20  19  18  17   C } # D for Dihedral angle
| 20> { D 19  18  17  16   C } # D for Dihedral angle
| 21> { D 18  17  16  20   C } # D for Dihedral angle
| 22> { D 17  16  20  19   C } # D for Dihedral angle
| 23> { D 15  12  16  20   C } # D for Dihedral angle
| 24> end
| 25> end
| 26>
| 27>
| 28> #%pal
| 29> #nprocs 8
| 30> #end
| 31>
| 32> * xyz 0 1
| 33> C  -21.048   26.222   46.251
| 34> C  -20.361   27.558   45.944
| 35> C  -20.329   28.222   47.341
| 36> C  -20.110   27.022   48.296
| 37> O  -20.473   25.807   47.535
| 38> H  -20.833   25.428   45.533
| 39> H  -19.344   27.382   45.576
| 40> H  -20.898   28.157   45.201
| 41> H  -19.543   28.978   47.434
| 42> H  -21.289   28.710   47.548
| 43> H  -20.733   27.082   49.195
| 44> H  -19.064   26.913   48.597
| 45> C  -23.221   25.764   47.645
| 46> H  -22.430   25.543   48.373
| 47> H  -23.928   26.464   48.109
| 48> O  -22.586   26.394   46.375
| 49> C  -23.989   24.448   47.343
| 50> C  -23.040   23.351   46.848
| 51> C  -22.409   22.860   48.173
| 52> C  -23.576   22.985   49.185
| 53> O  -24.566   23.897   48.574
| 54> H  -24.820   24.665   46.669
| 55> H  -23.611   22.547   46.371
| 56> O  -21.984   23.869   45.833
| 57> H  -22.023   21.838   48.106
| 58> H  -21.577   23.515   48.458
| 59> H  -23.254   23.398   50.147
| 60> H  -24.080   22.032   49.360
| 61> H  -21.400   24.676   46.290
| 62> *
| 63>
| 64>                          ****END OF INPUT****
 Total Charge           Charge          ....    0
 Multiplicity           Mult            ....    1
 Number of Electrons    NEL             ....  102
FINAL SINGLE POINT ENERGY      -652.793127646844
FINAL SINGLE POINT ENERGY      -652.837185643545
FINAL SINGLE POINT ENERGY      -652.853794210871
FINAL SINGLE POINT ENERGY      -652.857123361768
FINAL SINGLE POINT ENERGY      -652.858057691146
FINAL SINGLE POINT ENERGY      -652.858181370168
FINAL SINGLE POINT ENERGY      -652.858205841141
FINAL SINGLE POINT ENERGY      -652.858207814757
                    ***********************HURRAY********************

CARTESIAN COORDINATES (ANGSTROEM)
---------------------------------
  C    -21.013228   26.302304   46.296140
  C    -20.471721   27.702204   46.000731
  C    -20.376229   28.309673   47.420050
  C    -19.976604   27.101434   48.296024
  O    -20.308702   25.890911   47.490325
  H    -20.793072   25.562230   45.523886
  H    -19.482328   27.618037   45.536300
  H    -21.134514   28.259867   45.336489
  H    -19.646196   29.122245   47.482744
  H    -21.352576   28.701168   47.720517
  H    -20.521650   27.052922   49.242408
  H    -18.902248   27.052760   48.493898
  C    -23.135332   25.782525   47.592816
  H    -22.423271   25.597264   48.403462
  H    -23.862938   26.524323   47.933441
  O    -22.447827   26.384935   46.457722
  C    -23.903397   24.485807   47.277700
  C    -23.078340   23.263363   46.826736
  C    -22.476940   22.759745   48.181593
  C    -23.616825   23.061385   49.179806
  O    -24.513025   24.048092   48.533508
  H    -24.717919   24.696096   46.580351
  H    -23.767564   22.519510   46.416919
  O    -22.080519   23.454714   45.801183
  H    -22.209972   21.700667   48.145567
  H    -21.573817   23.340577   48.409747
  H    -23.256792   23.476085   50.126897
  H    -24.222428   22.175589   49.394379
  H    -21.253025   23.780568   46.208663

 Multiplicity           Mult            ....    1
 Number of Electrons    NEL             ....  102
 Basis Dimension        Dim             ....  149

ORBITAL ENERGIES
----------------

  NO   OCC          E(Eh)            E(eV)
   0   2.0000     -19.159156      -521.3471
   1   2.0000     -19.138004      -520.7716
   2   2.0000     -19.137467      -520.7570
   3   2.0000     -19.136860      -520.7404
   4   2.0000     -10.282665      -279.8055
   5   2.0000     -10.238365      -278.6001
   6   2.0000     -10.236768      -278.5566
   7   2.0000     -10.227689      -278.3096
   8   2.0000     -10.224768      -278.2301
   9   2.0000     -10.223218      -278.1879
  10   2.0000     -10.192997      -277.3656
  11   2.0000     -10.187713      -277.2218
  12   2.0000     -10.187651      -277.2201
  13   2.0000      -1.060339       -28.8533
  14   2.0000      -1.027775       -27.9672
  15   2.0000      -1.011212       -27.5165
  16   2.0000      -0.993878       -27.0448
  17   2.0000      -0.794022       -21.6064
  18   2.0000      -0.773303       -21.0427
  19   2.0000      -0.765771       -20.8377
  20   2.0000      -0.734225       -19.9793
  21   2.0000      -0.675424       -18.3792
  22   2.0000      -0.609390       -16.5823
  23   2.0000      -0.606891       -16.5143
  24   2.0000      -0.596461       -16.2305
  25   2.0000      -0.563193       -15.3253
  26   2.0000      -0.522542       -14.2191
  27   2.0000      -0.519590       -14.1388
  28   2.0000      -0.499757       -13.5991
  29   2.0000      -0.491467       -13.3735
  30   2.0000      -0.469215       -12.7680
  31   2.0000      -0.456898       -12.4328
  32   2.0000      -0.445275       -12.1165
  33   2.0000      -0.429762       -11.6944
  34   2.0000      -0.423466       -11.5231
  35   2.0000      -0.413915       -11.2632
  36   2.0000      -0.407246       -11.0817
  37   2.0000      -0.403996       -10.9933
  38   2.0000      -0.376122       -10.2348
  39   2.0000      -0.365841        -9.9551
  40   2.0000      -0.362282        -9.8582
  41   2.0000      -0.355325        -9.6689
  42   2.0000      -0.352549        -9.5933
  43   2.0000      -0.335701        -9.1349
  44   2.0000      -0.321816        -8.7571
  45   2.0000      -0.309141        -8.4122
  46   2.0000      -0.302088        -8.2202
  47   2.0000      -0.272189        -7.4066
  48   2.0000      -0.266137        -7.2420
  49   2.0000      -0.259166        -7.0523
  50   2.0000      -0.230846        -6.2816
  51   0.0000       0.059263         1.6126
  52   0.0000       0.077993         2.1223
  53   0.0000       0.088390         2.4052
  54   0.0000       0.095933         2.6105
  55   0.0000       0.104253         2.8369

MULLIKEN ATOMIC CHARGES
-----------------------
   0 C :    0.288461
   1 C :   -0.257473
   2 C :   -0.302944
   3 C :   -0.015594
   4 O :   -0.533624
   5 H :    0.154937
   6 H :    0.143448
   7 H :    0.166708
   8 H :    0.147489
   9 H :    0.160479
  10 H :    0.147771
  11 H :    0.152651
  12 C :   -0.023317
  13 H :    0.145098
  14 H :    0.158852
  15 O :   -0.531788
  16 C :    0.083453
  17 C :    0.100180
  18 C :   -0.343489
  19 C :   -0.010474
  20 O :   -0.521964
  21 H :    0.158265
  22 H :    0.161599
  23 O :   -0.604465
  24 H :    0.153991
  25 H :    0.158647
  26 H :    0.140589
  27 H :    0.149442
  28 H :    0.373075
Sum of atomic charges:   -0.0000000

LOEWDIN ATOMIC CHARGES
----------------------
   0 C :    0.173285
   1 C :   -0.216593
   2 C :   -0.217077
   3 C :   -0.029614
   4 O :   -0.336137
   5 H :    0.099810
   6 H :    0.112883
   7 H :    0.129326
   8 H :    0.117460
   9 H :    0.118265
  10 H :    0.104221
  11 H :    0.107815
  12 C :   -0.046390
  13 H :    0.102398
  14 H :    0.114725
  15 O :   -0.336147
  16 C :    0.016919
  17 C :    0.037445
  18 C :   -0.247112
  19 C :   -0.031017
  20 O :   -0.322793
  21 H :    0.114825
  22 H :    0.114677
  23 O :   -0.405117
  24 H :    0.121465
  25 H :    0.114953
  26 H :    0.100550
  27 H :    0.105371
  28 H :    0.281604

  Mayer bond orders larger than 0.100000
B(  0-C ,  1-C ) :   0.9365 B(  0-C ,  4-O ) :   0.8848 B(  0-C ,  5-H ) :   0.9082
B(  0-C , 15-O ) :   0.8560 B(  1-C ,  2-C ) :   0.9520 B(  1-C ,  6-H ) :   0.9364
B(  1-C ,  7-H ) :   0.9352 B(  2-C ,  3-C ) :   0.9558 B(  2-C ,  8-H ) :   0.9442
B(  2-C ,  9-H ) :   0.9444 B(  3-C ,  4-O ) :   0.8201 B(  3-C , 10-H ) :   0.9338
B(  3-C , 11-H ) :   0.9406 B( 12-C , 13-H ) :   0.9156 B( 12-C , 14-H ) :   0.9344
B( 12-C , 15-O ) :   0.8345 B( 12-C , 16-C ) :   0.8916 B( 16-C , 17-C ) :   0.8844
B( 16-C , 20-O ) :   0.8319 B( 16-C , 21-H ) :   0.9335 B( 17-C , 18-C ) :   0.9286
B( 17-C , 22-H ) :   0.9322 B( 17-C , 23-O ) :   0.9090 B( 18-C , 19-C ) :   0.9418
B( 18-C , 24-H ) :   0.9414 B( 18-C , 25-H ) :   0.9310 B( 19-C , 20-O ) :   0.8393
B( 19-C , 26-H ) :   0.9334 B( 19-C , 27-H ) :   0.9381 B( 23-O , 28-H ) :   0.7734

FINAL SINGLE POINT ENERGY      -652.858208034821

DIPOLE MOMENT
-------------
                                X             Y             Z
Electronic contribution:     -3.16286      -2.33453      -2.62705
Nuclear contribution   :      4.22541       2.81289       3.40577
                        -----------------------------------------
Total Dipole Moment    :      1.06256       0.47836       0.77872
                        -----------------------------------------
Magnitude (a.u.)       :      1.40152
Magnitude (Debye)      :      3.56238

Rotational constants in cm-1:     0.050278     0.015878     0.015272
Rotational constants in MHz :  1507.299206   476.020738   457.844284

                             ****ORCA TERMINATED NORMALLY****
TOTAL RUN TIME: 0 days 0 hours 31 minutes 18 seconds 813 msec
