                         Program Version 4.2.1 -  RELEASE  -
|  1> # Test redundant internal optimization
|  2> #
|  3> ! RKS B3LYP  Opt TightSCF SmallPrint
|  4>
|  5> %basis
|  6>         Basis "6-31G"
|  7> end
|  8>
|  9> %geom
| 10> Constraints
| 11> { D 4  0  19  14  135.0   C } # D for Dihedral angle
| 12> { D 0  19  14  12  105.0   C } # D for Dihedral angle
| 13> { D 0  4  3  2   C } # D for Dihedral angle
| 14> { D 4  3  2  1   C } # D for Dihedral angle
| 15> { D 3  2  1  0   C } # D for Dihedral angle
| 16> { D 2  1  0  4   C } # D for Dihedral angle
| 17> { D 1  0  4  3   C } # D for Dihedral angle
| 18> { D 14  15  16  17   C } # D for Dihedral angle
| 19> { D 15  16  17  12   C } # D for Dihedral angle
| 20> { D 16  17  12  14   C } # D for Dihedral angle
| 21> { D 17  12  14  15   C } # D for Dihedral angle
| 22> { D 12  14  15  16   C } # D for Dihedral angle
| 23> end
| 24> end
| 25>
| 26>
| 27> #%pal
| 28> #nprocs 8
| 29> #end
| 30>
| 31> * xyz 0 1
| 32> C  -21.048   26.222   46.251
| 33> C  -20.361   27.558   45.944
| 34> C  -20.329   28.222   47.341
| 35> C  -20.110   27.022   48.296
| 36> O  -20.473   25.807   47.535
| 37> H  -20.833   25.428   45.533
| 38> H  -19.344   27.382   45.576
| 39> H  -20.898   28.157   45.201
| 40> H  -19.543   28.978   47.434
| 41> H  -21.289   28.710   47.548
| 42> H  -20.733   27.082   49.195
| 43> H  -19.064   26.913   48.597
| 44> C  -23.692   27.230   44.439
| 45> H  -23.837   28.126   43.815
| 46> C  -22.986   27.575   45.755
| 47> C  -24.148   28.160   46.591
| 48> C  -25.366   27.316   46.141
| 49> O  -24.988   26.684   44.857
| 50> H  -23.197   26.459   43.848
| 51> O  -22.472   26.381   46.366
| 52> H  -22.158   28.281   45.626
| 53> H  -23.970   28.096   47.669
| 54> H  -24.298   29.218   46.341
| 55> H  -26.266   27.922   45.991
| 56> H  -25.596   26.508   46.842
| 57> *
| 58>
| 59>                          ****END OF INPUT****
 Total Charge           Charge          ....    0
 Multiplicity           Mult            ....    1
 Number of Electrons    NEL             ....   86
FINAL SINGLE POINT ENERGY      -538.399808595756
FINAL SINGLE POINT ENERGY      -538.421163044805
FINAL SINGLE POINT ENERGY      -538.422832063059
FINAL SINGLE POINT ENERGY      -538.423223406063
FINAL SINGLE POINT ENERGY      -538.423252804446
FINAL SINGLE POINT ENERGY      -538.423260143790
                    ***********************HURRAY********************

CARTESIAN COORDINATES (ANGSTROEM)
---------------------------------
  C    -21.045631   26.290053   46.272849
  C    -20.132822   27.478243   45.961193
  C    -20.095980   28.224492   47.321893
  C    -20.145999   27.064199   48.341902
  O    -20.646021   25.886512   47.595623
  H    -20.892115   25.418534   45.633336
  H    -19.140593   27.082952   45.717541
  H    -20.451722   28.103473   45.124057
  H    -19.199036   28.840771   47.434497
  H    -20.970118   28.876521   47.426997
  H    -20.816139   27.261525   49.182998
  H    -19.156496   26.798580   48.725208
  C    -23.819654   27.336140   44.389233
  H    -24.086141   28.235428   43.811342
  C    -23.103143   27.720205   45.684528
  C    -24.285609   28.127574   46.587202
  C    -25.411523   27.158046   46.157894
  O    -25.015678   26.622573   44.835006
  H    -23.245780   26.652916   43.760143
  O    -22.478737   26.557050   46.297270
  H    -22.392996   28.540786   45.544645
  H    -24.019810   28.032192   47.642709
  H    -24.562267   29.169310   46.384702
  H    -26.383305   27.655423   46.066351
  H    -25.501683   26.303504   46.832881

 Multiplicity           Mult            ....    1
 Number of Electrons    NEL             ....   86
 Basis Dimension        Dim             ....  127

ORBITAL ENERGIES
----------------

  NO   OCC          E(Eh)            E(eV)
   0   2.0000     -19.139312      -520.8071
   1   2.0000     -19.136146      -520.7210
   2   2.0000     -19.125581      -520.4335
   3   2.0000     -10.281647      -279.7778
   4   2.0000     -10.242966      -278.7253
   5   2.0000     -10.228422      -278.3295
   6   2.0000     -10.221482      -278.1407
   7   2.0000     -10.216923      -278.0166
   8   2.0000     -10.196691      -277.4661
   9   2.0000     -10.196019      -277.4478
  10   2.0000     -10.184898      -277.1452
  11   2.0000      -1.051351       -28.6087
  12   2.0000      -1.012903       -27.5625
  13   2.0000      -0.986900       -26.8549
  14   2.0000      -0.793177       -21.5834
  15   2.0000      -0.784068       -21.3356
  16   2.0000      -0.739005       -20.1094
  17   2.0000      -0.726069       -19.7573
  18   2.0000      -0.621162       -16.9027
  19   2.0000      -0.605310       -16.4713
  20   2.0000      -0.595133       -16.1944
  21   2.0000      -0.564647       -15.3648
  22   2.0000      -0.529136       -14.3985
  23   2.0000      -0.505199       -13.7472
  24   2.0000      -0.489049       -13.3077
  25   2.0000      -0.480535       -13.0760
  26   2.0000      -0.451597       -12.2886
  27   2.0000      -0.448407       -12.2018
  28   2.0000      -0.429244       -11.6803
  29   2.0000      -0.422790       -11.5047
  30   2.0000      -0.405356       -11.0303
  31   2.0000      -0.386258       -10.5106
  32   2.0000      -0.373557       -10.1650
  33   2.0000      -0.366703        -9.9785
  34   2.0000      -0.364544        -9.9197
  35   2.0000      -0.360020        -9.7966
  36   2.0000      -0.353943        -9.6313
  37   2.0000      -0.314991        -8.5713
  38   2.0000      -0.302338        -8.2270
  39   2.0000      -0.291952        -7.9444
  40   2.0000      -0.264029        -7.1846
  41   2.0000      -0.250382        -6.8132
  42   2.0000      -0.230276        -6.2661
  43   0.0000       0.068118         1.8536
  44   0.0000       0.095044         2.5863
  45   0.0000       0.097170         2.6441
  46   0.0000       0.105917         2.8822
  47   0.0000       0.112228         3.0539

MULLIKEN ATOMIC CHARGES
-----------------------
   0 C :    0.321189
   1 C :   -0.305016
   2 C :   -0.304312
   3 C :   -0.000800
   4 O :   -0.494051
   5 H :    0.156053
   6 H :    0.157107
   7 H :    0.143805
   8 H :    0.146278
   9 H :    0.150915
  10 H :    0.149227
  11 H :    0.144753
  12 C :    0.009585
  13 H :    0.119190
  14 C :    0.053238
  15 C :   -0.284907
  16 C :    0.004650
  17 O :   -0.517238
  18 H :    0.154662
  19 O :   -0.520386
  20 H :    0.125002
  21 H :    0.162128
  22 H :    0.135907
  23 H :    0.131635
  24 H :    0.161385
Sum of atomic charges:   -0.0000000

LOEWDIN ATOMIC CHARGES
----------------------
   0 C :    0.185589
   1 C :   -0.234357
   2 C :   -0.219469
   3 C :   -0.028143
   4 O :   -0.307985
   5 H :    0.104742
   6 H :    0.122871
   7 H :    0.112904
   8 H :    0.116375
   9 H :    0.109767
  10 H :    0.106286
  11 H :    0.103995
  12 C :   -0.044575
  13 H :    0.088618
  14 C :    0.034916
  15 C :   -0.226385
  16 C :   -0.026607
  17 O :   -0.328015
  18 H :    0.115410
  19 O :   -0.326883
  20 H :    0.095697
  21 H :    0.126861
  22 H :    0.109206
  23 H :    0.096671
  24 H :    0.112511

  Mayer bond orders larger than 0.100000
B(  0-C ,  1-C ) :   0.9309 B(  0-C ,  4-O ) :   0.9227 B(  0-C ,  5-H ) :   0.9279
B(  0-C , 19-O ) :   0.8588 B(  1-C ,  2-C ) :   0.9491 B(  1-C ,  6-H ) :   0.9331
B(  1-C ,  7-H ) :   0.9275 B(  2-C ,  3-C ) :   0.9510 B(  2-C ,  8-H ) :   0.9456
B(  2-C ,  9-H ) :   0.9431 B(  3-C ,  4-O ) :   0.8441 B(  3-C , 10-H ) :   0.9341
B(  3-C , 11-H ) :   0.9393 B( 12-C , 13-H ) :   0.9099 B( 12-C , 14-C ) :   0.9165
B( 12-C , 17-O ) :   0.8789 B( 12-C , 18-H ) :   0.9347 B( 14-C , 15-C ) :   0.9487
B( 14-C , 19-O ) :   0.8350 B( 14-C , 20-H ) :   0.9066 B( 15-C , 16-C ) :   0.9480
B( 15-C , 21-H ) :   0.9373 B( 15-C , 22-H ) :   0.9417 B( 16-C , 17-O ) :   0.8542
B( 16-C , 23-H ) :   0.9336 B( 16-C , 24-H ) :   0.9348

FINAL SINGLE POINT ENERGY      -538.423260864863

DIPOLE MOMENT
-------------
                                X             Y             Z
Electronic contribution:     -1.51739      -5.10984      -0.81560
Nuclear contribution   :      2.45542       6.81176       0.83882
                        -----------------------------------------
Total Dipole Moment    :      0.93803       1.70193       0.02322
                        -----------------------------------------
Magnitude (a.u.)       :      1.94345
Magnitude (Debye)      :      4.93986

Rotational constants in cm-1:     0.081798     0.020568     0.020106
Rotational constants in MHz :  2452.251398   616.599688   602.762278

                             ****ORCA TERMINATED NORMALLY****
TOTAL RUN TIME: 0 days 0 hours 7 minutes 10 seconds 610 msec
