                         Program Version 4.2.0 -  RELEASE  -
|  1> # Test redundant internal optimization
|  2> #
|  3> ! RKS B3LYP  Opt TightSCF SmallPrint
|  4>
|  5> %basis
|  6>         Basis "6-31G"
|  7> end
|  8>
|  9> %geom
| 10> Constraints
| 11> { D 4  0  15  12  180.0   C } # D for Dihedral angle
| 12> { D 0  15  12  16  135.0   C } # D for Dihedral angle
| 13> { D 0  4  3  2   C } # D for Dihedral angle
| 14> { D 4  3  2  1   C } # D for Dihedral angle
| 15> { D 3  2  1  0   C } # D for Dihedral angle
| 16> { D 2  1  0  4   C } # D for Dihedral angle
| 17> { D 1  0  4  3   C } # D for Dihedral angle
| 18> { D 16  20  19  18   C } # D for Dihedral angle
| 19> { D 20  19  18  17   C } # D for Dihedral angle
| 20> { D 19  18  17  16   C } # D for Dihedral angle
| 21> { D 18  17  16  20   C } # D for Dihedral angle
| 22> { D 17  16  20  19   C } # D for Dihedral angle
| 23> { D 15  12  16  20   C } # D for Dihedral angle
| 24> end
| 25> end
| 26>
| 27>
| 28> #%pal
| 29> #nprocs 8
| 30> #end
| 31>
| 32> * xyz 0 1
| 33> C  -21.048   26.222   46.251
| 34> C  -20.361   27.558   45.944
| 35> C  -20.329   28.222   47.341
| 36> C  -20.110   27.022   48.296
| 37> O  -20.473   25.807   47.535
| 38> H  -20.833   25.428   45.533
| 39> H  -19.344   27.382   45.576
| 40> H  -20.898   28.157   45.201
| 41> H  -19.543   28.978   47.434
| 42> H  -21.289   28.710   47.548
| 43> H  -20.733   27.082   49.195
| 44> H  -19.064   26.913   48.597
| 45> C  -23.309   26.834   45.072
| 46> H  -23.576   27.895   45.147
| 47> H  -22.648   26.707   44.205
| 48> O  -22.586   26.394   46.375
| 49> C  -24.605   26.021   44.801
| 50> C  -25.658   26.275   45.885
| 51> C  -26.238   27.641   45.446
| 52> C  -26.192   27.560   43.899
| 53> O  -25.245   26.476   43.562
| 54> H  -24.345   24.970   44.659
| 55> H  -26.430   25.498   45.849
| 56> O  -25.062   26.306   47.320
| 57> H  -27.250   27.814   45.825
| 58> H  -25.600   28.455   45.810
| 59> H  -25.847   28.493   43.441
| 60> H  -27.159   27.290   43.467
| 61> H  -24.287   27.078   47.379
| 62> *
| 63>
| 64>                          ****END OF INPUT****
 Total Charge           Charge          ....    0
 Multiplicity           Mult            ....    1
 Number of Electrons    NEL             ....  102
FINAL SINGLE POINT ENERGY      -652.828279235101
FINAL SINGLE POINT ENERGY      -652.852410753808
FINAL SINGLE POINT ENERGY      -652.858675191222
FINAL SINGLE POINT ENERGY      -652.861124242921
FINAL SINGLE POINT ENERGY      -652.862675001235
FINAL SINGLE POINT ENERGY      -652.863666642488
FINAL SINGLE POINT ENERGY      -652.864220126596
FINAL SINGLE POINT ENERGY      -652.864368819545
FINAL SINGLE POINT ENERGY      -652.864390989877
FINAL SINGLE POINT ENERGY      -652.864395273718
                    ***********************HURRAY********************

CARTESIAN COORDINATES (ANGSTROEM)
---------------------------------
  C    -21.118861   26.245357   46.191589
  C    -20.327535   27.521018   45.916114
  C    -20.382865   28.236586   47.287810
  C    -20.330203   27.065752   48.288703
  O    -20.704309   25.855432   47.501475
  H    -20.928420   25.410050   45.511736
  H    -19.297961   27.249196   45.656254
  H    -20.735998   28.125116   45.101269
  H    -19.556400   28.940087   47.424637
  H    -21.323366   28.787150   47.384600
  H    -21.033438   27.168595   49.118116
  H    -19.326685   26.879548   48.680470
  C    -23.221411   26.915046   45.002857
  H    -23.415740   27.992924   45.043669
  H    -22.584046   26.709684   44.134219
  O    -22.562500   26.496582   46.245319
  C    -24.515870   26.107135   44.865572
  C    -25.552166   26.349153   45.974861
  C    -26.206834   27.681669   45.509553
  C    -26.200346   27.557310   43.972216
  O    -25.205320   26.493880   43.636581
  H    -24.261241   25.047953   44.766508
  H    -26.296876   25.544617   45.933515
  O    -25.041956   26.414943   47.319850
  H    -27.211510   27.806629   45.921493
  H    -25.592937   28.516779   45.863304
  H    -25.909948   28.481239   43.462214
  H    -27.160574   27.220686   43.571361
  H    -24.056683   26.367883   47.307133

 Multiplicity           Mult            ....    1
 Number of Electrons    NEL             ....  102
 Basis Dimension        Dim             ....  149

ORBITAL ENERGIES
----------------

  NO   OCC          E(Eh)            E(eV)
   0   2.0000     -19.161692      -521.4162
   1   2.0000     -19.153362      -521.1895
   2   2.0000     -19.140693      -520.8447
   3   2.0000     -19.109021      -519.9829
   4   2.0000     -10.294431      -280.1257
   5   2.0000     -10.241047      -278.6731
   6   2.0000     -10.234709      -278.5006
   7   2.0000     -10.233780      -278.4753
   8   2.0000     -10.228522      -278.3322
   9   2.0000     -10.226286      -278.2714
  10   2.0000     -10.198659      -277.5196
  11   2.0000     -10.196567      -277.4627
  12   2.0000     -10.178067      -276.9593
  13   2.0000      -1.067451       -29.0468
  14   2.0000      -1.025620       -27.9085
  15   2.0000      -1.008105       -27.4319
  16   2.0000      -0.988958       -26.9109
  17   2.0000      -0.797658       -21.7054
  18   2.0000      -0.774182       -21.0666
  19   2.0000      -0.767419       -20.8825
  20   2.0000      -0.738777       -20.1032
  21   2.0000      -0.681610       -18.5476
  22   2.0000      -0.611621       -16.6431
  23   2.0000      -0.600834       -16.3495
  24   2.0000      -0.595537       -16.2054
  25   2.0000      -0.578191       -15.7334
  26   2.0000      -0.528415       -14.3789
  27   2.0000      -0.523667       -14.2497
  28   2.0000      -0.503250       -13.6941
  29   2.0000      -0.489426       -13.3179
  30   2.0000      -0.475869       -12.9491
  31   2.0000      -0.461875       -12.5682
  32   2.0000      -0.448336       -12.1998
  33   2.0000      -0.434167       -11.8143
  34   2.0000      -0.428224       -11.6526
  35   2.0000      -0.414864       -11.2890
  36   2.0000      -0.412670       -11.2293
  37   2.0000      -0.387154       -10.5350
  38   2.0000      -0.384050       -10.4505
  39   2.0000      -0.370896       -10.0926
  40   2.0000      -0.366898        -9.9838
  41   2.0000      -0.364533        -9.9194
  42   2.0000      -0.348845        -9.4925
  43   2.0000      -0.342410        -9.3175
  44   2.0000      -0.322179        -8.7669
  45   2.0000      -0.319039        -8.6815
  46   2.0000      -0.281601        -7.6627
  47   2.0000      -0.276907        -7.5350
  48   2.0000      -0.271610        -7.3909
  49   2.0000      -0.246432        -6.7057
  50   2.0000      -0.240309        -6.5391
  51   0.0000       0.058179         1.5831
  52   0.0000       0.075674         2.0592
  53   0.0000       0.087649         2.3850
  54   0.0000       0.097086         2.6418
  55   0.0000       0.105500         2.8708

MULLIKEN ATOMIC CHARGES
-----------------------
   0 C :    0.313270
   1 C :   -0.279710
   2 C :   -0.299749
   3 C :   -0.007635
   4 O :   -0.500672
   5 H :    0.153380
   6 H :    0.153409
   7 H :    0.149325
   8 H :    0.148087
   9 H :    0.161157
  10 H :    0.161699
  11 H :    0.148999
  12 C :   -0.027455
  13 H :    0.148959
  14 H :    0.151044
  15 O :   -0.555619
  16 C :    0.054735
  17 C :    0.122785
  18 C :   -0.299133
  19 C :   -0.018195
  20 O :   -0.523469
  21 H :    0.157249
  22 H :    0.146795
  23 O :   -0.643471
  24 H :    0.150894
  25 H :    0.144002
  26 H :    0.139563
  27 H :    0.148633
  28 H :    0.401125
Sum of atomic charges:    0.0000000

LOEWDIN ATOMIC CHARGES
----------------------
   0 C :    0.185180
   1 C :   -0.230829
   2 C :   -0.216335
   3 C :   -0.024899
   4 O :   -0.299325
   5 H :    0.103793
   6 H :    0.119053
   7 H :    0.117006
   8 H :    0.117645
   9 H :    0.118145
  10 H :    0.113120
  11 H :    0.106601
  12 C :   -0.048183
  13 H :    0.103210
  14 H :    0.108884
  15 O :   -0.349887
  16 C :    0.015593
  17 C :    0.042305
  18 C :   -0.234984
  19 C :   -0.031768
  20 O :   -0.326458
  21 H :    0.114638
  22 H :    0.103513
  23 O :   -0.435963
  24 H :    0.121463
  25 H :    0.110783
  26 H :    0.100604
  27 H :    0.105822
  28 H :    0.291273

  Mayer bond orders larger than 0.100000
B(  0-C ,  1-C ) :   0.9320 B(  0-C ,  4-O ) :   0.9538 B(  0-C ,  5-H ) :   0.9214
B(  0-C , 15-O ) :   0.7887 B(  1-C ,  2-C ) :   0.9495 B(  1-C ,  6-H ) :   0.9332
B(  1-C ,  7-H ) :   0.9319 B(  2-C ,  3-C ) :   0.9553 B(  2-C ,  8-H ) :   0.9445
B(  2-C ,  9-H ) :   0.9447 B(  3-C ,  4-O ) :   0.8262 B(  3-C , 10-H ) :   0.9338
B(  3-C , 11-H ) :   0.9394 B( 12-C , 13-H ) :   0.9249 B( 12-C , 14-H ) :   0.9236
B( 12-C , 15-O ) :   0.7909 B( 12-C , 16-C ) :   0.8945 B( 16-C , 17-C ) :   0.9168
B( 16-C , 20-O ) :   0.8553 B( 16-C , 21-H ) :   0.9298 B( 17-C , 18-C ) :   0.9042
B( 17-C , 22-H ) :   0.9277 B( 17-C , 23-O ) :   0.9350 B( 18-C , 19-C ) :   0.9380
B( 18-C , 24-H ) :   0.9447 B( 18-C , 25-H ) :   0.9434 B( 19-C , 20-O ) :   0.8318
B( 19-C , 26-H ) :   0.9349 B( 19-C , 27-H ) :   0.9388 B( 23-O , 28-H ) :   0.7219

FINAL SINGLE POINT ENERGY      -652.864396167453

DIPOLE MOMENT
-------------
                                X             Y             Z
Electronic contribution:     -1.13521      -5.26378       0.34596
Nuclear contribution   :      2.14712       6.45789      -0.89760
                        -----------------------------------------
Total Dipole Moment    :      1.01192       1.19411      -0.55164
                        -----------------------------------------
Magnitude (a.u.)       :      1.65957
Magnitude (Debye)      :      4.21829

Rotational constants in cm-1:     0.057239     0.013290     0.012423
Rotational constants in MHz :  1715.994961   398.431636   372.445599

                             ****ORCA TERMINATED NORMALLY****
TOTAL RUN TIME: 0 days 0 hours 51 minutes 45 seconds 833 msec
