                         Program Version 4.2.0 -  RELEASE  -
|  1> # Test redundant internal optimization
|  2> #
|  3> ! RKS B3LYP  Opt TightSCF SmallPrint
|  4>
|  5> %basis
|  6>         Basis "6-31G"
|  7> end
|  8>
|  9> %geom
| 10> Constraints
| 11> { D 4  0  15  12  45.0   C } # D for Dihedral angle
| 12> { D 0  15  12  16  105.0   C } # D for Dihedral angle
| 13> { D 0  4  3  2   C } # D for Dihedral angle
| 14> { D 4  3  2  1   C } # D for Dihedral angle
| 15> { D 3  2  1  0   C } # D for Dihedral angle
| 16> { D 2  1  0  4   C } # D for Dihedral angle
| 17> { D 1  0  4  3   C } # D for Dihedral angle
| 18> { D 16  20  19  18   C } # D for Dihedral angle
| 19> { D 20  19  18  17   C } # D for Dihedral angle
| 20> { D 19  18  17  16   C } # D for Dihedral angle
| 21> { D 18  17  16  20   C } # D for Dihedral angle
| 22> { D 17  16  20  19   C } # D for Dihedral angle
| 23> { D 15  12  16  20   C } # D for Dihedral angle
| 24> end
| 25> end
| 26>
| 27>
| 28> #%pal
| 29> #nprocs 8
| 30> #end
| 31>
| 32> * xyz 0 1
| 33> C  -21.048   26.222   46.251
| 34> C  -20.361   27.558   45.944
| 35> C  -20.329   28.222   47.341
| 36> C  -20.110   27.022   48.296
| 37> O  -20.473   25.807   47.535
| 38> H  -20.833   25.428   45.533
| 39> H  -19.344   27.382   45.576
| 40> H  -20.898   28.157   45.201
| 41> H  -19.543   28.978   47.434
| 42> H  -21.289   28.710   47.548
| 43> H  -20.733   27.082   49.195
| 44> H  -19.064   26.913   48.597
| 45> C  -23.065   27.161   47.638
| 46> H  -23.907   26.624   48.090
| 47> H  -22.258   27.222   48.379
| 48> O  -22.586   26.394   46.375
| 49> C  -23.525   28.611   47.321
| 50> C  -24.765   28.617   46.419
| 51> C  -25.893   28.317   47.434
| 52> C  -25.414   29.043   48.717
| 53> O  -23.966   29.288   48.545
| 54> H  -22.678   29.178   46.929
| 55> H  -24.900   29.609   45.973
| 56> O  -24.690   27.571   45.273
| 57> H  -26.872   28.669   47.096
| 58> H  -25.966   27.236   47.606
| 59> H  -25.572   28.445   49.620
| 60> H  -25.893   30.016   48.849
| 61> H  -24.555   26.570   45.697
| 62> *
| 63>
| 64>                          ****END OF INPUT****
 Total Charge           Charge          ....    0
 Multiplicity           Mult            ....    1
 Number of Electrons    NEL             ....  102
FINAL SINGLE POINT ENERGY      -652.811785914123
FINAL SINGLE POINT ENERGY      -652.840537708470
FINAL SINGLE POINT ENERGY      -652.855313923273
FINAL SINGLE POINT ENERGY      -652.858822507604
FINAL SINGLE POINT ENERGY      -652.860318155033
FINAL SINGLE POINT ENERGY      -652.861161834827
FINAL SINGLE POINT ENERGY      -652.861448761389
FINAL SINGLE POINT ENERGY      -652.861528380797
FINAL SINGLE POINT ENERGY      -652.861536967562
                    ***********************HURRAY********************

CARTESIAN COORDINATES (ANGSTROEM)
---------------------------------
  C    -21.183086   26.290824   46.424662
  C    -20.397324   27.510373   45.928749
  C    -20.020373   28.217903   47.262091
  C    -19.788073   27.027068   48.222644
  O    -20.451396   25.856503   47.584436
  H    -21.173228   25.458533   45.719444
  H    -19.499614   27.158141   45.409705
  H    -20.977351   28.137500   45.246991
  H    -19.126309   28.840767   47.163101
  H    -20.831765   28.861089   47.611685
  H    -20.213816   27.177466   49.218556
  H    -18.730372   26.767288   48.321899
  C    -23.161310   27.173250   47.810328
  H    -23.988271   26.549483   48.161393
  H    -22.426442   27.232723   48.616663
  O    -22.611206   26.478502   46.640030
  C    -23.654708   28.574507   47.428316
  C    -24.819890   28.587495   46.423298
  C    -26.033847   28.272494   47.344285
  C    -25.667704   28.981797   48.663800
  O    -24.194587   29.235110   48.614918
  H    -22.819209   29.188550   47.081410
  H    -24.926250   29.600837   46.020933
  O    -24.683856   27.703697   45.294297
  H    -26.971276   28.635016   46.915166
  H    -26.120859   27.187309   47.467040
  H    -25.889533   28.386077   49.554366
  H    -26.147127   29.959497   48.764004
  H    -24.021219   27.002201   45.497791

 Multiplicity           Mult            ....    1
 Number of Electrons    NEL             ....  102
 Basis Dimension        Dim             ....  149

ORBITAL ENERGIES
----------------

  NO   OCC          E(Eh)            E(eV)
   0   2.0000     -19.161421      -521.4088
   1   2.0000     -19.156690      -521.2800
   2   2.0000     -19.143024      -520.9082
   3   2.0000     -19.116685      -520.1914
   4   2.0000     -10.291611      -280.0490
   5   2.0000     -10.239184      -278.6224
   6   2.0000     -10.238826      -278.6126
   7   2.0000     -10.235966      -278.5348
   8   2.0000     -10.232817      -278.4491
   9   2.0000     -10.228899      -278.3425
  10   2.0000     -10.199912      -277.5537
  11   2.0000     -10.197221      -277.4805
  12   2.0000     -10.181105      -277.0420
  13   2.0000      -1.064971       -28.9793
  14   2.0000      -1.027944       -27.9718
  15   2.0000      -1.008806       -27.4510
  16   2.0000      -0.994947       -27.0739
  17   2.0000      -0.797215       -21.6933
  18   2.0000      -0.779432       -21.2094
  19   2.0000      -0.770920       -20.9778
  20   2.0000      -0.739916       -20.1341
  21   2.0000      -0.683673       -18.6037
  22   2.0000      -0.612994       -16.6804
  23   2.0000      -0.603493       -16.4219
  24   2.0000      -0.598843       -16.2953
  25   2.0000      -0.579139       -15.7592
  26   2.0000      -0.538152       -14.6438
  27   2.0000      -0.511101       -13.9078
  28   2.0000      -0.507808       -13.8182
  29   2.0000      -0.490938       -13.3591
  30   2.0000      -0.475582       -12.9412
  31   2.0000      -0.460172       -12.5219
  32   2.0000      -0.449775       -12.2390
  33   2.0000      -0.431969       -11.7545
  34   2.0000      -0.425944       -11.5905
  35   2.0000      -0.424493       -11.5510
  36   2.0000      -0.413609       -11.2549
  37   2.0000      -0.391544       -10.6544
  38   2.0000      -0.389205       -10.5908
  39   2.0000      -0.369366       -10.0510
  40   2.0000      -0.367563       -10.0019
  41   2.0000      -0.357829        -9.7370
  42   2.0000      -0.353661        -9.6236
  43   2.0000      -0.344950        -9.3866
  44   2.0000      -0.327310        -8.9066
  45   2.0000      -0.323784        -8.8106
  46   2.0000      -0.288439        -7.8488
  47   2.0000      -0.281492        -7.6598
  48   2.0000      -0.270814        -7.3692
  49   2.0000      -0.250103        -6.8056
  50   2.0000      -0.240875        -6.5545
  51   0.0000       0.057375         1.5612
  52   0.0000       0.067416         1.8345
  53   0.0000       0.086675         2.3585
  54   0.0000       0.094707         2.5771
  55   0.0000       0.103519         2.8169

MULLIKEN ATOMIC CHARGES
-----------------------
   0 C :    0.309139
   1 C :   -0.272916
   2 C :   -0.324440
   3 C :   -0.022014
   4 O :   -0.503327
   5 H :    0.171668
   6 H :    0.157214
   7 H :    0.159339
   8 H :    0.153298
   9 H :    0.163669
  10 H :    0.152879
  11 H :    0.154823
  12 C :   -0.041880
  13 H :    0.162043
  14 H :    0.167928
  15 O :   -0.556802
  16 C :    0.049742
  17 C :    0.122433
  18 C :   -0.306408
  19 C :   -0.017007
  20 O :   -0.522794
  21 H :    0.151465
  22 H :    0.147234
  23 O :   -0.639305
  24 H :    0.150468
  25 H :    0.150495
  26 H :    0.141959
  27 H :    0.149921
  28 H :    0.391177
Sum of atomic charges:   -0.0000000

LOEWDIN ATOMIC CHARGES
----------------------
   0 C :    0.181788
   1 C :   -0.228667
   2 C :   -0.224947
   3 C :   -0.034058
   4 O :   -0.312330
   5 H :    0.115837
   6 H :    0.122479
   7 H :    0.123289
   8 H :    0.120502
   9 H :    0.114853
  10 H :    0.105094
  11 H :    0.108361
  12 C :   -0.048410
  13 H :    0.114540
  14 H :    0.116835
  15 O :   -0.336444
  16 C :    0.006026
  17 C :    0.042001
  18 C :   -0.238296
  19 C :   -0.030656
  20 O :   -0.326697
  21 H :    0.106409
  22 H :    0.105641
  23 O :   -0.432488
  24 H :    0.121359
  25 H :    0.113067
  26 H :    0.102284
  27 H :    0.106304
  28 H :    0.286323

  Mayer bond orders larger than 0.100000
B(  0-C ,  1-C ) :   0.9199 B(  0-C ,  4-O ) :   0.9260 B(  0-C ,  5-H ) :   0.9343
B(  0-C , 15-O ) :   0.8342 B(  1-C ,  2-C ) :   0.9536 B(  1-C ,  6-H ) :   0.9325
B(  1-C ,  7-H ) :   0.9337 B(  2-C ,  3-C ) :   0.9472 B(  2-C ,  8-H ) :   0.9442
B(  2-C ,  9-H ) :   0.9316 B(  3-C ,  4-O ) :   0.8307 B(  3-C , 10-H ) :   0.9300
B(  3-C , 11-H ) :   0.9385 B( 12-C , 13-H ) :   0.9340 B( 12-C , 14-H ) :   0.9190
B( 12-C , 15-O ) :   0.7903 B( 12-C , 16-C ) :   0.8861 B( 16-C , 17-C ) :   0.9060
B( 16-C , 20-O ) :   0.8558 B( 16-C , 21-H ) :   0.9198 B( 17-C , 18-C ) :   0.9009
B( 17-C , 22-H ) :   0.9327 B( 17-C , 23-O ) :   0.9338 B( 18-C , 19-C ) :   0.9384
B( 18-C , 24-H ) :   0.9452 B( 18-C , 25-H ) :   0.9425 B( 19-C , 20-O ) :   0.8294
B( 19-C , 26-H ) :   0.9349 B( 19-C , 27-H ) :   0.9387 B( 23-O , 28-H ) :   0.7265

FINAL SINGLE POINT ENERGY      -652.861538861421

DIPOLE MOMENT
-------------
                                X             Y             Z
Electronic contribution:     -0.62898      -2.72217      -1.10149
Nuclear contribution   :      1.28652       3.17100       1.50901
                        -----------------------------------------
Total Dipole Moment    :      0.65754       0.44882       0.40752
                        -----------------------------------------
Magnitude (a.u.)       :      0.89436
Magnitude (Debye)      :      2.27328

Rotational constants in cm-1:     0.050844     0.015674     0.014088
Rotational constants in MHz :  1524.260882   469.909677   422.361215

                             ****ORCA TERMINATED NORMALLY****
TOTAL RUN TIME: 0 days 0 hours 35 minutes 54 seconds 675 msec
