                         Program Version 4.2.0 -  RELEASE  -
|  1> # Test redundant internal optimization
|  2> #
|  3> ! RKS B3LYP  Opt TightSCF SmallPrint
|  4>
|  5> %basis
|  6>         Basis "6-31G"
|  7> end
|  8>
|  9> %geom
| 10> Constraints
| 11> { D 4  0  15  12  90.0   C } # D for Dihedral angle
| 12> { D 0  15  12  16  165.0   C } # D for Dihedral angle
| 13> { D 0  4  3  2   C } # D for Dihedral angle
| 14> { D 4  3  2  1   C } # D for Dihedral angle
| 15> { D 3  2  1  0   C } # D for Dihedral angle
| 16> { D 2  1  0  4   C } # D for Dihedral angle
| 17> { D 1  0  4  3   C } # D for Dihedral angle
| 18> { D 16  20  19  18   C } # D for Dihedral angle
| 19> { D 20  19  18  17   C } # D for Dihedral angle
| 20> { D 19  18  17  16   C } # D for Dihedral angle
| 21> { D 18  17  16  20   C } # D for Dihedral angle
| 22> { D 17  16  20  19   C } # D for Dihedral angle
| 23> { D 15  12  16  20   C } # D for Dihedral angle
| 24> end
| 25> end
| 26>
| 27>
| 28> #%pal
| 29> #nprocs 8
| 30> #end
| 31>
| 32> * xyz 0 1
| 33> C  -21.048   26.222   46.251
| 34> C  -20.361   27.558   45.944
| 35> C  -20.329   28.222   47.341
| 36> C  -20.110   27.022   48.296
| 37> O  -20.473   25.807   47.535
| 38> H  -20.833   25.428   45.533
| 39> H  -19.344   27.382   45.576
| 40> H  -20.898   28.157   45.201
| 41> H  -19.543   28.978   47.434
| 42> H  -21.289   28.710   47.548
| 43> H  -20.733   27.082   49.195
| 44> H  -19.064   26.913   48.597
| 45> C  -23.061   27.816   46.783
| 46> H  -22.860   27.972   47.850
| 47> H  -22.515   28.580   46.216
| 48> O  -22.586   26.394   46.375
| 49> C  -24.579   28.036   46.535
| 50> C  -24.952   27.747   45.076
| 51> C  -25.019   26.200   45.071
| 52> C  -25.577   25.868   46.477
| 53> O  -25.370   27.074   47.308
| 54> H  -24.857   29.032   46.883
| 55> O  -26.343   28.356   44.751
| 56> H  -24.225   28.142   44.358
| 57> H  -25.649   25.805   44.268
| 58> H  -24.014   25.780   44.945
| 59> H  -25.065   25.019   46.942
| 60> H  -26.653   25.668   46.463
| 61> H  -27.087   27.973   45.458
| 62> *
| 63>
| 64>                          ****END OF INPUT****
 Total Charge           Charge          ....    0
 Multiplicity           Mult            ....    1
 Number of Electrons    NEL             ....  102
FINAL SINGLE POINT ENERGY      -652.816285320281
FINAL SINGLE POINT ENERGY      -652.842331834506
FINAL SINGLE POINT ENERGY      -652.854816791354
FINAL SINGLE POINT ENERGY      -652.857078227446
FINAL SINGLE POINT ENERGY      -652.857428517048
FINAL SINGLE POINT ENERGY      -652.857478341991
FINAL SINGLE POINT ENERGY      -652.857482245751
                    ***********************HURRAY********************

CARTESIAN COORDINATES (ANGSTROEM)
---------------------------------
  C    -21.201708   26.362066   46.423450
  C    -20.312293   27.529659   45.975032
  C    -20.028145   28.258758   47.320307
  C    -19.947297   27.082403   48.326653
  O    -20.600477   25.929138   47.663354
  H    -21.152255   25.495167   45.763299
  H    -19.388161   27.117954   45.557708
  H    -20.776120   28.169040   45.218306
  H    -19.097297   28.833362   47.289554
  H    -20.835232   28.949466   47.577378
  H    -20.460231   27.287685   49.270663
  H    -18.916175   26.785036   48.538195
  C    -23.183869   27.889439   46.872719
  H    -23.073469   28.060125   47.950716
  H    -22.684449   28.703198   46.329579
  O    -22.625635   26.594950   46.516692
  C    -24.673355   27.925961   46.530256
  C    -25.053186   27.715610   45.057065
  C    -25.080136   26.166226   44.955024
  C    -25.616450   25.736603   46.343503
  O    -25.429812   26.900362   47.243588
  H    -25.055277   28.894866   46.874894
  O    -26.349208   28.314087   44.773880
  H    -24.363812   28.183567   44.353290
  H    -25.723525   25.844328   44.131234
  H    -24.067965   25.791514   44.802144
  H    -25.065854   24.888185   46.755559
  H    -26.686796   25.505462   46.335675
  H    -26.988812   28.028782   45.460286

 Multiplicity           Mult            ....    1
 Number of Electrons    NEL             ....  102
 Basis Dimension        Dim             ....  149

ORBITAL ENERGIES
----------------

  NO   OCC          E(Eh)            E(eV)
   0   2.0000     -19.150258      -521.1050
   1   2.0000     -19.142680      -520.8988
   2   2.0000     -19.135460      -520.7023
   3   2.0000     -19.134330      -520.6716
   4   2.0000     -10.284503      -279.8555
   5   2.0000     -10.237112      -278.5660
   6   2.0000     -10.236218      -278.5416
   7   2.0000     -10.234057      -278.4828
   8   2.0000     -10.231404      -278.4107
   9   2.0000     -10.219222      -278.0792
  10   2.0000     -10.198907      -277.5264
  11   2.0000     -10.197946      -277.5002
  12   2.0000     -10.174445      -276.8607
  13   2.0000      -1.056060       -28.7369
  14   2.0000      -1.031322       -28.0637
  15   2.0000      -1.004626       -27.3373
  16   2.0000      -0.996403       -27.1135
  17   2.0000      -0.794064       -21.6076
  18   2.0000      -0.781156       -21.2563
  19   2.0000      -0.764053       -20.7909
  20   2.0000      -0.736022       -20.0282
  21   2.0000      -0.679666       -18.4947
  22   2.0000      -0.609796       -16.5934
  23   2.0000      -0.604203       -16.4412
  24   2.0000      -0.595638       -16.2081
  25   2.0000      -0.569186       -15.4883
  26   2.0000      -0.524218       -14.2647
  27   2.0000      -0.513717       -13.9790
  28   2.0000      -0.505622       -13.7587
  29   2.0000      -0.485950       -13.2234
  30   2.0000      -0.474535       -12.9127
  31   2.0000      -0.456954       -12.4344
  32   2.0000      -0.450758       -12.2657
  33   2.0000      -0.436530       -11.8786
  34   2.0000      -0.424264       -11.5448
  35   2.0000      -0.421344       -11.4653
  36   2.0000      -0.403925       -10.9914
  37   2.0000      -0.388471       -10.5708
  38   2.0000      -0.384580       -10.4649
  39   2.0000      -0.366755        -9.9799
  40   2.0000      -0.364884        -9.9290
  41   2.0000      -0.361810        -9.8454
  42   2.0000      -0.351617        -9.5680
  43   2.0000      -0.326684        -8.8895
  44   2.0000      -0.318767        -8.6741
  45   2.0000      -0.305450        -8.3117
  46   2.0000      -0.298310        -8.1174
  47   2.0000      -0.274041        -7.4570
  48   2.0000      -0.263985        -7.1834
  49   2.0000      -0.257588        -7.0093
  50   2.0000      -0.239809        -6.5255
  51   0.0000       0.065001         1.7688
  52   0.0000       0.074851         2.0368
  53   0.0000       0.085758         2.3336
  54   0.0000       0.099971         2.7203
  55   0.0000       0.108062         2.9405

MULLIKEN ATOMIC CHARGES
-----------------------
   0 C :    0.312464
   1 C :   -0.298241
   2 C :   -0.312512
   3 C :   -0.007232
   4 O :   -0.497499
   5 H :    0.162433
   6 H :    0.160415
   7 H :    0.149171
   8 H :    0.148098
   9 H :    0.148786
  10 H :    0.149303
  11 H :    0.147358
  12 C :    0.007214
  13 H :    0.150914
  14 H :    0.122842
  15 O :   -0.526024
  16 C :    0.070799
  17 C :    0.076557
  18 C :   -0.280148
  19 C :   -0.019567
  20 O :   -0.525249
  21 H :    0.150159
  22 O :   -0.604350
  23 H :    0.143614
  24 H :    0.145962
  25 H :    0.166951
  26 H :    0.159495
  27 H :    0.134937
  28 H :    0.363351
Sum of atomic charges:   -0.0000000

LOEWDIN ATOMIC CHARGES
----------------------
   0 C :    0.175473
   1 C :   -0.231777
   2 C :   -0.223733
   3 C :   -0.031397
   4 O :   -0.317248
   5 H :    0.110889
   6 H :    0.125076
   7 H :    0.116303
   8 H :    0.117218
   9 H :    0.109793
  10 H :    0.105395
  11 H :    0.104780
  12 C :   -0.038462
  13 H :    0.105902
  14 H :    0.092658
  15 O :   -0.318990
  16 C :    0.015915
  17 C :    0.038794
  18 C :   -0.239909
  19 C :   -0.032481
  20 O :   -0.328035
  21 H :    0.113743
  22 O :   -0.417573
  23 H :    0.112216
  24 H :    0.117126
  25 H :    0.127299
  26 H :    0.112720
  27 H :    0.095882
  28 H :    0.282423

  Mayer bond orders larger than 0.100000
B(  0-C ,  1-C ) :   0.9254 B(  0-C ,  4-O ) :   0.9113 B(  0-C ,  5-H ) :   0.9360
B(  0-C , 15-O ) :   0.8845 B(  1-C ,  2-C ) :   0.9532 B(  1-C ,  6-H ) :   0.9344
B(  1-C ,  7-H ) :   0.9326 B(  2-C ,  3-C ) :   0.9475 B(  2-C ,  8-H ) :   0.9454
B(  2-C ,  9-H ) :   0.9397 B(  3-C ,  4-O ) :   0.8465 B(  3-C , 10-H ) :   0.9336
B(  3-C , 11-H ) :   0.9388 B( 12-C , 13-H ) :   0.9144 B( 12-C , 14-H ) :   0.9001
B( 12-C , 15-O ) :   0.8448 B( 12-C , 16-C ) :   0.9035 B( 16-C , 17-C ) :   0.9076
B( 16-C , 20-O ) :   0.8792 B( 16-C , 21-H ) :   0.9237 B( 17-C , 18-C ) :   0.9235
B( 17-C , 22-O ) :   0.8905 B( 17-C , 23-H ) :   0.9365 B( 18-C , 19-C ) :   0.9483
B( 18-C , 24-H ) :   0.9374 B( 18-C , 25-H ) :   0.9206 B( 19-C , 20-O ) :   0.8364
B( 19-C , 26-H ) :   0.9330 B( 19-C , 27-H ) :   0.9371 B( 22-O , 28-H ) :   0.7953

FINAL SINGLE POINT ENERGY      -652.857480921313

DIPOLE MOMENT
-------------
                                X             Y             Z
Electronic contribution:     -4.05926      -1.99089       0.86473
Nuclear contribution   :      5.11668       2.61922      -1.11696
                        -----------------------------------------
Total Dipole Moment    :      1.05742       0.62833      -0.25223
                        -----------------------------------------
Magnitude (a.u.)       :      1.25561
Magnitude (Debye)      :      3.19151

Rotational constants in cm-1:     0.059404     0.013491     0.012923
Rotational constants in MHz :  1780.884785   404.439840   387.420924

                             ****ORCA TERMINATED NORMALLY****
TOTAL RUN TIME: 0 days 1 hours 11 minutes 9 seconds 514 msec
