                         Program Version 4.2.0 -  RELEASE  -
|  1> # Test redundant internal optimization
|  2> #
|  3> ! RKS B3LYP  Opt TightSCF SmallPrint
|  4>
|  5> %basis
|  6>         Basis "6-31G"
|  7> end
|  8>
|  9> %geom
| 10> Constraints
| 11> { D 4  0  15  12  105.0   C } # D for Dihedral angle
| 12> { D 0  15  12  16  180.0   C } # D for Dihedral angle
| 13> { D 0  4  3  2   C } # D for Dihedral angle
| 14> { D 4  3  2  1   C } # D for Dihedral angle
| 15> { D 3  2  1  0   C } # D for Dihedral angle
| 16> { D 2  1  0  4   C } # D for Dihedral angle
| 17> { D 1  0  4  3   C } # D for Dihedral angle
| 18> { D 16  20  19  18   C } # D for Dihedral angle
| 19> { D 20  19  18  17   C } # D for Dihedral angle
| 20> { D 19  18  17  16   C } # D for Dihedral angle
| 21> { D 18  17  16  20   C } # D for Dihedral angle
| 22> { D 17  16  20  19   C } # D for Dihedral angle
| 23> { D 15  12  16  20   C } # D for Dihedral angle
| 24> end
| 25> end
| 26>
| 27>
| 28> #%pal
| 29> #nprocs 8
| 30> #end
| 31>
| 32> * xyz 0 1
| 33> C  -21.048   26.222   46.251
| 34> C  -20.361   27.558   45.944
| 35> C  -20.329   28.222   47.341
| 36> C  -20.110   27.022   48.296
| 37> O  -20.473   25.807   47.535
| 38> H  -20.833   25.428   45.533
| 39> H  -19.344   27.382   45.576
| 40> H  -20.898   28.157   45.201
| 41> H  -19.543   28.978   47.434
| 42> H  -21.289   28.710   47.548
| 43> H  -20.733   27.082   49.195
| 44> H  -19.064   26.913   48.597
| 45> C  -23.085   27.864   46.420
| 46> H  -22.633   28.373   47.281
| 47> H  -22.785   28.400   45.510
| 48> O  -22.586   26.394   46.375
| 49> C  -24.630   27.971   46.545
| 50> C  -25.095   29.429   46.470
| 51> C  -25.044   29.697   44.947
| 52> C  -25.463   28.336   44.337
| 53> O  -25.282   27.325   45.400
| 54> H  -24.954   27.438   47.441
| 55> O  -26.549   29.553   47.000
| 56> H  -24.459   30.114   47.042
| 57> H  -25.704   30.514   44.637
| 58> H  -24.023   29.958   44.644
| 59> H  -24.852   28.059   43.471
| 60> H  -26.518   28.315   44.048
| 61> H  -27.204   28.877   46.441
| 62> *
| 63>
| 64>                          ****END OF INPUT****
 Total Charge           Charge          ....    0
 Multiplicity           Mult            ....    1
 Number of Electrons    NEL             ....  102
FINAL SINGLE POINT ENERGY      -652.808942095959
FINAL SINGLE POINT ENERGY      -652.835693990611
FINAL SINGLE POINT ENERGY      -652.848973894795
FINAL SINGLE POINT ENERGY      -652.851263396918
FINAL SINGLE POINT ENERGY      -652.851664718957
FINAL SINGLE POINT ENERGY      -652.851708992305
FINAL SINGLE POINT ENERGY      -652.851713263474
                    ***********************HURRAY********************

CARTESIAN COORDINATES (ANGSTROEM)
---------------------------------
  C    -21.213663   26.371310   46.357272
  C    -20.196899   27.459227   45.986902
  C    -19.948541   28.152912   47.357076
  C    -20.042195   26.969106   48.352591
  O    -20.742634   25.880311   47.632681
  H    -21.187695   25.504123   45.695800
  H    -19.283925   26.968340   45.635004
  H    -20.539715   28.143141   45.205775
  H    -18.972164   28.645797   47.399024
  H    -20.708926   28.911791   47.560854
  H    -20.600269   27.215107   49.260922
  H    -19.057872   26.583277   48.632961
  C    -23.092279   28.085734   46.411511
  H    -22.762381   28.614166   47.318038
  H    -22.735476   28.643343   45.533882
  O    -22.616507   26.720008   46.381830
  C    -24.618421   28.018038   46.430577
  C    -25.304404   29.391181   46.422587
  C    -25.298761   29.739688   44.910365
  C    -25.503859   28.360977   44.235303
  O    -25.164932   27.338734   45.254190
  H    -24.921734   27.420991   47.295658
  O    -26.657385   29.295223   46.945207
  H    -24.809099   30.141810   47.040689
  H    -26.091847   30.454305   44.677251
  H    -24.338322   30.184943   44.625901
  H    -24.863528   28.218359   43.359927
  H    -26.543040   28.189427   43.937979
  H    -27.074528   28.476632   46.602244

 Multiplicity           Mult            ....    1
 Number of Electrons    NEL             ....  102
 Basis Dimension        Dim             ....  149

ORBITAL ENERGIES
----------------

  NO   OCC          E(Eh)            E(eV)
   0   2.0000     -19.141005      -520.8532
   1   2.0000     -19.140499      -520.8394
   2   2.0000     -19.139722      -520.8183
   3   2.0000     -19.137609      -520.7608
   4   2.0000     -10.277986      -279.6782
   5   2.0000     -10.245102      -278.7834
   6   2.0000     -10.238001      -278.5902
   7   2.0000     -10.235319      -278.5172
   8   2.0000     -10.230748      -278.3928
   9   2.0000     -10.228018      -278.3185
  10   2.0000     -10.195978      -277.4467
  11   2.0000     -10.195861      -277.4435
  12   2.0000     -10.191856      -277.3345
  13   2.0000      -1.050534       -28.5865
  14   2.0000      -1.036781       -28.2123
  15   2.0000      -1.007386       -27.4124
  16   2.0000      -0.994157       -27.0524
  17   2.0000      -0.791378       -21.5345
  18   2.0000      -0.787721       -21.4350
  19   2.0000      -0.772250       -21.0140
  20   2.0000      -0.733669       -19.9641
  21   2.0000      -0.681192       -18.5362
  22   2.0000      -0.608115       -16.5477
  23   2.0000      -0.604997       -16.4628
  24   2.0000      -0.598366       -16.2824
  25   2.0000      -0.578175       -15.7330
  26   2.0000      -0.526739       -14.3333
  27   2.0000      -0.511351       -13.9146
  28   2.0000      -0.501393       -13.6436
  29   2.0000      -0.492060       -13.3896
  30   2.0000      -0.481241       -13.0952
  31   2.0000      -0.462683       -12.5903
  32   2.0000      -0.450767       -12.2660
  33   2.0000      -0.440649       -11.9907
  34   2.0000      -0.430449       -11.7131
  35   2.0000      -0.415228       -11.2989
  36   2.0000      -0.406682       -11.0664
  37   2.0000      -0.394840       -10.7441
  38   2.0000      -0.384937       -10.4747
  39   2.0000      -0.374309       -10.1855
  40   2.0000      -0.366088        -9.9617
  41   2.0000      -0.360381        -9.8065
  42   2.0000      -0.352147        -9.5824
  43   2.0000      -0.332210        -9.0399
  44   2.0000      -0.314286        -8.5521
  45   2.0000      -0.307981        -8.3806
  46   2.0000      -0.293055        -7.9744
  47   2.0000      -0.272870        -7.4252
  48   2.0000      -0.266890        -7.2624
  49   2.0000      -0.250854        -6.8261
  50   2.0000      -0.245153        -6.6709
  51   0.0000       0.059987         1.6323
  52   0.0000       0.073923         2.0115
  53   0.0000       0.079521         2.1639
  54   0.0000       0.095001         2.5851
  55   0.0000       0.102172         2.7803

MULLIKEN ATOMIC CHARGES
-----------------------
   0 C :    0.310033
   1 C :   -0.295872
   2 C :   -0.310015
   3 C :   -0.006253
   4 O :   -0.495276
   5 H :    0.166949
   6 H :    0.158914
   7 H :    0.144803
   8 H :    0.145778
   9 H :    0.144735
  10 H :    0.146237
  11 H :    0.146225
  12 C :    0.004530
  13 H :    0.127514
  14 H :    0.123661
  15 O :   -0.512821
  16 C :    0.065783
  17 C :    0.076753
  18 C :   -0.296188
  19 C :   -0.026786
  20 O :   -0.506183
  21 H :    0.176479
  22 O :   -0.602185
  23 H :    0.149087
  24 H :    0.165863
  25 H :    0.137459
  26 H :    0.147344
  27 H :    0.145725
  28 H :    0.367705
Sum of atomic charges:   -0.0000000

LOEWDIN ATOMIC CHARGES
----------------------
   0 C :    0.177670
   1 C :   -0.230903
   2 C :   -0.222337
   3 C :   -0.032066
   4 O :   -0.316638
   5 H :    0.112167
   6 H :    0.124295
   7 H :    0.114714
   8 H :    0.116037
   9 H :    0.106709
  10 H :    0.104095
  11 H :    0.104327
  12 C :   -0.040389
  13 H :    0.092631
  14 H :    0.089926
  15 O :   -0.311663
  16 C :    0.019247
  17 C :    0.034826
  18 C :   -0.241611
  19 C :   -0.037636
  20 O :   -0.317173
  21 H :    0.124757
  22 O :   -0.413967
  23 H :    0.113665
  24 H :    0.127675
  25 H :    0.109399
  26 H :    0.104660
  27 H :    0.102643
  28 H :    0.284943

  Mayer bond orders larger than 0.100000
B(  0-C ,  1-C ) :   0.9277 B(  0-C ,  4-O ) :   0.9065 B(  0-C ,  5-H ) :   0.9333
B(  0-C , 15-O ) :   0.8910 B(  1-C ,  2-C ) :   0.9507 B(  1-C ,  6-H ) :   0.9349
B(  1-C ,  7-H ) :   0.9325 B(  2-C ,  3-C ) :   0.9484 B(  2-C ,  8-H ) :   0.9455
B(  2-C ,  9-H ) :   0.9405 B(  3-C ,  4-O ) :   0.8505 B(  3-C , 10-H ) :   0.9342
B(  3-C , 11-H ) :   0.9388 B( 12-C , 13-H ) :   0.8993 B( 12-C , 14-H ) :   0.9121
B( 12-C , 15-O ) :   0.8475 B( 12-C , 16-C ) :   0.8971 B( 16-C , 17-C ) :   0.9013
B( 16-C , 20-O ) :   0.8698 B( 16-C , 21-H ) :   0.9214 B( 17-C , 18-C ) :   0.9105
B( 17-C , 22-O ) :   0.8947 B( 17-C , 23-H ) :   0.9325 B( 18-C , 19-C ) :   0.9396
B( 18-C , 24-H ) :   0.9370 B( 18-C , 25-H ) :   0.9347 B( 19-C , 20-O ) :   0.8531
B( 19-C , 26-H ) :   0.9344 B( 19-C , 27-H ) :   0.9378 B( 22-O , 28-H ) :   0.7925

FINAL SINGLE POINT ENERGY      -652.851712309296

DIPOLE MOMENT
-------------
                                X             Y             Z
Electronic contribution:     -4.32322      -5.24302       1.25799
Nuclear contribution   :      5.32483       6.67517      -1.92998
                        -----------------------------------------
Total Dipole Moment    :      1.00162       1.43214      -0.67199
                        -----------------------------------------
Magnitude (a.u.)       :      1.87239
Magnitude (Debye)      :      4.75924

Rotational constants in cm-1:     0.059093     0.011969     0.011669
Rotational constants in MHz :  1771.563066   358.822845   349.820160

                             ****ORCA TERMINATED NORMALLY****
TOTAL RUN TIME: 0 days 1 hours 30 minutes 27 seconds 537 msec
