                         Program Version 4.2.1 -  RELEASE  -
|  1> # Test redundant internal optimization
|  2> #
|  3> ! RKS B3LYP  Opt TightSCF SmallPrint
|  4>
|  5> %basis
|  6>         Basis "6-31G"
|  7> end
|  8>
|  9> %geom
| 10> Constraints
| 11> { D 4  0  19  14  195.0   C } # D for Dihedral angle
| 12> { D 0  19  14  12  180.0   C } # D for Dihedral angle
| 13> { D 0  4  3  2   C } # D for Dihedral angle
| 14> { D 4  3  2  1   C } # D for Dihedral angle
| 15> { D 3  2  1  0   C } # D for Dihedral angle
| 16> { D 2  1  0  4   C } # D for Dihedral angle
| 17> { D 1  0  4  3   C } # D for Dihedral angle
| 18> { D 14  15  16  17   C } # D for Dihedral angle
| 19> { D 15  16  17  12   C } # D for Dihedral angle
| 20> { D 16  17  12  14   C } # D for Dihedral angle
| 21> { D 17  12  14  15   C } # D for Dihedral angle
| 22> { D 12  14  15  16   C } # D for Dihedral angle
| 23> end
| 24> end
| 25>
| 26>
| 27> #%pal
| 28> #nprocs 8
| 29> #end
| 30>
| 31> * xyz 0 1
| 32> C  -21.048   26.222   46.251
| 33> C  -20.361   27.558   45.944
| 34> C  -20.329   28.222   47.341
| 35> C  -20.110   27.022   48.296
| 36> O  -20.473   25.807   47.535
| 37> H  -20.833   25.428   45.533
| 38> H  -19.344   27.382   45.576
| 39> H  -20.898   28.157   45.201
| 40> H  -19.543   28.978   47.434
| 41> H  -21.289   28.710   47.548
| 42> H  -20.733   27.082   49.195
| 43> H  -19.064   26.913   48.597
| 44> C  -24.669   26.620   45.346
| 45> H  -25.246   26.388   44.437
| 46> C  -23.163   26.451   45.109
| 47> C  -22.814   27.761   44.365
| 48> C  -23.752   28.802   45.025
| 49> O  -24.822   28.035   45.701
| 50> H  -25.064   26.037   46.179
| 51> O  -22.472   26.381   46.366
| 52> H  -22.918   25.555   44.529
| 53> H  -21.758   28.034   44.458
| 54> H  -23.040   27.660   43.296
| 55> H  -24.205   29.482   44.295
| 56> H  -23.246   29.394   45.793
| 57> *
| 58>
| 59>                          ****END OF INPUT****
 Total Charge           Charge          ....    0
 Multiplicity           Mult            ....    1
 Number of Electrons    NEL             ....   86
FINAL SINGLE POINT ENERGY      -538.396273522327
FINAL SINGLE POINT ENERGY      -538.422636409744
FINAL SINGLE POINT ENERGY      -538.424843341371
FINAL SINGLE POINT ENERGY      -538.425197687641
FINAL SINGLE POINT ENERGY      -538.425276541855
FINAL SINGLE POINT ENERGY      -538.425293921391
FINAL SINGLE POINT ENERGY      -538.425295508822
                    ***********************HURRAY********************

CARTESIAN COORDINATES (ANGSTROEM)
---------------------------------
  C    -20.910405   26.238460   46.192850
  C    -20.154304   27.556761   46.017350
  C    -20.293775   28.203630   47.423511
  C    -20.238915   26.976237   48.357786
  O    -20.531859   25.801866   47.504412
  H    -20.637933   25.449913   45.481695
  H    -19.102765   27.325075   45.806014
  H    -20.525612   28.197867   45.219761
  H    -19.500616   28.927082   47.632609
  H    -21.261056   28.707809   47.505063
  H    -20.978468   27.014424   49.161498
  H    -19.244908   26.813334   48.785519
  C    -24.598651   26.643775   45.501206
  H    -25.310683   26.344523   44.718344
  C    -23.155300   26.506876   45.014157
  C    -22.990588   27.785435   44.173015
  C    -23.835240   28.831890   44.938664
  O    -24.743557   28.068155   45.821468
  H    -24.778683   26.076702   46.414115
  O    -22.360139   26.388809   46.233877
  H    -23.000914   25.605092   44.402256
  H    -21.958814   28.092645   44.010525
  H    -23.427941   27.588433   43.186281
  H    -24.428183   29.462600   44.266826
  H    -23.224690   29.473608   45.581198

 Multiplicity           Mult            ....    1
 Number of Electrons    NEL             ....   86
 Basis Dimension        Dim             ....  127

ORBITAL ENERGIES
----------------

  NO   OCC          E(Eh)            E(eV)
   0   2.0000     -19.138651      -520.7892
   1   2.0000     -19.137730      -520.7641
   2   2.0000     -19.129136      -520.5302
   3   2.0000     -10.281241      -279.7668
   4   2.0000     -10.243466      -278.7389
   5   2.0000     -10.224843      -278.2321
   6   2.0000     -10.223209      -278.1877
   7   2.0000     -10.220615      -278.1171
   8   2.0000     -10.192109      -277.3414
   9   2.0000     -10.188561      -277.2448
  10   2.0000     -10.186364      -277.1851
  11   2.0000      -1.052758       -28.6470
  12   2.0000      -1.014769       -27.6133
  13   2.0000      -0.986724       -26.8501
  14   2.0000      -0.788149       -21.4466
  15   2.0000      -0.783933       -21.3319
  16   2.0000      -0.746205       -20.3053
  17   2.0000      -0.721033       -19.6203
  18   2.0000      -0.612167       -16.6579
  19   2.0000      -0.605118       -16.4661
  20   2.0000      -0.594921       -16.1886
  21   2.0000      -0.575213       -15.6524
  22   2.0000      -0.515678       -14.0323
  23   2.0000      -0.507035       -13.7971
  24   2.0000      -0.487972       -13.2784
  25   2.0000      -0.485384       -13.2080
  26   2.0000      -0.455135       -12.3849
  27   2.0000      -0.448049       -12.1920
  28   2.0000      -0.419308       -11.4099
  29   2.0000      -0.416841       -11.3428
  30   2.0000      -0.410977       -11.1832
  31   2.0000      -0.391130       -10.6432
  32   2.0000      -0.378843       -10.3088
  33   2.0000      -0.368709       -10.0331
  34   2.0000      -0.363821        -9.9001
  35   2.0000      -0.351833        -9.5739
  36   2.0000      -0.347280        -9.4500
  37   2.0000      -0.312718        -8.5095
  38   2.0000      -0.305972        -8.3259
  39   2.0000      -0.294356        -8.0098
  40   2.0000      -0.260974        -7.1015
  41   2.0000      -0.251932        -6.8554
  42   2.0000      -0.234244        -6.3741
  43   0.0000       0.069723         1.8973
  44   0.0000       0.083629         2.2757
  45   0.0000       0.098934         2.6921
  46   0.0000       0.112516         3.0617
  47   0.0000       0.115708         3.1486

MULLIKEN ATOMIC CHARGES
-----------------------
   0 C :    0.308206
   1 C :   -0.278634
   2 C :   -0.304761
   3 C :    0.001250
   4 O :   -0.499793
   5 H :    0.134777
   6 H :    0.146404
   7 H :    0.141245
   8 H :    0.141383
   9 H :    0.169227
  10 H :    0.157817
  11 H :    0.140354
  12 C :   -0.000908
  13 H :    0.124433
  14 C :    0.085175
  15 C :   -0.319640
  16 C :    0.008195
  17 O :   -0.519131
  18 H :    0.177550
  19 O :   -0.512875
  20 H :    0.125064
  21 H :    0.146891
  22 H :    0.147460
  23 H :    0.136346
  24 H :    0.143964
Sum of atomic charges:   -0.0000000

LOEWDIN ATOMIC CHARGES
----------------------
   0 C :    0.184430
   1 C :   -0.232619
   2 C :   -0.217674
   3 C :   -0.024842
   4 O :   -0.302074
   5 H :    0.094190
   6 H :    0.115104
   7 H :    0.111716
   8 H :    0.114117
   9 H :    0.120513
  10 H :    0.111048
  11 H :    0.101420
  12 C :   -0.032088
  13 H :    0.090833
  14 C :    0.040326
  15 C :   -0.243415
  16 C :   -0.027976
  17 O :   -0.328541
  18 H :    0.128148
  19 O :   -0.329819
  20 H :    0.093447
  21 H :    0.115809
  22 H :    0.117202
  23 H :    0.098937
  24 H :    0.101806

  Mayer bond orders larger than 0.100000
B(  0-C ,  1-C ) :   0.9287 B(  0-C ,  4-O ) :   0.9370 B(  0-C ,  5-H ) :   0.9199
B(  0-C , 19-O ) :   0.8373 B(  1-C ,  2-C ) :   0.9524 B(  1-C ,  6-H ) :   0.9328
B(  1-C ,  7-H ) :   0.9231 B(  2-C ,  3-C ) :   0.9547 B(  2-C ,  8-H ) :   0.9444
B(  2-C ,  9-H ) :   0.9405 B(  3-C ,  4-O ) :   0.8332 B(  3-C , 10-H ) :   0.9341
B(  3-C , 11-H ) :   0.9397 B( 12-C , 13-H ) :   0.9168 B( 12-C , 14-C ) :   0.9328
B( 12-C , 17-O ) :   0.8666 B( 12-C , 18-H ) :   0.9283 B( 14-C , 15-C ) :   0.9260
B( 14-C , 19-O ) :   0.8478 B( 14-C , 20-H ) :   0.9207 B( 15-C , 16-C ) :   0.9462
B( 15-C , 21-H ) :   0.9266 B( 15-C , 22-H ) :   0.9331 B( 16-C , 17-O ) :   0.8654
B( 16-C , 23-H ) :   0.9324 B( 16-C , 24-H ) :   0.9349

FINAL SINGLE POINT ENERGY      -538.425295730605

DIPOLE MOMENT
-------------
                                X             Y             Z
Electronic contribution:     -2.05666      -3.74114       2.10383
Nuclear contribution   :      2.86152       4.27919      -3.23586
                        -----------------------------------------
Total Dipole Moment    :      0.80486       0.53805      -1.13203
                        -----------------------------------------
Magnitude (a.u.)       :      1.48956
Magnitude (Debye)      :      3.78616

Rotational constants in cm-1:     0.071065     0.022858     0.021734
Rotational constants in MHz :  2130.485934   685.266527   651.554005

                             ****ORCA TERMINATED NORMALLY****
TOTAL RUN TIME: 0 days 0 hours 18 minutes 13 seconds 523 msec
