                         Program Version 4.2.0 -  RELEASE  -
|  1> # Test redundant internal optimization
|  2> #
|  3> ! RKS B3LYP  Opt TightSCF SmallPrint
|  4>
|  5> %basis
|  6>         Basis "6-31G"
|  7> end
|  8>
|  9> %geom
| 10> Constraints
| 11> { D 4  0  15  12  195.0   C } # D for Dihedral angle
| 12> { D 0  15  12  16  90.0   C } # D for Dihedral angle
| 13> { D 0  4  3  2   C } # D for Dihedral angle
| 14> { D 4  3  2  1   C } # D for Dihedral angle
| 15> { D 3  2  1  0   C } # D for Dihedral angle
| 16> { D 2  1  0  4   C } # D for Dihedral angle
| 17> { D 1  0  4  3   C } # D for Dihedral angle
| 18> { D 16  20  19  18   C } # D for Dihedral angle
| 19> { D 20  19  18  17   C } # D for Dihedral angle
| 20> { D 19  18  17  16   C } # D for Dihedral angle
| 21> { D 18  17  16  20   C } # D for Dihedral angle
| 22> { D 17  16  20  19   C } # D for Dihedral angle
| 23> { D 15  12  16  20   C } # D for Dihedral angle
| 24> end
| 25> end
| 26>
| 27>
| 28> #%pal
| 29> #nprocs 8
| 30> #end
| 31>
| 32> * xyz 0 1
| 33> C  -21.048   26.222   46.251
| 34> C  -20.361   27.558   45.944
| 35> C  -20.329   28.222   47.341
| 36> C  -20.110   27.022   48.296
| 37> O  -20.473   25.807   47.535
| 38> H  -20.833   25.428   45.533
| 39> H  -19.344   27.382   45.576
| 40> H  -20.898   28.157   45.201
| 41> H  -19.543   28.978   47.434
| 42> H  -21.289   28.710   47.548
| 43> H  -20.733   27.082   49.195
| 44> H  -19.064   26.913   48.597
| 45> C  -23.353   26.472   45.026
| 46> H  -24.243   27.101   45.152
| 47> H  -22.721   26.924   44.251
| 48> O  -22.586   26.394   46.375
| 49> C  -23.808   25.078   44.513
| 50> C  -22.622   24.113   44.398
| 51> C  -22.429   23.678   45.871
| 52> C  -23.877   23.643   46.420
| 53> O  -24.701   24.440   45.485
| 54> H  -24.377   25.205   43.590
| 55> H  -22.896   23.255   43.774
| 56> O  -21.353   24.773   43.794
| 57> H  -21.924   22.711   45.965
| 58> H  -21.830   24.423   46.408
| 59> H  -23.955   24.074   47.424
| 60> H  -24.294   22.632   46.435
| 61> H  -21.061   25.635   44.403
| 62> *
| 63>
| 64>                          ****END OF INPUT****
 Total Charge           Charge          ....    0
 Multiplicity           Mult            ....    1
 Number of Electrons    NEL             ....  102
FINAL SINGLE POINT ENERGY      -652.788038632313
FINAL SINGLE POINT ENERGY      -652.829108965198
FINAL SINGLE POINT ENERGY      -652.846927290171
FINAL SINGLE POINT ENERGY      -652.850257116840
FINAL SINGLE POINT ENERGY      -652.850788469578
FINAL SINGLE POINT ENERGY      -652.850966533287
FINAL SINGLE POINT ENERGY      -652.851014284045
FINAL SINGLE POINT ENERGY      -652.851079933280
FINAL SINGLE POINT ENERGY      -652.851145966501
FINAL SINGLE POINT ENERGY      -652.851306151421
FINAL SINGLE POINT ENERGY      -652.851652482885
FINAL SINGLE POINT ENERGY      -652.851669038120
FINAL SINGLE POINT ENERGY      -652.851668225747
FINAL SINGLE POINT ENERGY      -652.851667271035
FINAL SINGLE POINT ENERGY      -652.851668032326
                    ***********************HURRAY********************

CARTESIAN COORDINATES (ANGSTROEM)
---------------------------------
  C    -20.982671   26.371161   46.340994
  C    -20.300064   27.695714   46.004664
  C    -20.358965   28.440998   47.360927
  C    -20.180981   27.302474   48.386211
  O    -20.489656   26.047222   47.647680
  H    -20.721430   25.549069   45.675693
  H    -19.261385   27.504308   45.709150
  H    -20.792179   28.241507   45.195057
  H    -19.585183   29.209369   47.449667
  H    -21.337309   28.915255   47.478352
  H    -20.860176   27.377111   49.238385
  H    -19.152057   27.206290   48.744667
  C    -23.198732   26.535968   45.201983
  H    -24.072466   27.148991   45.435673
  H    -22.635067   27.028543   44.394743
  O    -22.423155   26.533265   46.439699
  C    -23.725107   25.189717   44.682598
  C    -22.760812   24.059252   44.277993
  C    -22.501414   23.346315   45.647105
  C    -23.872543   23.483497   46.349918
  O    -24.608660   24.557937   45.649976
  H    -24.351590   25.456000   43.820190
  H    -23.314656   23.382310   43.619167
  O    -21.601219   24.477296   43.517839
  H    -22.204070   22.302276   45.508695
  H    -21.721102   23.852487   46.220170
  H    -23.772148   23.757251   47.403553
  H    -24.475352   22.573857   46.265557
  H    -20.794851   24.486559   44.068698

 Multiplicity           Mult            ....    1
 Number of Electrons    NEL             ....  102
 Basis Dimension        Dim             ....  149

ORBITAL ENERGIES
----------------

  NO   OCC          E(Eh)            E(eV)
   0   2.0000     -19.150571      -521.1135
   1   2.0000     -19.145705      -520.9811
   2   2.0000     -19.143115      -520.9106
   3   2.0000     -19.132416      -520.6195
   4   2.0000     -10.284649      -279.8595
   5   2.0000     -10.244192      -278.7586
   6   2.0000     -10.229662      -278.3633
   7   2.0000     -10.228757      -278.3386
   8   2.0000     -10.228607      -278.3345
   9   2.0000     -10.222824      -278.1772
  10   2.0000     -10.189930      -277.2821
  11   2.0000     -10.189054      -277.2582
  12   2.0000     -10.188777      -277.2507
  13   2.0000      -1.057076       -28.7645
  14   2.0000      -1.032076       -28.0842
  15   2.0000      -1.014997       -27.6195
  16   2.0000      -0.994608       -27.0647
  17   2.0000      -0.789314       -21.4783
  18   2.0000      -0.775487       -21.1021
  19   2.0000      -0.767501       -20.8848
  20   2.0000      -0.735695       -20.0193
  21   2.0000      -0.680226       -18.5099
  22   2.0000      -0.612837       -16.6762
  23   2.0000      -0.603491       -16.4218
  24   2.0000      -0.599904       -16.3242
  25   2.0000      -0.563787       -15.3414
  26   2.0000      -0.527197       -14.3458
  27   2.0000      -0.508247       -13.8301
  28   2.0000      -0.503767       -13.7082
  29   2.0000      -0.495677       -13.4881
  30   2.0000      -0.468738       -12.7550
  31   2.0000      -0.457123       -12.4390
  32   2.0000      -0.439764       -11.9666
  33   2.0000      -0.434304       -11.8180
  34   2.0000      -0.433585       -11.7984
  35   2.0000      -0.418252       -11.3812
  36   2.0000      -0.406195       -11.0531
  37   2.0000      -0.400471       -10.8974
  38   2.0000      -0.382428       -10.4064
  39   2.0000      -0.366324        -9.9682
  40   2.0000      -0.360258        -9.8031
  41   2.0000      -0.357542        -9.7292
  42   2.0000      -0.350747        -9.5443
  43   2.0000      -0.321337        -8.7440
  44   2.0000      -0.319738        -8.7005
  45   2.0000      -0.311884        -8.4868
  46   2.0000      -0.305197        -8.3048
  47   2.0000      -0.268886        -7.3168
  48   2.0000      -0.267272        -7.2728
  49   2.0000      -0.260297        -7.0831
  50   2.0000      -0.232916        -6.3380
  51   0.0000       0.044549         1.2122
  52   0.0000       0.076496         2.0816
  53   0.0000       0.089653         2.4396
  54   0.0000       0.101278         2.7559
  55   0.0000       0.107408         2.9227

MULLIKEN ATOMIC CHARGES
-----------------------
   0 C :    0.320350
   1 C :   -0.268867
   2 C :   -0.296643
   3 C :   -0.000666
   4 O :   -0.514500
   5 H :    0.083286
   6 H :    0.142445
   7 H :    0.149342
   8 H :    0.143021
   9 H :    0.163896
  10 H :    0.157345
  11 H :    0.142361
  12 C :   -0.030883
  13 H :    0.170523
  14 H :    0.129453
  15 O :   -0.506705
  16 C :    0.101939
  17 C :    0.088391
  18 C :   -0.349215
  19 C :   -0.002798
  20 O :   -0.518812
  21 H :    0.145666
  22 H :    0.163748
  23 O :   -0.619858
  24 H :    0.148366
  25 H :    0.178759
  26 H :    0.163946
  27 H :    0.143016
  28 H :    0.373094
Sum of atomic charges:   -0.0000000

LOEWDIN ATOMIC CHARGES
----------------------
   0 C :    0.174837
   1 C :   -0.227799
   2 C :   -0.215628
   3 C :   -0.023113
   4 O :   -0.310182
   5 H :    0.073240
   6 H :    0.112540
   7 H :    0.117058
   8 H :    0.115106
   9 H :    0.120262
  10 H :    0.111225
  11 H :    0.102817
  12 C :   -0.046209
  13 H :    0.125000
  14 H :    0.097050
  15 O :   -0.328920
  16 C :    0.012987
  17 C :    0.033706
  18 C :   -0.246575
  19 C :   -0.022787
  20 O :   -0.320654
  21 H :    0.113060
  22 H :    0.114293
  23 O :   -0.414410
  24 H :    0.116742
  25 H :    0.123773
  26 H :    0.113362
  27 H :    0.100991
  28 H :    0.278228

  Mayer bond orders larger than 0.100000
B(  0-C ,  1-C ) :   0.9331 B(  0-C ,  4-O ) :   0.9261 B(  0-C ,  5-H ) :   0.8923
B(  0-C , 15-O ) :   0.8439 B(  1-C ,  2-C ) :   0.9524 B(  1-C ,  6-H ) :   0.9343
B(  1-C ,  7-H ) :   0.9337 B(  2-C ,  3-C ) :   0.9556 B(  2-C ,  8-H ) :   0.9447
B(  2-C ,  9-H ) :   0.9436 B(  3-C ,  4-O ) :   0.8302 B(  3-C , 10-H ) :   0.9344
B(  3-C , 11-H ) :   0.9398 B( 12-C , 13-H ) :   0.9328 B( 12-C , 14-H ) :   0.9060
B( 12-C , 15-O ) :   0.8686 B( 12-C , 16-C ) :   0.8955 B( 16-C , 17-C ) :   0.8887
B( 16-C , 20-O ) :   0.8711 B( 16-C , 21-H ) :   0.9199 B( 17-C , 18-C ) :   0.9399
B( 17-C , 22-H ) :   0.9304 B( 17-C , 23-O ) :   0.8803 B( 18-C , 19-C ) :   0.9427
B( 18-C , 24-H ) :   0.9399 B( 18-C , 25-H ) :   0.9227 B( 19-C , 20-O ) :   0.8400
B( 19-C , 26-H ) :   0.9290 B( 19-C , 27-H ) :   0.9368 B( 23-O , 28-H ) :   0.7799

FINAL SINGLE POINT ENERGY      -652.851669750910

DIPOLE MOMENT
-------------
                                X             Y             Z
Electronic contribution:     -2.88243      -2.40758      -0.92226
Nuclear contribution   :      3.83602       2.81090       0.89533
                        -----------------------------------------
Total Dipole Moment    :      0.95358       0.40332      -0.02692
                        -----------------------------------------
Magnitude (a.u.)       :      1.03572
Magnitude (Debye)      :      2.63258

Rotational constants in cm-1:     0.047395     0.016037     0.015391
Rotational constants in MHz :  1420.880895   480.766090   461.397002

                             ****ORCA TERMINATED NORMALLY****
TOTAL RUN TIME: 0 days 0 hours 35 minutes 1 seconds 355 msec
