                         Program Version 4.2.0 -  RELEASE  -
|  1> # Test redundant internal optimization
|  2> #
|  3> ! RKS B3LYP  Opt TightSCF SmallPrint
|  4>
|  5> %basis
|  6>         Basis "6-31G"
|  7> end
|  8>
|  9> %geom
| 10> Constraints
| 11> { D 4  0  15  12  300.0   C } # D for Dihedral angle
| 12> { D 0  15  12  16  165.0   C } # D for Dihedral angle
| 13> { D 0  4  3  2   C } # D for Dihedral angle
| 14> { D 4  3  2  1   C } # D for Dihedral angle
| 15> { D 3  2  1  0   C } # D for Dihedral angle
| 16> { D 2  1  0  4   C } # D for Dihedral angle
| 17> { D 1  0  4  3   C } # D for Dihedral angle
| 18> { D 16  20  19  18   C } # D for Dihedral angle
| 19> { D 20  19  18  17   C } # D for Dihedral angle
| 20> { D 19  18  17  16   C } # D for Dihedral angle
| 21> { D 18  17  16  20   C } # D for Dihedral angle
| 22> { D 17  16  20  19   C } # D for Dihedral angle
| 23> { D 15  12  16  20   C } # D for Dihedral angle
| 24> end
| 25> end
| 26>
| 27>
| 28> #%pal
| 29> #nprocs 8
| 30> #end
| 31>
| 32> * xyz 0 1
| 33> C  -21.048   26.222   46.251
| 34> C  -20.361   27.558   45.944
| 35> C  -20.329   28.222   47.341
| 36> C  -20.110   27.022   48.296
| 37> O  -20.473   25.807   47.535
| 38> H  -20.833   25.428   45.533
| 39> H  -19.344   27.382   45.576
| 40> H  -20.898   28.157   45.201
| 41> H  -19.543   28.978   47.434
| 42> H  -21.289   28.710   47.548
| 43> H  -20.733   27.082   49.195
| 44> H  -19.064   26.913   48.597
| 45> C  -23.362   25.116   46.798
| 46> H  -23.410   24.424   45.948
| 47> H  -22.846   24.609   47.623
| 48> O  -22.586   26.394   46.375
| 49> C  -24.812   25.421   47.263
| 50> C  -25.660   25.978   46.114
| 51> C  -26.016   24.690   45.333
| 52> C  -26.172   23.632   46.455
| 53> O  -25.497   24.182   47.649
| 54> H  -24.778   26.057   48.149
| 55> H  -26.565   26.452   46.510
| 56> O  -24.902   27.019   45.245
| 57> H  -26.923   24.796   44.731
| 58> H  -25.195   24.420   44.658
| 59> H  -25.712   22.673   46.193
| 60> H  -27.217   23.460   46.724
| 61> H  -23.992   26.565   44.838
| 62> *
| 63>
| 64>                          ****END OF INPUT****
 Total Charge           Charge          ....    0
 Multiplicity           Mult            ....    1
 Number of Electrons    NEL             ....  102
FINAL SINGLE POINT ENERGY      -652.835964813486
FINAL SINGLE POINT ENERGY      -652.861467670127
FINAL SINGLE POINT ENERGY      -652.867923401939
FINAL SINGLE POINT ENERGY      -652.870322822174
FINAL SINGLE POINT ENERGY      -652.871634009967
FINAL SINGLE POINT ENERGY      -652.872337600963
FINAL SINGLE POINT ENERGY      -652.872567785780
FINAL SINGLE POINT ENERGY      -652.872616238044
FINAL SINGLE POINT ENERGY      -652.872620590489
                    ***********************HURRAY********************

CARTESIAN COORDINATES (ANGSTROEM)
---------------------------------
  C    -21.075869   26.109735   46.249757
  C    -20.507945   27.490806   45.927949
  C    -20.537636   28.174736   47.312827
  C    -20.220599   27.019148   48.285215
  O    -20.483092   25.766940   47.519134
  H    -20.818870   25.302063   45.557792
  H    -19.481360   27.376993   45.562694
  H    -21.094266   28.019297   45.172917
  H    -19.814854   28.992325   47.391567
  H    -21.536375   28.577907   47.502782
  H    -20.847862   27.020421   49.179542
  H    -19.168347   26.983090   48.580007
  C    -23.230678   25.027544   46.786104
  H    -23.242091   24.293570   45.967948
  H    -22.713727   24.592793   47.645188
  O    -22.518920   26.236887   46.345446
  C    -24.647920   25.445438   47.186402
  C    -25.508943   26.020749   46.048752
  C    -25.966963   24.726549   45.312925
  C    -26.138568   23.713879   46.463919
  O    -25.382454   24.262429   47.629383
  H    -24.590845   26.124458   48.041922
  H    -26.383138   26.513604   46.489547
  O    -24.866244   26.979511   45.186834
  H    -26.888030   24.886312   44.746056
  H    -25.185522   24.424492   44.607526
  H    -25.747316   22.718996   46.230089
  H    -27.178827   23.616144   46.787572
  H    -23.892739   26.952184   45.339207

 Multiplicity           Mult            ....    1
 Number of Electrons    NEL             ....  102
 Basis Dimension        Dim             ....  149

ORBITAL ENERGIES
----------------

  NO   OCC          E(Eh)            E(eV)
   0   2.0000     -19.165972      -521.5326
   1   2.0000     -19.153759      -521.2003
   2   2.0000     -19.138454      -520.7838
   3   2.0000     -19.112309      -520.0724
   4   2.0000     -10.292278      -280.0671
   5   2.0000     -10.234601      -278.4977
   6   2.0000     -10.233275      -278.4616
   7   2.0000     -10.232845      -278.4499
   8   2.0000     -10.229108      -278.3482
   9   2.0000     -10.225055      -278.2379
  10   2.0000     -10.195907      -277.4447
  11   2.0000     -10.193526      -277.3799
  12   2.0000     -10.178116      -276.9606
  13   2.0000      -1.069027       -29.0897
  14   2.0000      -1.024249       -27.8712
  15   2.0000      -1.007469       -27.4146
  16   2.0000      -0.991752       -26.9869
  17   2.0000      -0.798982       -21.7414
  18   2.0000      -0.772103       -21.0100
  19   2.0000      -0.766547       -20.8588
  20   2.0000      -0.735665       -20.0185
  21   2.0000      -0.676725       -18.4146
  22   2.0000      -0.608946       -16.5703
  23   2.0000      -0.599670       -16.3179
  24   2.0000      -0.592440       -16.1211
  25   2.0000      -0.579624       -15.7724
  26   2.0000      -0.531167       -14.4538
  27   2.0000      -0.518835       -14.1182
  28   2.0000      -0.503049       -13.6887
  29   2.0000      -0.484917       -13.1953
  30   2.0000      -0.475179       -12.9303
  31   2.0000      -0.461377       -12.5547
  32   2.0000      -0.440884       -11.9971
  33   2.0000      -0.427691       -11.6381
  34   2.0000      -0.425276       -11.5723
  35   2.0000      -0.421173       -11.4607
  36   2.0000      -0.409932       -11.1548
  37   2.0000      -0.386374       -10.5138
  38   2.0000      -0.382608       -10.4113
  39   2.0000      -0.368017       -10.0142
  40   2.0000      -0.365492        -9.9455
  41   2.0000      -0.358781        -9.7629
  42   2.0000      -0.353335        -9.6147
  43   2.0000      -0.343457        -9.3459
  44   2.0000      -0.326709        -8.8902
  45   2.0000      -0.312937        -8.5154
  46   2.0000      -0.291276        -7.9260
  47   2.0000      -0.278957        -7.5908
  48   2.0000      -0.267219        -7.2714
  49   2.0000      -0.249141        -6.7795
  50   2.0000      -0.240894        -6.5551
  51   0.0000       0.059813         1.6276
  52   0.0000       0.082920         2.2564
  53   0.0000       0.090624         2.4660
  54   0.0000       0.097547         2.6544
  55   0.0000       0.108144         2.9428

MULLIKEN ATOMIC CHARGES
-----------------------
   0 C :    0.300923
   1 C :   -0.268704
   2 C :   -0.299039
   3 C :   -0.008512
   4 O :   -0.509518
   5 H :    0.152433
   6 H :    0.152494
   7 H :    0.160387
   8 H :    0.147200
   9 H :    0.164998
  10 H :    0.153591
  11 H :    0.149604
  12 C :   -0.017063
  13 H :    0.136992
  14 H :    0.183060
  15 O :   -0.563109
  16 C :    0.046922
  17 C :    0.119664
  18 C :   -0.303227
  19 C :   -0.020026
  20 O :   -0.519893
  21 H :    0.158795
  22 H :    0.145647
  23 O :   -0.640762
  24 H :    0.151856
  25 H :    0.144846
  26 H :    0.141534
  27 H :    0.148975
  28 H :    0.389930
Sum of atomic charges:   -0.0000000

LOEWDIN ATOMIC CHARGES
----------------------
   0 C :    0.176493
   1 C :   -0.214523
   2 C :   -0.215533
   3 C :   -0.027306
   4 O :   -0.322107
   5 H :    0.101510
   6 H :    0.118295
   7 H :    0.125070
   8 H :    0.116978
   9 H :    0.120412
  10 H :    0.108871
  11 H :    0.106681
  12 C :   -0.048572
  13 H :    0.096668
  14 H :    0.124249
  15 O :   -0.340607
  16 C :    0.018459
  17 C :    0.041269
  18 C :   -0.237557
  19 C :   -0.032425
  20 O :   -0.322979
  21 H :    0.114953
  22 H :    0.104611
  23 O :   -0.436080
  24 H :    0.121294
  25 H :    0.110603
  26 H :    0.101812
  27 H :    0.105790
  28 H :    0.283670

  Mayer bond orders larger than 0.100000
B(  0-C ,  1-C ) :   0.9512 B(  0-C ,  4-O ) :   0.9192 B(  0-C ,  5-H ) :   0.9211
B(  0-C , 15-O ) :   0.8147 B(  1-C ,  2-C ) :   0.9536 B(  1-C ,  6-H ) :   0.9386
B(  1-C ,  7-H ) :   0.9352 B(  2-C ,  3-C ) :   0.9551 B(  2-C ,  8-H ) :   0.9444
B(  2-C ,  9-H ) :   0.9438 B(  3-C ,  4-O ) :   0.8268 B(  3-C , 10-H ) :   0.9354
B(  3-C , 11-H ) :   0.9400 B( 12-C , 13-H ) :   0.9223 B( 12-C , 14-H ) :   0.9140
B( 12-C , 15-O ) :   0.7768 B( 12-C , 16-C ) :   0.9086 B( 16-C , 17-C ) :   0.9135
B( 16-C , 20-O ) :   0.8560 B( 16-C , 21-H ) :   0.9294 B( 17-C , 18-C ) :   0.9015
B( 17-C , 22-H ) :   0.9299 B( 17-C , 23-O ) :   0.9327 B( 18-C , 19-C ) :   0.9396
B( 18-C , 24-H ) :   0.9443 B( 18-C , 25-H ) :   0.9435 B( 19-C , 20-O ) :   0.8328
B( 19-C , 26-H ) :   0.9342 B( 19-C , 27-H ) :   0.9385 B( 23-O , 28-H ) :   0.7253

FINAL SINGLE POINT ENERGY      -652.872621927087

DIPOLE MOMENT
-------------
                                X             Y             Z
Electronic contribution:     -1.00888      -1.39964       1.05102
Nuclear contribution   :      1.88579       1.55439      -1.20668
                        -----------------------------------------
Total Dipole Moment    :      0.87691       0.15475      -0.15566
                        -----------------------------------------
Magnitude (a.u.)       :      0.90397
Magnitude (Debye)      :      2.29770

Rotational constants in cm-1:     0.057930     0.013571     0.012270
Rotational constants in MHz :  1736.684737   406.834489   367.844178

                             ****ORCA TERMINATED NORMALLY****
TOTAL RUN TIME: 0 days 0 hours 25 minutes 55 seconds 450 msec
