                         Program Version 4.2.1 -  RELEASE  -
|  1> # Test redundant internal optimization
|  2> #
|  3> ! RKS B3LYP  Opt TightSCF SmallPrint
|  4>
|  5> %basis
|  6>         Basis "6-31G"
|  7> end
|  8>
|  9> %geom
| 10> Constraints
| 11> { D 4  0  19  14  165.0   C } # D for Dihedral angle
| 12> { D 0  19  14  12  60.0   C } # D for Dihedral angle
| 13> { D 0  4  3  2   C } # D for Dihedral angle
| 14> { D 4  3  2  1   C } # D for Dihedral angle
| 15> { D 3  2  1  0   C } # D for Dihedral angle
| 16> { D 2  1  0  4   C } # D for Dihedral angle
| 17> { D 1  0  4  3   C } # D for Dihedral angle
| 18> { D 14  15  16  17   C } # D for Dihedral angle
| 19> { D 15  16  17  12   C } # D for Dihedral angle
| 20> { D 16  17  12  14   C } # D for Dihedral angle
| 21> { D 17  12  14  15   C } # D for Dihedral angle
| 22> { D 12  14  15  16   C } # D for Dihedral angle
| 23> end
| 24> end
| 25>
| 26>
| 27> #%pal
| 28> #nprocs 8
| 29> #end
| 30>
| 31> * xyz 0 1
| 32> C  -21.048   26.222   46.251
| 33> C  -20.361   27.558   45.944
| 34> C  -20.329   28.222   47.341
| 35> C  -20.110   27.022   48.296
| 36> O  -20.473   25.807   47.535
| 37> H  -20.833   25.428   45.533
| 38> H  -19.344   27.382   45.576
| 39> H  -20.898   28.157   45.201
| 40> H  -19.543   28.978   47.434
| 41> H  -21.289   28.710   47.548
| 42> H  -20.733   27.082   49.195
| 43> H  -19.064   26.913   48.597
| 44> C  -22.822   26.369   43.957
| 45> H  -23.012   27.025   43.093
| 46> C  -23.077   27.101   45.280
| 47> C  -24.619   27.044   45.379
| 48> C  -24.961   25.667   44.755
| 49> O  -23.776   25.254   43.972
| 50> H  -21.825   25.935   43.865
| 51> O  -22.472   26.381   46.366
| 52> H  -22.689   28.125   45.286
| 53> H  -24.984   27.139   46.406
| 54> H  -25.066   27.855   44.790
| 55> H  -25.832   25.710   44.092
| 56> H  -25.131   24.896   45.513
| 57> *
| 58>
| 59>                          ****END OF INPUT****
 Total Charge           Charge          ....    0
 Multiplicity           Mult            ....    1
 Number of Electrons    NEL             ....   86
FINAL SINGLE POINT ENERGY      -538.419748643034
FINAL SINGLE POINT ENERGY      -538.427079541678
FINAL SINGLE POINT ENERGY      -538.427962914054
FINAL SINGLE POINT ENERGY      -538.428174447049
FINAL SINGLE POINT ENERGY      -538.428195994179
FINAL SINGLE POINT ENERGY      -538.428205760001
                    ***********************HURRAY********************

CARTESIAN COORDINATES (ANGSTROEM)
---------------------------------
  C    -21.001154   26.226554   46.238353
  C    -20.197871   27.498196   45.966507
  C    -20.274599   28.227176   47.332821
  C    -20.245201   27.059391   48.341036
  O    -20.608230   25.846877   47.565281
  H    -20.779141   25.380690   45.583110
  H    -19.164127   27.214908   45.737078
  H    -20.571205   28.101956   45.135342
  H    -19.446680   28.927382   47.479212
  H    -21.214018   28.783642   47.410672
  H    -20.960091   27.178369   49.159093
  H    -19.247953   26.879790   48.753382
  C    -22.934295   26.470541   43.827935
  H    -23.256084   27.151828   43.024965
  C    -23.098731   27.152390   45.186229
  C    -24.608902   26.984920   45.438206
  C    -24.925162   25.604515   44.816245
  O    -23.799729   25.294076   43.904143
  H    -21.924877   26.117827   43.607200
  O    -22.445154   26.445579   46.280882
  H    -22.789377   28.205686   45.167716
  H    -24.824371   27.030049   46.507864
  H    -25.159730   27.785749   44.932032
  H    -25.858918   25.603929   44.243880
  H    -24.955400   24.809978   45.565814

 Multiplicity           Mult            ....    1
 Number of Electrons    NEL             ....   86
 Basis Dimension        Dim             ....  127

ORBITAL ENERGIES
----------------

  NO   OCC          E(Eh)            E(eV)
   0   2.0000     -19.139213      -520.8045
   1   2.0000     -19.138011      -520.7718
   2   2.0000     -19.129277      -520.5341
   3   2.0000     -10.278441      -279.6906
   4   2.0000     -10.242314      -278.7075
   5   2.0000     -10.226628      -278.2807
   6   2.0000     -10.225658      -278.2543
   7   2.0000     -10.218955      -278.0719
   8   2.0000     -10.191583      -277.3271
   9   2.0000     -10.190679      -277.3025
  10   2.0000     -10.185022      -277.1485
  11   2.0000      -1.052735       -28.6464
  12   2.0000      -1.015566       -27.6350
  13   2.0000      -0.987653       -26.8754
  14   2.0000      -0.790085       -21.4993
  15   2.0000      -0.782359       -21.2891
  16   2.0000      -0.737723       -20.0745
  17   2.0000      -0.728096       -19.8125
  18   2.0000      -0.620067       -16.8729
  19   2.0000      -0.604261       -16.4428
  20   2.0000      -0.593061       -16.1380
  21   2.0000      -0.564053       -15.3487
  22   2.0000      -0.526460       -14.3257
  23   2.0000      -0.497878       -13.5480
  24   2.0000      -0.494922       -13.4675
  25   2.0000      -0.482831       -13.1385
  26   2.0000      -0.453413       -12.3380
  27   2.0000      -0.450162       -12.2495
  28   2.0000      -0.428523       -11.6607
  29   2.0000      -0.419909       -11.4263
  30   2.0000      -0.403510       -10.9801
  31   2.0000      -0.382966       -10.4210
  32   2.0000      -0.372266       -10.1299
  33   2.0000      -0.367016        -9.9870
  34   2.0000      -0.364870        -9.9286
  35   2.0000      -0.357518        -9.7286
  36   2.0000      -0.352133        -9.5820
  37   2.0000      -0.313685        -8.5358
  38   2.0000      -0.308270        -8.3885
  39   2.0000      -0.295413        -8.0386
  40   2.0000      -0.258521        -7.0347
  41   2.0000      -0.252315        -6.8658
  42   2.0000      -0.236177        -6.4267
  43   0.0000       0.071180         1.9369
  44   0.0000       0.094543         2.5726
  45   0.0000       0.101742         2.7686
  46   0.0000       0.104451         2.8423
  47   0.0000       0.111882         3.0445

MULLIKEN ATOMIC CHARGES
-----------------------
   0 C :    0.310159
   1 C :   -0.292203
   2 C :   -0.298048
   3 C :    0.000105
   4 O :   -0.500962
   5 H :    0.155943
   6 H :    0.152104
   7 H :    0.139769
   8 H :    0.143701
   9 H :    0.154865
  10 H :    0.153131
  11 H :    0.142896
  12 C :   -0.008080
  13 H :    0.125582
  14 C :    0.061747
  15 C :   -0.287015
  16 C :   -0.000906
  17 O :   -0.517908
  18 H :    0.150536
  19 O :   -0.510755
  20 H :    0.123013
  21 H :    0.168211
  22 H :    0.137867
  23 H :    0.133554
  24 H :    0.162694
Sum of atomic charges:   -0.0000000

LOEWDIN ATOMIC CHARGES
----------------------
   0 C :    0.181519
   1 C :   -0.235038
   2 C :   -0.216753
   3 C :   -0.025423
   4 O :   -0.301738
   5 H :    0.103324
   6 H :    0.118776
   7 H :    0.111355
   8 H :    0.114991
   9 H :    0.114095
  10 H :    0.108802
  11 H :    0.103054
  12 C :   -0.049977
  13 H :    0.092862
  14 C :    0.033117
  15 C :   -0.220883
  16 C :   -0.027086
  17 O :   -0.329726
  18 H :    0.110517
  19 O :   -0.328435
  20 H :    0.091229
  21 H :    0.130977
  22 H :    0.109975
  23 H :    0.097616
  24 H :    0.112850

  Mayer bond orders larger than 0.100000
B(  0-C ,  1-C ) :   0.9261 B(  0-C ,  4-O ) :   0.9304 B(  0-C ,  5-H ) :   0.9200
B(  0-C , 19-O ) :   0.8333 B(  1-C ,  2-C ) :   0.9499 B(  1-C ,  6-H ) :   0.9343
B(  1-C ,  7-H ) :   0.9297 B(  2-C ,  3-C ) :   0.9549 B(  2-C ,  8-H ) :   0.9451
B(  2-C ,  9-H ) :   0.9454 B(  3-C ,  4-O ) :   0.8380 B(  3-C , 10-H ) :   0.9345
B(  3-C , 11-H ) :   0.9396 B( 12-C , 13-H ) :   0.9101 B( 12-C , 14-C ) :   0.9071
B( 12-C , 17-O ) :   0.8774 B( 12-C , 18-H ) :   0.9309 B( 14-C , 15-C ) :   0.9537
B( 14-C , 19-O ) :   0.8465 B( 14-C , 20-H ) :   0.9128 B( 15-C , 16-C ) :   0.9479
B( 15-C , 21-H ) :   0.9352 B( 15-C , 22-H ) :   0.9422 B( 16-C , 17-O ) :   0.8504
B( 16-C , 23-H ) :   0.9337 B( 16-C , 24-H ) :   0.9352

FINAL SINGLE POINT ENERGY      -538.428206077816

DIPOLE MOMENT
-------------
                                X             Y             Z
Electronic contribution:     -0.30980      -4.62358       0.11851
Nuclear contribution   :      0.57289       6.27678      -0.26358
                        -----------------------------------------
Total Dipole Moment    :      0.26309       1.65320      -0.14508
                        -----------------------------------------
Magnitude (a.u.)       :      1.68028
Magnitude (Debye)      :      4.27093

Rotational constants in cm-1:     0.085759     0.020334     0.020020
Rotational constants in MHz :  2570.991258   609.601984   600.189623

                             ****ORCA TERMINATED NORMALLY****
TOTAL RUN TIME: 0 days 0 hours 7 minutes 49 seconds 33 msec
