                         Program Version 4.2.0 -  RELEASE  -
|  1> # Test redundant internal optimization
|  2> #
|  3> ! RKS B3LYP  Opt TightSCF SmallPrint
|  4>
|  5> %basis
|  6>         Basis "6-31G"
|  7> end
|  8>
|  9> %geom
| 10> Constraints
| 11> { D 4  0  15  12  120.0   C } # D for Dihedral angle
| 12> { D 0  15  12  16  195.0   C } # D for Dihedral angle
| 13> { D 0  4  3  2   C } # D for Dihedral angle
| 14> { D 4  3  2  1   C } # D for Dihedral angle
| 15> { D 3  2  1  0   C } # D for Dihedral angle
| 16> { D 2  1  0  4   C } # D for Dihedral angle
| 17> { D 1  0  4  3   C } # D for Dihedral angle
| 18> { D 16  20  19  18   C } # D for Dihedral angle
| 19> { D 20  19  18  17   C } # D for Dihedral angle
| 20> { D 19  18  17  16   C } # D for Dihedral angle
| 21> { D 18  17  16  20   C } # D for Dihedral angle
| 22> { D 17  16  20  19   C } # D for Dihedral angle
| 23> { D 15  12  16  20   C } # D for Dihedral angle
| 24> end
| 25> end
| 26>
| 27>
| 28> #%pal
| 29> #nprocs 8
| 30> #end
| 31>
| 32> * xyz 0 1
| 33> C  -21.048   26.222   46.251
| 34> C  -20.361   27.558   45.944
| 35> C  -20.329   28.222   47.341
| 36> C  -20.110   27.022   48.296
| 37> O  -20.473   25.807   47.535
| 38> H  -20.833   25.428   45.533
| 39> H  -19.344   27.382   45.576
| 40> H  -20.898   28.157   45.201
| 41> H  -19.543   28.978   47.434
| 42> H  -21.289   28.710   47.548
| 43> H  -20.733   27.082   49.195
| 44> H  -19.064   26.913   48.597
| 45> C  -23.119   27.818   46.058
| 46> H  -22.477   28.562   46.546
| 47> H  -23.098   28.004   44.976
| 48> O  -22.586   26.394   46.375
| 49> C  -24.578   28.036   46.547
| 50> C  -24.669   27.963   48.075
| 51> C  -24.158   29.364   48.487
| 52> C  -24.692   30.279   47.357
| 53> O  -25.029   29.393   46.223
| 54> H  -25.238   27.345   46.020
| 55> H  -25.712   27.826   48.383
| 56> O  -23.824   26.810   48.683
| 57> H  -24.513   29.671   49.476
| 58> H  -23.062   29.373   48.508
| 59> H  -23.951   31.016   47.029
| 60> H  -25.608   30.803   47.642
| 61> H  -22.776   26.927   48.387
| 62> *
| 63>
| 64>                          ****END OF INPUT****
 Total Charge           Charge          ....    0
 Multiplicity           Mult            ....    1
 Number of Electrons    NEL             ....  102
FINAL SINGLE POINT ENERGY      -652.810932130974
FINAL SINGLE POINT ENERGY      -652.838855304208
FINAL SINGLE POINT ENERGY      -652.850039230556
FINAL SINGLE POINT ENERGY      -652.854253820374
FINAL SINGLE POINT ENERGY      -652.856551172067
FINAL SINGLE POINT ENERGY      -652.858078297193
FINAL SINGLE POINT ENERGY      -652.859165859312
FINAL SINGLE POINT ENERGY      -652.859785341829
FINAL SINGLE POINT ENERGY      -652.859927687295
FINAL SINGLE POINT ENERGY      -652.859957355683
FINAL SINGLE POINT ENERGY      -652.859966267172
FINAL SINGLE POINT ENERGY      -652.859967954410
                    ***********************HURRAY********************

CARTESIAN COORDINATES (ANGSTROEM)
---------------------------------
  C    -21.147505   26.325224   46.310682
  C    -20.163956   27.428461   45.907529
  C    -19.986102   28.208180   47.240525
  C    -20.064821   27.084703   48.301148
  O    -20.702706   25.927898   47.618630
  H    -21.108439   25.428861   45.690756
  H    -19.222858   26.956422   45.608395
  H    -20.511723   28.052671   45.079698
  H    -19.031133   28.741064   47.278233
  H    -20.780819   28.944725   47.384167
  H    -20.676556   27.350886   49.166351
  H    -19.080429   26.747072   48.634391
  C    -23.097836   28.005047   46.019558
  H    -22.502787   28.814021   46.452694
  H    -23.126071   28.134617   44.932122
  O    -22.560202   26.687232   46.366022
  C    -24.523815   28.039737   46.580426
  C    -24.624026   27.932600   48.112916
  C    -24.289381   29.389820   48.555954
  C    -24.915720   30.244012   47.434249
  O    -25.130646   29.332674   46.272844
  H    -25.125106   27.278431   46.076586
  H    -25.666546   27.707908   48.370591
  O    -23.778319   26.966351   48.764061
  H    -24.697159   29.618258   49.543794
  H    -23.200756   29.499511   48.607522
  H    -24.280251   31.075921   47.113804
  H    -25.898971   30.638204   47.705329
  H    -23.220360   26.504490   48.094022

 Multiplicity           Mult            ....    1
 Number of Electrons    NEL             ....  102
 Basis Dimension        Dim             ....  149

ORBITAL ENERGIES
----------------

  NO   OCC          E(Eh)            E(eV)
   0   2.0000     -19.161008      -521.3975
   1   2.0000     -19.151425      -521.1368
   2   2.0000     -19.141603      -520.8695
   3   2.0000     -19.109448      -519.9945
   4   2.0000     -10.293535      -280.1013
   5   2.0000     -10.241217      -278.6777
   6   2.0000     -10.234739      -278.5014
   7   2.0000     -10.233914      -278.4790
   8   2.0000     -10.229526      -278.3596
   9   2.0000     -10.227679      -278.3093
  10   2.0000     -10.205028      -277.6929
  11   2.0000     -10.202458      -277.6230
  12   2.0000     -10.180731      -277.0318
  13   2.0000      -1.065215       -28.9860
  14   2.0000      -1.026512       -27.9328
  15   2.0000      -1.007255       -27.4088
  16   2.0000      -0.989088       -26.9145
  17   2.0000      -0.800400       -21.7800
  18   2.0000      -0.778779       -21.1916
  19   2.0000      -0.768862       -20.9218
  20   2.0000      -0.738313       -20.0905
  21   2.0000      -0.684094       -18.6152
  22   2.0000      -0.615057       -16.7366
  23   2.0000      -0.599532       -16.3141
  24   2.0000      -0.596782       -16.2393
  25   2.0000      -0.577665       -15.7191
  26   2.0000      -0.529897       -14.4192
  27   2.0000      -0.517778       -14.0895
  28   2.0000      -0.512416       -13.9435
  29   2.0000      -0.488735       -13.2991
  30   2.0000      -0.477309       -12.9882
  31   2.0000      -0.459164       -12.4945
  32   2.0000      -0.444718       -12.1014
  33   2.0000      -0.438609       -11.9352
  34   2.0000      -0.429490       -11.6870
  35   2.0000      -0.423264       -11.5176
  36   2.0000      -0.411985       -11.2107
  37   2.0000      -0.393304       -10.7023
  38   2.0000      -0.384632       -10.4664
  39   2.0000      -0.373123       -10.1532
  40   2.0000      -0.367329        -9.9955
  41   2.0000      -0.363399        -9.8886
  42   2.0000      -0.349945        -9.5225
  43   2.0000      -0.339449        -9.2369
  44   2.0000      -0.325005        -8.8438
  45   2.0000      -0.309577        -8.4240
  46   2.0000      -0.293943        -7.9986
  47   2.0000      -0.276668        -7.5285
  48   2.0000      -0.264266        -7.1910
  49   2.0000      -0.247088        -6.7236
  50   2.0000      -0.241891        -6.5822
  51   0.0000       0.053459         1.4547
  52   0.0000       0.064377         1.7518
  53   0.0000       0.086915         2.3651
  54   0.0000       0.096249         2.6191
  55   0.0000       0.103773         2.8238

MULLIKEN ATOMIC CHARGES
-----------------------
   0 C :    0.322726
   1 C :   -0.298314
   2 C :   -0.316715
   3 C :   -0.015185
   4 O :   -0.498235
   5 H :    0.168389
   6 H :    0.162829
   7 H :    0.152716
   8 H :    0.150786
   9 H :    0.158919
  10 H :    0.169819
  11 H :    0.150663
  12 C :   -0.005992
  13 H :    0.132421
  14 H :    0.156871
  15 O :   -0.570711
  16 C :    0.050941
  17 C :    0.128779
  18 C :   -0.300731
  19 C :   -0.018472
  20 O :   -0.522763
  21 H :    0.165057
  22 H :    0.142675
  23 O :   -0.647604
  24 H :    0.151169
  25 H :    0.138452
  26 H :    0.137949
  27 H :    0.149833
  28 H :    0.403727
Sum of atomic charges:    0.0000000

LOEWDIN ATOMIC CHARGES
----------------------
   0 C :    0.182813
   1 C :   -0.229236
   2 C :   -0.221426
   3 C :   -0.032115
   4 O :   -0.311457
   5 H :    0.112304
   6 H :    0.126760
   7 H :    0.118996
   8 H :    0.119158
   9 H :    0.110631
  10 H :    0.115970
  11 H :    0.107630
  12 C :   -0.041188
  13 H :    0.095102
  14 H :    0.108170
  15 O :   -0.342376
  16 C :    0.020706
  17 C :    0.043574
  18 C :   -0.234027
  19 C :   -0.032908
  20 O :   -0.323761
  21 H :    0.117668
  22 H :    0.102043
  23 O :   -0.438137
  24 H :    0.121660
  25 H :    0.106154
  26 H :    0.099651
  27 H :    0.106474
  28 H :    0.291167

  Mayer bond orders larger than 0.100000
B(  0-C ,  1-C ) :   0.9366 B(  0-C ,  4-O ) :   0.9283 B(  0-C ,  5-H ) :   0.9297
B(  0-C , 15-O ) :   0.8181 B(  1-C ,  2-C ) :   0.9485 B(  1-C ,  6-H ) :   0.9329
B(  1-C ,  7-H ) :   0.9307 B(  2-C ,  3-C ) :   0.9476 B(  2-C ,  8-H ) :   0.9447
B(  2-C ,  9-H ) :   0.9339 B(  3-C ,  4-O ) :   0.8295 B(  3-C , 10-H ) :   0.9281
B(  3-C , 11-H ) :   0.9389 B( 12-C , 13-H ) :   0.9056 B( 12-C , 14-H ) :   0.9251
B( 12-C , 15-O ) :   0.7907 B( 12-C , 16-C ) :   0.9024 B( 16-C , 17-C ) :   0.9129
B( 16-C , 20-O ) :   0.8578 B( 16-C , 21-H ) :   0.9277 B( 17-C , 18-C ) :   0.9050
B( 17-C , 22-H ) :   0.9273 B( 17-C , 23-O ) :   0.9342 B( 18-C , 19-C ) :   0.9389
B( 18-C , 24-H ) :   0.9453 B( 18-C , 25-H ) :   0.9434 B( 19-C , 20-O ) :   0.8327
B( 19-C , 26-H ) :   0.9347 B( 19-C , 27-H ) :   0.9385 B( 23-O , 28-H ) :   0.7117

FINAL SINGLE POINT ENERGY      -652.859968164947

DIPOLE MOMENT
-------------
                                X             Y             Z
Electronic contribution:     -3.42932      -5.16975      -1.08493
Nuclear contribution   :      4.65460       6.26982       0.50527
                        -----------------------------------------
Total Dipole Moment    :      1.22528       1.10008      -0.57966
                        -----------------------------------------
Magnitude (a.u.)       :      1.74571
Magnitude (Debye)      :      4.43723

Rotational constants in cm-1:     0.047579     0.016546     0.015882
Rotational constants in MHz :  1426.382715   496.024142   476.121883

                             ****ORCA TERMINATED NORMALLY****
TOTAL RUN TIME: 0 days 0 hours 51 minutes 25 seconds 37 msec
