                         Program Version 4.2.1 -  RELEASE  -
|  1> # Test redundant internal optimization
|  2> #
|  3> ! RKS B3LYP  Opt TightSCF SmallPrint
|  4>
|  5> %basis
|  6>         Basis "6-31G"
|  7> end
|  8>
|  9> %geom
| 10> Constraints
| 11> { D 4  0  19  14  270.0   C } # D for Dihedral angle
| 12> { D 0  19  14  12  75.0   C } # D for Dihedral angle
| 13> { D 0  4  3  2   C } # D for Dihedral angle
| 14> { D 4  3  2  1   C } # D for Dihedral angle
| 15> { D 3  2  1  0   C } # D for Dihedral angle
| 16> { D 2  1  0  4   C } # D for Dihedral angle
| 17> { D 1  0  4  3   C } # D for Dihedral angle
| 18> { D 14  15  16  17   C } # D for Dihedral angle
| 19> { D 15  16  17  12   C } # D for Dihedral angle
| 20> { D 16  17  12  14   C } # D for Dihedral angle
| 21> { D 17  12  14  15   C } # D for Dihedral angle
| 22> { D 12  14  15  16   C } # D for Dihedral angle
| 23> end
| 24> end
| 25>
| 26>
| 27> #%pal
| 28> #nprocs 8
| 29> #end
| 30>
| 31> * xyz 0 1
| 32> C  -21.048   26.222   46.251
| 33> C  -20.361   27.558   45.944
| 34> C  -20.329   28.222   47.341
| 35> C  -20.110   27.022   48.296
| 36> O  -20.473   25.807   47.535
| 37> H  -20.833   25.428   45.533
| 38> H  -19.344   27.382   45.576
| 39> H  -20.898   28.157   45.201
| 40> H  -19.543   28.978   47.434
| 41> H  -21.289   28.710   47.548
| 42> H  -20.733   27.082   49.195
| 43> H  -19.064   26.913   48.597
| 44> C  -23.117   24.208   47.254
| 45> H  -23.429   23.195   46.957
| 46> C  -23.226   25.191   46.082
| 47> C  -24.742   25.495   46.067
| 48> C  -25.122   25.468   47.569
| 49> O  -24.031   24.750   48.265
| 50> H  -22.128   24.158   47.712
| 51> O  -22.472   26.381   46.366
| 52> H  -22.867   24.773   45.136
| 53> H  -24.978   26.453   45.594
| 54> H  -25.279   24.711   45.519
| 55> H  -26.068   24.949   47.754
| 56> H  -25.176   26.471   48.005
| 57> *
| 58>
| 59>                          ****END OF INPUT****
 Total Charge           Charge          ....    0
 Multiplicity           Mult            ....    1
 Number of Electrons    NEL             ....   86
FINAL SINGLE POINT ENERGY      -538.435082289056
FINAL SINGLE POINT ENERGY      -538.437710407341
FINAL SINGLE POINT ENERGY      -538.438025861730
FINAL SINGLE POINT ENERGY      -538.438061806148
FINAL SINGLE POINT ENERGY      -538.438071460068
                    ***********************HURRAY********************

CARTESIAN COORDINATES (ANGSTROEM)
---------------------------------
  C    -20.981491   26.179800   46.247146
  C    -20.404758   27.564947   45.949685
  C    -20.426017   28.225504   47.348937
  C    -20.112797   27.043732   48.295466
  O    -20.383544   25.812236   47.512570
  H    -20.720267   25.390233   45.535338
  H    -19.377527   27.459142   45.581806
  H    -20.996979   28.103058   45.207099
  H    -19.699128   29.037897   47.443234
  H    -21.424094   28.624973   47.550189
  H    -20.739951   27.033494   49.189750
  H    -19.059510   27.002283   48.588836
  C    -23.164078   24.133395   47.246580
  H    -23.554839   23.155842   46.925112
  C    -23.204656   25.125941   46.084494
  C    -24.686801   25.543565   46.082945
  C    -25.060448   25.537553   47.585191
  O    -24.024807   24.734974   48.266977
  H    -22.173456   24.016893   47.686512
  O    -22.414661   26.325243   46.340274
  H    -22.884238   24.675887   45.133953
  H    -24.817588   26.521365   45.613162
  H    -25.271814   24.804787   45.523613
  H    -26.044353   25.091759   47.770392
  H    -25.032199   26.539498   48.021741

 Multiplicity           Mult            ....    1
 Number of Electrons    NEL             ....   86
 Basis Dimension        Dim             ....  127

ORBITAL ENERGIES
----------------

  NO   OCC          E(Eh)            E(eV)
   0   2.0000     -19.142805      -520.9022
   1   2.0000     -19.137202      -520.7497
   2   2.0000     -19.122485      -520.3493
   3   2.0000     -10.278066      -279.6804
   4   2.0000     -10.238681      -278.6087
   5   2.0000     -10.221159      -278.1319
   6   2.0000     -10.215979      -277.9909
   7   2.0000     -10.212755      -277.9032
   8   2.0000     -10.183613      -277.1102
   9   2.0000     -10.183531      -277.1080
  10   2.0000     -10.182491      -277.0797
  11   2.0000      -1.053230       -28.6598
  12   2.0000      -1.009440       -27.4683
  13   2.0000      -0.989081       -26.9143
  14   2.0000      -0.790523       -21.5112
  15   2.0000      -0.774010       -21.0619
  16   2.0000      -0.733289       -19.9538
  17   2.0000      -0.719442       -19.5770
  18   2.0000      -0.607355       -16.5270
  19   2.0000      -0.597085       -16.2475
  20   2.0000      -0.590253       -16.0616
  21   2.0000      -0.575835       -15.6693
  22   2.0000      -0.518945       -14.1212
  23   2.0000      -0.501004       -13.6330
  24   2.0000      -0.480455       -13.0738
  25   2.0000      -0.473641       -12.8884
  26   2.0000      -0.446754       -12.1568
  27   2.0000      -0.443567       -12.0701
  28   2.0000      -0.430686       -11.7196
  29   2.0000      -0.406731       -11.0677
  30   2.0000      -0.403593       -10.9823
  31   2.0000      -0.383707       -10.4412
  32   2.0000      -0.364896        -9.9293
  33   2.0000      -0.362795        -9.8721
  34   2.0000      -0.354011        -9.6331
  35   2.0000      -0.352447        -9.5906
  36   2.0000      -0.340795        -9.2735
  37   2.0000      -0.322943        -8.7877
  38   2.0000      -0.302347        -8.2273
  39   2.0000      -0.298888        -8.1331
  40   2.0000      -0.267589        -7.2815
  41   2.0000      -0.247082        -6.7234
  42   2.0000      -0.229025        -6.2321
  43   0.0000       0.080832         2.1996
  44   0.0000       0.096931         2.6376
  45   0.0000       0.102467         2.7883
  46   0.0000       0.117486         3.1969
  47   0.0000       0.126953         3.4546

MULLIKEN ATOMIC CHARGES
-----------------------
   0 C :    0.285564
   1 C :   -0.256427
   2 C :   -0.299574
   3 C :   -0.000824
   4 O :   -0.508619
   5 H :    0.137360
   6 H :    0.143052
   7 H :    0.152066
   8 H :    0.139747
   9 H :    0.164116
  10 H :    0.157949
  11 H :    0.140024
  12 C :   -0.006989
  13 H :    0.115675
  14 C :    0.069054
  15 C :   -0.294540
  16 C :    0.009808
  17 O :   -0.520595
  18 H :    0.188440
  19 O :   -0.513475
  20 H :    0.119226
  21 H :    0.157872
  22 H :    0.142106
  23 H :    0.129706
  24 H :    0.149279
Sum of atomic charges:   -0.0000000

LOEWDIN ATOMIC CHARGES
----------------------
   0 C :    0.171245
   1 C :   -0.215470
   2 C :   -0.215790
   3 C :   -0.026396
   4 O :   -0.326711
   5 H :    0.095618
   6 H :    0.112790
   7 H :    0.121602
   8 H :    0.112884
   9 H :    0.120045
  10 H :    0.111197
  11 H :    0.101521
  12 C :   -0.050210
  13 H :    0.087949
  14 C :    0.038357
  15 C :   -0.224572
  16 C :   -0.026776
  17 O :   -0.329162
  18 H :    0.130504
  19 O :   -0.320884
  20 H :    0.092013
  21 H :    0.125776
  22 H :    0.112927
  23 H :    0.095558
  24 H :    0.105983

  Mayer bond orders larger than 0.100000
B(  0-C ,  1-C ) :   0.9492 B(  0-C ,  4-O ) :   0.9078 B(  0-C ,  5-H ) :   0.9180
B(  0-C , 19-O ) :   0.8590 B(  1-C ,  2-C ) :   0.9578 B(  1-C ,  6-H ) :   0.9399
B(  1-C ,  7-H ) :   0.9376 B(  2-C ,  3-C ) :   0.9547 B(  2-C ,  8-H ) :   0.9453
B(  2-C ,  9-H ) :   0.9439 B(  3-C ,  4-O ) :   0.8327 B(  3-C , 10-H ) :   0.9339
B(  3-C , 11-H ) :   0.9403 B( 12-C , 13-H ) :   0.9094 B( 12-C , 14-C ) :   0.9105
B( 12-C , 17-O ) :   0.8702 B( 12-C , 18-H ) :   0.9170 B( 14-C , 15-C ) :   0.9615
B( 14-C , 19-O ) :   0.8382 B( 14-C , 20-H ) :   0.9206 B( 15-C , 16-C ) :   0.9456
B( 15-C , 21-H ) :   0.9376 B( 15-C , 22-H ) :   0.9415 B( 16-C , 17-O ) :   0.8593
B( 16-C , 23-H ) :   0.9335 B( 16-C , 24-H ) :   0.9370

FINAL SINGLE POINT ENERGY      -538.438072448218

DIPOLE MOMENT
-------------
                                X             Y             Z
Electronic contribution:      0.22529      -2.59250       1.17066
Nuclear contribution   :     -0.11549       3.08398      -2.21996
                        -----------------------------------------
Total Dipole Moment    :      0.10980       0.49148      -1.04930
                        -----------------------------------------
Magnitude (a.u.)       :      1.16389
Magnitude (Debye)      :      2.95837

Rotational constants in cm-1:     0.073434     0.022762     0.021447
Rotational constants in MHz :  2201.501236   682.398632   642.975459

                             ****ORCA TERMINATED NORMALLY****
TOTAL RUN TIME: 0 days 0 hours 5 minutes 59 seconds 118 msec
