                         Program Version 4.2.0 -  RELEASE  -
|  1> # Test redundant internal optimization
|  2> #
|  3> ! RKS B3LYP  Opt TightSCF SmallPrint
|  4>
|  5> %basis
|  6>         Basis "6-31G"
|  7> end
|  8>
|  9> %geom
| 10> Constraints
| 11> { D 4  0  15  12  330.0   C } # D for Dihedral angle
| 12> { D 0  15  12  16  135.0   C } # D for Dihedral angle
| 13> { D 0  4  3  2   C } # D for Dihedral angle
| 14> { D 4  3  2  1   C } # D for Dihedral angle
| 15> { D 3  2  1  0   C } # D for Dihedral angle
| 16> { D 2  1  0  4   C } # D for Dihedral angle
| 17> { D 1  0  4  3   C } # D for Dihedral angle
| 18> { D 16  20  19  18   C } # D for Dihedral angle
| 19> { D 20  19  18  17   C } # D for Dihedral angle
| 20> { D 19  18  17  16   C } # D for Dihedral angle
| 21> { D 18  17  16  20   C } # D for Dihedral angle
| 22> { D 17  16  20  19   C } # D for Dihedral angle
| 23> { D 15  12  16  20   C } # D for Dihedral angle
| 24> end
| 25> end
| 26>
| 27>
| 28> #%pal
| 29> #nprocs 8
| 30> #end
| 31>
| 32> * xyz 0 1
| 33> C  -21.048   26.222   46.251
| 34> C  -20.361   27.558   45.944
| 35> C  -20.329   28.222   47.341
| 36> C  -20.110   27.022   48.296
| 37> O  -20.473   25.807   47.535
| 38> H  -20.833   25.428   45.533
| 39> H  -19.344   27.382   45.576
| 40> H  -20.898   28.157   45.201
| 41> H  -19.543   28.978   47.434
| 42> H  -21.289   28.710   47.548
| 43> H  -20.733   27.082   49.195
| 44> H  -19.064   26.913   48.597
| 45> C  -23.271   25.476   47.424
| 46> H  -23.796   24.663   46.906
| 47> H  -22.522   25.030   48.091
| 48> O  -22.586   26.394   46.375
| 49> C  -24.298   26.236   48.308
| 50> C  -25.477   26.750   47.474
| 51> C  -26.330   25.470   47.313
| 52> C  -26.124   24.738   48.663
| 53> O  -24.913   25.323   49.278
| 54> H  -23.778   27.006   48.879
| 55> H  -26.028   27.514   48.034
| 56> O  -25.041   27.360   46.113
| 57> H  -27.384   25.685   47.112
| 58> H  -25.947   24.865   46.483
| 59> H  -25.977   23.660   48.538
| 60> H  -26.951   24.904   49.358
| 61> H  -24.487   26.611   45.535
| 62> *
| 63>
| 64>                          ****END OF INPUT****
 Total Charge           Charge          ....    0
 Multiplicity           Mult            ....    1
 Number of Electrons    NEL             ....  102
FINAL SINGLE POINT ENERGY      -652.834949937133
FINAL SINGLE POINT ENERGY      -652.858849364060
FINAL SINGLE POINT ENERGY      -652.865075556245
FINAL SINGLE POINT ENERGY      -652.867259279410
FINAL SINGLE POINT ENERGY      -652.868480915295
FINAL SINGLE POINT ENERGY      -652.869127647766
FINAL SINGLE POINT ENERGY      -652.869332492173
FINAL SINGLE POINT ENERGY      -652.869374788775
FINAL SINGLE POINT ENERGY      -652.869378346659
                    ***********************HURRAY********************

CARTESIAN COORDINATES (ANGSTROEM)
---------------------------------
  C    -21.082536   26.139049   46.301147
  C    -20.574403   27.539980   45.966999
  C    -20.529133   28.200035   47.362865
  C    -20.117313   27.040410   48.292651
  O    -20.399262   25.791505   47.519038
  H    -20.839902   25.355189   45.578996
  H    -19.572681   27.460653   45.530007
  H    -21.226794   28.063832   45.264747
  H    -19.824187   29.035519   47.407550
  H    -21.522212   28.576730   47.624230
  H    -20.682124   27.006333   49.227127
  H    -19.047133   27.024999   48.514455
  C    -23.183735   25.336519   47.454180
  H    -23.667211   24.502669   46.931320
  H    -22.434793   24.940033   48.142062
  O    -22.535116   26.201621   46.456310
  C    -24.202247   26.185277   48.221331
  C    -25.355838   26.745466   47.371695
  C    -26.295285   25.510134   47.259744
  C    -26.127905   24.817834   48.628287
  O    -24.864990   25.351562   49.222299
  H    -23.673991   26.973644   48.765956
  H    -25.861216   27.532188   47.943648
  O    -24.986490   27.314524   46.100750
  H    -27.328228   25.803773   47.055628
  H    -25.955792   24.878134   46.431996
  H    -26.047523   23.728394   48.557472
  H    -26.930171   25.068199   49.328784
  H    -24.066789   27.041795   45.873725

 Multiplicity           Mult            ....    1
 Number of Electrons    NEL             ....  102
 Basis Dimension        Dim             ....  149

ORBITAL ENERGIES
----------------

  NO   OCC          E(Eh)            E(eV)
   0   2.0000     -19.160410      -521.3813
   1   2.0000     -19.160032      -521.3710
   2   2.0000     -19.138279      -520.7791
   3   2.0000     -19.112119      -520.0672
   4   2.0000     -10.292842      -280.0825
   5   2.0000     -10.238586      -278.6061
   6   2.0000     -10.231550      -278.4146
   7   2.0000     -10.230414      -278.3837
   8   2.0000     -10.228305      -278.3263
   9   2.0000     -10.225081      -278.2386
  10   2.0000     -10.196140      -277.4511
  11   2.0000     -10.196003      -277.4473
  12   2.0000     -10.177143      -276.9342
  13   2.0000      -1.067662       -29.0526
  14   2.0000      -1.023626       -27.8543
  15   2.0000      -1.005677       -27.3659
  16   2.0000      -0.990367       -26.9492
  17   2.0000      -0.800315       -21.7777
  18   2.0000      -0.772638       -21.0245
  19   2.0000      -0.766380       -20.8543
  20   2.0000      -0.736776       -20.0487
  21   2.0000      -0.676445       -18.4070
  22   2.0000      -0.611173       -16.6309
  23   2.0000      -0.597693       -16.2640
  24   2.0000      -0.593289       -16.1442
  25   2.0000      -0.577713       -15.7204
  26   2.0000      -0.532049       -14.4778
  27   2.0000      -0.515070       -14.0158
  28   2.0000      -0.505770       -13.7627
  29   2.0000      -0.485218       -13.2034
  30   2.0000      -0.476979       -12.9793
  31   2.0000      -0.460458       -12.5297
  32   2.0000      -0.443042       -12.0558
  33   2.0000      -0.426010       -11.5923
  34   2.0000      -0.423157       -11.5147
  35   2.0000      -0.419825       -11.4240
  36   2.0000      -0.410677       -11.1751
  37   2.0000      -0.385337       -10.4856
  38   2.0000      -0.382439       -10.4067
  39   2.0000      -0.369803       -10.0628
  40   2.0000      -0.365582        -9.9480
  41   2.0000      -0.361235        -9.8297
  42   2.0000      -0.354285        -9.6406
  43   2.0000      -0.343666        -9.3516
  44   2.0000      -0.327765        -8.9189
  45   2.0000      -0.313722        -8.5368
  46   2.0000      -0.282698        -7.6926
  47   2.0000      -0.279583        -7.6078
  48   2.0000      -0.273191        -7.4339
  49   2.0000      -0.247531        -6.7357
  50   2.0000      -0.239231        -6.5098
  51   0.0000       0.059302         1.6137
  52   0.0000       0.073716         2.0059
  53   0.0000       0.092869         2.5271
  54   0.0000       0.094899         2.5823
  55   0.0000       0.100443         2.7332

MULLIKEN ATOMIC CHARGES
-----------------------
   0 C :    0.311375
   1 C :   -0.266473
   2 C :   -0.302921
   3 C :   -0.019787
   4 O :   -0.509316
   5 H :    0.158426
   6 H :    0.151687
   7 H :    0.164382
   8 H :    0.150116
   9 H :    0.162763
  10 H :    0.156361
  11 H :    0.155207
  12 C :   -0.029865
  13 H :    0.142302
  14 H :    0.188826
  15 O :   -0.577201
  16 C :    0.061077
  17 C :    0.119350
  18 C :   -0.300012
  19 C :   -0.028489
  20 O :   -0.521579
  21 H :    0.146580
  22 H :    0.143182
  23 O :   -0.643144
  24 H :    0.149592
  25 H :    0.147012
  26 H :    0.145769
  27 H :    0.150265
  28 H :    0.394517
Sum of atomic charges:   -0.0000000

LOEWDIN ATOMIC CHARGES
----------------------
   0 C :    0.183900
   1 C :   -0.216034
   2 C :   -0.217061
   3 C :   -0.030198
   4 O :   -0.316007
   5 H :    0.104030
   6 H :    0.117735
   7 H :    0.127164
   8 H :    0.118922
   9 H :    0.118188
  10 H :    0.109145
  11 H :    0.109703
  12 C :   -0.049504
  13 H :    0.100977
  14 H :    0.128152
  15 O :   -0.352743
  16 C :    0.016249
  17 C :    0.041344
  18 C :   -0.236982
  19 C :   -0.034471
  20 O :   -0.325210
  21 H :    0.107830
  22 H :    0.103328
  23 O :   -0.436504
  24 H :    0.120689
  25 H :    0.112013
  26 H :    0.103034
  27 H :    0.105987
  28 H :    0.286322

  Mayer bond orders larger than 0.100000
B(  0-C ,  1-C ) :   0.9455 B(  0-C ,  4-O ) :   0.9231 B(  0-C ,  5-H ) :   0.9248
B(  0-C , 15-O ) :   0.8017 B(  1-C ,  2-C ) :   0.9520 B(  1-C ,  6-H ) :   0.9365
B(  1-C ,  7-H ) :   0.9346 B(  2-C ,  3-C ) :   0.9550 B(  2-C ,  8-H ) :   0.9437
B(  2-C ,  9-H ) :   0.9424 B(  3-C ,  4-O ) :   0.8204 B(  3-C , 10-H ) :   0.9336
B(  3-C , 11-H ) :   0.9398 B( 12-C , 13-H ) :   0.9292 B( 12-C , 14-H ) :   0.9098
B( 12-C , 15-O ) :   0.7771 B( 12-C , 16-C ) :   0.9008 B( 16-C , 17-C ) :   0.9119
B( 16-C , 20-O ) :   0.8547 B( 16-C , 21-H ) :   0.9310 B( 17-C , 18-C ) :   0.9030
B( 17-C , 22-H ) :   0.9319 B( 17-C , 23-O ) :   0.9337 B( 18-C , 19-C ) :   0.9401
B( 18-C , 24-H ) :   0.9448 B( 18-C , 25-H ) :   0.9426 B( 19-C , 20-O ) :   0.8339
B( 19-C , 26-H ) :   0.9332 B( 19-C , 27-H ) :   0.9378 B( 23-O , 28-H ) :   0.7231

FINAL SINGLE POINT ENERGY      -652.869379741553

DIPOLE MOMENT
-------------
                                X             Y             Z
Electronic contribution:     -0.07394      -1.65361      -0.00922
Nuclear contribution   :      0.86174       1.78091      -0.05771
                        -----------------------------------------
Total Dipole Moment    :      0.78780       0.12730      -0.06692
                        -----------------------------------------
Magnitude (a.u.)       :      0.80082
Magnitude (Debye)      :      2.03551

Rotational constants in cm-1:     0.053603     0.014859     0.013442
Rotational constants in MHz :  1606.977895   445.457090   402.976609

                             ****ORCA TERMINATED NORMALLY****
TOTAL RUN TIME: 0 days 1 hours 43 minutes 2 seconds 153 msec
