                         Program Version 4.2.0 -  RELEASE  -
|  1> # Test redundant internal optimization
|  2> #
|  3> ! RKS B3LYP  Opt TightSCF SmallPrint
|  4>
|  5> %basis
|  6>         Basis "6-31G"
|  7> end
|  8>
|  9> %geom
| 10> Constraints
| 11> { D 4  0  15  12  315.0   C } # D for Dihedral angle
| 12> { D 0  15  12  16  255.0   C } # D for Dihedral angle
| 13> { D 0  4  3  2   C } # D for Dihedral angle
| 14> { D 4  3  2  1   C } # D for Dihedral angle
| 15> { D 3  2  1  0   C } # D for Dihedral angle
| 16> { D 2  1  0  4   C } # D for Dihedral angle
| 17> { D 1  0  4  3   C } # D for Dihedral angle
| 18> { D 16  20  19  18   C } # D for Dihedral angle
| 19> { D 20  19  18  17   C } # D for Dihedral angle
| 20> { D 19  18  17  16   C } # D for Dihedral angle
| 21> { D 18  17  16  20   C } # D for Dihedral angle
| 22> { D 17  16  20  19   C } # D for Dihedral angle
| 23> { D 15  12  16  20   C } # D for Dihedral angle
| 24> end
| 25> end
| 26>
| 27>
| 28> #%pal
| 29> #nprocs 8
| 30> #end
| 31>
| 32> * xyz 0 1
| 33> C  -21.048   26.222   46.251
| 34> C  -20.361   27.558   45.944
| 35> C  -20.329   28.222   47.341
| 36> C  -20.110   27.022   48.296
| 37> O  -20.473   25.807   47.535
| 38> H  -20.833   25.428   45.533
| 39> H  -19.344   27.382   45.576
| 40> H  -20.898   28.157   45.201
| 41> H  -19.543   28.978   47.434
| 42> H  -21.289   28.710   47.548
| 43> H  -20.733   27.082   49.195
| 44> H  -19.064   26.913   48.597
| 45> C  -23.319   25.255   47.135
| 46> H  -22.584   24.660   47.692
| 47> H  -24.037   25.672   47.853
| 48> O  -22.586   26.394   46.375
| 49> C  -24.098   24.304   46.185
| 50> C  -24.901   23.264   46.974
| 51> C  -26.135   24.088   47.414
| 52> C  -26.372   25.035   46.211
| 53> O  -25.114   25.049   45.434
| 54> H  -23.406   23.881   45.455
| 55> H  -25.201   22.440   46.317
| 56> O  -24.115   22.670   48.176
| 57> H  -27.008   23.463   47.631
| 58> H  -25.902   24.662   48.318
| 59> H  -26.612   26.057   46.523
| 60> H  -27.159   24.674   45.544
| 61> H  -23.806   23.476   48.849
| 62> *
| 63>
| 64>                          ****END OF INPUT****
 Total Charge           Charge          ....    0
 Multiplicity           Mult            ....    1
 Number of Electrons    NEL             ....  102
FINAL SINGLE POINT ENERGY      -652.831133734575
FINAL SINGLE POINT ENERGY      -652.854889115622
FINAL SINGLE POINT ENERGY      -652.859376122190
FINAL SINGLE POINT ENERGY      -652.860128743720
FINAL SINGLE POINT ENERGY      -652.860251105299
FINAL SINGLE POINT ENERGY      -652.860273871204
FINAL SINGLE POINT ENERGY      -652.860277220821
                    ***********************HURRAY********************

CARTESIAN COORDINATES (ANGSTROEM)
---------------------------------
  C    -21.084896   26.152176   46.281604
  C    -20.481528   27.513615   45.937743
  C    -20.411044   28.184729   47.326218
  C    -20.087418   27.009817   48.274752
  O    -20.436498   25.773155   47.520847
  H    -20.871665   25.342330   45.577167
  H    -19.481740   27.368660   45.513349
  H    -21.098339   28.063504   45.224104
  H    -19.654948   28.974677   47.374176
  H    -21.383808   28.621086   47.570244
  H    -20.664469   27.032760   49.202862
  H    -19.022844   26.934545   48.514360
  C    -23.227557   25.315390   47.184416
  H    -22.515262   24.736281   47.782320
  H    -23.898180   25.863635   47.856428
  O    -22.514799   26.337536   46.424407
  C    -24.022524   24.394033   46.258610
  C    -24.839982   23.322305   47.000669
  C    -26.123234   24.115236   47.396128
  C    -26.319237   25.064528   46.193803
  O    -25.020938   25.117481   45.474695
  H    -23.337644   23.948689   45.529712
  H    -25.091595   22.515989   46.308875
  O    -24.164635   22.658298   48.094895
  H    -26.978693   23.455849   47.564833
  H    -25.940220   24.672959   48.324334
  H    -26.602611   26.078425   46.492643
  H    -27.062049   24.686411   45.484588
  H    -24.041645   23.270901   48.848216

 Multiplicity           Mult            ....    1
 Number of Electrons    NEL             ....  102
 Basis Dimension        Dim             ....  149

ORBITAL ENERGIES
----------------

  NO   OCC          E(Eh)            E(eV)
   0   2.0000     -19.146831      -521.0117
   1   2.0000     -19.144563      -520.9501
   2   2.0000     -19.138436      -520.7833
   3   2.0000     -19.133283      -520.6431
   4   2.0000     -10.275760      -279.6176
   5   2.0000     -10.242434      -278.7108
   6   2.0000     -10.227693      -278.3097
   7   2.0000     -10.227364      -278.3007
   8   2.0000     -10.227043      -278.2920
   9   2.0000     -10.223319      -278.1906
  10   2.0000     -10.192913      -277.3633
  11   2.0000     -10.185035      -277.1489
  12   2.0000     -10.182937      -277.0918
  13   2.0000      -1.052725       -28.6461
  14   2.0000      -1.030551       -28.0427
  15   2.0000      -1.012203       -27.5434
  16   2.0000      -0.989427       -26.9237
  17   2.0000      -0.788751       -21.4630
  18   2.0000      -0.779016       -21.1981
  19   2.0000      -0.763043       -20.7635
  20   2.0000      -0.730677       -19.8827
  21   2.0000      -0.676507       -18.4087
  22   2.0000      -0.608230       -16.5508
  23   2.0000      -0.600224       -16.3329
  24   2.0000      -0.593915       -16.1612
  25   2.0000      -0.566238       -15.4081
  26   2.0000      -0.528270       -14.3750
  27   2.0000      -0.507147       -13.8002
  28   2.0000      -0.496693       -13.5157
  29   2.0000      -0.493604       -13.4317
  30   2.0000      -0.467842       -12.7306
  31   2.0000      -0.452121       -12.3028
  32   2.0000      -0.444169       -12.0864
  33   2.0000      -0.428411       -11.6576
  34   2.0000      -0.424634       -11.5549
  35   2.0000      -0.415470       -11.3055
  36   2.0000      -0.405877       -11.0445
  37   2.0000      -0.398929       -10.8554
  38   2.0000      -0.374693       -10.1959
  39   2.0000      -0.367245        -9.9932
  40   2.0000      -0.356741        -9.7074
  41   2.0000      -0.351263        -9.5583
  42   2.0000      -0.345755        -9.4085
  43   2.0000      -0.337029        -9.1710
  44   2.0000      -0.325412        -8.8549
  45   2.0000      -0.310680        -8.4540
  46   2.0000      -0.293847        -7.9960
  47   2.0000      -0.268866        -7.3162
  48   2.0000      -0.266148        -7.2422
  49   2.0000      -0.257568        -7.0088
  50   2.0000      -0.232699        -6.3321
  51   0.0000       0.053609         1.4588
  52   0.0000       0.079938         2.1752
  53   0.0000       0.090858         2.4724
  54   0.0000       0.094620         2.5748
  55   0.0000       0.109140         2.9699

MULLIKEN ATOMIC CHARGES
-----------------------
   0 C :    0.285424
   1 C :   -0.260650
   2 C :   -0.299908
   3 C :   -0.008583
   4 O :   -0.514506
   5 H :    0.149083
   6 H :    0.144000
   7 H :    0.165889
   8 H :    0.142310
   9 H :    0.161565
  10 H :    0.142328
  11 H :    0.146632
  12 C :   -0.036314
  13 H :    0.163488
  14 H :    0.131979
  15 O :   -0.512429
  16 C :    0.091571
  17 C :    0.083041
  18 C :   -0.320816
  19 C :   -0.012166
  20 O :   -0.504848
  21 H :    0.154433
  22 H :    0.167968
  23 O :   -0.597515
  24 H :    0.156845
  25 H :    0.131424
  26 H :    0.145002
  27 H :    0.149082
  28 H :    0.355672
Sum of atomic charges:   -0.0000000

LOEWDIN ATOMIC CHARGES
----------------------
   0 C :    0.174225
   1 C :   -0.213606
   2 C :   -0.216753
   3 C :   -0.029585
   4 O :   -0.328709
   5 H :    0.097309
   6 H :    0.113638
   7 H :    0.128790
   8 H :    0.114271
   9 H :    0.118897
  10 H :    0.102686
  11 H :    0.104758
  12 C :   -0.059942
  13 H :    0.115699
  14 H :    0.100633
  15 O :   -0.320036
  16 C :    0.013043
  17 C :    0.033881
  18 C :   -0.241531
  19 C :   -0.030924
  20 O :   -0.316304
  21 H :    0.114021
  22 H :    0.119546
  23 O :   -0.405981
  24 H :    0.122361
  25 H :    0.103281
  26 H :    0.103287
  27 H :    0.105558
  28 H :    0.277490

  Mayer bond orders larger than 0.100000
B(  0-C ,  1-C ) :   0.9482 B(  0-C ,  4-O ) :   0.8934 B(  0-C ,  5-H ) :   0.9199
B(  0-C , 15-O ) :   0.8650 B(  1-C ,  2-C ) :   0.9544 B(  1-C ,  6-H ) :   0.9394
B(  1-C ,  7-H ) :   0.9344 B(  2-C ,  3-C ) :   0.9563 B(  2-C ,  8-H ) :   0.9450
B(  2-C ,  9-H ) :   0.9444 B(  3-C ,  4-O ) :   0.8331 B(  3-C , 10-H ) :   0.9364
B(  3-C , 11-H ) :   0.9405 B( 12-C , 13-H ) :   0.8938 B( 12-C , 14-H ) :   0.9373
B( 12-C , 15-O ) :   0.8477 B( 12-C , 16-C ) :   0.8950 B( 16-C , 17-C ) :   0.8715
B( 16-C , 20-O ) :   0.8678 B( 16-C , 21-H ) :   0.9331 B( 17-C , 18-C ) :   0.9215
B( 17-C , 22-H ) :   0.9329 B( 17-C , 23-O ) :   0.8991 B( 18-C , 19-C ) :   0.9383
B( 18-C , 24-H ) :   0.9423 B( 18-C , 25-H ) :   0.9423 B( 19-C , 20-O ) :   0.8519
B( 19-C , 26-H ) :   0.9314 B( 19-C , 27-H ) :   0.9372 B( 23-O , 28-H ) :   0.7972

FINAL SINGLE POINT ENERGY      -652.860277906490

DIPOLE MOMENT
-------------
                                X             Y             Z
Electronic contribution:     -0.23887      -3.52418      -1.96230
Nuclear contribution   :      0.08995       4.22286       2.71811
                        -----------------------------------------
Total Dipole Moment    :     -0.14892       0.69868       0.75580
                        -----------------------------------------
Magnitude (a.u.)       :      1.03998
Magnitude (Debye)      :      2.64343

Rotational constants in cm-1:     0.055244     0.012896     0.011559
Rotational constants in MHz :  1656.161895   386.620610   346.540423

                             ****ORCA TERMINATED NORMALLY****
TOTAL RUN TIME: 0 days 0 hours 20 minutes 54 seconds 198 msec
