                         Program Version 4.2.0 -  RELEASE  -
|  1> # Test redundant internal optimization
|  2> #
|  3> ! RKS B3LYP  Opt TightSCF SmallPrint
|  4>
|  5> %basis
|  6>         Basis "6-31G"
|  7> end
|  8>
|  9> %geom
| 10> Constraints
| 11> { D 4  0  15  12  75.0   C } # D for Dihedral angle
| 12> { D 0  15  12  16  165.0   C } # D for Dihedral angle
| 13> { D 0  4  3  2   C } # D for Dihedral angle
| 14> { D 4  3  2  1   C } # D for Dihedral angle
| 15> { D 3  2  1  0   C } # D for Dihedral angle
| 16> { D 2  1  0  4   C } # D for Dihedral angle
| 17> { D 1  0  4  3   C } # D for Dihedral angle
| 18> { D 16  20  19  18   C } # D for Dihedral angle
| 19> { D 20  19  18  17   C } # D for Dihedral angle
| 20> { D 19  18  17  16   C } # D for Dihedral angle
| 21> { D 18  17  16  20   C } # D for Dihedral angle
| 22> { D 17  16  20  19   C } # D for Dihedral angle
| 23> { D 15  12  16  20   C } # D for Dihedral angle
| 24> end
| 25> end
| 26>
| 27>
| 28> #%pal
| 29> #nprocs 8
| 30> #end
| 31>
| 32> * xyz 0 1
| 33> C  -21.048   26.222   46.251
| 34> C  -20.361   27.558   45.944
| 35> C  -20.329   28.222   47.341
| 36> C  -20.110   27.022   48.296
| 37> O  -20.473   25.807   47.535
| 38> H  -20.833   25.428   45.533
| 39> H  -19.344   27.382   45.576
| 40> H  -20.898   28.157   45.201
| 41> H  -19.543   28.978   47.434
| 42> H  -21.289   28.710   47.548
| 43> H  -20.733   27.082   49.195
| 44> H  -19.064   26.913   48.597
| 45> C  -23.049   27.675   47.122
| 46> H  -22.879   27.547   48.198
| 47> H  -22.473   28.546   46.784
| 48> O  -22.586   26.394   46.375
| 49> C  -24.555   27.989   46.899
| 50> C  -25.446   26.895   47.498
| 51> C  -25.432   27.267   49.000
| 52> C  -25.388   28.816   48.978
| 53> O  -24.937   29.204   47.625
| 54> H  -24.727   28.182   45.839
| 55> H  -26.460   26.971   47.090
| 56> O  -24.916   25.460   47.228
| 57> H  -26.302   26.881   49.541
| 58> H  -24.533   26.861   49.480
| 59> H  -24.695   29.226   49.719
| 60> H  -26.374   29.263   49.131
| 61> H  -23.901   25.361   47.628
| 62> *
| 63>
| 64>                          ****END OF INPUT****
 Total Charge           Charge          ....    0
 Multiplicity           Mult            ....    1
 Number of Electrons    NEL             ....  102
FINAL SINGLE POINT ENERGY      -652.806768873819
FINAL SINGLE POINT ENERGY      -652.837397928975
FINAL SINGLE POINT ENERGY      -652.854231437308
FINAL SINGLE POINT ENERGY      -652.858680790838
FINAL SINGLE POINT ENERGY      -652.860440715106
FINAL SINGLE POINT ENERGY      -652.861505495759
FINAL SINGLE POINT ENERGY      -652.861971068570
FINAL SINGLE POINT ENERGY      -652.862089970644
FINAL SINGLE POINT ENERGY      -652.862113952765
FINAL SINGLE POINT ENERGY      -652.862116150765
                    ***********************HURRAY********************

CARTESIAN COORDINATES (ANGSTROEM)
---------------------------------
  C    -21.192393   26.353270   46.449279
  C    -20.309760   27.489589   45.915725
  C    -19.892279   28.221355   47.225882
  C    -19.762340   27.051869   48.234084
  O    -20.504453   25.912887   47.636857
  H    -21.233337   25.486709   45.788697
  H    -19.437534   27.047848   45.424022
  H    -20.825983   28.134763   45.199466
  H    -18.947358   28.761589   47.111537
  H    -20.647873   28.943985   47.540060
  H    -20.187637   27.276454   49.216351
  H    -18.727527   26.721481   48.359851
  C    -23.096275   27.837166   47.319269
  H    -22.928783   27.755823   48.400191
  H    -22.600150   28.736597   46.945727
  O    -22.600624   26.636042   46.641761
  C    -24.589221   27.951996   46.986635
  C    -25.470467   26.802772   47.506548
  C    -25.640685   27.189985   49.005345
  C    -25.693386   28.730286   48.965878
  O    -25.120732   29.141791   47.647435
  H    -24.703009   28.103309   45.909887
  H    -26.443469   26.860527   47.005725
  O    -24.967397   25.470348   47.305315
  H    -26.540590   26.745005   49.437751
  H    -24.778127   26.816449   49.567890
  H    -25.113870   29.207272   49.762337
  H    -26.715354   29.118496   48.993174
  H    -24.007388   25.513336   47.083321

 Multiplicity           Mult            ....    1
 Number of Electrons    NEL             ....  102
 Basis Dimension        Dim             ....  149

ORBITAL ENERGIES
----------------

  NO   OCC          E(Eh)            E(eV)
   0   2.0000     -19.166981      -521.5601
   1   2.0000     -19.152663      -521.1705
   2   2.0000     -19.141282      -520.8608
   3   2.0000     -19.109688      -520.0011
   4   2.0000     -10.293028      -280.0875
   5   2.0000     -10.241728      -278.6916
   6   2.0000     -10.238503      -278.6038
   7   2.0000     -10.234966      -278.5076
   8   2.0000     -10.228536      -278.3326
   9   2.0000     -10.226523      -278.2778
  10   2.0000     -10.202530      -277.6249
  11   2.0000     -10.202050      -277.6119
  12   2.0000     -10.177638      -276.9476
  13   2.0000      -1.066240       -29.0139
  14   2.0000      -1.026303       -27.9271
  15   2.0000      -1.010774       -27.5046
  16   2.0000      -0.990280       -26.9469
  17   2.0000      -0.798928       -21.7399
  18   2.0000      -0.780520       -21.2390
  19   2.0000      -0.767818       -20.8934
  20   2.0000      -0.738622       -20.0989
  21   2.0000      -0.684678       -18.6310
  22   2.0000      -0.614766       -16.7286
  23   2.0000      -0.602158       -16.3855
  24   2.0000      -0.595934       -16.2162
  25   2.0000      -0.578320       -15.7369
  26   2.0000      -0.531491       -14.4626
  27   2.0000      -0.515374       -14.0240
  28   2.0000      -0.512998       -13.9594
  29   2.0000      -0.486649       -13.2424
  30   2.0000      -0.476530       -12.9670
  31   2.0000      -0.465619       -12.6701
  32   2.0000      -0.442215       -12.0333
  33   2.0000      -0.433543       -11.7973
  34   2.0000      -0.429166       -11.6782
  35   2.0000      -0.424163       -11.5421
  36   2.0000      -0.412397       -11.2219
  37   2.0000      -0.393252       -10.7009
  38   2.0000      -0.387642       -10.5483
  39   2.0000      -0.371122       -10.0987
  40   2.0000      -0.367337        -9.9958
  41   2.0000      -0.362199        -9.8559
  42   2.0000      -0.347600        -9.4587
  43   2.0000      -0.340213        -9.2577
  44   2.0000      -0.324792        -8.8380
  45   2.0000      -0.319000        -8.6804
  46   2.0000      -0.294915        -8.0250
  47   2.0000      -0.274415        -7.4672
  48   2.0000      -0.268435        -7.3045
  49   2.0000      -0.250070        -6.8047
  50   2.0000      -0.239380        -6.5139
  51   0.0000       0.055123         1.5000
  52   0.0000       0.069112         1.8806
  53   0.0000       0.087787         2.3888
  54   0.0000       0.096736         2.6323
  55   0.0000       0.100907         2.7458

MULLIKEN ATOMIC CHARGES
-----------------------
   0 C :    0.313686
   1 C :   -0.285242
   2 C :   -0.316391
   3 C :   -0.012042
   4 O :   -0.500528
   5 H :    0.173025
   6 H :    0.163159
   7 H :    0.154302
   8 H :    0.150863
   9 H :    0.153026
  10 H :    0.148672
  11 H :    0.153069
  12 C :   -0.018276
  13 H :    0.147342
  14 H :    0.155783
  15 O :   -0.561878
  16 C :    0.049898
  17 C :    0.121198
  18 C :   -0.301606
  19 C :   -0.020197
  20 O :   -0.522786
  21 H :    0.161816
  22 H :    0.146202
  23 O :   -0.637326
  24 H :    0.151380
  25 H :    0.147881
  26 H :    0.139344
  27 H :    0.148652
  28 H :    0.396973
Sum of atomic charges:   -0.0000000

LOEWDIN ATOMIC CHARGES
----------------------
   0 C :    0.177047
   1 C :   -0.227256
   2 C :   -0.223790
   3 C :   -0.031956
   4 O :   -0.316914
   5 H :    0.116925
   6 H :    0.126393
   7 H :    0.120886
   8 H :    0.118628
   9 H :    0.111689
  10 H :    0.104864
  11 H :    0.107544
  12 C :   -0.047640
  13 H :    0.101824
  14 H :    0.108065
  15 O :   -0.329117
  16 C :    0.018789
  17 C :    0.042340
  18 C :   -0.237166
  19 C :   -0.032521
  20 O :   -0.325923
  21 H :    0.116127
  22 H :    0.105282
  23 O :   -0.432922
  24 H :    0.121593
  25 H :    0.111976
  26 H :    0.100536
  27 H :    0.106067
  28 H :    0.288632

  Mayer bond orders larger than 0.100000
B(  0-C ,  1-C ) :   0.9281 B(  0-C ,  4-O ) :   0.9207 B(  0-C ,  5-H ) :   0.9344
B(  0-C , 15-O ) :   0.8467 B(  1-C ,  2-C ) :   0.9539 B(  1-C ,  6-H ) :   0.9340
B(  1-C ,  7-H ) :   0.9344 B(  2-C ,  3-C ) :   0.9469 B(  2-C ,  8-H ) :   0.9447
B(  2-C ,  9-H ) :   0.9382 B(  3-C ,  4-O ) :   0.8396 B(  3-C , 10-H ) :   0.9338
B(  3-C , 11-H ) :   0.9384 B( 12-C , 13-H ) :   0.9203 B( 12-C , 14-H ) :   0.9126
B( 12-C , 15-O ) :   0.7867 B( 12-C , 16-C ) :   0.9024 B( 16-C , 17-C ) :   0.9135
B( 16-C , 20-O ) :   0.8574 B( 16-C , 21-H ) :   0.9287 B( 17-C , 18-C ) :   0.8988
B( 17-C , 22-H ) :   0.9297 B( 17-C , 23-O ) :   0.9418 B( 18-C , 19-C ) :   0.9382
B( 18-C , 24-H ) :   0.9449 B( 18-C , 25-H ) :   0.9433 B( 19-C , 20-O ) :   0.8317
B( 19-C , 26-H ) :   0.9348 B( 19-C , 27-H ) :   0.9390 B( 23-O , 28-H ) :   0.7227

FINAL SINGLE POINT ENERGY      -652.862116670040

DIPOLE MOMENT
-------------
                                X             Y             Z
Electronic contribution:     -2.54305      -3.40622      -2.23872
Nuclear contribution   :      3.77829       4.52557       2.36587
                        -----------------------------------------
Total Dipole Moment    :      1.23524       1.11934       0.12715
                        -----------------------------------------
Magnitude (a.u.)       :      1.67180
Magnitude (Debye)      :      4.24939

Rotational constants in cm-1:     0.049670     0.014515     0.013356
Rotational constants in MHz :  1489.082772   435.158198   400.404888

                             ****ORCA TERMINATED NORMALLY****
TOTAL RUN TIME: 0 days 0 hours 38 minutes 45 seconds 723 msec
