                         Program Version 4.2.0 -  RELEASE  -
|  1> # Test redundant internal optimization
|  2> #
|  3> ! RKS B3LYP  Opt TightSCF SmallPrint
|  4>
|  5> %basis
|  6>         Basis "6-31G"
|  7> end
|  8>
|  9> %geom
| 10> Constraints
| 11> { D 4  0  15  12  180.0   C } # D for Dihedral angle
| 12> { D 0  15  12  16  345.0   C } # D for Dihedral angle
| 13> { D 0  4  3  2   C } # D for Dihedral angle
| 14> { D 4  3  2  1   C } # D for Dihedral angle
| 15> { D 3  2  1  0   C } # D for Dihedral angle
| 16> { D 2  1  0  4   C } # D for Dihedral angle
| 17> { D 1  0  4  3   C } # D for Dihedral angle
| 18> { D 16  20  19  18   C } # D for Dihedral angle
| 19> { D 20  19  18  17   C } # D for Dihedral angle
| 20> { D 19  18  17  16   C } # D for Dihedral angle
| 21> { D 18  17  16  20   C } # D for Dihedral angle
| 22> { D 17  16  20  19   C } # D for Dihedral angle
| 23> { D 15  12  16  20   C } # D for Dihedral angle
| 24> end
| 25> end
| 26>
| 27>
| 28> #%pal
| 29> #nprocs 8
| 30> #end
| 31>
| 32> * xyz 0 1
| 33> C  -21.048   26.222   46.251
| 34> C  -20.361   27.558   45.944
| 35> C  -20.329   28.222   47.341
| 36> C  -20.110   27.022   48.296
| 37> O  -20.473   25.807   47.535
| 38> H  -20.833   25.428   45.533
| 39> H  -19.344   27.382   45.576
| 40> H  -20.898   28.157   45.201
| 41> H  -19.543   28.978   47.434
| 42> H  -21.289   28.710   47.548
| 43> H  -20.733   27.082   49.195
| 44> H  -19.064   26.913   48.597
| 45> C  -23.309   26.834   45.072
| 46> H  -23.847   25.976   44.650
| 47> H  -24.039   27.625   45.286
| 48> O  -22.586   26.394   46.375
| 49> C  -22.328   27.374   43.995
| 50> C  -21.374   26.276   43.510
| 51> C  -22.272   25.494   42.522
| 52> C  -23.147   26.604   41.888
| 53> O  -23.061   27.773   42.789
| 54> H  -21.832   28.267   44.378
| 55> O  -20.166   26.911   42.769
| 56> H  -20.989   25.650   44.322
| 57> H  -21.697   24.938   41.775
| 58> H  -22.894   24.775   43.068
| 59> H  -24.195   26.305   41.787
| 60> H  -22.774   26.922   40.910
| 61> H  -20.527   27.543   41.949
| 62> *
| 63>
| 64>                          ****END OF INPUT****
 Total Charge           Charge          ....    0
 Multiplicity           Mult            ....    1
 Number of Electrons    NEL             ....  102
FINAL SINGLE POINT ENERGY      -652.774189396770
FINAL SINGLE POINT ENERGY      -652.823736264906
FINAL SINGLE POINT ENERGY      -652.843355853434
FINAL SINGLE POINT ENERGY      -652.846547760784
FINAL SINGLE POINT ENERGY      -652.847056495890
FINAL SINGLE POINT ENERGY      -652.847166332454
FINAL SINGLE POINT ENERGY      -652.847175365523
FINAL SINGLE POINT ENERGY      -652.847178427253
                    ***********************HURRAY********************

CARTESIAN COORDINATES (ANGSTROEM)
---------------------------------
  C    -20.902790   26.211215   46.400793
  C    -20.016734   27.440666   46.199708
  C    -20.255220   28.230804   47.513488
  C    -20.417095   27.105736   48.556855
  O    -20.716926   25.876123   47.782673
  H    -20.615208   25.326906   45.823251
  H    -18.973581   27.107048   46.137507
  H    -20.232470   28.022241   45.303498
  H    -19.428126   28.906770   47.749185
  H    -21.174029   28.819249   47.433296
  H    -21.235813   27.283588   49.258483
  H    -19.496576   26.906800   49.114536
  C    -23.033784   26.866507   45.039650
  H    -23.643495   26.002696   44.739370
  H    -23.723580   27.660411   45.338869
  O    -22.327922   26.479831   46.261388
  C    -22.283313   27.367178   43.791332
  C    -21.331193   26.382980   43.091809
  C    -22.326701   25.478291   42.314695
  C    -23.448186   26.466387   41.904618
  O    -23.307908   27.654340   42.780577
  H    -21.781615   28.318560   43.987630
  O    -20.427626   27.096690   42.204097
  H    -20.683668   25.821299   43.760795
  H    -21.834803   25.011329   41.458421
  H    -22.709440   24.687724   42.968361
  H    -24.450971   26.047906   42.031067
  H    -23.344336   26.815423   40.872241
  H    -20.938890   27.747303   41.677807

 Multiplicity           Mult            ....    1
 Number of Electrons    NEL             ....  102
 Basis Dimension        Dim             ....  149

ORBITAL ENERGIES
----------------

  NO   OCC          E(Eh)            E(eV)
   0   2.0000     -19.154162      -521.2112
   1   2.0000     -19.147397      -521.0272
   2   2.0000     -19.138621      -520.7884
   3   2.0000     -19.135754      -520.7103
   4   2.0000     -10.282902      -279.8120
   5   2.0000     -10.250177      -278.9215
   6   2.0000     -10.244904      -278.7780
   7   2.0000     -10.239632      -278.6345
   8   2.0000     -10.233862      -278.4775
   9   2.0000     -10.223661      -278.2000
  10   2.0000     -10.196923      -277.4724
  11   2.0000     -10.187012      -277.2027
  12   2.0000     -10.186704      -277.1943
  13   2.0000      -1.051137       -28.6029
  14   2.0000      -1.046092       -28.4656
  15   2.0000      -1.015861       -27.6430
  16   2.0000      -0.986871       -26.8541
  17   2.0000      -0.787811       -21.4374
  18   2.0000      -0.785684       -21.3795
  19   2.0000      -0.773449       -21.0466
  20   2.0000      -0.739001       -20.1092
  21   2.0000      -0.680574       -18.5194
  22   2.0000      -0.613751       -16.7010
  23   2.0000      -0.607073       -16.5193
  24   2.0000      -0.598622       -16.2893
  25   2.0000      -0.579916       -15.7803
  26   2.0000      -0.531685       -14.4679
  27   2.0000      -0.514234       -13.9930
  28   2.0000      -0.504321       -13.7233
  29   2.0000      -0.483640       -13.1605
  30   2.0000      -0.481432       -13.1004
  31   2.0000      -0.463110       -12.6019
  32   2.0000      -0.447513       -12.1775
  33   2.0000      -0.442158       -12.0317
  34   2.0000      -0.428330       -11.6555
  35   2.0000      -0.419992       -11.4286
  36   2.0000      -0.402653       -10.9567
  37   2.0000      -0.402458       -10.9514
  38   2.0000      -0.381926       -10.3927
  39   2.0000      -0.377820       -10.2810
  40   2.0000      -0.365033        -9.9331
  41   2.0000      -0.355555        -9.6751
  42   2.0000      -0.353368        -9.6156
  43   2.0000      -0.340192        -9.2571
  44   2.0000      -0.317688        -8.6447
  45   2.0000      -0.312934        -8.5154
  46   2.0000      -0.300654        -8.1812
  47   2.0000      -0.280213        -7.6250
  48   2.0000      -0.256994        -6.9932
  49   2.0000      -0.254692        -6.9305
  50   2.0000      -0.246320        -6.7027
  51   0.0000       0.056858         1.5472
  52   0.0000       0.069235         1.8840
  53   0.0000       0.079076         2.1518
  54   0.0000       0.089002         2.4219
  55   0.0000       0.095897         2.6095

MULLIKEN ATOMIC CHARGES
-----------------------
   0 C :    0.305512
   1 C :   -0.282344
   2 C :   -0.299797
   3 C :   -0.001210
   4 O :   -0.501042
   5 H :    0.139325
   6 H :    0.150057
   7 H :    0.152703
   8 H :    0.143066
   9 H :    0.157387
  10 H :    0.154255
  11 H :    0.143564
  12 C :    0.011096
  13 H :    0.136036
  14 H :    0.166701
  15 O :   -0.529975
  16 C :    0.019241
  17 C :    0.080837
  18 C :   -0.297920
  19 C :   -0.031131
  20 O :   -0.524866
  21 H :    0.164047
  22 O :   -0.603145
  23 H :    0.162057
  24 H :    0.164448
  25 H :    0.155223
  26 H :    0.151988
  27 H :    0.148495
  28 H :    0.365395
Sum of atomic charges:   -0.0000000

LOEWDIN ATOMIC CHARGES
----------------------
   0 C :    0.184107
   1 C :   -0.233192
   2 C :   -0.216350
   3 C :   -0.025492
   4 O :   -0.300932
   5 H :    0.092061
   6 H :    0.118027
   7 H :    0.116520
   8 H :    0.115013
   9 H :    0.116098
  10 H :    0.109483
  11 H :    0.102749
  12 C :   -0.040020
  13 H :    0.099476
  14 H :    0.120159
  15 O :   -0.344421
  16 C :    0.000261
  17 C :    0.031260
  18 C :   -0.239399
  19 C :   -0.038028
  20 O :   -0.324137
  21 H :    0.111165
  22 O :   -0.413506
  23 H :    0.117643
  24 H :    0.128209
  25 H :    0.118812
  26 H :    0.107036
  27 H :    0.103627
  28 H :    0.283773

  Mayer bond orders larger than 0.100000
B(  0-C ,  1-C ) :   0.9245 B(  0-C ,  4-O ) :   0.9305 B(  0-C ,  5-H ) :   0.9131
B(  0-C , 15-O ) :   0.8330 B(  1-C ,  2-C ) :   0.9495 B(  1-C ,  6-H ) :   0.9317
B(  1-C ,  7-H ) :   0.9216 B(  2-C ,  3-C ) :   0.9549 B(  2-C ,  8-H ) :   0.9446
B(  2-C ,  9-H ) :   0.9451 B(  3-C ,  4-O ) :   0.8339 B(  3-C , 10-H ) :   0.9348
B(  3-C , 11-H ) :   0.9391 B( 12-C , 13-H ) :   0.9243 B( 12-C , 14-H ) :   0.9252
B( 12-C , 15-O ) :   0.8436 B( 12-C , 16-C ) :   0.8849 B( 16-C , 17-C ) :   0.8981
B( 16-C , 20-O ) :   0.8211 B( 16-C , 21-H ) :   0.9179 B( 17-C , 18-C ) :   0.9136
B( 17-C , 22-O ) :   0.8878 B( 17-C , 23-H ) :   0.9195 B( 18-C , 19-C ) :   0.9411
B( 18-C , 24-H ) :   0.9371 B( 18-C , 25-H ) :   0.9322 B( 19-C , 20-O ) :   0.8380
B( 19-C , 26-H ) :   0.9348 B( 19-C , 27-H ) :   0.9376 B( 22-O , 28-H ) :   0.7943

FINAL SINGLE POINT ENERGY      -652.847178708681

DIPOLE MOMENT
-------------
                                X             Y             Z
Electronic contribution:     -1.19156      -0.90871      -0.07347
Nuclear contribution   :      1.25475       1.22647      -0.60170
                        -----------------------------------------
Total Dipole Moment    :      0.06319       0.31776      -0.67517
                        -----------------------------------------
Magnitude (a.u.)       :      0.74888
Magnitude (Debye)      :      1.90350

Rotational constants in cm-1:     0.057072     0.013932     0.013163
Rotational constants in MHz :  1710.966922   417.671734   394.626985

                             ****ORCA TERMINATED NORMALLY****
TOTAL RUN TIME: 0 days 0 hours 34 minutes 28 seconds 256 msec
