                         Program Version 4.2.0 -  RELEASE  -
|  1> # Test redundant internal optimization
|  2> #
|  3> ! RKS B3LYP  Opt TightSCF SmallPrint
|  4>
|  5> %basis
|  6>         Basis "6-31G"
|  7> end
|  8>
|  9> %geom
| 10> Constraints
| 11> { D 4  0  15  12  210.0   C } # D for Dihedral angle
| 12> { D 0  15  12  16  225.0   C } # D for Dihedral angle
| 13> { D 0  4  3  2   C } # D for Dihedral angle
| 14> { D 4  3  2  1   C } # D for Dihedral angle
| 15> { D 3  2  1  0   C } # D for Dihedral angle
| 16> { D 2  1  0  4   C } # D for Dihedral angle
| 17> { D 1  0  4  3   C } # D for Dihedral angle
| 18> { D 16  20  19  18   C } # D for Dihedral angle
| 19> { D 20  19  18  17   C } # D for Dihedral angle
| 20> { D 19  18  17  16   C } # D for Dihedral angle
| 21> { D 18  17  16  20   C } # D for Dihedral angle
| 22> { D 17  16  20  19   C } # D for Dihedral angle
| 23> { D 15  12  16  20   C } # D for Dihedral angle
| 24> end
| 25> end
| 26>
| 27>
| 28> #%pal
| 29> #nprocs 8
| 30> #end
| 31>
| 32> * xyz 0 1
| 33> C  -21.048   26.222   46.251
| 34> C  -20.361   27.558   45.944
| 35> C  -20.329   28.222   47.341
| 36> C  -20.110   27.022   48.296
| 37> O  -20.473   25.807   47.535
| 38> H  -20.833   25.428   45.533
| 39> H  -19.344   27.382   45.576
| 40> H  -20.898   28.157   45.201
| 41> H  -19.543   28.978   47.434
| 42> H  -21.289   28.710   47.548
| 43> H  -20.733   27.082   49.195
| 44> H  -19.064   26.913   48.597
| 45> C  -23.389   26.110   45.076
| 46> H  -22.700   26.085   44.223
| 47> H  -23.892   25.137   45.140
| 48> O  -22.586   26.394   46.375
| 49> C  -24.475   27.185   44.795
| 50> C  -25.426   27.342   45.987
| 51> C  -24.586   28.220   46.945
| 52> C  -23.807   29.148   45.979
| 53> O  -23.861   28.508   44.646
| 54> H  -24.970   26.955   43.850
| 55> O  -26.714   28.089   45.547
| 56> H  -25.717   26.385   46.434
| 57> H  -25.200   28.780   47.657
| 58> H  -23.893   27.594   47.520
| 59> H  -22.761   29.278   46.274
| 60> H  -24.272   30.134   45.882
| 61> H  -26.446   29.051   45.096
| 62> *
| 63>
| 64>                          ****END OF INPUT****
 Total Charge           Charge          ....    0
 Multiplicity           Mult            ....    1
 Number of Electrons    NEL             ....  102
FINAL SINGLE POINT ENERGY      -652.834753059384
FINAL SINGLE POINT ENERGY      -652.856972470832
FINAL SINGLE POINT ENERGY      -652.860386473355
FINAL SINGLE POINT ENERGY      -652.862065268111
FINAL SINGLE POINT ENERGY      -652.862203955831
FINAL SINGLE POINT ENERGY      -652.862223070326
                    ***********************HURRAY********************

CARTESIAN COORDINATES (ANGSTROEM)
---------------------------------
  C    -21.062609   26.201075   46.198795
  C    -20.362781   27.525863   45.904799
  C    -20.298896   28.173630   47.308590
  C    -20.085088   26.959832   48.238273
  O    -20.487706   25.770948   47.440010
  H    -20.880467   25.406342   45.468824
  H    -19.354849   27.327485   45.521700
  H    -20.907597   28.131500   45.175575
  H    -19.495813   28.911843   47.394031
  H    -21.245966   28.668787   47.537855
  H    -20.695126   26.993905   49.144030
  H    -19.036517   26.810855   48.511644
  C    -23.291229   26.140211   45.158471
  H    -22.633262   26.124650   44.279827
  H    -23.778894   25.158163   45.239768
  O    -22.503654   26.381093   46.361870
  C    -24.353495   27.209203   44.916509
  C    -25.427966   27.382783   45.999570
  C    -24.725321   28.347132   46.990027
  C    -23.891125   29.259437   46.057410
  O    -23.783221   28.548695   44.759169
  H    -24.836214   26.962763   43.962374
  O    -26.640011   27.956071   45.432207
  H    -25.742849   26.445856   46.459486
  H    -25.458287   28.898978   47.584432
  H    -24.072075   27.771433   47.649208
  H    -22.887511   29.453410   46.439533
  H    -24.381173   30.217832   45.854165
  H    -26.400296   28.736224   44.888847

 Multiplicity           Mult            ....    1
 Number of Electrons    NEL             ....  102
 Basis Dimension        Dim             ....  149

ORBITAL ENERGIES
----------------

  NO   OCC          E(Eh)            E(eV)
   0   2.0000     -19.145286      -520.9697
   1   2.0000     -19.144854      -520.9580
   2   2.0000     -19.143321      -520.9163
   3   2.0000     -19.135987      -520.7167
   4   2.0000     -10.282031      -279.7883
   5   2.0000     -10.238013      -278.5905
   6   2.0000     -10.236803      -278.5576
   7   2.0000     -10.236591      -278.5518
   8   2.0000     -10.228074      -278.3201
   9   2.0000     -10.227547      -278.3057
  10   2.0000     -10.189016      -277.2572
  11   2.0000     -10.185223      -277.1540
  12   2.0000     -10.179274      -276.9921
  13   2.0000      -1.055331       -28.7170
  14   2.0000      -1.035775       -28.1849
  15   2.0000      -1.005912       -27.3722
  16   2.0000      -0.996272       -27.1099
  17   2.0000      -0.789052       -21.4712
  18   2.0000      -0.779157       -21.2020
  19   2.0000      -0.767463       -20.8837
  20   2.0000      -0.733762       -19.9667
  21   2.0000      -0.677476       -18.4351
  22   2.0000      -0.603487       -16.4217
  23   2.0000      -0.599812       -16.3217
  24   2.0000      -0.596890       -16.2422
  25   2.0000      -0.581403       -15.8208
  26   2.0000      -0.526741       -14.3334
  27   2.0000      -0.506196       -13.7743
  28   2.0000      -0.494693       -13.4613
  29   2.0000      -0.490860       -13.3570
  30   2.0000      -0.479118       -13.0375
  31   2.0000      -0.461263       -12.5516
  32   2.0000      -0.448880       -12.2146
  33   2.0000      -0.444800       -12.1036
  34   2.0000      -0.421386       -11.4665
  35   2.0000      -0.409947       -11.1552
  36   2.0000      -0.403741       -10.9864
  37   2.0000      -0.391578       -10.6554
  38   2.0000      -0.376606       -10.2480
  39   2.0000      -0.372369       -10.1327
  40   2.0000      -0.359731        -9.7888
  41   2.0000      -0.357900        -9.7389
  42   2.0000      -0.353996        -9.6327
  43   2.0000      -0.330099        -8.9825
  44   2.0000      -0.316442        -8.6108
  45   2.0000      -0.313490        -8.5305
  46   2.0000      -0.303356        -8.2547
  47   2.0000      -0.271887        -7.3984
  48   2.0000      -0.264788        -7.2052
  49   2.0000      -0.257659        -7.0113
  50   2.0000      -0.242571        -6.6007
  51   0.0000       0.062396         1.6979
  52   0.0000       0.081433         2.2159
  53   0.0000       0.089621         2.4387
  54   0.0000       0.097731         2.6594
  55   0.0000       0.100905         2.7458

MULLIKEN ATOMIC CHARGES
-----------------------
   0 C :    0.294330
   1 C :   -0.270331
   2 C :   -0.313076
   3 C :   -0.002970
   4 O :   -0.503833
   5 H :    0.141484
   6 H :    0.143112
   7 H :    0.167896
   8 H :    0.144584
   9 H :    0.162632
  10 H :    0.151635
  11 H :    0.143990
  12 C :   -0.008771
  13 H :    0.141178
  14 H :    0.139716
  15 O :   -0.517929
  16 C :    0.075073
  17 C :    0.074138
  18 C :   -0.283910
  19 C :   -0.033626
  20 O :   -0.530966
  21 H :    0.154887
  22 O :   -0.602224
  23 H :    0.156531
  24 H :    0.149376
  25 H :    0.177446
  26 H :    0.148812
  27 H :    0.139122
  28 H :    0.361692
Sum of atomic charges:   -0.0000000

LOEWDIN ATOMIC CHARGES
----------------------
   0 C :    0.180433
   1 C :   -0.229841
   2 C :   -0.218258
   3 C :   -0.025602
   4 O :   -0.305679
   5 H :    0.097736
   6 H :    0.113782
   7 H :    0.126385
   8 H :    0.115790
   9 H :    0.113464
  10 H :    0.107761
  11 H :    0.103436
  12 C :   -0.037332
  13 H :    0.103526
  14 H :    0.103738
  15 O :   -0.341200
  16 C :    0.011807
  17 C :    0.038634
  18 C :   -0.239884
  19 C :   -0.035909
  20 O :   -0.333221
  21 H :    0.116008
  22 O :   -0.416502
  23 H :    0.118721
  24 H :    0.119707
  25 H :    0.131488
  26 H :    0.102612
  27 H :    0.097272
  28 H :    0.281127

  Mayer bond orders larger than 0.100000
B(  0-C ,  1-C ) :   0.9306 B(  0-C ,  4-O ) :   0.9400 B(  0-C ,  5-H ) :   0.9206
B(  0-C , 15-O ) :   0.8244 B(  1-C ,  2-C ) :   0.9549 B(  1-C ,  6-H ) :   0.9333
B(  1-C ,  7-H ) :   0.9264 B(  2-C ,  3-C ) :   0.9523 B(  2-C ,  8-H ) :   0.9450
B(  2-C ,  9-H ) :   0.9327 B(  3-C ,  4-O ) :   0.8360 B(  3-C , 10-H ) :   0.9349
B(  3-C , 11-H ) :   0.9394 B( 12-C , 13-H ) :   0.9178 B( 12-C , 14-H ) :   0.9163
B( 12-C , 15-O ) :   0.8556 B( 12-C , 16-C ) :   0.8996 B( 16-C , 17-C ) :   0.9111
B( 16-C , 20-O ) :   0.8649 B( 16-C , 21-H ) :   0.9191 B( 17-C , 18-C ) :   0.9241
B( 17-C , 22-O ) :   0.8904 B( 17-C , 23-H ) :   0.9347 B( 18-C , 19-C ) :   0.9478
B( 18-C , 24-H ) :   0.9372 B( 18-C , 25-H ) :   0.9184 B( 19-C , 20-O ) :   0.8386
B( 19-C , 26-H ) :   0.9223 B( 19-C , 27-H ) :   0.9364 B( 22-O , 28-H ) :   0.7969

FINAL SINGLE POINT ENERGY      -652.862223496145

DIPOLE MOMENT
-------------
                                X             Y             Z
Electronic contribution:     -2.98946      -3.09334      -1.82833
Nuclear contribution   :      3.73429       3.72211       1.72520
                        -----------------------------------------
Total Dipole Moment    :      0.74482       0.62877      -0.10313
                        -----------------------------------------
Magnitude (a.u.)       :      0.98018
Magnitude (Debye)      :      2.49143

Rotational constants in cm-1:     0.055231     0.015118     0.014318
Rotational constants in MHz :  1655.796063   453.221213   429.239059

                             ****ORCA TERMINATED NORMALLY****
TOTAL RUN TIME: 0 days 0 hours 26 minutes 26 seconds 114 msec
