                         Program Version 4.2.1 -  RELEASE  -
|  1> # Test redundant internal optimization
|  2> #
|  3> ! RKS B3LYP  Opt TightSCF SmallPrint
|  4>
|  5> %basis
|  6>         Basis "6-31G"
|  7> end
|  8>
|  9> %geom
| 10> Constraints
| 11> { D 4  0  19  14  225.0   C } # D for Dihedral angle
| 12> { D 0  19  14  12  60.0   C } # D for Dihedral angle
| 13> { D 0  4  3  2   C } # D for Dihedral angle
| 14> { D 4  3  2  1   C } # D for Dihedral angle
| 15> { D 3  2  1  0   C } # D for Dihedral angle
| 16> { D 2  1  0  4   C } # D for Dihedral angle
| 17> { D 1  0  4  3   C } # D for Dihedral angle
| 18> { D 14  15  16  17   C } # D for Dihedral angle
| 19> { D 15  16  17  12   C } # D for Dihedral angle
| 20> { D 16  17  12  14   C } # D for Dihedral angle
| 21> { D 17  12  14  15   C } # D for Dihedral angle
| 22> { D 12  14  15  16   C } # D for Dihedral angle
| 23> end
| 24> end
| 25>
| 26>
| 27> #%pal
| 28> #nprocs 8
| 29> #end
| 30>
| 31> * xyz 0 1
| 32> C  -21.048   26.222   46.251
| 33> C  -20.361   27.558   45.944
| 34> C  -20.329   28.222   47.341
| 35> C  -20.110   27.022   48.296
| 36> O  -20.473   25.807   47.535
| 37> H  -20.833   25.428   45.533
| 38> H  -19.344   27.382   45.576
| 39> H  -20.898   28.157   45.201
| 40> H  -19.543   28.978   47.434
| 41> H  -21.289   28.710   47.548
| 42> H  -20.733   27.082   49.195
| 43> H  -19.064   26.913   48.597
| 44> C  -22.953   24.293   45.212
| 45> H  -23.271   23.877   44.243
| 46> C  -23.222   25.800   45.287
| 47> C  -24.737   25.834   45.594
| 48> C  -24.940   24.595   46.502
| 49> O  -23.758   23.728   46.300
| 50> H  -21.917   24.008   45.401
| 51> O  -22.472   26.381   46.366
| 52> H  -22.964   26.329   44.363
| 53> H  -25.052   26.763   46.080
| 54> H  -25.313   25.730   44.666
| 55> H  -25.845   24.032   46.249
| 56> H  -24.970   24.855   47.564
| 57> *
| 58>
| 59>                          ****END OF INPUT****
 Total Charge           Charge          ....    0
 Multiplicity           Mult            ....    1
 Number of Electrons    NEL             ....   86
FINAL SINGLE POINT ENERGY      -538.424699096576
FINAL SINGLE POINT ENERGY      -538.429583325899
FINAL SINGLE POINT ENERGY      -538.429967502845
FINAL SINGLE POINT ENERGY      -538.430059284890
FINAL SINGLE POINT ENERGY      -538.430075733084
FINAL SINGLE POINT ENERGY      -538.430079262334
                    ***********************HURRAY********************

CARTESIAN COORDINATES (ANGSTROEM)
---------------------------------
  C    -20.948330   26.193766   46.239737
  C    -20.310473   27.554070   45.960938
  C    -20.409530   28.243548   47.343258
  C    -20.200340   27.072389   48.327539
  O    -20.454793   25.836576   47.543478
  H    -20.657649   25.394883   45.554411
  H    -19.262566   27.415232   45.668648
  H    -20.826285   28.103120   45.168763
  H    -19.668333   29.037703   47.473084
  H    -21.407504   28.674819   47.465616
  H    -20.888082   27.095140   49.176511
  H    -19.172033   27.003728   48.695097
  C    -23.045028   24.221030   45.094625
  H    -23.481707   23.889044   44.140131
  C    -23.195300   25.735593   45.225978
  C    -24.663547   25.865255   45.669528
  C    -24.878632   24.621682   46.565058
  O    -23.784811   23.681113   46.235497
  H    -22.024621   23.841959   45.168384
  O    -22.393294   26.335333   46.287187
  H    -22.998228   26.252795   44.275512
  H    -24.822297   26.806636   46.200247
  H    -25.316653   25.842545   44.789955
  H    -25.841337   24.131872   46.380401
  H    -24.787627   24.856171   47.628418

 Multiplicity           Mult            ....    1
 Number of Electrons    NEL             ....   86
 Basis Dimension        Dim             ....  127

ORBITAL ENERGIES
----------------

  NO   OCC          E(Eh)            E(eV)
   0   2.0000     -19.139048      -520.8000
   1   2.0000     -19.135335      -520.6989
   2   2.0000     -19.126840      -520.4678
   3   2.0000     -10.277206      -279.6570
   4   2.0000     -10.242387      -278.7095
   5   2.0000     -10.223971      -278.2084
   6   2.0000     -10.221384      -278.1380
   7   2.0000     -10.217772      -278.0397
   8   2.0000     -10.185100      -277.1507
   9   2.0000     -10.184030      -277.1216
  10   2.0000     -10.183491      -277.1069
  11   2.0000      -1.050151       -28.5761
  12   2.0000      -1.012855       -27.5612
  13   2.0000      -0.987808       -26.8796
  14   2.0000      -0.789458       -21.4822
  15   2.0000      -0.776826       -21.1385
  16   2.0000      -0.736294       -20.0356
  17   2.0000      -0.723628       -19.6909
  18   2.0000      -0.615309       -16.7434
  19   2.0000      -0.596969       -16.2444
  20   2.0000      -0.592581       -16.1249
  21   2.0000      -0.569420       -15.4947
  22   2.0000      -0.526310       -14.3216
  23   2.0000      -0.498286       -13.5591
  24   2.0000      -0.487582       -13.2678
  25   2.0000      -0.476035       -12.9536
  26   2.0000      -0.449023       -12.2185
  27   2.0000      -0.444442       -12.0939
  28   2.0000      -0.432365       -11.7652
  29   2.0000      -0.415326       -11.3016
  30   2.0000      -0.401825       -10.9342
  31   2.0000      -0.377115       -10.2618
  32   2.0000      -0.369554       -10.0561
  33   2.0000      -0.364052        -9.9064
  34   2.0000      -0.360662        -9.8141
  35   2.0000      -0.354265        -9.6400
  36   2.0000      -0.347039        -9.4434
  37   2.0000      -0.314017        -8.5448
  38   2.0000      -0.306304        -8.3349
  39   2.0000      -0.298269        -8.1163
  40   2.0000      -0.260591        -7.0910
  41   2.0000      -0.245418        -6.6782
  42   2.0000      -0.233644        -6.3578
  43   0.0000       0.078811         2.1446
  44   0.0000       0.097456         2.6519
  45   0.0000       0.104395         2.8407
  46   0.0000       0.109512         2.9800
  47   0.0000       0.119843         3.2611

MULLIKEN ATOMIC CHARGES
-----------------------
   0 C :    0.291386
   1 C :   -0.255601
   2 C :   -0.298900
   3 C :   -0.000526
   4 O :   -0.498371
   5 H :    0.135777
   6 H :    0.141780
   7 H :    0.141494
   8 H :    0.140045
   9 H :    0.160497
  10 H :    0.152523
  11 H :    0.140156
  12 C :   -0.005415
  13 H :    0.121996
  14 C :    0.075167
  15 C :   -0.290647
  16 C :    0.001282
  17 O :   -0.515109
  18 H :    0.161710
  19 O :   -0.516837
  20 H :    0.121006
  21 H :    0.162228
  22 H :    0.140906
  23 H :    0.132565
  24 H :    0.160890
Sum of atomic charges:    0.0000000

LOEWDIN ATOMIC CHARGES
----------------------
   0 C :    0.176603
   1 C :   -0.223455
   2 C :   -0.216750
   3 C :   -0.025985
   4 O :   -0.308668
   5 H :    0.096346
   6 H :    0.111593
   7 H :    0.115077
   8 H :    0.113314
   9 H :    0.118358
  10 H :    0.108341
  11 H :    0.101542
  12 C :   -0.047795
  13 H :    0.091964
  14 C :    0.038958
  15 C :   -0.221970
  16 C :   -0.027478
  17 O :   -0.326340
  18 H :    0.116043
  19 O :   -0.328776
  20 H :    0.090195
  21 H :    0.128280
  22 H :    0.111686
  23 H :    0.097031
  24 H :    0.111886

  Mayer bond orders larger than 0.100000
B(  0-C ,  1-C ) :   0.9374 B(  0-C ,  4-O ) :   0.9354 B(  0-C ,  5-H ) :   0.9154
B(  0-C , 19-O ) :   0.8343 B(  1-C ,  2-C ) :   0.9566 B(  1-C ,  6-H ) :   0.9360
B(  1-C ,  7-H ) :   0.9391 B(  2-C ,  3-C ) :   0.9541 B(  2-C ,  8-H ) :   0.9453
B(  2-C ,  9-H ) :   0.9440 B(  3-C ,  4-O ) :   0.8394 B(  3-C , 10-H ) :   0.9344
B(  3-C , 11-H ) :   0.9397 B( 12-C , 13-H ) :   0.9082 B( 12-C , 14-C ) :   0.9101
B( 12-C , 17-O ) :   0.8773 B( 12-C , 18-H ) :   0.9258 B( 14-C , 15-C ) :   0.9581
B( 14-C , 19-O ) :   0.8429 B( 14-C , 20-H ) :   0.9204 B( 15-C , 16-C ) :   0.9464
B( 15-C , 21-H ) :   0.9367 B( 15-C , 22-H ) :   0.9415 B( 16-C , 17-O ) :   0.8553
B( 16-C , 23-H ) :   0.9331 B( 16-C , 24-H ) :   0.9351

FINAL SINGLE POINT ENERGY      -538.430079688789

DIPOLE MOMENT
-------------
                                X             Y             Z
Electronic contribution:      0.21592      -3.80401       1.01633
Nuclear contribution   :     -0.20861       5.03362      -1.91806
                        -----------------------------------------
Total Dipole Moment    :      0.00731       1.22961      -0.90173
                        -----------------------------------------
Magnitude (a.u.)       :      1.52483
Magnitude (Debye)      :      3.87582

Rotational constants in cm-1:     0.079812     0.020585     0.019948
Rotational constants in MHz :  2392.707643   617.114496   598.012182

                             ****ORCA TERMINATED NORMALLY****
TOTAL RUN TIME: 0 days 0 hours 14 minutes 41 seconds 168 msec
