                         Program Version 4.2.0 -  RELEASE  -
|  1> # Test redundant internal optimization
|  2> #
|  3> ! RKS B3LYP  Opt TightSCF SmallPrint
|  4>
|  5> %basis
|  6>         Basis "6-31G"
|  7> end
|  8>
|  9> %geom
| 10> Constraints
| 11> { D 4  0  15  12  180.0   C } # D for Dihedral angle
| 12> { D 0  15  12  16  225.0   C } # D for Dihedral angle
| 13> { D 0  4  3  2   C } # D for Dihedral angle
| 14> { D 4  3  2  1   C } # D for Dihedral angle
| 15> { D 3  2  1  0   C } # D for Dihedral angle
| 16> { D 2  1  0  4   C } # D for Dihedral angle
| 17> { D 1  0  4  3   C } # D for Dihedral angle
| 18> { D 16  20  19  18   C } # D for Dihedral angle
| 19> { D 20  19  18  17   C } # D for Dihedral angle
| 20> { D 19  18  17  16   C } # D for Dihedral angle
| 21> { D 18  17  16  20   C } # D for Dihedral angle
| 22> { D 17  16  20  19   C } # D for Dihedral angle
| 23> { D 15  12  16  20   C } # D for Dihedral angle
| 24> end
| 25> end
| 26>
| 27>
| 28> #%pal
| 29> #nprocs 8
| 30> #end
| 31>
| 32> * xyz 0 1
| 33> C  -21.048   26.222   46.251
| 34> C  -20.361   27.558   45.944
| 35> C  -20.329   28.222   47.341
| 36> C  -20.110   27.022   48.296
| 37> O  -20.473   25.807   47.535
| 38> H  -20.833   25.428   45.533
| 39> H  -19.344   27.382   45.576
| 40> H  -20.898   28.157   45.201
| 41> H  -19.543   28.978   47.434
| 42> H  -21.289   28.710   47.548
| 43> H  -20.733   27.082   49.195
| 44> H  -19.064   26.913   48.597
| 45> C  -23.309   26.834   45.072
| 46> H  -22.565   27.195   44.351
| 47> H  -23.839   25.985   44.622
| 48> O  -22.586   26.394   46.375
| 49> C  -24.346   27.965   45.313
| 50> C  -23.664   29.254   45.785
| 51> C  -23.120   29.826   44.454
| 52> C  -24.208   29.423   43.427
| 53> O  -24.997   28.340   44.053
| 54> H  -25.128   27.597   45.980
| 55> O  -24.715   30.215   46.406
| 56> H  -22.877   29.079   46.526
| 57> H  -22.961   30.908   44.491
| 58> H  -22.161   29.355   44.207
| 59> H  -23.782   29.059   42.487
| 60> H  -24.900   30.241   43.209
| 61> H  -25.514   30.406   45.681
| 62> *
| 63>
| 64>                          ****END OF INPUT****
 Total Charge           Charge          ....    0
 Multiplicity           Mult            ....    1
 Number of Electrons    NEL             ....  102
FINAL SINGLE POINT ENERGY      -652.829184166904
FINAL SINGLE POINT ENERGY      -652.851035323505
FINAL SINGLE POINT ENERGY      -652.854979401486
FINAL SINGLE POINT ENERGY      -652.855645653071
FINAL SINGLE POINT ENERGY      -652.855747988963
FINAL SINGLE POINT ENERGY      -652.855760053945
                    ***********************HURRAY********************

CARTESIAN COORDINATES (ANGSTROEM)
---------------------------------
  C    -21.111732   26.234840   46.231736
  C    -20.287878   27.479845   45.900864
  C    -20.280220   28.237225   47.257327
  C    -20.235062   27.082532   48.281188
  O    -20.667187   25.871283   47.541210
  H    -20.910721   25.380918   45.575527
  H    -19.274797   27.163315   45.629215
  H    -20.686882   28.076450   45.076818
  H    -19.421759   28.909308   47.351165
  H    -21.188864   28.829916   47.378825
  H    -20.907585   27.231359   49.129377
  H    -19.225034   26.880149   48.648557
  C    -23.255210   26.826266   45.074672
  H    -22.544391   27.126124   44.292574
  H    -23.815661   25.963630   44.696790
  O    -22.557095   26.443065   46.297618
  C    -24.246704   27.968325   45.329737
  C    -23.677720   29.310651   45.812075
  C    -23.156641   29.926950   44.486507
  C    -24.192649   29.436093   43.443259
  O    -24.903229   28.291641   44.058349
  H    -25.024994   27.623472   46.016907
  O    -24.725859   30.128204   46.402282
  H    -22.922294   29.205982   46.584947
  H    -23.109692   31.016476   44.560052
  H    -22.152939   29.555413   44.256228
  H    -23.730990   29.107974   42.506812
  H    -24.945328   30.195982   43.211378
  H    -25.537883   30.053611   45.858004

 Multiplicity           Mult            ....    1
 Number of Electrons    NEL             ....  102
 Basis Dimension        Dim             ....  149

ORBITAL ENERGIES
----------------

  NO   OCC          E(Eh)            E(eV)
   0   2.0000     -19.149862      -521.0942
   1   2.0000     -19.144290      -520.9426
   2   2.0000     -19.142916      -520.9052
   3   2.0000     -19.140141      -520.8297
   4   2.0000     -10.284340      -279.8511
   5   2.0000     -10.242756      -278.7196
   6   2.0000     -10.236944      -278.5614
   7   2.0000     -10.236832      -278.5584
   8   2.0000     -10.234381      -278.4917
   9   2.0000     -10.228777      -278.3392
  10   2.0000     -10.195861      -277.4435
  11   2.0000     -10.194488      -277.4061
  12   2.0000     -10.193766      -277.3865
  13   2.0000      -1.055871       -28.7317
  14   2.0000      -1.041892       -28.3513
  15   2.0000      -1.009580       -27.4721
  16   2.0000      -0.996636       -27.1198
  17   2.0000      -0.792492       -21.5648
  18   2.0000      -0.784109       -21.3367
  19   2.0000      -0.772385       -21.0177
  20   2.0000      -0.736579       -20.0433
  21   2.0000      -0.681167       -18.5355
  22   2.0000      -0.609475       -16.5846
  23   2.0000      -0.607231       -16.5236
  24   2.0000      -0.596261       -16.2251
  25   2.0000      -0.583958       -15.8903
  26   2.0000      -0.528042       -14.3688
  27   2.0000      -0.519252       -14.1296
  28   2.0000      -0.502517       -13.6742
  29   2.0000      -0.495455       -13.4820
  30   2.0000      -0.479800       -13.0560
  31   2.0000      -0.458098       -12.4655
  32   2.0000      -0.456982       -12.4351
  33   2.0000      -0.441344       -12.0096
  34   2.0000      -0.427806       -11.6412
  35   2.0000      -0.420742       -11.4490
  36   2.0000      -0.412155       -11.2153
  37   2.0000      -0.398148       -10.8342
  38   2.0000      -0.380204       -10.3459
  39   2.0000      -0.377136       -10.2624
  40   2.0000      -0.363362        -9.8876
  41   2.0000      -0.361038        -9.8243
  42   2.0000      -0.358702        -9.7608
  43   2.0000      -0.335048        -9.1171
  44   2.0000      -0.316038        -8.5998
  45   2.0000      -0.310823        -8.4579
  46   2.0000      -0.305662        -8.3175
  47   2.0000      -0.276300        -7.5185
  48   2.0000      -0.264806        -7.2057
  49   2.0000      -0.261647        -7.1198
  50   2.0000      -0.244089        -6.6420
  51   0.0000       0.054910         1.4942
  52   0.0000       0.065985         1.7955
  53   0.0000       0.086500         2.3538
  54   0.0000       0.093456         2.5431
  55   0.0000       0.099012         2.6942

MULLIKEN ATOMIC CHARGES
-----------------------
   0 C :    0.316286
   1 C :   -0.294402
   2 C :   -0.310674
   3 C :   -0.001873
   4 O :   -0.499489
   5 H :    0.143842
   6 H :    0.153803
   7 H :    0.140917
   8 H :    0.145918
   9 H :    0.167220
  10 H :    0.158139
  11 H :    0.144690
  12 C :   -0.008779
  13 H :    0.118108
  14 H :    0.159371
  15 O :   -0.519254
  16 C :    0.056853
  17 C :    0.069329
  18 C :   -0.306183
  19 C :   -0.029445
  20 O :   -0.524979
  21 H :    0.173212
  22 O :   -0.600615
  23 H :    0.175582
  24 H :    0.166915
  25 H :    0.143574
  26 H :    0.146124
  27 H :    0.150275
  28 H :    0.365532
Sum of atomic charges:   -0.0000000

LOEWDIN ATOMIC CHARGES
----------------------
   0 C :    0.184918
   1 C :   -0.234514
   2 C :   -0.218160
   3 C :   -0.024511
   4 O :   -0.298938
   5 H :    0.096166
   6 H :    0.120020
   7 H :    0.109263
   8 H :    0.116390
   9 H :    0.114103
  10 H :    0.111341
  11 H :    0.103849
  12 C :   -0.040220
  13 H :    0.090681
  14 H :    0.112906
  15 O :   -0.340842
  16 C :    0.015420
  17 C :    0.035937
  18 C :   -0.243654
  19 C :   -0.038421
  20 O :   -0.328895
  21 H :    0.120779
  22 O :   -0.412825
  23 H :    0.120032
  24 H :    0.128452
  25 H :    0.109429
  26 H :    0.103803
  27 H :    0.104320
  28 H :    0.283170

  Mayer bond orders larger than 0.100000
B(  0-C ,  1-C ) :   0.9225 B(  0-C ,  4-O ) :   0.9406 B(  0-C ,  5-H ) :   0.9230
B(  0-C , 15-O ) :   0.8366 B(  1-C ,  2-C ) :   0.9519 B(  1-C ,  6-H ) :   0.9322
B(  1-C ,  7-H ) :   0.9242 B(  2-C ,  3-C ) :   0.9535 B(  2-C ,  8-H ) :   0.9443
B(  2-C ,  9-H ) :   0.9263 B(  3-C ,  4-O ) :   0.8345 B(  3-C , 10-H ) :   0.9338
B(  3-C , 11-H ) :   0.9395 B( 12-C , 13-H ) :   0.9206 B( 12-C , 14-H ) :   0.9218
B( 12-C , 15-O ) :   0.8336 B( 12-C , 16-C ) :   0.9010 B( 16-C , 17-C ) :   0.9112
B( 16-C , 20-O ) :   0.8362 B( 16-C , 21-H ) :   0.9238 B( 17-C , 18-C ) :   0.9137
B( 17-C , 22-O ) :   0.8932 B( 17-C , 23-H ) :   0.9070 B( 18-C , 19-C ) :   0.9405
B( 18-C , 24-H ) :   0.9365 B( 18-C , 25-H ) :   0.9268 B( 19-C , 20-O ) :   0.8437
B( 19-C , 26-H ) :   0.9352 B( 19-C , 27-H ) :   0.9371 B( 22-O , 28-H ) :   0.7932

FINAL SINGLE POINT ENERGY      -652.855762553908

DIPOLE MOMENT
-------------
                                X             Y             Z
Electronic contribution:     -4.60337      -3.93755       1.75230
Nuclear contribution   :      5.58002       4.82361      -2.76207
                        -----------------------------------------
Total Dipole Moment    :      0.97665       0.88606      -1.00977
                        -----------------------------------------
Magnitude (a.u.)       :      1.66090
Magnitude (Debye)      :      4.22168

Rotational constants in cm-1:     0.049361     0.015089     0.014022
Rotational constants in MHz :  1479.795291   452.354556   420.372765

                             ****ORCA TERMINATED NORMALLY****
TOTAL RUN TIME: 0 days 0 hours 25 minutes 14 seconds 616 msec
