                         Program Version 4.2.1 -  RELEASE  -
|  1> # Test redundant internal optimization
|  2> #
|  3> ! RKS B3LYP  Opt TightSCF SmallPrint
|  4>
|  5> %basis
|  6>         Basis "6-31G"
|  7> end
|  8>
|  9> %geom
| 10> Constraints
| 11> { D 4  0  19  14  135.0   C } # D for Dihedral angle
| 12> { D 0  19  14  12  150.0   C } # D for Dihedral angle
| 13> { D 0  4  3  2   C } # D for Dihedral angle
| 14> { D 4  3  2  1   C } # D for Dihedral angle
| 15> { D 3  2  1  0   C } # D for Dihedral angle
| 16> { D 2  1  0  4   C } # D for Dihedral angle
| 17> { D 1  0  4  3   C } # D for Dihedral angle
| 18> { D 14  15  16  17   C } # D for Dihedral angle
| 19> { D 15  16  17  12   C } # D for Dihedral angle
| 20> { D 16  17  12  14   C } # D for Dihedral angle
| 21> { D 17  12  14  15   C } # D for Dihedral angle
| 22> { D 12  14  15  16   C } # D for Dihedral angle
| 23> end
| 24> end
| 25>
| 26>
| 27> #%pal
| 28> #nprocs 8
| 29> #end
| 30>
| 31> * xyz 0 1
| 32> C  -21.048   26.222   46.251
| 33> C  -20.361   27.558   45.944
| 34> C  -20.329   28.222   47.341
| 35> C  -20.110   27.022   48.296
| 36> O  -20.473   25.807   47.535
| 37> H  -20.833   25.428   45.533
| 38> H  -19.344   27.382   45.576
| 39> H  -20.898   28.157   45.201
| 40> H  -19.543   28.978   47.434
| 41> H  -21.289   28.710   47.548
| 42> H  -20.733   27.082   49.195
| 43> H  -19.064   26.913   48.597
| 44> C  -24.418   27.339   45.261
| 45> H  -24.729   28.117   44.546
| 46> C  -22.986   27.575   45.755
| 47> C  -23.197   28.683   46.813
| 48> C  -24.569   28.320   47.434
| 49> O  -25.235   27.407   46.478
| 50> H  -24.587   26.357   44.818
| 51> O  -22.472   26.381   46.366
| 52> H  -22.300   27.877   44.956
| 53> H  -22.397   28.716   47.560
| 54> H  -23.241   29.666   46.327
| 55> H  -25.205   29.198   47.593
| 56> H  -24.470   27.779   48.380
| 57> *
| 58>
| 59>                          ****END OF INPUT****
 Total Charge           Charge          ....    0
 Multiplicity           Mult            ....    1
 Number of Electrons    NEL             ....   86
FINAL SINGLE POINT ENERGY      -538.372444317861
FINAL SINGLE POINT ENERGY      -538.417455077747
FINAL SINGLE POINT ENERGY      -538.419364658279
FINAL SINGLE POINT ENERGY      -538.419661057395
FINAL SINGLE POINT ENERGY      -538.419698677826
FINAL SINGLE POINT ENERGY      -538.419710047501
                    ***********************HURRAY********************

CARTESIAN COORDINATES (ANGSTROEM)
---------------------------------
  C    -21.047260   26.332733   46.277534
  C    -20.089452   27.486069   45.959777
  C    -19.959193   28.192255   47.339843
  C    -20.024434   27.003627   48.328318
  O    -20.612905   25.874031   47.569754
  H    -20.910623   25.473881   45.614475
  H    -19.131149   27.050804   45.658880
  H    -20.422537   28.154648   45.161501
  H    -19.019814   28.747297   47.428725
  H    -20.775673   28.898596   47.499370
  H    -20.647708   27.206000   49.204066
  H    -19.034195   26.679108   48.659825
  C    -24.520795   27.300895   45.255278
  H    -24.953068   28.027686   44.550562
  C    -23.133357   27.749863   45.715888
  C    -23.485213   28.800591   46.787366
  C    -24.767116   28.229879   47.438624
  O    -25.307960   27.232460   46.488452
  H    -24.510778   26.305194   44.811674
  O    -22.483779   26.574499   46.285392
  H    -22.541592   28.167393   44.892289
  H    -22.689050   28.946642   47.517183
  H    -23.683371   29.762886   46.299504
  H    -25.524159   29.000225   47.623250
  H    -24.555819   27.698740   48.370471

 Multiplicity           Mult            ....    1
 Number of Electrons    NEL             ....   86
 Basis Dimension        Dim             ....  127

ORBITAL ENERGIES
----------------

  NO   OCC          E(Eh)            E(eV)
   0   2.0000     -19.139934      -520.8241
   1   2.0000     -19.136715      -520.7365
   2   2.0000     -19.125540      -520.4324
   3   2.0000     -10.280870      -279.7567
   4   2.0000     -10.244996      -278.7805
   5   2.0000     -10.228802      -278.3398
   6   2.0000     -10.220446      -278.1125
   7   2.0000     -10.219315      -278.0817
   8   2.0000     -10.197498      -277.4880
   9   2.0000     -10.195861      -277.4435
  10   2.0000     -10.188077      -277.2317
  11   2.0000      -1.049622       -28.5617
  12   2.0000      -1.013060       -27.5668
  13   2.0000      -0.987524       -26.8719
  14   2.0000      -0.792408       -21.5625
  15   2.0000      -0.785954       -21.3869
  16   2.0000      -0.742842       -20.2137
  17   2.0000      -0.724692       -19.7199
  18   2.0000      -0.621604       -16.9147
  19   2.0000      -0.604526       -16.4500
  20   2.0000      -0.598740       -16.2925
  21   2.0000      -0.565494       -15.3879
  22   2.0000      -0.522810       -14.2264
  23   2.0000      -0.506503       -13.7827
  24   2.0000      -0.493289       -13.4231
  25   2.0000      -0.483023       -13.1437
  26   2.0000      -0.452942       -12.3252
  27   2.0000      -0.443257       -12.0616
  28   2.0000      -0.429328       -11.6826
  29   2.0000      -0.423709       -11.5297
  30   2.0000      -0.409962       -11.1556
  31   2.0000      -0.386252       -10.5104
  32   2.0000      -0.377807       -10.2806
  33   2.0000      -0.368442       -10.0258
  34   2.0000      -0.366653        -9.9771
  35   2.0000      -0.359321        -9.7776
  36   2.0000      -0.352499        -9.5920
  37   2.0000      -0.315820        -8.5939
  38   2.0000      -0.301233        -8.1970
  39   2.0000      -0.289027        -7.8648
  40   2.0000      -0.263441        -7.1686
  41   2.0000      -0.253404        -6.8955
  42   2.0000      -0.229372        -6.2415
  43   0.0000       0.064829         1.7641
  44   0.0000       0.087155         2.3716
  45   0.0000       0.090430         2.4607
  46   0.0000       0.108940         2.9644
  47   0.0000       0.114656         3.1199

MULLIKEN ATOMIC CHARGES
-----------------------
   0 C :    0.323139
   1 C :   -0.300982
   2 C :   -0.309719
   3 C :   -0.003321
   4 O :   -0.493765
   5 H :    0.154496
   6 H :    0.158619
   7 H :    0.144223
   8 H :    0.145604
   9 H :    0.149585
  10 H :    0.147883
  11 H :    0.145846
  12 C :    0.012187
  13 H :    0.121506
  14 C :    0.065067
  15 C :   -0.296478
  16 C :   -0.000388
  17 O :   -0.515100
  18 H :    0.167237
  19 O :   -0.521816
  20 H :    0.122021
  21 H :    0.154214
  22 H :    0.136647
  23 H :    0.135046
  24 H :    0.158250
Sum of atomic charges:   -0.0000000

LOEWDIN ATOMIC CHARGES
----------------------
   0 C :    0.183682
   1 C :   -0.231734
   2 C :   -0.221376
   3 C :   -0.029559
   4 O :   -0.307874
   5 H :    0.102433
   6 H :    0.123902
   7 H :    0.113621
   8 H :    0.115933
   9 H :    0.108999
  10 H :    0.105563
  11 H :    0.104672
  12 C :   -0.034100
  13 H :    0.089391
  14 C :    0.040113
  15 C :   -0.236620
  16 C :   -0.028232
  17 O :   -0.326035
  18 H :    0.123473
  19 O :   -0.327095
  20 H :    0.093838
  21 H :    0.117614
  22 H :    0.110978
  23 H :    0.098046
  24 H :    0.110365

  Mayer bond orders larger than 0.100000
B(  0-C ,  1-C ) :   0.9258 B(  0-C ,  4-O ) :   0.9219 B(  0-C ,  5-H ) :   0.9308
B(  0-C , 19-O ) :   0.8699 B(  1-C ,  2-C ) :   0.9531 B(  1-C ,  6-H ) :   0.9332
B(  1-C ,  7-H ) :   0.9286 B(  2-C ,  3-C ) :   0.9520 B(  2-C ,  8-H ) :   0.9452
B(  2-C ,  9-H ) :   0.9311 B(  3-C ,  4-O ) :   0.8454 B(  3-C , 10-H ) :   0.9337
B(  3-C , 11-H ) :   0.9390 B( 12-C , 13-H ) :   0.9141 B( 12-C , 14-C ) :   0.9309
B( 12-C , 17-O ) :   0.8736 B( 12-C , 18-H ) :   0.9304 B( 14-C , 15-C ) :   0.9352
B( 14-C , 19-O ) :   0.8367 B( 14-C , 20-H ) :   0.9152 B( 15-C , 16-C ) :   0.9450
B( 15-C , 21-H ) :   0.9245 B( 15-C , 22-H ) :   0.9366 B( 16-C , 17-O ) :   0.8602
B( 16-C , 23-H ) :   0.9323 B( 16-C , 24-H ) :   0.9347

FINAL SINGLE POINT ENERGY      -538.419711189347

DIPOLE MOMENT
-------------
                                X             Y             Z
Electronic contribution:     -2.65189      -5.34847      -0.26144
Nuclear contribution   :      3.85554       6.99173      -0.25753
                        -----------------------------------------
Total Dipole Moment    :      1.20365       1.64327      -0.51898
                        -----------------------------------------
Magnitude (a.u.)       :      2.10201
Magnitude (Debye)      :      5.34288

Rotational constants in cm-1:     0.074230     0.022165     0.021337
Rotational constants in MHz :  2225.349291   664.504958   639.665617

                             ****ORCA TERMINATED NORMALLY****
TOTAL RUN TIME: 0 days 0 hours 7 minutes 24 seconds 7 msec
