                         Program Version 4.2.0 -  RELEASE  -
|  1> # Test redundant internal optimization
|  2> #
|  3> ! RKS B3LYP  Opt TightSCF SmallPrint
|  4>
|  5> %basis
|  6>         Basis "6-31G"
|  7> end
|  8>
|  9> %geom
| 10> Constraints
| 11> { D 4  0  15  12  15.0   C } # D for Dihedral angle
| 12> { D 0  15  12  16  300.0   C } # D for Dihedral angle
| 13> { D 0  4  3  2   C } # D for Dihedral angle
| 14> { D 4  3  2  1   C } # D for Dihedral angle
| 15> { D 3  2  1  0   C } # D for Dihedral angle
| 16> { D 2  1  0  4   C } # D for Dihedral angle
| 17> { D 1  0  4  3   C } # D for Dihedral angle
| 18> { D 16  20  19  18   C } # D for Dihedral angle
| 19> { D 20  19  18  17   C } # D for Dihedral angle
| 20> { D 19  18  17  16   C } # D for Dihedral angle
| 21> { D 18  17  16  20   C } # D for Dihedral angle
| 22> { D 17  16  20  19   C } # D for Dihedral angle
| 23> { D 15  12  16  20   C } # D for Dihedral angle
| 24> end
| 25> end
| 26>
| 27>
| 28> #%pal
| 29> #nprocs 8
| 30> #end
| 31>
| 32> * xyz 0 1
| 33> C  -21.048   26.222   46.251
| 34> C  -20.361   27.558   45.944
| 35> C  -20.329   28.222   47.341
| 36> C  -20.110   27.022   48.296
| 37> O  -20.473   25.807   47.535
| 38> H  -20.833   25.428   45.533
| 39> H  -19.344   27.382   45.576
| 40> H  -20.898   28.157   45.201
| 41> H  -19.543   28.978   47.434
| 42> H  -21.289   28.710   47.548
| 43> H  -20.733   27.082   49.195
| 44> H  -19.064   26.913   48.597
| 45> C  -23.128   26.462   47.829
| 46> H  -22.680   27.322   48.342
| 47> H  -24.218   26.594   47.827
| 48> O  -22.586   26.394   46.375
| 49> C  -22.808   25.182   48.650
| 50> C  -23.455   25.235   50.038
| 51> C  -24.919   24.850   49.717
| 52> C  -24.767   23.819   48.570
| 53> O  -23.409   24.004   48.016
| 54> H  -21.727   25.025   48.660
| 55> H  -22.995   24.490   50.697
| 56> O  -23.334   26.628   50.715
| 57> H  -25.449   24.437   50.581
| 58> H  -25.473   25.731   49.373
| 59> H  -25.503   23.969   47.772
| 60> H  -24.834   22.787   48.925
| 61> H  -23.789   27.391   50.074
| 62> *
| 63>
| 64>                          ****END OF INPUT****
 Total Charge           Charge          ....    0
 Multiplicity           Mult            ....    1
 Number of Electrons    NEL             ....  102
FINAL SINGLE POINT ENERGY      -652.816068334722
FINAL SINGLE POINT ENERGY      -652.839044757870
FINAL SINGLE POINT ENERGY      -652.848277790219
FINAL SINGLE POINT ENERGY      -652.850472045088
FINAL SINGLE POINT ENERGY      -652.850899027058
FINAL SINGLE POINT ENERGY      -652.850986617769
FINAL SINGLE POINT ENERGY      -652.850997813778
FINAL SINGLE POINT ENERGY      -652.850999662636
                    ***********************HURRAY********************

CARTESIAN COORDINATES (ANGSTROEM)
---------------------------------
  C    -21.047503   26.269044   46.321309
  C    -20.426018   27.611074   45.923204
  C    -20.164172   28.263654   47.305148
  C    -19.786578   27.056516   48.193821
  O    -20.277654   25.849984   47.469995
  H    -20.939840   25.481123   45.574503
  H    -19.484771   27.432121   45.390078
  H    -21.093209   28.194596   45.285691
  H    -19.369581   29.015508   47.273616
  H    -21.073963   28.751287   47.670502
  H    -20.249241   27.083638   49.184772
  H    -18.705578   26.932927   48.304752
  C    -23.104540   26.435172   47.834873
  H    -22.776626   27.326514   48.391652
  H    -24.166914   26.549682   47.597562
  O    -22.485807   26.395216   46.521442
  C    -22.876010   25.203169   48.724718
  C    -23.620156   25.286802   50.068845
  C    -25.056571   24.828638   49.669451
  C    -24.781193   23.762876   48.584502
  O    -23.392051   23.980699   48.111837
  H    -21.806902   25.039994   48.846460
  H    -23.175697   24.577103   50.770486
  O    -23.545610   26.567120   50.747701
  H    -25.618510   24.435129   50.520877
  H    -25.614514   25.683277   49.263080
  H    -25.465458   23.835930   47.732861
  H    -24.827806   22.746247   48.986310
  H    -24.166526   27.205961   50.341952

 Multiplicity           Mult            ....    1
 Number of Electrons    NEL             ....  102
 Basis Dimension        Dim             ....  149

ORBITAL ENERGIES
----------------

  NO   OCC          E(Eh)            E(eV)
   0   2.0000     -19.149222      -521.0768
   1   2.0000     -19.148316      -521.0522
   2   2.0000     -19.132606      -520.6247
   3   2.0000     -19.130162      -520.5582
   4   2.0000     -10.275545      -279.6118
   5   2.0000     -10.241749      -278.6922
   6   2.0000     -10.230490      -278.3858
   7   2.0000     -10.228762      -278.3388
   8   2.0000     -10.225543      -278.2512
   9   2.0000     -10.218256      -278.0529
  10   2.0000     -10.193249      -277.3724
  11   2.0000     -10.190860      -277.3074
  12   2.0000     -10.183540      -277.1082
  13   2.0000      -1.050339       -28.5812
  14   2.0000      -1.030223       -28.0338
  15   2.0000      -1.010120       -27.4868
  16   2.0000      -0.988523       -26.8991
  17   2.0000      -0.788659       -21.4605
  18   2.0000      -0.778839       -21.1933
  19   2.0000      -0.763926       -20.7875
  20   2.0000      -0.731736       -19.9115
  21   2.0000      -0.677358       -18.4318
  22   2.0000      -0.608131       -16.5481
  23   2.0000      -0.602244       -16.3879
  24   2.0000      -0.599269       -16.3069
  25   2.0000      -0.562453       -15.3051
  26   2.0000      -0.518402       -14.1064
  27   2.0000      -0.512863       -13.9557
  28   2.0000      -0.500367       -13.6157
  29   2.0000      -0.490438       -13.3455
  30   2.0000      -0.463798       -12.6206
  31   2.0000      -0.455567       -12.3966
  32   2.0000      -0.438945       -11.9443
  33   2.0000      -0.428469       -11.6592
  34   2.0000      -0.425149       -11.5689
  35   2.0000      -0.414640       -11.2829
  36   2.0000      -0.407874       -11.0988
  37   2.0000      -0.397872       -10.8266
  38   2.0000      -0.377420       -10.2701
  39   2.0000      -0.372795       -10.1443
  40   2.0000      -0.358999        -9.7689
  41   2.0000      -0.356367        -9.6972
  42   2.0000      -0.345646        -9.4055
  43   2.0000      -0.329631        -8.9697
  44   2.0000      -0.320266        -8.7149
  45   2.0000      -0.312793        -8.5115
  46   2.0000      -0.305044        -8.3007
  47   2.0000      -0.269758        -7.3405
  48   2.0000      -0.258277        -7.0281
  49   2.0000      -0.250766        -6.8237
  50   2.0000      -0.226896        -6.1741
  51   0.0000       0.051241         1.3943
  52   0.0000       0.075125         2.0443
  53   0.0000       0.085579         2.3287
  54   0.0000       0.092589         2.5195
  55   0.0000       0.101906         2.7730

MULLIKEN ATOMIC CHARGES
-----------------------
   0 C :    0.305407
   1 C :   -0.259224
   2 C :   -0.312918
   3 C :   -0.025317
   4 O :   -0.510290
   5 H :    0.167796
   6 H :    0.145214
   7 H :    0.158433
   8 H :    0.148226
   9 H :    0.152976
  10 H :    0.154200
  11 H :    0.153385
  12 C :   -0.009326
  13 H :    0.116041
  14 H :    0.143690
  15 O :   -0.532316
  16 C :    0.065431
  17 C :    0.079318
  18 C :   -0.329342
  19 C :   -0.006552
  20 O :   -0.508172
  21 H :    0.202586
  22 H :    0.167222
  23 O :   -0.601832
  24 H :    0.157088
  25 H :    0.131399
  26 H :    0.145485
  27 H :    0.146412
  28 H :    0.354979
Sum of atomic charges:   -0.0000000

LOEWDIN ATOMIC CHARGES
----------------------
   0 C :    0.184721
   1 C :   -0.222625
   2 C :   -0.220601
   3 C :   -0.036582
   4 O :   -0.315012
   5 H :    0.112904
   6 H :    0.114080
   7 H :    0.124207
   8 H :    0.117555
   9 H :    0.111584
  10 H :    0.106277
  11 H :    0.108185
  12 C :   -0.044339
  13 H :    0.086643
  14 H :    0.108544
  15 O :   -0.329662
  16 C :   -0.000855
  17 C :    0.033430
  18 C :   -0.243317
  19 C :   -0.030393
  20 O :   -0.315635
  21 H :    0.133859
  22 H :    0.118868
  23 O :   -0.410923
  24 H :    0.121783
  25 H :    0.102455
  26 H :    0.103281
  27 H :    0.104753
  28 H :    0.276818

  Mayer bond orders larger than 0.100000
B(  0-C ,  1-C ) :   0.9240 B(  0-C ,  4-O ) :   0.8975 B(  0-C ,  5-H ) :   0.9319
B(  0-C , 15-O ) :   0.8562 B(  1-C ,  2-C ) :   0.9533 B(  1-C ,  6-H ) :   0.9350
B(  1-C ,  7-H ) :   0.9372 B(  2-C ,  3-C ) :   0.9521 B(  2-C ,  8-H ) :   0.9446
B(  2-C ,  9-H ) :   0.9437 B(  3-C ,  4-O ) :   0.8290 B(  3-C , 10-H ) :   0.9287
B(  3-C , 11-H ) :   0.9395 B( 12-C , 13-H ) :   0.8980 B( 12-C , 14-H ) :   0.9410
B( 12-C , 15-O ) :   0.8589 B( 12-C , 16-C ) :   0.8860 B( 16-C , 17-C ) :   0.8666
B( 16-C , 20-O ) :   0.8578 B( 16-C , 21-H ) :   0.9038 B( 17-C , 18-C ) :   0.9244
B( 17-C , 22-H ) :   0.9330 B( 17-C , 23-O ) :   0.8932 B( 18-C , 19-C ) :   0.9389
B( 18-C , 24-H ) :   0.9416 B( 18-C , 25-H ) :   0.9403 B( 19-C , 20-O ) :   0.8555
B( 19-C , 26-H ) :   0.9306 B( 19-C , 27-H ) :   0.9379 B( 23-O , 28-H ) :   0.7989

FINAL SINGLE POINT ENERGY      -652.850999589580

DIPOLE MOMENT
-------------
                                X             Y             Z
Electronic contribution:      0.27763      -3.50461      -0.77184
Nuclear contribution   :     -0.69683       4.51822       1.00896
                        -----------------------------------------
Total Dipole Moment    :     -0.41920       1.01361       0.23711
                        -----------------------------------------
Magnitude (a.u.)       :      1.12221
Magnitude (Debye)      :      2.85244

Rotational constants in cm-1:     0.050624     0.015828     0.014066
Rotational constants in MHz :  1517.654714   474.521413   421.690881

                             ****ORCA TERMINATED NORMALLY****
TOTAL RUN TIME: 0 days 0 hours 28 minutes 20 seconds 721 msec
