                         Program Version 4.2.0 -  RELEASE  -
|  1> # Test redundant internal optimization
|  2> #
|  3> ! RKS B3LYP  Opt TightSCF SmallPrint
|  4>
|  5> %basis
|  6>         Basis "6-31G"
|  7> end
|  8>
|  9> %geom
| 10> Constraints
| 11> { D 4  0  15  12  285.0   C } # D for Dihedral angle
| 12> { D 0  15  12  16  180.0   C } # D for Dihedral angle
| 13> { D 0  4  3  2   C } # D for Dihedral angle
| 14> { D 4  3  2  1   C } # D for Dihedral angle
| 15> { D 3  2  1  0   C } # D for Dihedral angle
| 16> { D 2  1  0  4   C } # D for Dihedral angle
| 17> { D 1  0  4  3   C } # D for Dihedral angle
| 18> { D 16  20  19  18   C } # D for Dihedral angle
| 19> { D 20  19  18  17   C } # D for Dihedral angle
| 20> { D 19  18  17  16   C } # D for Dihedral angle
| 21> { D 18  17  16  20   C } # D for Dihedral angle
| 22> { D 17  16  20  19   C } # D for Dihedral angle
| 23> { D 15  12  16  20   C } # D for Dihedral angle
| 24> end
| 25> end
| 26>
| 27>
| 28> #%pal
| 29> #nprocs 8
| 30> #end
| 31>
| 32> * xyz 0 1
| 33> C  -21.048   26.222   46.251
| 34> C  -20.361   27.558   45.944
| 35> C  -20.329   28.222   47.341
| 36> C  -20.110   27.022   48.296
| 37> O  -20.473   25.807   47.535
| 38> H  -20.833   25.428   45.533
| 39> H  -19.344   27.382   45.576
| 40> H  -20.898   28.157   45.201
| 41> H  -19.543   28.978   47.434
| 42> H  -21.289   28.710   47.548
| 43> H  -20.733   27.082   49.195
| 44> H  -19.064   26.913   48.597
| 45> C  -23.396   25.070   46.435
| 46> H  -23.209   24.490   45.523
| 47> H  -23.081   24.466   47.296
| 48> O  -22.586   26.394   46.375
| 49> C  -24.927   25.307   46.559
| 50> C  -25.257   26.191   47.767
| 51> C  -24.927   27.602   47.223
| 52> C  -25.339   27.509   45.733
| 53> O  -25.422   26.069   45.408
| 54> H  -25.440   24.344   46.550
| 55> O  -26.767   26.077   48.113
| 56> H  -24.678   25.934   48.661
| 57> H  -25.459   28.397   47.754
| 58> H  -23.852   27.799   47.315
| 59> H  -24.613   27.987   45.066
| 60> H  -26.327   27.939   45.545
| 61> H  -27.367   26.331   47.232
| 62> *
| 63>
| 64>                          ****END OF INPUT****
 Total Charge           Charge          ....    0
 Multiplicity           Mult            ....    1
 Number of Electrons    NEL             ....  102
FINAL SINGLE POINT ENERGY      -652.840213762655
FINAL SINGLE POINT ENERGY      -652.864168590586
FINAL SINGLE POINT ENERGY      -652.868425795208
FINAL SINGLE POINT ENERGY      -652.869549874961
FINAL SINGLE POINT ENERGY      -652.869675446142
FINAL SINGLE POINT ENERGY      -652.869691921961
                    ***********************HURRAY********************

CARTESIAN COORDINATES (ANGSTROEM)
---------------------------------
  C    -21.096552   26.141722   46.257032
  C    -20.444844   27.486195   45.932136
  C    -20.412740   28.166064   47.320406
  C    -20.157527   26.984213   48.283018
  O    -20.507138   25.757349   47.522264
  H    -20.884717   25.326544   45.557603
  H    -19.430763   27.312229   45.555715
  H    -21.010335   28.047659   45.185786
  H    -19.636687   28.934293   47.394652
  H    -21.379293   28.635414   47.527319
  H    -20.770022   27.026280   49.187265
  H    -19.105186   26.886726   48.565224
  C    -23.294897   25.116911   46.455318
  H    -23.120798   24.516946   45.550933
  H    -22.967729   24.537597   47.329657
  O    -22.519592   26.349639   46.359965
  C    -24.785094   25.418275   46.560664
  C    -25.239967   26.260401   47.761382
  C    -24.991257   27.703964   47.249038
  C    -25.322993   27.598928   45.739534
  O    -25.279848   26.157774   45.398177
  H    -25.308470   24.454621   46.565002
  O    -26.644624   26.013688   48.055396
  H    -24.708406   26.030895   48.685445
  H    -25.628894   28.417305   47.777925
  H    -23.942550   27.965859   47.394470
  H    -24.596370   28.127101   45.116680
  H    -26.329383   27.956876   45.498622
  H    -27.155325   26.055529   47.219372

 Multiplicity           Mult            ....    1
 Number of Electrons    NEL             ....  102
 Basis Dimension        Dim             ....  149

ORBITAL ENERGIES
----------------

  NO   OCC          E(Eh)            E(eV)
   0   2.0000     -19.150921      -521.1231
   1   2.0000     -19.143970      -520.9339
   2   2.0000     -19.136346      -520.7265
   3   2.0000     -19.133528      -520.6498
   4   2.0000     -10.282443      -279.7995
   5   2.0000     -10.235468      -278.5212
   6   2.0000     -10.233403      -278.4651
   7   2.0000     -10.231131      -278.4032
   8   2.0000     -10.229273      -278.3527
   9   2.0000     -10.221702      -278.1467
  10   2.0000     -10.190187      -277.2891
  11   2.0000     -10.189286      -277.2646
  12   2.0000     -10.175629      -276.8929
  13   2.0000      -1.059911       -28.8416
  14   2.0000      -1.031193       -28.0602
  15   2.0000      -1.003301       -27.3012
  16   2.0000      -0.995675       -27.0937
  17   2.0000      -0.793258       -21.5856
  18   2.0000      -0.775561       -21.1041
  19   2.0000      -0.763363       -20.7722
  20   2.0000      -0.732720       -19.9383
  21   2.0000      -0.672782       -18.3073
  22   2.0000      -0.603411       -16.4196
  23   2.0000      -0.596912       -16.2428
  24   2.0000      -0.595061       -16.1924
  25   2.0000      -0.579225       -15.7615
  26   2.0000      -0.525860       -14.3094
  27   2.0000      -0.506816       -13.7912
  28   2.0000      -0.498427       -13.5629
  29   2.0000      -0.486146       -13.2287
  30   2.0000      -0.472563       -12.8591
  31   2.0000      -0.462757       -12.5923
  32   2.0000      -0.447587       -12.1795
  33   2.0000      -0.431701       -11.7472
  34   2.0000      -0.424607       -11.5542
  35   2.0000      -0.408498       -11.1158
  36   2.0000      -0.405293       -11.0286
  37   2.0000      -0.385774       -10.4974
  38   2.0000      -0.380002       -10.3404
  39   2.0000      -0.365360        -9.9420
  40   2.0000      -0.360918        -9.8211
  41   2.0000      -0.355521        -9.6742
  42   2.0000      -0.349403        -9.5077
  43   2.0000      -0.336896        -9.1674
  44   2.0000      -0.322083        -8.7643
  45   2.0000      -0.306411        -8.3379
  46   2.0000      -0.300053        -8.1649
  47   2.0000      -0.273580        -7.4445
  48   2.0000      -0.264512        -7.1977
  49   2.0000      -0.256147        -6.9701
  50   2.0000      -0.242097        -6.5878
  51   0.0000       0.064766         1.7624
  52   0.0000       0.082841         2.2542
  53   0.0000       0.090789         2.4705
  54   0.0000       0.103242         2.8094
  55   0.0000       0.106466         2.8971

MULLIKEN ATOMIC CHARGES
-----------------------
   0 C :    0.294166
   1 C :   -0.262408
   2 C :   -0.303959
   3 C :   -0.003064
   4 O :   -0.512527
   5 H :    0.144691
   6 H :    0.148172
   7 H :    0.156742
   8 H :    0.144314
   9 H :    0.159793
  10 H :    0.146771
  11 H :    0.145062
  12 C :    0.004214
  13 H :    0.142220
  14 H :    0.150253
  15 O :   -0.526774
  16 C :    0.057613
  17 C :    0.076223
  18 C :   -0.291581
  19 C :   -0.015872
  20 O :   -0.526983
  21 H :    0.157646
  22 O :   -0.602784
  23 H :    0.152528
  24 H :    0.147947
  25 H :    0.172184
  26 H :    0.149924
  27 H :    0.133255
  28 H :    0.362236
Sum of atomic charges:    0.0000000

LOEWDIN ATOMIC CHARGES
----------------------
   0 C :    0.172951
   1 C :   -0.214299
   2 C :   -0.216562
   3 C :   -0.027679
   4 O :   -0.329658
   5 H :    0.098344
   6 H :    0.116051
   7 H :    0.123981
   8 H :    0.114909
   9 H :    0.115138
  10 H :    0.105250
  11 H :    0.104050
  12 C :   -0.039910
  13 H :    0.103066
  14 H :    0.107163
  15 O :   -0.326669
  16 C :    0.014600
  17 C :    0.039853
  18 C :   -0.242054
  19 C :   -0.032512
  20 O :   -0.330871
  21 H :    0.117222
  22 O :   -0.417194
  23 H :    0.116418
  24 H :    0.118272
  25 H :    0.126111
  26 H :    0.107056
  27 H :    0.095426
  28 H :    0.281547

  Mayer bond orders larger than 0.100000
B(  0-C ,  1-C ) :   0.9487 B(  0-C ,  4-O ) :   0.9063 B(  0-C ,  5-H ) :   0.9180
B(  0-C , 15-O ) :   0.8570 B(  1-C ,  2-C ) :   0.9561 B(  1-C ,  6-H ) :   0.9397
B(  1-C ,  7-H ) :   0.9361 B(  2-C ,  3-C ) :   0.9547 B(  2-C ,  8-H ) :   0.9448
B(  2-C ,  9-H ) :   0.9423 B(  3-C ,  4-O ) :   0.8373 B(  3-C , 10-H ) :   0.9358
B(  3-C , 11-H ) :   0.9401 B( 12-C , 13-H ) :   0.9172 B( 12-C , 14-H ) :   0.9063
B( 12-C , 15-O ) :   0.8317 B( 12-C , 16-C ) :   0.9128 B( 16-C , 17-C ) :   0.9099
B( 16-C , 20-O ) :   0.8706 B( 16-C , 21-H ) :   0.9215 B( 17-C , 18-C ) :   0.9225
B( 17-C , 22-O ) :   0.8911 B( 17-C , 23-H ) :   0.9358 B( 18-C , 19-C ) :   0.9473
B( 18-C , 24-H ) :   0.9374 B( 18-C , 25-H ) :   0.9170 B( 19-C , 20-O ) :   0.8393
B( 19-C , 26-H ) :   0.9342 B( 19-C , 27-H ) :   0.9380 B( 22-O , 28-H ) :   0.7961

FINAL SINGLE POINT ENERGY      -652.869692637736

DIPOLE MOMENT
-------------
                                X             Y             Z
Electronic contribution:     -3.42745      -4.49204      -0.81171
Nuclear contribution   :      4.26710       5.23788       0.60799
                        -----------------------------------------
Total Dipole Moment    :      0.83965       0.74584      -0.20372
                        -----------------------------------------
Magnitude (a.u.)       :      1.14140
Magnitude (Debye)      :      2.90122

Rotational constants in cm-1:     0.051445     0.014278     0.014221
Rotational constants in MHz :  1542.286619   428.040834   426.344447

                             ****ORCA TERMINATED NORMALLY****
TOTAL RUN TIME: 0 days 0 hours 28 minutes 38 seconds 481 msec
