                         Program Version 4.2.0 -  RELEASE  -
|  1> # Test redundant internal optimization
|  2> #
|  3> ! RKS B3LYP  Opt TightSCF SmallPrint
|  4>
|  5> %basis
|  6>         Basis "6-31G"
|  7> end
|  8>
|  9> %geom
| 10> Constraints
| 11> { D 4  0  15  12  90.0   C } # D for Dihedral angle
| 12> { D 0  15  12  16  150.0   C } # D for Dihedral angle
| 13> { D 0  4  3  2   C } # D for Dihedral angle
| 14> { D 4  3  2  1   C } # D for Dihedral angle
| 15> { D 3  2  1  0   C } # D for Dihedral angle
| 16> { D 2  1  0  4   C } # D for Dihedral angle
| 17> { D 1  0  4  3   C } # D for Dihedral angle
| 18> { D 16  20  19  18   C } # D for Dihedral angle
| 19> { D 20  19  18  17   C } # D for Dihedral angle
| 20> { D 19  18  17  16   C } # D for Dihedral angle
| 21> { D 18  17  16  20   C } # D for Dihedral angle
| 22> { D 17  16  20  19   C } # D for Dihedral angle
| 23> { D 15  12  16  20   C } # D for Dihedral angle
| 24> end
| 25> end
| 26>
| 27>
| 28> #%pal
| 29> #nprocs 8
| 30> #end
| 31>
| 32> * xyz 0 1
| 33> C  -21.048   26.222   46.251
| 34> C  -20.361   27.558   45.944
| 35> C  -20.329   28.222   47.341
| 36> C  -20.110   27.022   48.296
| 37> O  -20.473   25.807   47.535
| 38> H  -20.833   25.428   45.533
| 39> H  -19.344   27.382   45.576
| 40> H  -20.898   28.157   45.201
| 41> H  -19.543   28.978   47.434
| 42> H  -21.289   28.710   47.548
| 43> H  -20.733   27.082   49.195
| 44> H  -19.064   26.913   48.597
| 45> C  -23.061   27.816   46.783
| 46> H  -23.113   27.880   47.877
| 47> H  -22.351   28.574   46.428
| 48> O  -22.586   26.394   46.375
| 49> C  -24.459   28.170   46.206
| 50> C  -24.489   28.015   44.681
| 51> C  -24.643   26.483   44.526
| 52> C  -25.540   26.095   45.728
| 53> O  -25.468   27.220   46.686
| 54> H  -24.754   29.158   46.565
| 55> H  -25.359   28.535   44.268
| 56> O  -23.213   28.565   43.987
| 57> H  -25.084   26.195   43.566
| 58> H  -23.663   25.996   44.603
| 59> H  -25.205   25.178   46.224
| 60> H  -26.591   25.981   45.445
| 61> H  -22.328   28.058   44.387
| 62> *
| 63>
| 64>                          ****END OF INPUT****
 Total Charge           Charge          ....    0
 Multiplicity           Mult            ....    1
 Number of Electrons    NEL             ....  102
FINAL SINGLE POINT ENERGY      -652.805158685821
FINAL SINGLE POINT ENERGY      -652.835616439540
FINAL SINGLE POINT ENERGY      -652.849869646394
FINAL SINGLE POINT ENERGY      -652.853048598653
FINAL SINGLE POINT ENERGY      -652.853788362584
FINAL SINGLE POINT ENERGY      -652.853935458233
FINAL SINGLE POINT ENERGY      -652.853957244530
FINAL SINGLE POINT ENERGY      -652.853957060003
                    ***********************HURRAY********************

CARTESIAN COORDINATES (ANGSTROEM)
---------------------------------
  C    -21.178645   26.346354   46.456702
  C    -20.285644   27.512144   46.005731
  C    -20.001861   28.248142   47.350816
  C    -19.925487   27.072421   48.358898
  O    -20.578970   25.919222   47.698560
  H    -21.122646   25.475185   45.801906
  H    -19.361355   27.099806   45.590096
  H    -20.747177   28.159249   45.253284
  H    -19.067693   28.817132   47.317870
  H    -20.804721   28.943157   47.605648
  H    -20.439361   27.281243   49.301655
  H    -18.895307   26.773693   48.572928
  C    -23.185180   27.867036   46.887930
  H    -23.308534   27.924671   47.975606
  H    -22.551253   28.693905   46.550728
  O    -22.604910   26.574301   46.539483
  C    -24.545666   28.049204   46.220094
  C    -24.552753   28.014293   44.682099
  C    -24.663192   26.484668   44.395384
  C    -25.562353   25.991093   45.549878
  O    -25.527623   27.043821   46.595617
  H    -24.936755   29.006393   46.588161
  H    -25.428618   28.549062   44.307854
  O    -23.413219   28.665861   44.061554
  H    -25.091449   26.279680   43.409641
  H    -23.670284   26.034069   44.461795
  H    -25.206194   25.054868   45.986415
  H    -26.607999   25.878794   45.247893
  H    -22.667155   28.034533   44.011773

 Multiplicity           Mult            ....    1
 Number of Electrons    NEL             ....  102
 Basis Dimension        Dim             ....  149

ORBITAL ENERGIES
----------------

  NO   OCC          E(Eh)            E(eV)
   0   2.0000     -19.150157      -521.1023
   1   2.0000     -19.146478      -521.0022
   2   2.0000     -19.143875      -520.9313
   3   2.0000     -19.132058      -520.6098
   4   2.0000     -10.286671      -279.9146
   5   2.0000     -10.239413      -278.6286
   6   2.0000     -10.232167      -278.4314
   7   2.0000     -10.231513      -278.4136
   8   2.0000     -10.230416      -278.3838
   9   2.0000     -10.220354      -278.1100
  10   2.0000     -10.201849      -277.6064
  11   2.0000     -10.198731      -277.5216
  12   2.0000     -10.182784      -277.0876
  13   2.0000      -1.055968       -28.7343
  14   2.0000      -1.029720       -28.0201
  15   2.0000      -1.012074       -27.5399
  16   2.0000      -0.998934       -27.1824
  17   2.0000      -0.795140       -21.6369
  18   2.0000      -0.777554       -21.1583
  19   2.0000      -0.768777       -20.9195
  20   2.0000      -0.736861       -20.0510
  21   2.0000      -0.683477       -18.5984
  22   2.0000      -0.610983       -16.6257
  23   2.0000      -0.605081       -16.4651
  24   2.0000      -0.603360       -16.4183
  25   2.0000      -0.562175       -15.2976
  26   2.0000      -0.525152       -14.2901
  27   2.0000      -0.516495       -14.0545
  28   2.0000      -0.507280       -13.8038
  29   2.0000      -0.494125       -13.4458
  30   2.0000      -0.471589       -12.8326
  31   2.0000      -0.456180       -12.4133
  32   2.0000      -0.442404       -12.0384
  33   2.0000      -0.435437       -11.8488
  34   2.0000      -0.427821       -11.6416
  35   2.0000      -0.420130       -11.4323
  36   2.0000      -0.408556       -11.1174
  37   2.0000      -0.400726       -10.9043
  38   2.0000      -0.387676       -10.5492
  39   2.0000      -0.371012       -10.0957
  40   2.0000      -0.368638       -10.0312
  41   2.0000      -0.362445        -9.8626
  42   2.0000      -0.348585        -9.4855
  43   2.0000      -0.323724        -8.8090
  44   2.0000      -0.318528        -8.6676
  45   2.0000      -0.313368        -8.5272
  46   2.0000      -0.302899        -8.2423
  47   2.0000      -0.273288        -7.4366
  48   2.0000      -0.265351        -7.2206
  49   2.0000      -0.258633        -7.0378
  50   2.0000      -0.236907        -6.4466
  51   0.0000       0.048514         1.3201
  52   0.0000       0.072938         1.9847
  53   0.0000       0.089564         2.4372
  54   0.0000       0.095739         2.6052
  55   0.0000       0.100767         2.7420

MULLIKEN ATOMIC CHARGES
-----------------------
   0 C :    0.311784
   1 C :   -0.306266
   2 C :   -0.312003
   3 C :   -0.007849
   4 O :   -0.498110
   5 H :    0.159872
   6 H :    0.161857
   7 H :    0.141764
   8 H :    0.149174
   9 H :    0.154798
  10 H :    0.149737
  11 H :    0.147961
  12 C :   -0.021788
  13 H :    0.155985
  14 H :    0.143376
  15 O :   -0.531025
  16 C :    0.100834
  17 C :    0.084882
  18 C :   -0.314898
  19 C :    0.002709
  20 O :   -0.520012
  21 H :    0.143604
  22 H :    0.160616
  23 O :   -0.613033
  24 H :    0.141032
  25 H :    0.157619
  26 H :    0.153966
  27 H :    0.140707
  28 H :    0.362707
Sum of atomic charges:   -0.0000000

LOEWDIN ATOMIC CHARGES
----------------------
   0 C :    0.172867
   1 C :   -0.235260
   2 C :   -0.222732
   3 C :   -0.031276
   4 O :   -0.316405
   5 H :    0.108853
   6 H :    0.125863
   7 H :    0.111561
   8 H :    0.117707
   9 H :    0.112062
  10 H :    0.105774
  11 H :    0.105007
  12 C :   -0.048169
  13 H :    0.110252
  14 H :    0.103036
  15 O :   -0.324376
  16 C :    0.020609
  17 C :    0.037456
  18 C :   -0.241190
  19 C :   -0.021834
  20 O :   -0.320630
  21 H :    0.112058
  22 H :    0.115464
  23 O :   -0.414358
  24 H :    0.113237
  25 H :    0.117618
  26 H :    0.109735
  27 H :    0.100694
  28 H :    0.276376

  Mayer bond orders larger than 0.100000
B(  0-C ,  1-C ) :   0.9229 B(  0-C ,  4-O ) :   0.9110 B(  0-C ,  5-H ) :   0.9360
B(  0-C , 15-O ) :   0.8877 B(  1-C ,  2-C ) :   0.9529 B(  1-C ,  6-H ) :   0.9335
B(  1-C ,  7-H ) :   0.9247 B(  2-C ,  3-C ) :   0.9467 B(  2-C ,  8-H ) :   0.9453
B(  2-C ,  9-H ) :   0.9378 B(  3-C ,  4-O ) :   0.8458 B(  3-C , 10-H ) :   0.9337
B(  3-C , 11-H ) :   0.9388 B( 12-C , 13-H ) :   0.9224 B( 12-C , 14-H ) :   0.8905
B( 12-C , 15-O ) :   0.8342 B( 12-C , 16-C ) :   0.9111 B( 16-C , 17-C ) :   0.8836
B( 16-C , 20-O ) :   0.8831 B( 16-C , 21-H ) :   0.9286 B( 17-C , 18-C ) :   0.9402
B( 17-C , 22-H ) :   0.9349 B( 17-C , 23-O ) :   0.8919 B( 18-C , 19-C ) :   0.9455
B( 18-C , 24-H ) :   0.9415 B( 18-C , 25-H ) :   0.9268 B( 19-C , 20-O ) :   0.8388
B( 19-C , 26-H ) :   0.9315 B( 19-C , 27-H ) :   0.9375 B( 23-O , 28-H ) :   0.7872

FINAL SINGLE POINT ENERGY      -652.853955447259

DIPOLE MOMENT
-------------
                                X             Y             Z
Electronic contribution:     -3.14453      -1.94915       0.78441
Nuclear contribution   :      4.11748       2.40598      -1.26729
                        -----------------------------------------
Total Dipole Moment    :      0.97296       0.45684      -0.48288
                        -----------------------------------------
Magnitude (a.u.)       :      1.17835
Magnitude (Debye)      :      2.99514

Rotational constants in cm-1:     0.050417     0.015822     0.014494
Rotational constants in MHz :  1511.453165   474.321469   434.505592

                             ****ORCA TERMINATED NORMALLY****
TOTAL RUN TIME: 0 days 0 hours 59 minutes 28 seconds 137 msec
