                         Program Version 4.2.0 -  RELEASE  -
|  1> # Test redundant internal optimization
|  2> #
|  3> ! RKS B3LYP  Opt TightSCF SmallPrint
|  4>
|  5> %basis
|  6>         Basis "6-31G"
|  7> end
|  8>
|  9> %geom
| 10> Constraints
| 11> { D 4  0  15  12  15.0   C } # D for Dihedral angle
| 12> { D 0  15  12  16  105.0   C } # D for Dihedral angle
| 13> { D 0  4  3  2   C } # D for Dihedral angle
| 14> { D 4  3  2  1   C } # D for Dihedral angle
| 15> { D 3  2  1  0   C } # D for Dihedral angle
| 16> { D 2  1  0  4   C } # D for Dihedral angle
| 17> { D 1  0  4  3   C } # D for Dihedral angle
| 18> { D 16  20  19  18   C } # D for Dihedral angle
| 19> { D 20  19  18  17   C } # D for Dihedral angle
| 20> { D 19  18  17  16   C } # D for Dihedral angle
| 21> { D 18  17  16  20   C } # D for Dihedral angle
| 22> { D 17  16  20  19   C } # D for Dihedral angle
| 23> { D 15  12  16  20   C } # D for Dihedral angle
| 24> end
| 25> end
| 26>
| 27>
| 28> #%pal
| 29> #nprocs 8
| 30> #end
| 31>
| 32> * xyz 0 1
| 33> C  -21.048   26.222   46.251
| 34> C  -20.361   27.558   45.944
| 35> C  -20.329   28.222   47.341
| 36> C  -20.110   27.022   48.296
| 37> O  -20.473   25.807   47.535
| 38> H  -20.833   25.428   45.533
| 39> H  -19.344   27.382   45.576
| 40> H  -20.898   28.157   45.201
| 41> H  -19.543   28.978   47.434
| 42> H  -21.289   28.710   47.548
| 43> H  -20.733   27.082   49.195
| 44> H  -19.064   26.913   48.597
| 45> C  -23.128   26.462   47.829
| 46> H  -24.011   25.818   47.917
| 47> H  -22.370   26.104   48.538
| 48> O  -22.586   26.394   46.375
| 49> C  -23.529   27.902   48.254
| 50> C  -24.706   28.420   47.419
| 51> C  -25.906   27.720   48.100
| 52> C  -25.494   27.689   49.593
| 53> O  -24.033   27.908   49.631
| 54> H  -22.644   28.541   48.234
| 55> O  -24.819   29.963   47.560
| 56> H  -24.619   28.178   46.355
| 57> H  -26.852   28.245   47.938
| 58> H  -26.018   26.701   47.708
| 59> H  -25.726   26.733   50.073
| 60> H  -25.957   28.495   50.170
| 61> H  -24.908   30.231   48.620
| 62> *
| 63>
| 64>                          ****END OF INPUT****
 Total Charge           Charge          ....    0
 Multiplicity           Mult            ....    1
 Number of Electrons    NEL             ....  102
FINAL SINGLE POINT ENERGY      -652.827264057611
FINAL SINGLE POINT ENERGY      -652.849611114814
FINAL SINGLE POINT ENERGY      -652.857079149697
FINAL SINGLE POINT ENERGY      -652.859416285678
FINAL SINGLE POINT ENERGY      -652.859721436467
FINAL SINGLE POINT ENERGY      -652.859776871691
FINAL SINGLE POINT ENERGY      -652.859783458171
FINAL SINGLE POINT ENERGY      -652.859785239350
                    ***********************HURRAY********************

CARTESIAN COORDINATES (ANGSTROEM)
---------------------------------
  C    -21.134131   26.284373   46.401571
  C    -20.438389   27.571397   45.948596
  C    -20.137413   28.266432   47.302662
  C    -19.827304   27.077556   48.240653
  O    -20.388834   25.872463   47.564355
  H    -21.036714   25.472153   45.677100
  H    -19.511006   27.303573   45.430558
  H    -21.062397   28.170692   45.281846
  H    -19.294467   28.961402   47.235238
  H    -21.005602   28.835198   47.642648
  H    -20.282813   27.170995   49.230590
  H    -18.754927   26.896183   48.353659
  C    -23.166436   26.438576   47.929347
  H    -24.023158   25.757087   47.895662
  H    -22.460132   26.056118   48.671536
  O    -22.576172   26.402364   46.597367
  C    -23.621769   27.844689   48.324202
  C    -24.732425   28.437376   47.444575
  C    -25.991718   27.746720   48.024481
  C    -25.673909   27.636196   49.536958
  O    -24.204818   27.806675   49.672160
  H    -22.770191   28.526462   48.376754
  O    -24.790556   29.885056   47.583880
  H    -24.577360   28.248907   46.382908
  H    -26.886071   28.340800   47.819858
  H    -26.126905   26.758779   47.571869
  H    -25.959790   26.669503   49.962293
  H    -26.145681   28.429232   50.126144
  H    -24.749912   30.118044   48.535528

 Multiplicity           Mult            ....    1
 Number of Electrons    NEL             ....  102
 Basis Dimension        Dim             ....  149

ORBITAL ENERGIES
----------------

  NO   OCC          E(Eh)            E(eV)
   0   2.0000     -19.152310      -521.1609
   1   2.0000     -19.145254      -520.9688
   2   2.0000     -19.140497      -520.8394
   3   2.0000     -19.136647      -520.7346
   4   2.0000     -10.280352      -279.7426
   5   2.0000     -10.236340      -278.5450
   6   2.0000     -10.233907      -278.4788
   7   2.0000     -10.232249      -278.4337
   8   2.0000     -10.231414      -278.4109
   9   2.0000     -10.226594      -278.2798
  10   2.0000     -10.192909      -277.3632
  11   2.0000     -10.188154      -277.2338
  12   2.0000     -10.187922      -277.2274
  13   2.0000      -1.054799       -28.7025
  14   2.0000      -1.035981       -28.1905
  15   2.0000      -1.005093       -27.3500
  16   2.0000      -0.993967       -27.0472
  17   2.0000      -0.791596       -21.5404
  18   2.0000      -0.780697       -21.2438
  19   2.0000      -0.769258       -20.9326
  20   2.0000      -0.734707       -19.9924
  21   2.0000      -0.674525       -18.3548
  22   2.0000      -0.605961       -16.4890
  23   2.0000      -0.604130       -16.4392
  24   2.0000      -0.600159       -16.3312
  25   2.0000      -0.573457       -15.6046
  26   2.0000      -0.526884       -14.3372
  27   2.0000      -0.506708       -13.7882
  28   2.0000      -0.500661       -13.6237
  29   2.0000      -0.494406       -13.4535
  30   2.0000      -0.474364       -12.9081
  31   2.0000      -0.458602       -12.4792
  32   2.0000      -0.453474       -12.3396
  33   2.0000      -0.434446       -11.8219
  34   2.0000      -0.425096       -11.5674
  35   2.0000      -0.417593       -11.3633
  36   2.0000      -0.402792       -10.9605
  37   2.0000      -0.392090       -10.6693
  38   2.0000      -0.378403       -10.2969
  39   2.0000      -0.367727       -10.0064
  40   2.0000      -0.362169        -9.8551
  41   2.0000      -0.358043        -9.7428
  42   2.0000      -0.349180        -9.5017
  43   2.0000      -0.337478        -9.1832
  44   2.0000      -0.325625        -8.8607
  45   2.0000      -0.312567        -8.5054
  46   2.0000      -0.301779        -8.2118
  47   2.0000      -0.273772        -7.4497
  48   2.0000      -0.267805        -7.2873
  49   2.0000      -0.260697        -7.0939
  50   2.0000      -0.236850        -6.4450
  51   0.0000       0.063521         1.7285
  52   0.0000       0.071333         1.9411
  53   0.0000       0.087357         2.3771
  54   0.0000       0.095332         2.5941
  55   0.0000       0.099515         2.7079

MULLIKEN ATOMIC CHARGES
-----------------------
   0 C :    0.307793
   1 C :   -0.263257
   2 C :   -0.321009
   3 C :   -0.023866
   4 O :   -0.510055
   5 H :    0.160704
   6 H :    0.149599
   7 H :    0.160441
   8 H :    0.149902
   9 H :    0.162671
  10 H :    0.152521
  11 H :    0.154345
  12 C :   -0.025150
  13 H :    0.143665
  14 H :    0.172432
  15 O :   -0.539639
  16 C :    0.044287
  17 C :    0.089453
  18 C :   -0.300103
  19 C :   -0.030620
  20 O :   -0.527318
  21 H :    0.158538
  22 O :   -0.604970
  23 H :    0.173909
  24 H :    0.160428
  25 H :    0.150833
  26 H :    0.147338
  27 H :    0.146259
  28 H :    0.360870
Sum of atomic charges:   -0.0000000

LOEWDIN ATOMIC CHARGES
----------------------
   0 C :    0.183397
   1 C :   -0.223472
   2 C :   -0.223177
   3 C :   -0.033988
   4 O :   -0.315984
   5 H :    0.106853
   6 H :    0.117456
   7 H :    0.125588
   8 H :    0.118808
   9 H :    0.113032
  10 H :    0.106072
  11 H :    0.108722
  12 C :   -0.042191
  13 H :    0.105650
  14 H :    0.119172
  15 O :   -0.341948
  16 C :    0.003339
  17 C :    0.036649
  18 C :   -0.241154
  19 C :   -0.038142
  20 O :   -0.332187
  21 H :    0.107664
  22 O :   -0.416703
  23 H :    0.126474
  24 H :    0.126038
  25 H :    0.116715
  26 H :    0.104693
  27 H :    0.102020
  28 H :    0.280600

  Mayer bond orders larger than 0.100000
B(  0-C ,  1-C ) :   0.9209 B(  0-C ,  4-O ) :   0.9138 B(  0-C ,  5-H ) :   0.9335
B(  0-C , 15-O ) :   0.8519 B(  1-C ,  2-C ) :   0.9541 B(  1-C ,  6-H ) :   0.9343
B(  1-C ,  7-H ) :   0.9356 B(  2-C ,  3-C ) :   0.9514 B(  2-C ,  8-H ) :   0.9436
B(  2-C ,  9-H ) :   0.9274 B(  3-C ,  4-O ) :   0.8284 B(  3-C , 10-H ) :   0.9318
B(  3-C , 11-H ) :   0.9399 B( 12-C , 13-H ) :   0.9370 B( 12-C , 14-H ) :   0.9087
B( 12-C , 15-O ) :   0.8362 B( 12-C , 16-C ) :   0.8803 B( 16-C , 17-C ) :   0.9108
B( 16-C , 20-O ) :   0.8371 B( 16-C , 21-H ) :   0.9114 B( 17-C , 18-C ) :   0.9153
B( 17-C , 22-O ) :   0.8889 B( 17-C , 23-H ) :   0.9248 B( 18-C , 19-C ) :   0.9405
B( 18-C , 24-H ) :   0.9381 B( 18-C , 25-H ) :   0.9335 B( 19-C , 20-O ) :   0.8426
B( 19-C , 26-H ) :   0.9358 B( 19-C , 27-H ) :   0.9376 B( 22-O , 28-H ) :   0.7974

FINAL SINGLE POINT ENERGY      -652.859785348874

DIPOLE MOMENT
-------------
                                X             Y             Z
Electronic contribution:     -0.53050      -1.49733      -0.02897
Nuclear contribution   :      0.63562       1.70216       0.21162
                        -----------------------------------------
Total Dipole Moment    :      0.10512       0.20483       0.18265
                        -----------------------------------------
Magnitude (a.u.)       :      0.29388
Magnitude (Debye)      :      0.74698

Rotational constants in cm-1:     0.050377     0.014793     0.014252
Rotational constants in MHz :  1510.270939   443.491883   427.256753

                             ****ORCA TERMINATED NORMALLY****
TOTAL RUN TIME: 0 days 0 hours 19 minutes 8 seconds 158 msec
