                         Program Version 4.2.0 -  RELEASE  -
|  1> # Test redundant internal optimization
|  2> #
|  3> ! RKS B3LYP  Opt TightSCF SmallPrint
|  4>
|  5> %basis
|  6>         Basis "6-31G"
|  7> end
|  8>
|  9> %geom
| 10> Constraints
| 11> { D 4  0  15  12  30.0   C } # D for Dihedral angle
| 12> { D 0  15  12  16  165.0   C } # D for Dihedral angle
| 13> { D 0  4  3  2   C } # D for Dihedral angle
| 14> { D 4  3  2  1   C } # D for Dihedral angle
| 15> { D 3  2  1  0   C } # D for Dihedral angle
| 16> { D 2  1  0  4   C } # D for Dihedral angle
| 17> { D 1  0  4  3   C } # D for Dihedral angle
| 18> { D 16  20  19  18   C } # D for Dihedral angle
| 19> { D 20  19  18  17   C } # D for Dihedral angle
| 20> { D 19  18  17  16   C } # D for Dihedral angle
| 21> { D 18  17  16  20   C } # D for Dihedral angle
| 22> { D 17  16  20  19   C } # D for Dihedral angle
| 23> { D 15  12  16  20   C } # D for Dihedral angle
| 24> end
| 25> end
| 26>
| 27>
| 28> #%pal
| 29> #nprocs 8
| 30> #end
| 31>
| 32> * xyz 0 1
| 33> C  -21.048   26.222   46.251
| 34> C  -20.361   27.558   45.944
| 35> C  -20.329   28.222   47.341
| 36> C  -20.110   27.022   48.296
| 37> O  -20.473   25.807   47.535
| 38> H  -20.833   25.428   45.533
| 39> H  -19.344   27.382   45.576
| 40> H  -20.898   28.157   45.201
| 41> H  -19.543   28.978   47.434
| 42> H  -21.289   28.710   47.548
| 43> H  -20.733   27.082   49.195
| 44> H  -19.064   26.913   48.597
| 45> C  -23.091   26.824   47.779
| 46> H  -23.035   25.967   48.462
| 47> H  -22.463   27.628   48.184
| 48> O  -22.586   26.394   46.375
| 49> C  -24.558   27.336   47.759
| 50> C  -24.735   28.481   46.754
| 51> C  -24.822   27.711   45.415
| 52> C  -25.571   26.411   45.804
| 53> O  -25.461   26.287   47.274
| 54> H  -24.867   27.578   48.778
| 55> O  -26.060   29.239   47.038
| 56> H  -23.912   29.203   46.775
| 57> H  -25.343   28.274   44.634
| 58> H  -23.815   27.481   45.046
| 59> H  -25.138   25.521   45.335
| 60> H  -26.637   26.456   45.564
| 61> H  -26.899   28.534   47.021
| 62> *
| 63>
| 64>                          ****END OF INPUT****
 Total Charge           Charge          ....    0
 Multiplicity           Mult            ....    1
 Number of Electrons    NEL             ....  102
FINAL SINGLE POINT ENERGY      -652.825762148956
FINAL SINGLE POINT ENERGY      -652.849604462078
FINAL SINGLE POINT ENERGY      -652.855979251420
FINAL SINGLE POINT ENERGY      -652.858436882603
FINAL SINGLE POINT ENERGY      -652.858700360861
FINAL SINGLE POINT ENERGY      -652.858738390712
FINAL SINGLE POINT ENERGY      -652.858740336879
                    ***********************HURRAY********************

CARTESIAN COORDINATES (ANGSTROEM)
---------------------------------
  C    -21.149215   26.263366   46.433904
  C    -20.400456   27.522716   45.981575
  C    -20.139439   28.245435   47.332010
  C    -19.901250   27.068355   48.308204
  O    -20.462242   25.863947   47.639729
  H    -21.053402   25.432174   45.732816
  H    -19.457176   27.221995   45.512674
  H    -20.975625   28.120884   45.271097
  H    -19.275618   28.916049   47.286447
  H    -21.006803   28.846184   47.622298
  H    -20.393993   27.196814   49.276203
  H    -18.838525   26.869045   48.471904
  C    -23.160283   26.820334   47.853689
  H    -23.137103   25.967213   48.540071
  H    -22.605791   27.648623   48.312481
  O    -22.585721   26.416869   46.576713
  C    -24.608125   27.267399   47.661840
  C    -24.851389   28.460531   46.724645
  C    -24.900482   27.768407   45.335866
  C    -25.576205   26.409971   45.650481
  O    -25.452270   26.207365   47.113000
  H    -25.003318   27.495270   48.659905
  O    -26.102506   29.126107   47.057524
  H    -24.088752   29.237638   46.794149
  H    -25.468187   28.372484   44.622351
  H    -23.886024   27.613748   44.966904
  H    -25.086316   25.576544   45.141068
  H    -26.645186   26.400143   45.413639
  H    -26.806598   28.450392   47.154812

 Multiplicity           Mult            ....    1
 Number of Electrons    NEL             ....  102
 Basis Dimension        Dim             ....  149

ORBITAL ENERGIES
----------------

  NO   OCC          E(Eh)            E(eV)
   0   2.0000     -19.152477      -521.1654
   1   2.0000     -19.145673      -520.9802
   2   2.0000     -19.134928      -520.6879
   3   2.0000     -19.134711      -520.6820
   4   2.0000     -10.284393      -279.8526
   5   2.0000     -10.237146      -278.5669
   6   2.0000     -10.236593      -278.5519
   7   2.0000     -10.233070      -278.4560
   8   2.0000     -10.232545      -278.4417
   9   2.0000     -10.220089      -278.1028
  10   2.0000     -10.199151      -277.5330
  11   2.0000     -10.193776      -277.3867
  12   2.0000     -10.175467      -276.8885
  13   2.0000      -1.059048       -28.8182
  14   2.0000      -1.031347       -28.0644
  15   2.0000      -1.003774       -27.3141
  16   2.0000      -0.994988       -27.0750
  17   2.0000      -0.795509       -21.6469
  18   2.0000      -0.779992       -21.2247
  19   2.0000      -0.764335       -20.7986
  20   2.0000      -0.737017       -20.0553
  21   2.0000      -0.675356       -18.3774
  22   2.0000      -0.610576       -16.6146
  23   2.0000      -0.603686       -16.4271
  24   2.0000      -0.595778       -16.2119
  25   2.0000      -0.569884       -15.5073
  26   2.0000      -0.524014       -14.2591
  27   2.0000      -0.515636       -14.0312
  28   2.0000      -0.500758       -13.6263
  29   2.0000      -0.491165       -13.3653
  30   2.0000      -0.472333       -12.8528
  31   2.0000      -0.455696       -12.4001
  32   2.0000      -0.449340       -12.2272
  33   2.0000      -0.437997       -11.9185
  34   2.0000      -0.424993       -11.5646
  35   2.0000      -0.414803       -11.2874
  36   2.0000      -0.406419       -11.0592
  37   2.0000      -0.385718       -10.4959
  38   2.0000      -0.381435       -10.3794
  39   2.0000      -0.369383       -10.0514
  40   2.0000      -0.367451        -9.9989
  41   2.0000      -0.360697        -9.8151
  42   2.0000      -0.349410        -9.5079
  43   2.0000      -0.335318        -9.1245
  44   2.0000      -0.322949        -8.7879
  45   2.0000      -0.313394        -8.5279
  46   2.0000      -0.300415        -8.1747
  47   2.0000      -0.269403        -7.3308
  48   2.0000      -0.264259        -7.1908
  49   2.0000      -0.253952        -6.9104
  50   2.0000      -0.239533        -6.5180
  51   0.0000       0.057464         1.5637
  52   0.0000       0.075781         2.0621
  53   0.0000       0.088441         2.4066
  54   0.0000       0.098783         2.6880
  55   0.0000       0.103704         2.8219

MULLIKEN ATOMIC CHARGES
-----------------------
   0 C :    0.302436
   1 C :   -0.262320
   2 C :   -0.318881
   3 C :   -0.016456
   4 O :   -0.507310
   5 H :    0.164914
   6 H :    0.151436
   7 H :    0.153619
   8 H :    0.150619
   9 H :    0.153454
  10 H :    0.147554
  11 H :    0.153286
  12 C :    0.014772
  13 H :    0.166139
  14 H :    0.114776
  15 O :   -0.538471
  16 C :    0.063433
  17 C :    0.076952
  18 C :   -0.290442
  19 C :   -0.014731
  20 O :   -0.524276
  21 H :    0.153544
  22 O :   -0.604031
  23 H :    0.143071
  24 H :    0.147440
  25 H :    0.167601
  26 H :    0.153594
  27 H :    0.134780
  28 H :    0.363496
Sum of atomic charges:   -0.0000000

LOEWDIN ATOMIC CHARGES
----------------------
   0 C :    0.180344
   1 C :   -0.225591
   2 C :   -0.223644
   3 C :   -0.034448
   4 O :   -0.316954
   5 H :    0.111523
   6 H :    0.118543
   7 H :    0.120564
   8 H :    0.118613
   9 H :    0.109917
  10 H :    0.103374
  11 H :    0.108377
  12 C :   -0.033986
  13 H :    0.115036
  14 H :    0.090733
  15 O :   -0.332428
  16 C :    0.014509
  17 C :    0.038236
  18 C :   -0.243119
  19 C :   -0.031654
  20 O :   -0.328261
  21 H :    0.114912
  22 O :   -0.417611
  23 H :    0.111312
  24 H :    0.117481
  25 H :    0.126142
  26 H :    0.109757
  27 H :    0.095794
  28 H :    0.282529

  Mayer bond orders larger than 0.100000
B(  0-C ,  1-C ) :   0.9177 B(  0-C ,  4-O ) :   0.9101 B(  0-C ,  5-H ) :   0.9348
B(  0-C , 15-O ) :   0.8615 B(  1-C ,  2-C ) :   0.9526 B(  1-C ,  6-H ) :   0.9340
B(  1-C ,  7-H ) :   0.9365 B(  2-C ,  3-C ) :   0.9494 B(  2-C ,  8-H ) :   0.9441
B(  2-C ,  9-H ) :   0.9402 B(  3-C ,  4-O ) :   0.8358 B(  3-C , 10-H ) :   0.9318
B(  3-C , 11-H ) :   0.9388 B( 12-C , 13-H ) :   0.9181 B( 12-C , 14-H ) :   0.8987
B( 12-C , 15-O ) :   0.8288 B( 12-C , 16-C ) :   0.9094 B( 16-C , 17-C ) :   0.9062
B( 16-C , 20-O ) :   0.8754 B( 16-C , 21-H ) :   0.9226 B( 17-C , 18-C ) :   0.9250
B( 17-C , 22-O ) :   0.8918 B( 17-C , 23-H ) :   0.9361 B( 18-C , 19-C ) :   0.9477
B( 18-C , 24-H ) :   0.9373 B( 18-C , 25-H ) :   0.9186 B( 19-C , 20-O ) :   0.8390
B( 19-C , 26-H ) :   0.9338 B( 19-C , 27-H ) :   0.9375 B( 22-O , 28-H ) :   0.7952

FINAL SINGLE POINT ENERGY      -652.858738300292

DIPOLE MOMENT
-------------
                                X             Y             Z
Electronic contribution:     -3.72649      -3.43510       1.32939
Nuclear contribution   :      4.73379       4.08569      -1.60012
                        -----------------------------------------
Total Dipole Moment    :      1.00730       0.65059      -0.27072
                        -----------------------------------------
Magnitude (a.u.)       :      1.22932
Magnitude (Debye)      :      3.12467

Rotational constants in cm-1:     0.053408     0.014504     0.013986
Rotational constants in MHz :  1601.138029   434.812850   419.280179

                             ****ORCA TERMINATED NORMALLY****
TOTAL RUN TIME: 0 days 0 hours 41 minutes 20 seconds 825 msec
