                         Program Version 4.2.1 -  RELEASE  -
|  1> # Test redundant internal optimization
|  2> #
|  3> ! RKS B3LYP  Opt TightSCF SmallPrint
|  4>
|  5> %basis
|  6>         Basis "6-31G"
|  7> end
|  8>
|  9> %geom
| 10> Constraints
| 11> { D 4  0  19  14  75.0   C } # D for Dihedral angle
| 12> { D 0  19  14  12  135.0   C } # D for Dihedral angle
| 13> { D 0  4  3  2   C } # D for Dihedral angle
| 14> { D 4  3  2  1   C } # D for Dihedral angle
| 15> { D 3  2  1  0   C } # D for Dihedral angle
| 16> { D 2  1  0  4   C } # D for Dihedral angle
| 17> { D 1  0  4  3   C } # D for Dihedral angle
| 18> { D 14  15  16  17   C } # D for Dihedral angle
| 19> { D 15  16  17  12   C } # D for Dihedral angle
| 20> { D 16  17  12  14   C } # D for Dihedral angle
| 21> { D 17  12  14  15   C } # D for Dihedral angle
| 22> { D 12  14  15  16   C } # D for Dihedral angle
| 23> end
| 24> end
| 25>
| 26>
| 27> #%pal
| 28> #nprocs 8
| 29> #end
| 30>
| 31> * xyz 0 1
| 32> C  -21.048   26.222   46.251
| 33> C  -20.361   27.558   45.944
| 34> C  -20.329   28.222   47.341
| 35> C  -20.110   27.022   48.296
| 36> O  -20.473   25.807   47.535
| 37> H  -20.833   25.428   45.533
| 38> H  -19.344   27.382   45.576
| 39> H  -20.898   28.157   45.201
| 40> H  -19.543   28.978   47.434
| 41> H  -21.289   28.710   47.548
| 42> H  -20.733   27.082   49.195
| 43> H  -19.064   26.913   48.597
| 44> C  -24.021   28.257   46.299
| 45> H  -24.157   29.298   46.633
| 46> C  -22.881   27.571   47.060
| 47> C  -23.567   27.214   48.399
| 48> C  -25.017   26.874   47.972
| 49> O  -25.206   27.456   46.625
| 50> H  -23.914   28.242   45.213
| 51> O  -22.472   26.381   46.366
| 52> H  -22.003   28.213   47.190
| 53> H  -23.080   26.383   48.918
| 54> H  -23.556   28.081   49.071
| 55> H  -25.766   27.294   48.652
| 56> H  -25.185   25.796   47.883
| 57> *
| 58>
| 59>                          ****END OF INPUT****
 Total Charge           Charge          ....    0
 Multiplicity           Mult            ....    1
 Number of Electrons    NEL             ....   86
FINAL SINGLE POINT ENERGY      -538.352519178027
FINAL SINGLE POINT ENERGY      -538.418445865427
FINAL SINGLE POINT ENERGY      -538.422922401973
FINAL SINGLE POINT ENERGY      -538.423923890566
FINAL SINGLE POINT ENERGY      -538.424131164367
FINAL SINGLE POINT ENERGY      -538.424268867192
FINAL SINGLE POINT ENERGY      -538.424294044461
FINAL SINGLE POINT ENERGY      -538.424298392334
FINAL SINGLE POINT ENERGY      -538.424297586983
                    ***********************HURRAY********************

CARTESIAN COORDINATES (ANGSTROEM)
---------------------------------
  C    -21.101923   26.371476   46.413962
  C    -20.198617   27.517655   45.927078
  C    -19.826130   28.232015   47.263567
  C    -19.732423   27.043675   48.257228
  O    -20.450039   25.913620   47.624587
  H    -21.080834   25.513959   45.739139
  H    -19.307424   27.083407   45.463784
  H    -20.690741   28.170739   45.201447
  H    -18.874490   28.768718   47.190736
  H    -20.584329   28.959717   47.561264
  H    -20.186642   27.259182   49.229401
  H    -18.699805   26.718112   48.413131
  C    -24.257060   28.268028   46.326842
  H    -24.567179   29.268514   46.666288
  C    -23.130554   27.727692   47.208542
  C    -23.910222   27.227345   48.441877
  C    -25.230835   26.697423   47.834832
  O    -25.337716   27.297201   46.486252
  H    -23.994967   28.299408   45.267873
  O    -22.517589   26.588893   46.531519
  H    -22.398815   28.497146   47.458638
  H    -23.345220   26.457834   48.972875
  H    -24.098783   28.064245   49.125509
  H    -26.108969   26.982160   48.425071
  H    -25.218694   25.612834   47.700559

 Multiplicity           Mult            ....    1
 Number of Electrons    NEL             ....   86
 Basis Dimension        Dim             ....  127

ORBITAL ENERGIES
----------------

  NO   OCC          E(Eh)            E(eV)
   0   2.0000     -19.142095      -520.8829
   1   2.0000     -19.141626      -520.8701
   2   2.0000     -19.124888      -520.4147
   3   2.0000     -10.280029      -279.7338
   4   2.0000     -10.241681      -278.6903
   5   2.0000     -10.231909      -278.4244
   6   2.0000     -10.221195      -278.1329
   7   2.0000     -10.216581      -278.0073
   8   2.0000     -10.197945      -277.5002
   9   2.0000     -10.194985      -277.4196
  10   2.0000     -10.182581      -277.0821
  11   2.0000      -1.051978       -28.6258
  12   2.0000      -1.013378       -27.5754
  13   2.0000      -0.991206       -26.9721
  14   2.0000      -0.791974       -21.5507
  15   2.0000      -0.785374       -21.3711
  16   2.0000      -0.740283       -20.1441
  17   2.0000      -0.723636       -19.6911
  18   2.0000      -0.622024       -16.9261
  19   2.0000      -0.608225       -16.5506
  20   2.0000      -0.595701       -16.2099
  21   2.0000      -0.565504       -15.3881
  22   2.0000      -0.525939       -14.3115
  23   2.0000      -0.505606       -13.7582
  24   2.0000      -0.483371       -13.1532
  25   2.0000      -0.480975       -13.0880
  26   2.0000      -0.452485       -12.3128
  27   2.0000      -0.449051       -12.2193
  28   2.0000      -0.424868       -11.5613
  29   2.0000      -0.420608       -11.4453
  30   2.0000      -0.411716       -11.2034
  31   2.0000      -0.388721       -10.5776
  32   2.0000      -0.373830       -10.1724
  33   2.0000      -0.369117       -10.0442
  34   2.0000      -0.364578        -9.9207
  35   2.0000      -0.362665        -9.8686
  36   2.0000      -0.344938        -9.3862
  37   2.0000      -0.316657        -8.6167
  38   2.0000      -0.304672        -8.2905
  39   2.0000      -0.291974        -7.9450
  40   2.0000      -0.267972        -7.2919
  41   2.0000      -0.253999        -6.9117
  42   2.0000      -0.229986        -6.2582
  43   0.0000       0.064994         1.7686
  44   0.0000       0.089160         2.4262
  45   0.0000       0.096581         2.6281
  46   0.0000       0.112052         3.0491
  47   0.0000       0.115978         3.1559

MULLIKEN ATOMIC CHARGES
-----------------------
   0 C :    0.302126
   1 C :   -0.280884
   2 C :   -0.319321
   3 C :   -0.009309
   4 O :   -0.504293
   5 H :    0.168621
   6 H :    0.159053
   7 H :    0.149032
   8 H :    0.146374
   9 H :    0.151118
  10 H :    0.142864
  11 H :    0.149057
  12 C :    0.015332
  13 H :    0.118216
  14 C :    0.049151
  15 C :   -0.287433
  16 C :    0.002212
  17 O :   -0.517867
  18 H :    0.157992
  19 O :   -0.513513
  20 H :    0.123682
  21 H :    0.170940
  22 H :    0.134877
  23 H :    0.131947
  24 H :    0.160024
Sum of atomic charges:    0.0000000

LOEWDIN ATOMIC CHARGES
----------------------
   0 C :    0.174965
   1 C :   -0.229505
   2 C :   -0.224815
   3 C :   -0.034206
   4 O :   -0.323678
   5 H :    0.114368
   6 H :    0.124199
   7 H :    0.118287
   8 H :    0.115964
   9 H :    0.106381
  10 H :    0.101721
  11 H :    0.105433
  12 C :   -0.037412
  13 H :    0.088384
  14 C :    0.033332
  15 C :   -0.231409
  16 C :   -0.027229
  17 O :   -0.328237
  18 H :    0.117656
  19 O :   -0.310366
  20 H :    0.097789
  21 H :    0.131075
  22 H :    0.108867
  23 H :    0.096920
  24 H :    0.111514

  Mayer bond orders larger than 0.100000
B(  0-C ,  1-C ) :   0.9167 B(  0-C ,  4-O ) :   0.8928 B(  0-C ,  5-H ) :   0.9359
B(  0-C , 19-O ) :   0.9174 B(  1-C ,  2-C ) :   0.9549 B(  1-C ,  6-H ) :   0.9349
B(  1-C ,  7-H ) :   0.9368 B(  2-C ,  3-C ) :   0.9460 B(  2-C ,  8-H ) :   0.9440
B(  2-C ,  9-H ) :   0.9342 B(  3-C ,  4-O ) :   0.8509 B(  3-C , 10-H ) :   0.9338
B(  3-C , 11-H ) :   0.9386 B( 12-C , 13-H ) :   0.9131 B( 12-C , 14-C ) :   0.9342
B( 12-C , 17-O ) :   0.8779 B( 12-C , 18-H ) :   0.9324 B( 14-C , 15-C ) :   0.9444
B( 14-C , 19-O ) :   0.8190 B( 14-C , 20-H ) :   0.9043 B( 15-C , 16-C ) :   0.9488
B( 15-C , 21-H ) :   0.9358 B( 15-C , 22-H ) :   0.9383 B( 16-C , 17-O ) :   0.8536
B( 16-C , 23-H ) :   0.9336 B( 16-C , 24-H ) :   0.9350

FINAL SINGLE POINT ENERGY      -538.424295404508

DIPOLE MOMENT
-------------
                                X             Y             Z
Electronic contribution:     -2.33598      -3.77894      -2.05048
Nuclear contribution   :      3.43888       5.03463       2.56838
                        -----------------------------------------
Total Dipole Moment    :      1.10290       1.25570       0.51790
                        -----------------------------------------
Magnitude (a.u.)       :      1.74968
Magnitude (Debye)      :      4.44734

Rotational constants in cm-1:     0.079451     0.021592     0.020425
Rotational constants in MHz :  2381.893623   647.313425   612.319470

                             ****ORCA TERMINATED NORMALLY****
TOTAL RUN TIME: 0 days 0 hours 21 minutes 50 seconds 742 msec
