                         Program Version 4.2.0 -  RELEASE  -
|  1> # Test redundant internal optimization
|  2> #
|  3> ! RKS B3LYP  Opt TightSCF SmallPrint
|  4>
|  5> %basis
|  6>         Basis "6-31G"
|  7> end
|  8>
|  9> %geom
| 10> Constraints
| 11> { D 4  0  15  12  210.0   C } # D for Dihedral angle
| 12> { D 0  15  12  16  90.0   C } # D for Dihedral angle
| 13> { D 0  4  3  2   C } # D for Dihedral angle
| 14> { D 4  3  2  1   C } # D for Dihedral angle
| 15> { D 3  2  1  0   C } # D for Dihedral angle
| 16> { D 2  1  0  4   C } # D for Dihedral angle
| 17> { D 1  0  4  3   C } # D for Dihedral angle
| 18> { D 16  20  19  18   C } # D for Dihedral angle
| 19> { D 20  19  18  17   C } # D for Dihedral angle
| 20> { D 19  18  17  16   C } # D for Dihedral angle
| 21> { D 18  17  16  20   C } # D for Dihedral angle
| 22> { D 17  16  20  19   C } # D for Dihedral angle
| 23> { D 15  12  16  20   C } # D for Dihedral angle
| 24> end
| 25> end
| 26>
| 27>
| 28> #%pal
| 29> #nprocs 8
| 30> #end
| 31>
| 32> * xyz 0 1
| 33> C  -21.048   26.222   46.251
| 34> C  -20.361   27.558   45.944
| 35> C  -20.329   28.222   47.341
| 36> C  -20.110   27.022   48.296
| 37> O  -20.473   25.807   47.535
| 38> H  -20.833   25.428   45.533
| 39> H  -19.344   27.382   45.576
| 40> H  -20.898   28.157   45.201
| 41> H  -19.543   28.978   47.434
| 42> H  -21.289   28.710   47.548
| 43> H  -20.733   27.082   49.195
| 44> H  -19.064   26.913   48.597
| 45> C  -23.389   26.110   45.076
| 46> H  -24.291   26.735   45.064
| 47> H  -22.789   26.358   44.191
| 48> O  -22.586   26.394   46.375
| 49> C  -23.823   24.624   44.951
| 50> C  -22.618   23.681   45.050
| 51> C  -22.376   23.642   46.578
| 52> C  -23.808   23.726   47.164
| 53> O  -24.675   24.241   46.082
| 54> H  -24.419   24.500   44.045
| 55> O  -22.998   22.272   44.520
| 56> H  -21.746   24.037   44.491
| 57> H  -21.845   22.741   46.902
| 58> H  -21.781   24.510   46.888
| 59> H  -23.871   24.398   48.026
| 60> H  -24.200   22.745   47.450
| 61> H  -23.870   21.896   45.066
| 62> *
| 63>
| 64>                          ****END OF INPUT****
 Total Charge           Charge          ....    0
 Multiplicity           Mult            ....    1
 Number of Electrons    NEL             ....  102
FINAL SINGLE POINT ENERGY      -652.819067221129
FINAL SINGLE POINT ENERGY      -652.845390354673
FINAL SINGLE POINT ENERGY      -652.856433911965
FINAL SINGLE POINT ENERGY      -652.858780668875
FINAL SINGLE POINT ENERGY      -652.859179372990
FINAL SINGLE POINT ENERGY      -652.859209430699
FINAL SINGLE POINT ENERGY      -652.859201137214
                    ***********************HURRAY********************

CARTESIAN COORDINATES (ANGSTROEM)
---------------------------------
  C    -20.991933   26.290493   46.271331
  C    -20.317932   27.615788   45.921366
  C    -20.376226   28.371385   47.271054
  C    -20.188232   27.242422   48.306505
  O    -20.492342   25.979366   47.580126
  H    -20.741310   25.458703   45.609694
  H    -19.279688   27.430214   45.620687
  H    -20.825536   28.145711   45.110855
  H    -19.607820   29.145790   47.353243
  H    -21.357772   28.839268   47.387286
  H    -20.865122   27.321616   49.160200
  H    -19.157923   27.155008   48.662996
  C    -23.212362   26.126513   45.178620
  H    -24.095666   26.767019   45.236568
  H    -22.660844   26.387889   44.260640
  O    -22.436655   26.469478   46.362987
  C    -23.707597   24.676856   45.080356
  C    -22.688078   23.525929   45.036176
  C    -22.408814   23.286152   46.549891
  C    -23.789835   23.565874   47.197126
  O    -24.574294   24.334276   46.204917
  H    -24.333525   24.634036   44.178822
  O    -23.274785   22.356889   44.398788
  H    -21.793392   23.742280   44.450668
  H    -22.070789   22.258138   46.709545
  H    -21.653977   23.965963   46.945534
  H    -23.702021   24.161678   48.109046
  H    -24.352611   22.652242   47.415185
  H    -24.152919   22.184026   44.799788

 Multiplicity           Mult            ....    1
 Number of Electrons    NEL             ....  102
 Basis Dimension        Dim             ....  149

ORBITAL ENERGIES
----------------

  NO   OCC          E(Eh)            E(eV)
   0   2.0000     -19.148600      -521.0599
   1   2.0000     -19.145824      -520.9844
   2   2.0000     -19.135765      -520.7106
   3   2.0000     -19.135402      -520.7008
   4   2.0000     -10.285355      -279.8787
   5   2.0000     -10.239022      -278.6180
   6   2.0000     -10.234697      -278.5003
   7   2.0000     -10.232501      -278.4405
   8   2.0000     -10.230405      -278.3835
   9   2.0000     -10.219468      -278.0859
  10   2.0000     -10.190630      -277.3011
  11   2.0000     -10.189650      -277.2745
  12   2.0000     -10.174946      -276.8744
  13   2.0000      -1.059082       -28.8191
  14   2.0000      -1.032459       -28.0946
  15   2.0000      -1.004206       -27.3258
  16   2.0000      -0.996027       -27.1033
  17   2.0000      -0.791055       -21.5257
  18   2.0000      -0.772557       -21.0224
  19   2.0000      -0.764879       -20.8134
  20   2.0000      -0.736734       -20.0476
  21   2.0000      -0.676129       -18.3984
  22   2.0000      -0.605822       -16.4853
  23   2.0000      -0.600321       -16.3356
  24   2.0000      -0.596143       -16.2219
  25   2.0000      -0.577175       -15.7057
  26   2.0000      -0.526313       -14.3217
  27   2.0000      -0.506492       -13.7824
  28   2.0000      -0.501229       -13.6391
  29   2.0000      -0.487564       -13.2673
  30   2.0000      -0.471995       -12.8436
  31   2.0000      -0.455497       -12.3947
  32   2.0000      -0.450734       -12.2651
  33   2.0000      -0.440089       -11.9754
  34   2.0000      -0.429375       -11.6839
  35   2.0000      -0.407961       -11.1012
  36   2.0000      -0.404520       -11.0075
  37   2.0000      -0.385598       -10.4926
  38   2.0000      -0.380809       -10.3623
  39   2.0000      -0.363974        -9.9042
  40   2.0000      -0.362087        -9.8529
  41   2.0000      -0.354425        -9.6444
  42   2.0000      -0.352729        -9.5982
  43   2.0000      -0.327157        -8.9024
  44   2.0000      -0.320682        -8.7262
  45   2.0000      -0.311210        -8.4684
  46   2.0000      -0.301377        -8.2009
  47   2.0000      -0.272854        -7.4247
  48   2.0000      -0.264632        -7.2010
  49   2.0000      -0.260782        -7.0963
  50   2.0000      -0.234257        -6.3744
  51   0.0000       0.068878         1.8743
  52   0.0000       0.076938         2.0936
  53   0.0000       0.091993         2.5033
  54   0.0000       0.101980         2.7750
  55   0.0000       0.107926         2.9368

MULLIKEN ATOMIC CHARGES
-----------------------
   0 C :    0.285040
   1 C :   -0.257256
   2 C :   -0.299941
   3 C :    0.000717
   4 O :   -0.515939
   5 H :    0.143366
   6 H :    0.144071
   7 H :    0.146355
   8 H :    0.143530
   9 H :    0.166012
  10 H :    0.156870
  11 H :    0.144081
  12 C :   -0.025758
  13 H :    0.170788
  14 H :    0.115835
  15 O :   -0.504747
  16 C :    0.082901
  17 C :    0.061845
  18 C :   -0.310184
  19 C :   -0.025470
  20 O :   -0.523827
  21 H :    0.150280
  22 O :   -0.604306
  23 H :    0.143215
  24 H :    0.148565
  25 H :    0.200492
  26 H :    0.161775
  27 H :    0.136679
  28 H :    0.365015
Sum of atomic charges:   -0.0000000

LOEWDIN ATOMIC CHARGES
----------------------
   0 C :    0.169743
   1 C :   -0.223538
   2 C :   -0.215800
   3 C :   -0.023181
   4 O :   -0.311749
   5 H :    0.095985
   6 H :    0.112921
   7 H :    0.116835
   8 H :    0.115318
   9 H :    0.121455
  10 H :    0.110903
  11 H :    0.103650
  12 C :   -0.042723
  13 H :    0.125001
  14 H :    0.090379
  15 O :   -0.330335
  16 C :    0.005621
  17 C :    0.031920
  18 C :   -0.246671
  19 C :   -0.033275
  20 O :   -0.329684
  21 H :    0.114204
  22 O :   -0.415666
  23 H :    0.109148
  24 H :    0.119984
  25 H :    0.137354
  26 H :    0.113013
  27 H :    0.095817
  28 H :    0.283371

  Mayer bond orders larger than 0.100000
B(  0-C ,  1-C ) :   0.9376 B(  0-C ,  4-O ) :   0.9067 B(  0-C ,  5-H ) :   0.9096
B(  0-C , 15-O ) :   0.8286 B(  1-C ,  2-C ) :   0.9531 B(  1-C ,  6-H ) :   0.9342
B(  1-C ,  7-H ) :   0.9379 B(  2-C ,  3-C ) :   0.9553 B(  2-C ,  8-H ) :   0.9447
B(  2-C ,  9-H ) :   0.9427 B(  3-C ,  4-O ) :   0.8261 B(  3-C , 10-H ) :   0.9347
B(  3-C , 11-H ) :   0.9398 B( 12-C , 13-H ) :   0.9316 B( 12-C , 14-H ) :   0.9124
B( 12-C , 15-O ) :   0.8770 B( 12-C , 16-C ) :   0.8814 B( 16-C , 17-C ) :   0.9073
B( 16-C , 20-O ) :   0.8738 B( 16-C , 21-H ) :   0.9151 B( 17-C , 18-C ) :   0.9178
B( 17-C , 22-O ) :   0.8861 B( 17-C , 23-H ) :   0.9316 B( 18-C , 19-C ) :   0.9422
B( 18-C , 24-H ) :   0.9387 B( 18-C , 25-H ) :   0.9008 B( 19-C , 20-O ) :   0.8359
B( 19-C , 26-H ) :   0.9325 B( 19-C , 27-H ) :   0.9374 B( 22-O , 28-H ) :   0.7938

FINAL SINGLE POINT ENERGY      -652.859199067461

DIPOLE MOMENT
-------------
                                X             Y             Z
Electronic contribution:     -3.63920      -3.44125      -0.95935
Nuclear contribution   :      4.36754       4.39482       0.89964
                        -----------------------------------------
Total Dipole Moment    :      0.72834       0.95357      -0.05971
                        -----------------------------------------
Magnitude (a.u.)       :      1.20139
Magnitude (Debye)      :      3.05369

Rotational constants in cm-1:     0.055138     0.014828     0.014260
Rotational constants in MHz :  1653.004155   444.531225   427.512697

                             ****ORCA TERMINATED NORMALLY****
TOTAL RUN TIME: 0 days 0 hours 41 minutes 12 seconds 603 msec
