                         Program Version 4.2.0 -  RELEASE  -
|  1> # Test redundant internal optimization
|  2> #
|  3> ! RKS B3LYP  Opt TightSCF SmallPrint
|  4>
|  5> %basis
|  6>         Basis "6-31G"
|  7> end
|  8>
|  9> %geom
| 10> Constraints
| 11> { D 4  0  15  12  75.0   C } # D for Dihedral angle
| 12> { D 0  15  12  16  165.0   C } # D for Dihedral angle
| 13> { D 0  4  3  2   C } # D for Dihedral angle
| 14> { D 4  3  2  1   C } # D for Dihedral angle
| 15> { D 3  2  1  0   C } # D for Dihedral angle
| 16> { D 2  1  0  4   C } # D for Dihedral angle
| 17> { D 1  0  4  3   C } # D for Dihedral angle
| 18> { D 16  20  19  18   C } # D for Dihedral angle
| 19> { D 20  19  18  17   C } # D for Dihedral angle
| 20> { D 19  18  17  16   C } # D for Dihedral angle
| 21> { D 18  17  16  20   C } # D for Dihedral angle
| 22> { D 17  16  20  19   C } # D for Dihedral angle
| 23> { D 15  12  16  20   C } # D for Dihedral angle
| 24> end
| 25> end
| 26>
| 27>
| 28> #%pal
| 29> #nprocs 8
| 30> #end
| 31>
| 32> * xyz 0 1
| 33> C  -21.048   26.222   46.251
| 34> C  -20.361   27.558   45.944
| 35> C  -20.329   28.222   47.341
| 36> C  -20.110   27.022   48.296
| 37> O  -20.473   25.807   47.535
| 38> H  -20.833   25.428   45.533
| 39> H  -19.344   27.382   45.576
| 40> H  -20.898   28.157   45.201
| 41> H  -19.543   28.978   47.434
| 42> H  -21.289   28.710   47.548
| 43> H  -20.733   27.082   49.195
| 44> H  -19.064   26.913   48.597
| 45> C  -23.049   27.675   47.122
| 46> H  -22.879   27.547   48.198
| 47> H  -22.473   28.546   46.784
| 48> O  -22.586   26.394   46.375
| 49> C  -24.555   27.989   46.899
| 50> C  -25.446   26.895   47.498
| 51> C  -25.432   27.267   49.000
| 52> C  -25.388   28.816   48.978
| 53> O  -24.937   29.204   47.625
| 54> H  -24.727   28.182   45.839
| 55> O  -26.883   27.003   46.919
| 56> H  -25.073   25.883   47.307
| 57> H  -26.302   26.881   49.541
| 58> H  -24.533   26.861   49.480
| 59> H  -24.695   29.226   49.719
| 60> H  -26.374   29.263   49.131
| 61> H  -27.278   28.010   47.099
| 62> *
| 63>
| 64>                          ****END OF INPUT****
 Total Charge           Charge          ....    0
 Multiplicity           Mult            ....    1
 Number of Electrons    NEL             ....  102
FINAL SINGLE POINT ENERGY      -652.811678044468
FINAL SINGLE POINT ENERGY      -652.841597784317
FINAL SINGLE POINT ENERGY      -652.857089621038
FINAL SINGLE POINT ENERGY      -652.859417038003
FINAL SINGLE POINT ENERGY      -652.859766798838
FINAL SINGLE POINT ENERGY      -652.859820248453
FINAL SINGLE POINT ENERGY      -652.859827194340
FINAL SINGLE POINT ENERGY      -652.859827024626
                    ***********************HURRAY********************

CARTESIAN COORDINATES (ANGSTROEM)
---------------------------------
  C    -21.254925   26.384262   46.418363
  C    -20.346464   27.508255   45.897539
  C    -19.892968   28.200079   47.218399
  C    -19.784066   27.003689   48.199210
  O    -20.561952   25.898723   47.591545
  H    -21.315144   25.531608   45.740816
  H    -19.491717   27.055647   45.384986
  H    -20.854749   28.182330   45.202379
  H    -18.934966   28.717347   47.105603
  H    -20.625932   28.935004   47.557523
  H    -20.189291   27.222072   49.191919
  H    -18.755452   26.646686   48.305814
  C    -23.100477   27.871949   47.335983
  H    -22.930312   27.767480   48.415856
  H    -22.594709   28.777472   46.986067
  O    -22.648146   26.685457   46.627305
  C    -24.587551   28.017354   47.014302
  C    -25.476454   26.863029   47.498202
  C    -25.658393   27.216496   48.995998
  C    -25.704946   28.764094   48.993800
  O    -25.121346   29.200493   47.698199
  H    -24.709077   28.178117   45.939765
  O    -26.745684   26.860080   46.786297
  H    -25.033286   25.884153   47.325406
  H    -26.571683   26.763923   49.390161
  H    -24.810931   26.841169   49.579764
  H    -25.129223   29.210927   49.810016
  H    -26.726164   29.155007   49.032717
  H    -27.078992   27.780096   46.721064

 Multiplicity           Mult            ....    1
 Number of Electrons    NEL             ....  102
 Basis Dimension        Dim             ....  149

ORBITAL ENERGIES
----------------

  NO   OCC          E(Eh)            E(eV)
   0   2.0000     -19.149113      -521.0739
   1   2.0000     -19.145400      -520.9728
   2   2.0000     -19.143261      -520.9146
   3   2.0000     -19.132692      -520.6270
   4   2.0000     -10.281666      -279.7784
   5   2.0000     -10.234646      -278.4989
   6   2.0000     -10.233102      -278.4569
   7   2.0000     -10.232949      -278.4527
   8   2.0000     -10.231865      -278.4232
   9   2.0000     -10.231498      -278.4132
  10   2.0000     -10.195917      -277.4450
  11   2.0000     -10.194747      -277.4132
  12   2.0000     -10.185732      -277.1679
  13   2.0000      -1.055284       -28.7157
  14   2.0000      -1.035200       -28.1692
  15   2.0000      -1.003162       -27.2974
  16   2.0000      -0.999907       -27.2088
  17   2.0000      -0.791612       -21.5409
  18   2.0000      -0.782070       -21.2812
  19   2.0000      -0.770945       -20.9785
  20   2.0000      -0.733405       -19.9570
  21   2.0000      -0.680296       -18.5118
  22   2.0000      -0.607525       -16.5316
  23   2.0000      -0.603274       -16.4159
  24   2.0000      -0.597550       -16.2602
  25   2.0000      -0.576224       -15.6799
  26   2.0000      -0.522441       -14.2163
  27   2.0000      -0.516463       -14.0537
  28   2.0000      -0.505559       -13.7570
  29   2.0000      -0.489574       -13.3220
  30   2.0000      -0.473123       -12.8743
  31   2.0000      -0.462043       -12.5728
  32   2.0000      -0.450080       -12.2473
  33   2.0000      -0.438852       -11.9418
  34   2.0000      -0.425847       -11.5879
  35   2.0000      -0.416455       -11.3323
  36   2.0000      -0.409014       -11.1298
  37   2.0000      -0.390929       -10.6377
  38   2.0000      -0.386118       -10.5068
  39   2.0000      -0.366256        -9.9663
  40   2.0000      -0.364067        -9.9068
  41   2.0000      -0.358558        -9.7569
  42   2.0000      -0.354261        -9.6399
  43   2.0000      -0.329881        -8.9765
  44   2.0000      -0.317996        -8.6531
  45   2.0000      -0.311135        -8.4664
  46   2.0000      -0.302244        -8.2245
  47   2.0000      -0.270131        -7.3506
  48   2.0000      -0.269677        -7.3383
  49   2.0000      -0.256313        -6.9746
  50   2.0000      -0.246576        -6.7097
  51   0.0000       0.064769         1.7625
  52   0.0000       0.066943         1.8216
  53   0.0000       0.089480         2.4349
  54   0.0000       0.096773         2.6333
  55   0.0000       0.102697         2.7945

MULLIKEN ATOMIC CHARGES
-----------------------
   0 C :    0.306362
   1 C :   -0.283955
   2 C :   -0.314787
   3 C :   -0.010048
   4 O :   -0.503886
   5 H :    0.168446
   6 H :    0.158769
   7 H :    0.150651
   8 H :    0.147078
   9 H :    0.150172
  10 H :    0.143405
  11 H :    0.148725
  12 C :   -0.006765
  13 H :    0.135458
  14 H :    0.145832
  15 O :   -0.528453
  16 C :    0.053538
  17 C :    0.091253
  18 C :   -0.300867
  19 C :   -0.031224
  20 O :   -0.529360
  21 H :    0.166293
  22 O :   -0.603226
  23 H :    0.181918
  24 H :    0.162617
  25 H :    0.150467
  26 H :    0.144083
  27 H :    0.146228
  28 H :    0.361274
Sum of atomic charges:   -0.0000000

LOEWDIN ATOMIC CHARGES
----------------------
   0 C :    0.175091
   1 C :   -0.229717
   2 C :   -0.224118
   3 C :   -0.033088
   4 O :   -0.321391
   5 H :    0.114669
   6 H :    0.123969
   7 H :    0.119009
   8 H :    0.116541
   9 H :    0.110142
  10 H :    0.101828
  11 H :    0.104931
  12 C :   -0.042343
  13 H :    0.096113
  14 H :    0.102453
  15 O :   -0.321332
  16 C :    0.017646
  17 C :    0.039339
  18 C :   -0.241471
  19 C :   -0.038497
  20 O :   -0.333025
  21 H :    0.118410
  22 O :   -0.414942
  23 H :    0.130662
  24 H :    0.127067
  25 H :    0.115970
  26 H :    0.102887
  27 H :    0.102677
  28 H :    0.280522

  Mayer bond orders larger than 0.100000
B(  0-C ,  1-C ) :   0.9219 B(  0-C ,  4-O ) :   0.9042 B(  0-C ,  5-H ) :   0.9359
B(  0-C , 15-O ) :   0.8906 B(  1-C ,  2-C ) :   0.9546 B(  1-C ,  6-H ) :   0.9348
B(  1-C ,  7-H ) :   0.9354 B(  2-C ,  3-C ) :   0.9472 B(  2-C ,  8-H ) :   0.9453
B(  2-C ,  9-H ) :   0.9390 B(  3-C ,  4-O ) :   0.8467 B(  3-C , 10-H ) :   0.9339
B(  3-C , 11-H ) :   0.9386 B( 12-C , 13-H ) :   0.9196 B( 12-C , 14-H ) :   0.9061
B( 12-C , 15-O ) :   0.8247 B( 12-C , 16-C ) :   0.9016 B( 16-C , 17-C ) :   0.9145
B( 16-C , 20-O ) :   0.8460 B( 16-C , 21-H ) :   0.9251 B( 17-C , 18-C ) :   0.9118
B( 17-C , 22-O ) :   0.8869 B( 17-C , 23-H ) :   0.9226 B( 18-C , 19-C ) :   0.9404
B( 18-C , 24-H ) :   0.9377 B( 18-C , 25-H ) :   0.9343 B( 19-C , 20-O ) :   0.8429
B( 19-C , 26-H ) :   0.9361 B( 19-C , 27-H ) :   0.9384 B( 22-O , 28-H ) :   0.7965

FINAL SINGLE POINT ENERGY      -652.859815381783

DIPOLE MOMENT
-------------
                                X             Y             Z
Electronic contribution:     -3.76484      -2.67741      -2.52965
Nuclear contribution   :      4.67608       3.67085       3.02174
                        -----------------------------------------
Total Dipole Moment    :      0.91124       0.99344       0.49208
                        -----------------------------------------
Magnitude (a.u.)       :      1.43507
Magnitude (Debye)      :      3.64766

Rotational constants in cm-1:     0.055301     0.012821     0.012300
Rotational constants in MHz :  1657.884450   384.358677   368.732277

                             ****ORCA TERMINATED NORMALLY****
TOTAL RUN TIME: 0 days 0 hours 25 minutes 26 seconds 335 msec
