                         Program Version 4.2.0 -  RELEASE  -
|  1> # Test redundant internal optimization
|  2> #
|  3> ! RKS B3LYP  Opt TightSCF SmallPrint
|  4>
|  5> %basis
|  6>         Basis "6-31G"
|  7> end
|  8>
|  9> %geom
| 10> Constraints
| 11> { D 4  0  15  12  210.0   C } # D for Dihedral angle
| 12> { D 0  15  12  16  105.0   C } # D for Dihedral angle
| 13> { D 0  4  3  2   C } # D for Dihedral angle
| 14> { D 4  3  2  1   C } # D for Dihedral angle
| 15> { D 3  2  1  0   C } # D for Dihedral angle
| 16> { D 2  1  0  4   C } # D for Dihedral angle
| 17> { D 1  0  4  3   C } # D for Dihedral angle
| 18> { D 16  20  19  18   C } # D for Dihedral angle
| 19> { D 20  19  18  17   C } # D for Dihedral angle
| 20> { D 19  18  17  16   C } # D for Dihedral angle
| 21> { D 18  17  16  20   C } # D for Dihedral angle
| 22> { D 17  16  20  19   C } # D for Dihedral angle
| 23> { D 15  12  16  20   C } # D for Dihedral angle
| 24> end
| 25> end
| 26>
| 27>
| 28> #%pal
| 29> #nprocs 8
| 30> #end
| 31>
| 32> * xyz 0 1
| 33> C  -21.048   26.222   46.251
| 34> C  -20.361   27.558   45.944
| 35> C  -20.329   28.222   47.341
| 36> C  -20.110   27.022   48.296
| 37> O  -20.473   25.807   47.535
| 38> H  -20.833   25.428   45.533
| 39> H  -19.344   27.382   45.576
| 40> H  -20.898   28.157   45.201
| 41> H  -19.543   28.978   47.434
| 42> H  -21.289   28.710   47.548
| 43> H  -20.733   27.082   49.195
| 44> H  -19.064   26.913   48.597
| 45> C  -23.389   26.110   45.076
| 46> H  -24.131   26.905   44.928
| 47> H  -22.720   26.099   44.206
| 48> O  -22.586   26.394   46.375
| 49> C  -24.135   24.748   45.117
| 50> C  -25.216   24.737   46.203
| 51> C  -26.360   25.518   45.515
| 52> C  -26.233   25.092   44.030
| 53> O  -24.875   24.532   43.869
| 54> H  -23.403   23.942   45.198
| 55> H  -25.524   23.707   46.416
| 56> O  -24.752   25.394   47.532
| 57> H  -27.345   25.285   45.933
| 58> H  -26.197   26.597   45.623
| 59> H  -26.359   25.934   43.341
| 60> H  -26.942   24.305   43.760
| 61> H  -24.438   26.426   47.342
| 62> *
| 63>
| 64>                          ****END OF INPUT****
 Total Charge           Charge          ....    0
 Multiplicity           Mult            ....    1
 Number of Electrons    NEL             ....  102
FINAL SINGLE POINT ENERGY      -652.829278166597
FINAL SINGLE POINT ENERGY      -652.853677971349
FINAL SINGLE POINT ENERGY      -652.859768160708
FINAL SINGLE POINT ENERGY      -652.862237661420
FINAL SINGLE POINT ENERGY      -652.863769541566
FINAL SINGLE POINT ENERGY      -652.864779219691
FINAL SINGLE POINT ENERGY      -652.865318974282
FINAL SINGLE POINT ENERGY      -652.865487351237
FINAL SINGLE POINT ENERGY      -652.865514176569
FINAL SINGLE POINT ENERGY      -652.865519282961
                    ***********************HURRAY********************

CARTESIAN COORDINATES (ANGSTROEM)
---------------------------------
  C    -21.107992   26.200923   46.189817
  C    -20.369350   27.508480   45.918957
  C    -20.436951   28.205448   47.297701
  C    -20.328357   27.028600   48.288033
  O    -20.664254   25.811240   47.493402
  H    -20.890199   25.379398   45.501549
  H    -19.332455   27.285411   45.640986
  H    -20.825580   28.096450   45.117923
  H    -19.639056   28.941092   47.435046
  H    -21.399098   28.714576   47.406733
  H    -21.025816   27.097183   49.125851
  H    -19.314144   26.878397   48.667812
  C    -23.313204   26.164713   45.006361
  H    -23.989241   27.013011   44.867778
  H    -22.644269   26.112076   44.139378
  O    -22.554878   26.423692   46.239360
  C    -24.083762   24.847570   45.146403
  C    -25.147274   24.839083   46.256999
  C    -26.326445   25.584834   45.569145
  C    -26.220483   25.131131   44.098874
  O    -24.838491   24.588923   43.921527
  H    -23.372290   24.022969   45.256501
  H    -25.437373   23.799619   46.451411
  O    -24.759515   25.434445   47.509952
  H    -27.287542   25.330162   46.023620
  H    -26.175956   26.663818   45.684062
  H    -26.372061   25.942947   43.380562
  H    -26.906596   24.314017   43.858398
  H    -23.867368   25.845793   47.420860

 Multiplicity           Mult            ....    1
 Number of Electrons    NEL             ....  102
 Basis Dimension        Dim             ....  149

ORBITAL ENERGIES
----------------

  NO   OCC          E(Eh)            E(eV)
   0   2.0000     -19.162261      -521.4316
   1   2.0000     -19.152333      -521.1615
   2   2.0000     -19.140260      -520.8330
   3   2.0000     -19.109010      -519.9826
   4   2.0000     -10.293580      -280.1025
   5   2.0000     -10.240922      -278.6696
   6   2.0000     -10.233356      -278.4638
   7   2.0000     -10.233273      -278.4615
   8   2.0000     -10.228056      -278.3195
   9   2.0000     -10.226157      -278.2679
  10   2.0000     -10.195662      -277.4381
  11   2.0000     -10.193857      -277.3889
  12   2.0000     -10.177617      -276.9470
  13   2.0000      -1.066275       -29.0148
  14   2.0000      -1.024869       -27.8881
  15   2.0000      -1.007638       -27.4192
  16   2.0000      -0.988771       -26.9058
  17   2.0000      -0.796053       -21.6617
  18   2.0000      -0.772605       -21.0237
  19   2.0000      -0.766575       -20.8596
  20   2.0000      -0.738192       -20.0872
  21   2.0000      -0.680381       -18.5141
  22   2.0000      -0.609148       -16.5758
  23   2.0000      -0.602240       -16.3878
  24   2.0000      -0.595078       -16.1929
  25   2.0000      -0.578347       -15.7376
  26   2.0000      -0.529165       -14.3993
  27   2.0000      -0.523107       -14.2345
  28   2.0000      -0.498702       -13.5704
  29   2.0000      -0.488561       -13.2944
  30   2.0000      -0.472462       -12.8563
  31   2.0000      -0.460355       -12.5269
  32   2.0000      -0.450120       -12.2484
  33   2.0000      -0.433487       -11.7958
  34   2.0000      -0.426405       -11.6031
  35   2.0000      -0.412951       -11.2370
  36   2.0000      -0.410744       -11.1769
  37   2.0000      -0.384854       -10.4724
  38   2.0000      -0.382808       -10.4167
  39   2.0000      -0.369537       -10.0556
  40   2.0000      -0.365066        -9.9339
  41   2.0000      -0.363907        -9.9024
  42   2.0000      -0.346967        -9.4414
  43   2.0000      -0.342222        -9.3123
  44   2.0000      -0.324160        -8.8208
  45   2.0000      -0.321594        -8.7510
  46   2.0000      -0.286069        -7.7843
  47   2.0000      -0.278405        -7.5758
  48   2.0000      -0.266893        -7.2625
  49   2.0000      -0.243859        -6.6357
  50   2.0000      -0.239734        -6.5235
  51   0.0000       0.057717         1.5706
  52   0.0000       0.079689         2.1685
  53   0.0000       0.090188         2.4541
  54   0.0000       0.098029         2.6675
  55   0.0000       0.104723         2.8497

MULLIKEN ATOMIC CHARGES
-----------------------
   0 C :    0.297381
   1 C :   -0.260188
   2 C :   -0.301552
   3 C :   -0.008526
   4 O :   -0.501631
   5 H :    0.150405
   6 H :    0.149400
   7 H :    0.148407
   8 H :    0.146939
   9 H :    0.164458
  10 H :    0.161095
  11 H :    0.148150
  12 C :   -0.039637
  13 H :    0.157599
  14 H :    0.152348
  15 O :   -0.545648
  16 C :    0.052428
  17 C :    0.127908
  18 C :   -0.299451
  19 C :   -0.024909
  20 O :   -0.521836
  21 H :    0.156824
  22 H :    0.143883
  23 O :   -0.643890
  24 H :    0.149889
  25 H :    0.148063
  26 H :    0.141897
  27 H :    0.151134
  28 H :    0.399058
Sum of atomic charges:    0.0000000

LOEWDIN ATOMIC CHARGES
----------------------
   0 C :    0.180492
   1 C :   -0.225081
   2 C :   -0.216622
   3 C :   -0.025377
   4 O :   -0.303833
   5 H :    0.102578
   6 H :    0.116219
   7 H :    0.117992
   8 H :    0.117127
   9 H :    0.120288
  10 H :    0.112629
  11 H :    0.106059
  12 C :   -0.047881
  13 H :    0.112374
  14 H :    0.109535
  15 O :   -0.344563
  16 C :    0.009572
  17 C :    0.043585
  18 C :   -0.235128
  19 C :   -0.033477
  20 O :   -0.326771
  21 H :    0.112603
  22 H :    0.102886
  23 O :   -0.436404
  24 H :    0.120977
  25 H :    0.112185
  26 H :    0.101598
  27 H :    0.106568
  28 H :    0.289870

  Mayer bond orders larger than 0.100000
B(  0-C ,  1-C ) :   0.9358 B(  0-C ,  4-O ) :   0.9496 B(  0-C ,  5-H ) :   0.9196
B(  0-C , 15-O ) :   0.7891 B(  1-C ,  2-C ) :   0.9522 B(  1-C ,  6-H ) :   0.9336
B(  1-C ,  7-H ) :   0.9371 B(  2-C ,  3-C ) :   0.9549 B(  2-C ,  8-H ) :   0.9444
B(  2-C ,  9-H ) :   0.9434 B(  3-C ,  4-O ) :   0.8267 B(  3-C , 10-H ) :   0.9338
B(  3-C , 11-H ) :   0.9395 B( 12-C , 13-H ) :   0.9334 B( 12-C , 14-H ) :   0.9262
B( 12-C , 15-O ) :   0.7984 B( 12-C , 16-C ) :   0.8887 B( 16-C , 17-C ) :   0.9150
B( 16-C , 20-O ) :   0.8545 B( 16-C , 21-H ) :   0.9312 B( 17-C , 18-C ) :   0.9028
B( 17-C , 22-H ) :   0.9289 B( 17-C , 23-O ) :   0.9364 B( 18-C , 19-C ) :   0.9391
B( 18-C , 24-H ) :   0.9456 B( 18-C , 25-H ) :   0.9424 B( 19-C , 20-O ) :   0.8321
B( 19-C , 26-H ) :   0.9342 B( 19-C , 27-H ) :   0.9383 B( 23-O , 28-H ) :   0.7200

FINAL SINGLE POINT ENERGY      -652.865520589998

DIPOLE MOMENT
-------------
                                X             Y             Z
Electronic contribution:     -0.22834      -4.25829       0.60616
Nuclear contribution   :      0.94488       5.41443      -1.27360
                        -----------------------------------------
Total Dipole Moment    :      0.71654       1.15614      -0.66744
                        -----------------------------------------
Magnitude (a.u.)       :      1.51511
Magnitude (Debye)      :      3.85111

Rotational constants in cm-1:     0.061649     0.013035     0.012040
Rotational constants in MHz :  1848.177651   390.774893   360.962807

                             ****ORCA TERMINATED NORMALLY****
TOTAL RUN TIME: 0 days 0 hours 47 minutes 51 seconds 223 msec
