                         Program Version 4.2.0 -  RELEASE  -
|  1> # Test redundant internal optimization
|  2> #
|  3> ! RKS B3LYP  Opt TightSCF SmallPrint
|  4>
|  5> %basis
|  6>         Basis "6-31G"
|  7> end
|  8>
|  9> %geom
| 10> Constraints
| 11> { D 4  0  15  12  255.0   C } # D for Dihedral angle
| 12> { D 0  15  12  16  0.0   C } # D for Dihedral angle
| 13> { D 0  4  3  2   C } # D for Dihedral angle
| 14> { D 4  3  2  1   C } # D for Dihedral angle
| 15> { D 3  2  1  0   C } # D for Dihedral angle
| 16> { D 2  1  0  4   C } # D for Dihedral angle
| 17> { D 1  0  4  3   C } # D for Dihedral angle
| 18> { D 16  20  19  18   C } # D for Dihedral angle
| 19> { D 20  19  18  17   C } # D for Dihedral angle
| 20> { D 19  18  17  16   C } # D for Dihedral angle
| 21> { D 18  17  16  20   C } # D for Dihedral angle
| 22> { D 17  16  20  19   C } # D for Dihedral angle
| 23> { D 15  12  16  20   C } # D for Dihedral angle
| 24> end
| 25> end
| 26>
| 27>
| 28> #%pal
| 29> #nprocs 8
| 30> #end
| 31>
| 32> * xyz 0 1
| 33> C  -21.048   26.222   46.251
| 34> C  -20.361   27.558   45.944
| 35> C  -20.329   28.222   47.341
| 36> C  -20.110   27.022   48.296
| 37> O  -20.473   25.807   47.535
| 38> H  -20.833   25.428   45.533
| 39> H  -19.344   27.382   45.576
| 40> H  -20.898   28.157   45.201
| 41> H  -19.543   28.978   47.434
| 42> H  -21.289   28.710   47.548
| 43> H  -20.733   27.082   49.195
| 44> H  -19.064   26.913   48.597
| 45> C  -23.431   25.260   45.734
| 46> H  -24.057   24.794   46.505
| 47> H  -24.091   25.665   44.956
| 48> O  -22.586   26.394   46.375
| 49> C  -22.556   24.154   45.081
| 50> C  -21.720   23.414   46.132
| 51> C  -22.764   22.446   46.737
| 52> C  -23.650   22.077   45.521
| 53> O  -23.403   23.111   44.493
| 54> H  -21.975   24.591   44.267
| 55> O  -20.575   22.624   45.440
| 56> H  -21.276   24.081   46.878
| 57> H  -22.307   21.566   47.203
| 58> H  -23.355   22.961   47.504
| 59> H  -24.717   22.065   45.767
| 60> H  -23.377   21.114   45.082
| 61> H  -20.997   21.946   44.688
| 62> *
| 63>
| 64>                          ****END OF INPUT****
 Total Charge           Charge          ....    0
 Multiplicity           Mult            ....    1
 Number of Electrons    NEL             ....  102
FINAL SINGLE POINT ENERGY      -652.824382474887
FINAL SINGLE POINT ENERGY      -652.847537160126
FINAL SINGLE POINT ENERGY      -652.855605138241
FINAL SINGLE POINT ENERGY      -652.857432515885
FINAL SINGLE POINT ENERGY      -652.857709297653
FINAL SINGLE POINT ENERGY      -652.857748685052
FINAL SINGLE POINT ENERGY      -652.857753704423
                    ***********************HURRAY********************

CARTESIAN COORDINATES (ANGSTROEM)
---------------------------------
  C    -20.863715   26.245831   46.248382
  C    -20.350931   27.663944   45.988560
  C    -20.515490   28.323890   47.380603
  C    -20.202014   27.161149   48.350532
  O    -20.339713   25.917558   47.555001
  H    -20.491120   25.493130   45.555160
  H    -19.294139   27.621275   45.699880
  H    -20.916735   28.166397   45.201798
  H    -19.847393   29.177887   47.524690
  H    -21.547935   28.662104   47.505572
  H    -20.890341   27.113783   49.198518
  H    -19.172844   27.183433   48.721454
  C    -23.158868   25.259955   45.711806
  H    -23.812878   24.919859   46.522995
  H    -23.789875   25.733372   44.952422
  O    -22.304830   26.306532   46.274450
  C    -22.485558   24.040559   45.063600
  C    -21.648602   23.146080   45.995317
  C    -22.753398   22.336998   46.732314
  C    -23.834598   22.147904   45.639074
  O    -23.558964   23.158530   44.588280
  H    -21.909475   24.331106   44.179473
  O    -20.772840   22.288874   45.209963
  H    -20.997486   23.677789   46.686800
  H    -22.351865   21.391651   47.103537
  H    -23.134266   22.909596   47.583658
  H    -24.851949   22.296360   46.013494
  H    -23.780414   21.165467   45.159550
  H    -21.283764   21.902985   44.467113

 Multiplicity           Mult            ....    1
 Number of Electrons    NEL             ....  102
 Basis Dimension        Dim             ....  149

ORBITAL ENERGIES
----------------

  NO   OCC          E(Eh)            E(eV)
   0   2.0000     -19.149460      -521.0833
   1   2.0000     -19.140196      -520.8312
   2   2.0000     -19.138563      -520.7868
   3   2.0000     -19.137951      -520.7701
   4   2.0000     -10.279489      -279.7191
   5   2.0000     -10.239698      -278.6363
   6   2.0000     -10.237445      -278.5750
   7   2.0000     -10.233733      -278.4740
   8   2.0000     -10.231787      -278.4211
   9   2.0000     -10.223836      -278.2047
  10   2.0000     -10.188075      -277.2316
  11   2.0000     -10.182976      -277.0929
  12   2.0000     -10.182594      -277.0825
  13   2.0000      -1.050805       -28.5938
  14   2.0000      -1.039244       -28.2793
  15   2.0000      -1.007080       -27.4040
  16   2.0000      -0.991413       -26.9777
  17   2.0000      -0.786792       -21.4097
  18   2.0000      -0.777645       -21.1608
  19   2.0000      -0.766807       -20.8659
  20   2.0000      -0.735831       -20.0230
  21   2.0000      -0.675237       -18.3741
  22   2.0000      -0.608739       -16.5646
  23   2.0000      -0.602855       -16.4045
  24   2.0000      -0.595926       -16.2160
  25   2.0000      -0.571941       -15.5633
  26   2.0000      -0.524290       -14.2667
  27   2.0000      -0.521019       -14.1776
  28   2.0000      -0.497944       -13.5497
  29   2.0000      -0.480012       -13.0618
  30   2.0000      -0.467083       -12.7100
  31   2.0000      -0.459970       -12.5164
  32   2.0000      -0.452684       -12.3181
  33   2.0000      -0.430695       -11.7198
  34   2.0000      -0.425615       -11.5816
  35   2.0000      -0.417399       -11.3580
  36   2.0000      -0.400249       -10.8913
  37   2.0000      -0.393666       -10.7122
  38   2.0000      -0.372744       -10.1429
  39   2.0000      -0.369266       -10.0482
  40   2.0000      -0.364744        -9.9252
  41   2.0000      -0.353922        -9.6307
  42   2.0000      -0.347646        -9.4599
  43   2.0000      -0.332563        -9.0495
  44   2.0000      -0.319356        -8.6901
  45   2.0000      -0.309328        -8.4172
  46   2.0000      -0.306737        -8.3467
  47   2.0000      -0.271186        -7.3793
  48   2.0000      -0.265641        -7.2285
  49   2.0000      -0.250373        -6.8130
  50   2.0000      -0.242634        -6.6024
  51   0.0000       0.062210         1.6928
  52   0.0000       0.074589         2.0297
  53   0.0000       0.093291         2.5386
  54   0.0000       0.098656         2.6846
  55   0.0000       0.101645         2.7659

MULLIKEN ATOMIC CHARGES
-----------------------
   0 C :    0.267064
   1 C :   -0.247441
   2 C :   -0.297880
   3 C :    0.001436
   4 O :   -0.514780
   5 H :    0.160929
   6 H :    0.143485
   7 H :    0.149759
   8 H :    0.139047
   9 H :    0.164022
  10 H :    0.148819
  11 H :    0.142107
  12 C :    0.023401
  13 H :    0.141259
  14 H :    0.157632
  15 O :   -0.537705
  16 C :    0.012448
  17 C :    0.065847
  18 C :   -0.300986
  19 C :   -0.030170
  20 O :   -0.526344
  21 H :    0.159983
  22 O :   -0.604626
  23 H :    0.207247
  24 H :    0.162673
  25 H :    0.156092
  26 H :    0.147931
  27 H :    0.146429
  28 H :    0.362322
Sum of atomic charges:   -0.0000000

LOEWDIN ATOMIC CHARGES
----------------------
   0 C :    0.167892
   1 C :   -0.215463
   2 C :   -0.215203
   3 C :   -0.025749
   4 O :   -0.328836
   5 H :    0.105090
   6 H :    0.112359
   7 H :    0.120520
   8 H :    0.112791
   9 H :    0.120142
  10 H :    0.106130
  11 H :    0.102315
  12 C :   -0.034995
  13 H :    0.103565
  14 H :    0.112790
  15 O :   -0.334342
  16 C :   -0.000924
  17 C :    0.026297
  18 C :   -0.239418
  19 C :   -0.038110
  20 O :   -0.326256
  21 H :    0.111330
  22 O :   -0.414761
  23 H :    0.137168
  24 H :    0.127744
  25 H :    0.119199
  26 H :    0.104919
  27 H :    0.102719
  28 H :    0.281086

  Mayer bond orders larger than 0.100000
B(  0-C ,  1-C ) :   0.9458 B(  0-C ,  4-O ) :   0.8968 B(  0-C ,  5-H ) :   0.9087
B(  0-C , 15-O ) :   0.8547 B(  1-C ,  2-C ) :   0.9577 B(  1-C ,  6-H ) :   0.9389
B(  1-C ,  7-H ) :   0.9389 B(  2-C ,  3-C ) :   0.9539 B(  2-C ,  8-H ) :   0.9457
B(  2-C ,  9-H ) :   0.9432 B(  3-C ,  4-O ) :   0.8327 B(  3-C , 10-H ) :   0.9356
B(  3-C , 11-H ) :   0.9401 B( 12-C , 13-H ) :   0.9277 B( 12-C , 14-H ) :   0.9243
B( 12-C , 15-O ) :   0.8310 B( 12-C , 16-C ) :   0.8952 B( 16-C , 17-C ) :   0.8969
B( 16-C , 20-O ) :   0.8315 B( 16-C , 21-H ) :   0.9226 B( 17-C , 18-C ) :   0.9120
B( 17-C , 22-O ) :   0.8795 B( 17-C , 23-H ) :   0.9022 B( 18-C , 19-C ) :   0.9404
B( 18-C , 24-H ) :   0.9377 B( 18-C , 25-H ) :   0.9328 B( 19-C , 20-O ) :   0.8379
B( 19-C , 26-H ) :   0.9358 B( 19-C , 27-H ) :   0.9382 B( 22-O , 28-H ) :   0.7958

FINAL SINGLE POINT ENERGY      -652.857754940422

DIPOLE MOMENT
-------------
                                X             Y             Z
Electronic contribution:     -0.24971      -2.83289      -2.51565
Nuclear contribution   :     -0.03135       3.17013       2.69057
                        -----------------------------------------
Total Dipole Moment    :     -0.28105       0.33724       0.17492
                        -----------------------------------------
Magnitude (a.u.)       :      0.47256
Magnitude (Debye)      :      1.20116

Rotational constants in cm-1:     0.056427     0.014014     0.013137
Rotational constants in MHz :  1691.650831   420.129146   393.830086

                             ****ORCA TERMINATED NORMALLY****
TOTAL RUN TIME: 0 days 0 hours 35 minutes 29 seconds 577 msec
