                         Program Version 4.2.0 -  RELEASE  -
|  1> # Test redundant internal optimization
|  2> #
|  3> ! RKS B3LYP  Opt TightSCF SmallPrint
|  4>
|  5> %basis
|  6>         Basis "6-31G"
|  7> end
|  8>
|  9> %geom
| 10> Constraints
| 11> { D 4  0  15  12  255.0   C } # D for Dihedral angle
| 12> { D 0  15  12  16  150.0   C } # D for Dihedral angle
| 13> { D 0  4  3  2   C } # D for Dihedral angle
| 14> { D 4  3  2  1   C } # D for Dihedral angle
| 15> { D 3  2  1  0   C } # D for Dihedral angle
| 16> { D 2  1  0  4   C } # D for Dihedral angle
| 17> { D 1  0  4  3   C } # D for Dihedral angle
| 18> { D 16  20  19  18   C } # D for Dihedral angle
| 19> { D 20  19  18  17   C } # D for Dihedral angle
| 20> { D 19  18  17  16   C } # D for Dihedral angle
| 21> { D 18  17  16  20   C } # D for Dihedral angle
| 22> { D 17  16  20  19   C } # D for Dihedral angle
| 23> { D 15  12  16  20   C } # D for Dihedral angle
| 24> end
| 25> end
| 26>
| 27>
| 28> #%pal
| 29> #nprocs 8
| 30> #end
| 31>
| 32> * xyz 0 1
| 33> C  -21.048   26.222   46.251
| 34> C  -20.361   27.558   45.944
| 35> C  -20.329   28.222   47.341
| 36> C  -20.110   27.022   48.296
| 37> O  -20.473   25.807   47.535
| 38> H  -20.833   25.428   45.533
| 39> H  -19.344   27.382   45.576
| 40> H  -20.898   28.157   45.201
| 41> H  -19.543   28.978   47.434
| 42> H  -21.289   28.710   47.548
| 43> H  -20.733   27.082   49.195
| 44> H  -19.064   26.913   48.597
| 45> C  -23.431   25.260   45.734
| 46> H  -23.635   25.509   44.685
| 47> H  -22.882   24.310   45.760
| 48> O  -22.586   26.394   46.375
| 49> C  -24.789   25.040   46.456
| 50> C  -25.544   23.841   45.872
| 51> C  -24.817   22.654   46.547
| 52> C  -24.472   23.206   47.952
| 53> O  -24.570   24.679   47.861
| 54> H  -25.353   25.976   46.451
| 55> O  -27.035   23.888   46.303
| 56> H  -25.501   23.798   44.778
| 57> H  -25.433   21.750   46.594
| 58> H  -23.903   22.408   45.993
| 59> H  -23.460   22.934   48.273
| 60> H  -25.185   22.882   48.715
| 61> H  -27.101   23.931   47.395
| 62> *
| 63>
| 64>                          ****END OF INPUT****
 Total Charge           Charge          ....    0
 Multiplicity           Mult            ....    1
 Number of Electrons    NEL             ....  102
FINAL SINGLE POINT ENERGY      -652.832665400858
FINAL SINGLE POINT ENERGY      -652.856023040986
FINAL SINGLE POINT ENERGY      -652.859934600052
FINAL SINGLE POINT ENERGY      -652.860633115783
FINAL SINGLE POINT ENERGY      -652.860714746893
FINAL SINGLE POINT ENERGY      -652.860724812320
                    ***********************HURRAY********************

CARTESIAN COORDINATES (ANGSTROEM)
---------------------------------
  C    -21.054111   26.154219   46.181012
  C    -20.504382   27.562678   45.956349
  C    -20.560643   28.158574   47.383254
  C    -20.235309   26.942055   48.278428
  O    -20.468063   25.743937   47.434290
  H    -20.768209   25.405190   45.436595
  H    -19.468734   27.497809   45.601753
  H    -21.094979   28.124143   45.229482
  H    -19.854434   28.982168   47.524236
  H    -21.570677   28.525606   47.587168
  H    -20.876157   26.876815   49.160715
  H    -19.185715   26.909040   48.586586
  C    -23.279048   25.199067   45.668225
  H    -23.514896   25.463979   44.626292
  H    -22.712319   24.257693   45.668170
  O    -22.494348   26.251420   46.281831
  C    -24.577520   25.039996   46.456461
  C    -25.481727   23.913912   45.935838
  C    -24.853844   22.665926   46.611234
  C    -24.390431   23.210436   47.985701
  O    -24.336846   24.686760   47.856024
  H    -25.101296   26.000592   46.467949
  O    -26.857910   24.117739   46.359422
  H    -25.523119   23.841642   44.847649
  H    -25.589222   21.861821   46.693798
  H    -24.006489   22.298869   46.020809
  H    -23.401540   22.844647   48.276046
  H    -25.098960   22.982015   48.788107
  H    -26.861075   24.422252   47.291578

 Multiplicity           Mult            ....    1
 Number of Electrons    NEL             ....  102
 Basis Dimension        Dim             ....  149

ORBITAL ENERGIES
----------------

  NO   OCC          E(Eh)            E(eV)
   0   2.0000     -19.138642      -520.7889
   1   2.0000     -19.138478      -520.7845
   2   2.0000     -19.137949      -520.7701
   3   2.0000     -19.132504      -520.6219
   4   2.0000     -10.276442      -279.6362
   5   2.0000     -10.242818      -278.7212
   6   2.0000     -10.233776      -278.4752
   7   2.0000     -10.233048      -278.4554
   8   2.0000     -10.227419      -278.3022
   9   2.0000     -10.218348      -278.0554
  10   2.0000     -10.189034      -277.2577
  11   2.0000     -10.181159      -277.0434
  12   2.0000     -10.179900      -277.0092
  13   2.0000      -1.049386       -28.5552
  14   2.0000      -1.034291       -28.1445
  15   2.0000      -1.004761       -27.3409
  16   2.0000      -0.990179       -26.9441
  17   2.0000      -0.787754       -21.4359
  18   2.0000      -0.779065       -21.1994
  19   2.0000      -0.765367       -20.8267
  20   2.0000      -0.726845       -19.7784
  21   2.0000      -0.672414       -18.2973
  22   2.0000      -0.603000       -16.4085
  23   2.0000      -0.593039       -16.1374
  24   2.0000      -0.589383       -16.0379
  25   2.0000      -0.585152       -15.9228
  26   2.0000      -0.525712       -14.3054
  27   2.0000      -0.510244       -13.8844
  28   2.0000      -0.490040       -13.3347
  29   2.0000      -0.484177       -13.1751
  30   2.0000      -0.476495       -12.9661
  31   2.0000      -0.457130       -12.4391
  32   2.0000      -0.450807       -12.2671
  33   2.0000      -0.432537       -11.7699
  34   2.0000      -0.429188       -11.6788
  35   2.0000      -0.403838       -10.9890
  36   2.0000      -0.398021       -10.8307
  37   2.0000      -0.392220       -10.6728
  38   2.0000      -0.373381       -10.1602
  39   2.0000      -0.371095       -10.0980
  40   2.0000      -0.354330        -9.6418
  41   2.0000      -0.351127        -9.5547
  42   2.0000      -0.345346        -9.3973
  43   2.0000      -0.330256        -8.9867
  44   2.0000      -0.316065        -8.6006
  45   2.0000      -0.305312        -8.3080
  46   2.0000      -0.300589        -8.1794
  47   2.0000      -0.270487        -7.3603
  48   2.0000      -0.263526        -7.1709
  49   2.0000      -0.244060        -6.6412
  50   2.0000      -0.241126        -6.5614
  51   0.0000       0.067983         1.8499
  52   0.0000       0.083395         2.2693
  53   0.0000       0.089160         2.4262
  54   0.0000       0.102846         2.7986
  55   0.0000       0.107485         2.9248

MULLIKEN ATOMIC CHARGES
-----------------------
   0 C :    0.283672
   1 C :   -0.253764
   2 C :   -0.299399
   3 C :    0.000631
   4 O :   -0.503957
   5 H :    0.135658
   6 H :    0.140710
   7 H :    0.147929
   8 H :    0.138028
   9 H :    0.166139
  10 H :    0.156195
  11 H :    0.137340
  12 C :    0.003894
  13 H :    0.127199
  14 H :    0.133610
  15 O :   -0.511654
  16 C :    0.070348
  17 C :    0.071065
  18 C :   -0.300594
  19 C :   -0.027688
  20 O :   -0.507461
  21 H :    0.168708
  22 O :   -0.601721
  23 H :    0.151366
  24 H :    0.164495
  25 H :    0.143220
  26 H :    0.154641
  27 H :    0.145106
  28 H :    0.366284
Sum of atomic charges:   -0.0000000

LOEWDIN ATOMIC CHARGES
----------------------
   0 C :    0.175235
   1 C :   -0.218479
   2 C :   -0.215897
   3 C :   -0.025952
   4 O :   -0.321247
   5 H :    0.096141
   6 H :    0.111257
   7 H :    0.119366
   8 H :    0.112152
   9 H :    0.121147
  10 H :    0.110323
  11 H :    0.100044
  12 C :   -0.038609
  13 H :    0.094811
  14 H :    0.097098
  15 O :   -0.323606
  16 C :    0.016987
  17 C :    0.033442
  18 C :   -0.243127
  19 C :   -0.037397
  20 O :   -0.318457
  21 H :    0.120210
  22 O :   -0.414486
  23 H :    0.114727
  24 H :    0.127268
  25 H :    0.112079
  26 H :    0.108875
  27 H :    0.101994
  28 H :    0.284098

  Mayer bond orders larger than 0.100000
B(  0-C ,  1-C ) :   0.9463 B(  0-C ,  4-O ) :   0.9254 B(  0-C ,  5-H ) :   0.9203
B(  0-C , 15-O ) :   0.8533 B(  1-C ,  2-C ) :   0.9584 B(  1-C ,  6-H ) :   0.9390
B(  1-C ,  7-H ) :   0.9381 B(  2-C ,  3-C ) :   0.9549 B(  2-C ,  8-H ) :   0.9455
B(  2-C ,  9-H ) :   0.9431 B(  3-C ,  4-O ) :   0.8372 B(  3-C , 10-H ) :   0.9341
B(  3-C , 11-H ) :   0.9401 B( 12-C , 13-H ) :   0.9137 B( 12-C , 14-H ) :   0.9166
B( 12-C , 15-O ) :   0.8450 B( 12-C , 16-C ) :   0.8993 B( 16-C , 17-C ) :   0.9005
B( 16-C , 20-O ) :   0.8712 B( 16-C , 21-H ) :   0.9238 B( 17-C , 18-C ) :   0.9120
B( 17-C , 22-O ) :   0.8947 B( 17-C , 23-H ) :   0.9319 B( 18-C , 19-C ) :   0.9410
B( 18-C , 24-H ) :   0.9372 B( 18-C , 25-H ) :   0.9330 B( 19-C , 20-O ) :   0.8500
B( 19-C , 26-H ) :   0.9330 B( 19-C , 27-H ) :   0.9379 B( 22-O , 28-H ) :   0.7929

FINAL SINGLE POINT ENERGY      -652.860727202459

DIPOLE MOMENT
-------------
                                X             Y             Z
Electronic contribution:     -3.04053      -0.75125       0.60150
Nuclear contribution   :      3.63899       0.68506      -1.06282
                        -----------------------------------------
Total Dipole Moment    :      0.59846      -0.06618      -0.46132
                        -----------------------------------------
Magnitude (a.u.)       :      0.75851
Magnitude (Debye)      :      1.92799

Rotational constants in cm-1:     0.063455     0.012198     0.011549
Rotational constants in MHz :  1902.344695   365.699806   346.238508

                             ****ORCA TERMINATED NORMALLY****
TOTAL RUN TIME: 0 days 0 hours 27 minutes 56 seconds 244 msec
