                         Program Version 4.2.0 -  RELEASE  -
|  1> # Test redundant internal optimization
|  2> #
|  3> ! RKS B3LYP  Opt TightSCF SmallPrint
|  4>
|  5> %basis
|  6>         Basis "6-31G"
|  7> end
|  8>
|  9> %geom
| 10> Constraints
| 11> { D 4  0  15  12  0.0   C } # D for Dihedral angle
| 12> { D 0  15  12  16  90.0   C } # D for Dihedral angle
| 13> { D 0  4  3  2   C } # D for Dihedral angle
| 14> { D 4  3  2  1   C } # D for Dihedral angle
| 15> { D 3  2  1  0   C } # D for Dihedral angle
| 16> { D 2  1  0  4   C } # D for Dihedral angle
| 17> { D 1  0  4  3   C } # D for Dihedral angle
| 18> { D 16  20  19  18   C } # D for Dihedral angle
| 19> { D 20  19  18  17   C } # D for Dihedral angle
| 20> { D 19  18  17  16   C } # D for Dihedral angle
| 21> { D 18  17  16  20   C } # D for Dihedral angle
| 22> { D 17  16  20  19   C } # D for Dihedral angle
| 23> { D 15  12  16  20   C } # D for Dihedral angle
| 24> end
| 25> end
| 26>
| 27>
| 28> #%pal
| 29> #nprocs 8
| 30> #end
| 31>
| 32> * xyz 0 1
| 33> C  -21.048   26.222   46.251
| 34> C  -20.361   27.558   45.944
| 35> C  -20.329   28.222   47.341
| 36> C  -20.110   27.022   48.296
| 37> O  -20.473   25.807   47.535
| 38> H  -20.833   25.428   45.533
| 39> H  -19.344   27.382   45.576
| 40> H  -20.898   28.157   45.201
| 41> H  -19.543   28.978   47.434
| 42> H  -21.289   28.710   47.548
| 43> H  -20.733   27.082   49.195
| 44> H  -19.064   26.913   48.597
| 45> C  -23.172   26.101   47.783
| 46> H  -24.194   25.717   47.677
| 47> H  -22.571   25.340   48.298
| 48> O  -22.586   26.394   46.375
| 49> C  -23.216   27.362   48.690
| 50> C  -24.173   28.418   48.128
| 51> C  -25.548   27.863   48.571
| 52> C  -25.241   27.221   49.947
| 53> O  -23.776   27.029   50.004
| 54> H  -22.197   27.717   48.858
| 55> H  -23.979   29.390   48.598
| 56> O  -24.059   28.588   46.588
| 57> H  -26.318   28.638   48.634
| 58> H  -25.894   27.105   47.859
| 59> H  -25.735   26.253   50.078
| 60> H  -25.513   27.873   50.782
| 61> H  -24.250   27.628   46.097
| 62> *
| 63>
| 64>                          ****END OF INPUT****
 Total Charge           Charge          ....    0
 Multiplicity           Mult            ....    1
 Number of Electrons    NEL             ....  102
FINAL SINGLE POINT ENERGY      -652.822466091425
FINAL SINGLE POINT ENERGY      -652.848085744440
FINAL SINGLE POINT ENERGY      -652.858158208199
FINAL SINGLE POINT ENERGY      -652.861049258830
FINAL SINGLE POINT ENERGY      -652.862288950316
FINAL SINGLE POINT ENERGY      -652.862748404091
FINAL SINGLE POINT ENERGY      -652.862877982098
FINAL SINGLE POINT ENERGY      -652.862907583652
                    ***********************HURRAY********************

CARTESIAN COORDINATES (ANGSTROEM)
---------------------------------
  C    -21.103428   26.215272   46.380991
  C    -20.480124   27.530866   45.913412
  C    -20.220726   28.255379   47.256874
  C    -19.846723   27.101445   48.212541
  O    -20.342478   25.857266   47.546142
  H    -20.973128   25.391714   45.674755
  H    -19.542448   27.305770   45.393594
  H    -21.133212   28.094844   45.243535
  H    -19.421764   28.999348   47.182643
  H    -21.130984   28.772184   47.573989
  H    -20.299491   27.173982   49.204227
  H    -18.766075   26.975920   48.322240
  C    -23.191829   26.055623   47.876878
  H    -24.174623   25.649908   47.624784
  H    -22.627354   25.298689   48.428504
  O    -22.555166   26.309693   46.576792
  C    -23.322522   27.311018   48.746791
  C    -24.228243   28.405499   48.160148
  C    -25.643261   27.858165   48.501602
  C    -25.436578   27.168812   49.866612
  O    -23.965046   26.945663   50.009929
  H    -22.338064   27.693763   49.014369
  H    -24.060924   29.343508   48.699377
  O    -24.002571   28.692937   46.762964
  H    -26.389134   28.656766   48.539701
  H    -25.953456   27.149295   47.726067
  H    -25.947172   26.204656   49.947305
  H    -25.738351   27.800172   50.707244
  H    -23.612125   27.899840   46.323989

 Multiplicity           Mult            ....    1
 Number of Electrons    NEL             ....  102
 Basis Dimension        Dim             ....  149

ORBITAL ENERGIES
----------------

  NO   OCC          E(Eh)            E(eV)
   0   2.0000     -19.159546      -521.3578
   1   2.0000     -19.156203      -521.2668
   2   2.0000     -19.141644      -520.8706
   3   2.0000     -19.122668      -520.3543
   4   2.0000     -10.289207      -279.9836
   5   2.0000     -10.238099      -278.5928
   6   2.0000     -10.234420      -278.4927
   7   2.0000     -10.233843      -278.4770
   8   2.0000     -10.232877      -278.4507
   9   2.0000     -10.228683      -278.3366
  10   2.0000     -10.194968      -277.4192
  11   2.0000     -10.193374      -277.3758
  12   2.0000     -10.182682      -277.0849
  13   2.0000      -1.062884       -28.9225
  14   2.0000      -1.026895       -27.9432
  15   2.0000      -1.005901       -27.3720
  16   2.0000      -0.996409       -27.1137
  17   2.0000      -0.796952       -21.6862
  18   2.0000      -0.776508       -21.1299
  19   2.0000      -0.770578       -20.9685
  20   2.0000      -0.737703       -20.0739
  21   2.0000      -0.681169       -18.5356
  22   2.0000      -0.610349       -16.6085
  23   2.0000      -0.602619       -16.3981
  24   2.0000      -0.598520       -16.2866
  25   2.0000      -0.577364       -15.7109
  26   2.0000      -0.531030       -14.4501
  27   2.0000      -0.512956       -13.9582
  28   2.0000      -0.504969       -13.7409
  29   2.0000      -0.488062       -13.2808
  30   2.0000      -0.477281       -12.9875
  31   2.0000      -0.460421       -12.5287
  32   2.0000      -0.449721       -12.2375
  33   2.0000      -0.427522       -11.6335
  34   2.0000      -0.425909       -11.5896
  35   2.0000      -0.415083       -11.2950
  36   2.0000      -0.412610       -11.2277
  37   2.0000      -0.392755       -10.6874
  38   2.0000      -0.381879       -10.3915
  39   2.0000      -0.371323       -10.1042
  40   2.0000      -0.366888        -9.9835
  41   2.0000      -0.357487        -9.7277
  42   2.0000      -0.350311        -9.5324
  43   2.0000      -0.347988        -9.4692
  44   2.0000      -0.330496        -8.9933
  45   2.0000      -0.318653        -8.6710
  46   2.0000      -0.293818        -7.9952
  47   2.0000      -0.274913        -7.4808
  48   2.0000      -0.272573        -7.4171
  49   2.0000      -0.253698        -6.9035
  50   2.0000      -0.238687        -6.4950
  51   0.0000       0.059212         1.6113
  52   0.0000       0.073025         1.9871
  53   0.0000       0.086924         2.3653
  54   0.0000       0.091636         2.4935
  55   0.0000       0.100666         2.7392

MULLIKEN ATOMIC CHARGES
-----------------------
   0 C :    0.316202
   1 C :   -0.272393
   2 C :   -0.323063
   3 C :   -0.027385
   4 O :   -0.509858
   5 H :    0.164178
   6 H :    0.153153
   7 H :    0.165865
   8 H :    0.152422
   9 H :    0.170953
  10 H :    0.160775
  11 H :    0.156254
  12 C :   -0.036252
  13 H :    0.156506
  14 H :    0.182099
  15 O :   -0.568117
  16 C :    0.049992
  17 C :    0.117980
  18 C :   -0.311989
  19 C :   -0.017831
  20 O :   -0.522074
  21 H :    0.148072
  22 H :    0.147406
  23 O :   -0.639533
  24 H :    0.155292
  25 H :    0.147259
  26 H :    0.144563
  27 H :    0.148764
  28 H :    0.390759
Sum of atomic charges:   -0.0000000

LOEWDIN ATOMIC CHARGES
----------------------
   0 C :    0.184494
   1 C :   -0.220966
   2 C :   -0.224577
   3 C :   -0.034582
   4 O :   -0.313245
   5 H :    0.107651
   6 H :    0.118929
   7 H :    0.127632
   8 H :    0.120558
   9 H :    0.118542
  10 H :    0.107679
  11 H :    0.110201
  12 C :   -0.047977
  13 H :    0.112848
  14 H :    0.124934
  15 O :   -0.351261
  16 C :    0.003618
  17 C :    0.039692
  18 C :   -0.240128
  19 C :   -0.031161
  20 O :   -0.323726
  21 H :    0.108559
  22 H :    0.106218
  23 O :   -0.432255
  24 H :    0.122475
  25 H :    0.112158
  26 H :    0.103211
  27 H :    0.105930
  28 H :    0.284549

  Mayer bond orders larger than 0.100000
B(  0-C ,  1-C ) :   0.9312 B(  0-C ,  4-O ) :   0.9277 B(  0-C ,  5-H ) :   0.9314
B(  0-C , 15-O ) :   0.8076 B(  1-C ,  2-C ) :   0.9507 B(  1-C ,  6-H ) :   0.9348
B(  1-C ,  7-H ) :   0.9334 B(  2-C ,  3-C ) :   0.9518 B(  2-C ,  8-H ) :   0.9435
B(  2-C ,  9-H ) :   0.9280 B(  3-C ,  4-O ) :   0.8220 B(  3-C , 10-H ) :   0.9235
B(  3-C , 11-H ) :   0.9376 B( 12-C , 13-H ) :   0.9360 B( 12-C , 14-H ) :   0.9201
B( 12-C , 15-O ) :   0.7946 B( 12-C , 16-C ) :   0.8870 B( 16-C , 17-C ) :   0.9070
B( 16-C , 20-O ) :   0.8473 B( 16-C , 21-H ) :   0.9191 B( 17-C , 18-C ) :   0.9034
B( 17-C , 22-H ) :   0.9346 B( 17-C , 23-O ) :   0.9248 B( 18-C , 19-C ) :   0.9399
B( 18-C , 24-H ) :   0.9435 B( 18-C , 25-H ) :   0.9427 B( 19-C , 20-O ) :   0.8326
B( 19-C , 26-H ) :   0.9338 B( 19-C , 27-H ) :   0.9387 B( 23-O , 28-H ) :   0.7233

FINAL SINGLE POINT ENERGY      -652.862909407707

DIPOLE MOMENT
-------------
                                X             Y             Z
Electronic contribution:      0.09276      -2.77625      -0.40301
Nuclear contribution   :      0.22386       2.95210       0.38813
                        -----------------------------------------
Total Dipole Moment    :      0.31662       0.17585      -0.01488
                        -----------------------------------------
Magnitude (a.u.)       :      0.36248
Magnitude (Debye)      :      0.92136

Rotational constants in cm-1:     0.049447     0.017043     0.015731
Rotational constants in MHz :  1482.394802   510.922375   471.596047

                             ****ORCA TERMINATED NORMALLY****
TOTAL RUN TIME: 0 days 0 hours 51 minutes 49 seconds 479 msec
