                         Program Version 4.2.0 -  RELEASE  -
|  1> # Test redundant internal optimization
|  2> #
|  3> ! RKS B3LYP  Opt TightSCF SmallPrint
|  4>
|  5> %basis
|  6>         Basis "6-31G"
|  7> end
|  8>
|  9> %geom
| 10> Constraints
| 11> { D 4  0  15  12  255.0   C } # D for Dihedral angle
| 12> { D 0  15  12  16  300.0   C } # D for Dihedral angle
| 13> { D 0  4  3  2   C } # D for Dihedral angle
| 14> { D 4  3  2  1   C } # D for Dihedral angle
| 15> { D 3  2  1  0   C } # D for Dihedral angle
| 16> { D 2  1  0  4   C } # D for Dihedral angle
| 17> { D 1  0  4  3   C } # D for Dihedral angle
| 18> { D 16  20  19  18   C } # D for Dihedral angle
| 19> { D 20  19  18  17   C } # D for Dihedral angle
| 20> { D 19  18  17  16   C } # D for Dihedral angle
| 21> { D 18  17  16  20   C } # D for Dihedral angle
| 22> { D 17  16  20  19   C } # D for Dihedral angle
| 23> { D 15  12  16  20   C } # D for Dihedral angle
| 24> end
| 25> end
| 26>
| 27>
| 28> #%pal
| 29> #nprocs 8
| 30> #end
| 31>
| 32> * xyz 0 1
| 33> C  -21.048   26.222   46.251
| 34> C  -20.361   27.558   45.944
| 35> C  -20.329   28.222   47.341
| 36> C  -20.110   27.022   48.296
| 37> O  -20.473   25.807   47.535
| 38> H  -20.833   25.428   45.533
| 39> H  -19.344   27.382   45.576
| 40> H  -20.898   28.157   45.201
| 41> H  -19.543   28.978   47.434
| 42> H  -21.289   28.710   47.548
| 43> H  -20.733   27.082   49.195
| 44> H  -19.064   26.913   48.597
| 45> C  -23.431   25.260   45.734
| 46> H  -23.188   24.307   46.221
| 47> H  -24.503   25.453   45.874
| 48> O  -22.586   26.394   46.375
| 49> C  -23.174   25.108   44.209
| 50> C  -24.106   24.061   43.589
| 51> C  -25.423   24.860   43.444
| 52> C  -24.931   26.290   43.105
| 53> O  -23.510   26.351   43.506
| 54> H  -22.111   24.923   44.042
| 55> O  -23.571   23.629   42.196
| 56> H  -24.219   23.165   44.208
| 57> H  -26.085   24.453   42.672
| 58> H  -25.973   24.856   44.392
| 59> H  -25.490   27.064   43.644
| 60> H  -24.974   26.503   42.033
| 61> H  -23.450   24.511   41.558
| 62> *
| 63>
| 64>                          ****END OF INPUT****
 Total Charge           Charge          ....    0
 Multiplicity           Mult            ....    1
 Number of Electrons    NEL             ....  102
FINAL SINGLE POINT ENERGY      -652.832554642443
FINAL SINGLE POINT ENERGY      -652.855492250352
FINAL SINGLE POINT ENERGY      -652.859940710499
FINAL SINGLE POINT ENERGY      -652.860702725520
FINAL SINGLE POINT ENERGY      -652.860817025935
FINAL SINGLE POINT ENERGY      -652.860827294544
                    ***********************HURRAY********************

CARTESIAN COORDINATES (ANGSTROEM)
---------------------------------
  C    -21.018558   26.183021   46.175966
  C    -20.430303   27.571944   45.928120
  C    -20.451465   28.182802   47.347966
  C    -20.151236   26.968625   48.255119
  O    -20.428597   25.766140   47.429857
  H    -20.753139   25.418986   45.442877
  H    -19.401949   27.472098   45.560814
  H    -21.018617   28.134752   45.201058
  H    -19.719897   28.986966   47.472515
  H    -21.447476   28.583162   47.558911
  H    -20.780279   26.935310   49.148275
  H    -19.099361   26.909097   48.551274
  C    -23.311377   25.308761   45.724400
  H    -23.134380   24.340014   46.218145
  H    -24.321454   25.642225   45.973795
  O    -22.452275   26.326948   46.302154
  C    -23.156672   25.128316   44.210555
  C    -24.125379   24.089951   43.624898
  C    -25.425353   24.923646   43.469381
  C    -24.895615   26.329278   43.088789
  O    -23.465129   26.360400   43.477675
  H    -22.126058   24.867699   43.954062
  O    -23.644214   23.596073   42.344934
  H    -24.251960   23.201452   44.244840
  H    -26.072323   24.488482   42.703666
  H    -25.977934   24.946742   44.414829
  H    -25.422482   27.135311   43.607271
  H    -24.941386   26.517690   42.011681
  H    -23.325131   24.353110   41.809171

 Multiplicity           Mult            ....    1
 Number of Electrons    NEL             ....  102
 Basis Dimension        Dim             ....  149

ORBITAL ENERGIES
----------------

  NO   OCC          E(Eh)            E(eV)
   0   2.0000     -19.146536      -521.0037
   1   2.0000     -19.143326      -520.9164
   2   2.0000     -19.138859      -520.7948
   3   2.0000     -19.131953      -520.6069
   4   2.0000     -10.273736      -279.5626
   5   2.0000     -10.248043      -278.8634
   6   2.0000     -10.239412      -278.6286
   7   2.0000     -10.235036      -278.5095
   8   2.0000     -10.234010      -278.4816
   9   2.0000     -10.218461      -278.0584
  10   2.0000     -10.194496      -277.4063
  11   2.0000     -10.178481      -276.9705
  12   2.0000     -10.176965      -276.9293
  13   2.0000      -1.048915       -28.5424
  14   2.0000      -1.039447       -28.2848
  15   2.0000      -1.010612       -27.5001
  16   2.0000      -0.989035       -26.9130
  17   2.0000      -0.790174       -21.5017
  18   2.0000      -0.779569       -21.2131
  19   2.0000      -0.767740       -20.8913
  20   2.0000      -0.730698       -19.8833
  21   2.0000      -0.674682       -18.3590
  22   2.0000      -0.609567       -16.5872
  23   2.0000      -0.607389       -16.5279
  24   2.0000      -0.591088       -16.0843
  25   2.0000      -0.570477       -15.5235
  26   2.0000      -0.531253       -14.4561
  27   2.0000      -0.513382       -13.9698
  28   2.0000      -0.491727       -13.3806
  29   2.0000      -0.488269       -13.2865
  30   2.0000      -0.473438       -12.8829
  31   2.0000      -0.455476       -12.3941
  32   2.0000      -0.453465       -12.3394
  33   2.0000      -0.439132       -11.9494
  34   2.0000      -0.428313       -11.6550
  35   2.0000      -0.410469       -11.1694
  36   2.0000      -0.399269       -10.8647
  37   2.0000      -0.394520       -10.7354
  38   2.0000      -0.377322       -10.2674
  39   2.0000      -0.369511       -10.0549
  40   2.0000      -0.360209        -9.8018
  41   2.0000      -0.350298        -9.5321
  42   2.0000      -0.345779        -9.4091
  43   2.0000      -0.335912        -9.1406
  44   2.0000      -0.317197        -8.6314
  45   2.0000      -0.310977        -8.4621
  46   2.0000      -0.300189        -8.1686
  47   2.0000      -0.276944        -7.5360
  48   2.0000      -0.267619        -7.2823
  49   2.0000      -0.248097        -6.7511
  50   2.0000      -0.238972        -6.5028
  51   0.0000       0.062425         1.6987
  52   0.0000       0.086397         2.3510
  53   0.0000       0.088622         2.4115
  54   0.0000       0.091903         2.5008
  55   0.0000       0.098542         2.6815

MULLIKEN ATOMIC CHARGES
-----------------------
   0 C :    0.279985
   1 C :   -0.253355
   2 C :   -0.300046
   3 C :   -0.000445
   4 O :   -0.510839
   5 H :    0.140624
   6 H :    0.139191
   7 H :    0.165667
   8 H :    0.138211
   9 H :    0.163028
  10 H :    0.147048
  11 H :    0.138569
  12 C :    0.004224
  13 H :    0.134996
  14 H :    0.150695
  15 O :   -0.511048
  16 C :    0.045323
  17 C :    0.076032
  18 C :   -0.299852
  19 C :   -0.028274
  20 O :   -0.516899
  21 H :    0.163446
  22 O :   -0.600028
  23 H :    0.156320
  24 H :    0.166810
  25 H :    0.146511
  26 H :    0.152315
  27 H :    0.147135
  28 H :    0.364656
Sum of atomic charges:   -0.0000000

LOEWDIN ATOMIC CHARGES
----------------------
   0 C :    0.173195
   1 C :   -0.217013
   2 C :   -0.216468
   3 C :   -0.027012
   4 O :   -0.325229
   5 H :    0.097065
   6 H :    0.110909
   7 H :    0.127850
   8 H :    0.112197
   9 H :    0.119539
  10 H :    0.105366
  11 H :    0.100586
  12 C :   -0.038051
  13 H :    0.099324
  14 H :    0.114316
  15 O :   -0.319535
  16 C :    0.000506
  17 C :    0.036058
  18 C :   -0.241225
  19 C :   -0.037209
  20 O :   -0.328330
  21 H :    0.112719
  22 O :   -0.413027
  23 H :    0.117497
  24 H :    0.128139
  25 H :    0.114134
  26 H :    0.107405
  27 H :    0.103069
  28 H :    0.283223

  Mayer bond orders larger than 0.100000
B(  0-C ,  1-C ) :   0.9466 B(  0-C ,  4-O ) :   0.9144 B(  0-C ,  5-H ) :   0.9151
B(  0-C , 15-O ) :   0.8479 B(  1-C ,  2-C ) :   0.9574 B(  1-C ,  6-H ) :   0.9394
B(  1-C ,  7-H ) :   0.9336 B(  2-C ,  3-C ) :   0.9544 B(  2-C ,  8-H ) :   0.9455
B(  2-C ,  9-H ) :   0.9439 B(  3-C ,  4-O ) :   0.8407 B(  3-C , 10-H ) :   0.9355
B(  3-C , 11-H ) :   0.9402 B( 12-C , 13-H ) :   0.9101 B( 12-C , 14-H ) :   0.9399
B( 12-C , 15-O ) :   0.8638 B( 12-C , 16-C ) :   0.8826 B( 16-C , 17-C ) :   0.8956
B( 16-C , 20-O ) :   0.8597 B( 16-C , 21-H ) :   0.9170 B( 17-C , 18-C ) :   0.9129
B( 17-C , 22-O ) :   0.8923 B( 17-C , 23-H ) :   0.9319 B( 18-C , 19-C ) :   0.9403
B( 18-C , 24-H ) :   0.9369 B( 18-C , 25-H ) :   0.9335 B( 19-C , 20-O ) :   0.8476
B( 19-C , 26-H ) :   0.9338 B( 19-C , 27-H ) :   0.9378 B( 22-O , 28-H ) :   0.7942

FINAL SINGLE POINT ENERGY      -652.860828760981

DIPOLE MOMENT
-------------
                                X             Y             Z
Electronic contribution:      0.57877      -2.92430      -1.33704
Nuclear contribution   :     -1.10245       3.46712       1.16821
                        -----------------------------------------
Total Dipole Moment    :     -0.52368       0.54282      -0.16883
                        -----------------------------------------
Magnitude (a.u.)       :      0.77291
Magnitude (Debye)      :      1.96459

Rotational constants in cm-1:     0.066062     0.011841     0.011343
Rotational constants in MHz :  1980.492788   354.971123   340.062698

                             ****ORCA TERMINATED NORMALLY****
TOTAL RUN TIME: 0 days 0 hours 46 minutes 26 seconds 743 msec
