                         Program Version 4.2.1 -  RELEASE  -
|  1> # Test redundant internal optimization
|  2> #
|  3> ! RKS B3LYP  Opt TightSCF SmallPrint
|  4>
|  5> %basis
|  6>         Basis "6-31G"
|  7> end
|  8>
|  9> %geom
| 10> Constraints
| 11> { D 4  0  19  14  180.0   C } # D for Dihedral angle
| 12> { D 0  19  14  12  330.0   C } # D for Dihedral angle
| 13> { D 0  4  3  2   C } # D for Dihedral angle
| 14> { D 4  3  2  1   C } # D for Dihedral angle
| 15> { D 3  2  1  0   C } # D for Dihedral angle
| 16> { D 2  1  0  4   C } # D for Dihedral angle
| 17> { D 1  0  4  3   C } # D for Dihedral angle
| 18> { D 14  15  16  17   C } # D for Dihedral angle
| 19> { D 15  16  17  12   C } # D for Dihedral angle
| 20> { D 16  17  12  14   C } # D for Dihedral angle
| 21> { D 17  12  14  15   C } # D for Dihedral angle
| 22> { D 12  14  15  16   C } # D for Dihedral angle
| 23> end
| 24> end
| 25>
| 26>
| 27> #%pal
| 28> #nprocs 8
| 29> #end
| 30>
| 31> * xyz 0 1
| 32> C  -21.048   26.222   46.251
| 33> C  -20.361   27.558   45.944
| 34> C  -20.329   28.222   47.341
| 35> C  -20.110   27.022   48.296
| 36> O  -20.473   25.807   47.535
| 37> H  -20.833   25.428   45.533
| 38> H  -19.344   27.382   45.576
| 39> H  -20.898   28.157   45.201
| 40> H  -19.543   28.978   47.434
| 41> H  -21.289   28.710   47.548
| 42> H  -20.733   27.082   49.195
| 43> H  -19.064   26.913   48.597
| 44> C  -22.168   27.636   44.302
| 45> H  -22.712   28.195   43.525
| 46> C  -23.122   26.788   45.152
| 47> C  -23.367   25.571   44.229
| 48> C  -22.001   25.384   43.523
| 49> O  -21.264   26.656   43.689
| 50> H  -21.548   28.328   44.874
| 51> O  -22.472   26.381   46.366
| 52> H  -24.047   27.314   45.414
| 53> H  -23.679   24.677   44.778
| 54> H  -24.151   25.804   43.497
| 55> H  -22.106   25.168   42.454
| 56> H  -21.396   24.598   43.985
| 57> *
| 58>
| 59>                          ****END OF INPUT****
 Total Charge           Charge          ....    0
 Multiplicity           Mult            ....    1
 Number of Electrons    NEL             ....   86
FINAL SINGLE POINT ENERGY      -538.284552633929
FINAL SINGLE POINT ENERGY      -538.346698279305
FINAL SINGLE POINT ENERGY      -538.380001325470
FINAL SINGLE POINT ENERGY      -538.399001246044
FINAL SINGLE POINT ENERGY      -538.409712059861
FINAL SINGLE POINT ENERGY      -538.415721192854
FINAL SINGLE POINT ENERGY      -538.419097137507
FINAL SINGLE POINT ENERGY      -538.420919244162
FINAL SINGLE POINT ENERGY      -538.421614024631
FINAL SINGLE POINT ENERGY      -538.421763904267
FINAL SINGLE POINT ENERGY      -538.421949210672
FINAL SINGLE POINT ENERGY      -538.421951403390
FINAL SINGLE POINT ENERGY      -538.421953874809
FINAL SINGLE POINT ENERGY      -538.421957912000
FINAL SINGLE POINT ENERGY      -538.421964080546
FINAL SINGLE POINT ENERGY      -538.421973321963
FINAL SINGLE POINT ENERGY      -538.421980207950
FINAL SINGLE POINT ENERGY      -538.421982590706
FINAL SINGLE POINT ENERGY      -538.421974819262
                    ***********************HURRAY********************

CARTESIAN COORDINATES (ANGSTROEM)
---------------------------------
  C    -20.792887   26.237663   46.308289
  C    -19.975896   27.515978   46.120103
  C    -20.203674   28.250173   47.468909
  C    -20.271468   27.081551   48.474477
  O    -20.538830   25.868277   47.670161
  H    -20.479573   25.405041   45.673554
  H    -18.923698   27.217608   46.028114
  H    -20.222170   28.101493   45.239504
  H    -19.402652   28.958013   47.701493
  H    -21.152632   28.795395   47.444318
  H    -21.070178   27.193875   49.212520
  H    -19.321534   26.913287   48.991711
  C    -22.433672   27.670586   44.024720
  H    -23.235453   28.103905   43.407874
  C    -23.059797   26.764140   45.087465
  C    -23.379218   25.500427   44.264774
  C    -22.214653   25.419815   43.252760
  O    -21.597405   26.773243   43.221150
  H    -21.811921   28.479458   44.400590
  O    -22.251793   26.391887   46.251197
  H    -23.954326   27.207721   45.531639
  H    -23.447715   24.629966   44.920244
  H    -24.337579   25.620072   43.744946
  H    -22.545490   25.164840   42.240929
  H    -21.433784   24.716587   43.557560

 Multiplicity           Mult            ....    1
 Number of Electrons    NEL             ....   86
 Basis Dimension        Dim             ....  127

ORBITAL ENERGIES
----------------

  NO   OCC          E(Eh)            E(eV)
   0   2.0000     -19.140456      -520.8383
   1   2.0000     -19.134338      -520.6718
   2   2.0000     -19.131211      -520.5867
   3   2.0000     -10.276646      -279.6418
   4   2.0000     -10.242766      -278.7198
   5   2.0000     -10.230808      -278.3944
   6   2.0000     -10.227939      -278.3164
   7   2.0000     -10.220863      -278.1238
   8   2.0000     -10.184925      -277.1459
   9   2.0000     -10.183922      -277.1186
  10   2.0000     -10.181355      -277.0487
  11   2.0000      -1.046703       -28.4822
  12   2.0000      -1.020724       -27.7753
  13   2.0000      -0.980428       -26.6788
  14   2.0000      -0.786481       -21.4012
  15   2.0000      -0.779138       -21.2014
  16   2.0000      -0.744304       -20.2535
  17   2.0000      -0.725052       -19.7297
  18   2.0000      -0.618996       -16.8437
  19   2.0000      -0.604417       -16.4470
  20   2.0000      -0.595013       -16.1911
  21   2.0000      -0.565411       -15.3856
  22   2.0000      -0.515162       -14.0183
  23   2.0000      -0.503965       -13.7136
  24   2.0000      -0.488492       -13.2926
  25   2.0000      -0.483431       -13.1548
  26   2.0000      -0.451813       -12.2945
  27   2.0000      -0.443152       -12.0588
  28   2.0000      -0.435112       -11.8400
  29   2.0000      -0.413401       -11.2492
  30   2.0000      -0.401269       -10.9191
  31   2.0000      -0.391545       -10.6545
  32   2.0000      -0.377601       -10.2751
  33   2.0000      -0.365575        -9.9478
  34   2.0000      -0.361709        -9.8426
  35   2.0000      -0.350808        -9.5460
  36   2.0000      -0.345662        -9.4059
  37   2.0000      -0.320013        -8.7080
  38   2.0000      -0.303788        -8.2665
  39   2.0000      -0.286661        -7.8004
  40   2.0000      -0.256542        -6.9808
  41   2.0000      -0.252551        -6.8723
  42   2.0000      -0.238541        -6.4910
  43   0.0000       0.073412         1.9976
  44   0.0000       0.090711         2.4684
  45   0.0000       0.099373         2.7041
  46   0.0000       0.103021         2.8033
  47   0.0000       0.107525         2.9259

MULLIKEN ATOMIC CHARGES
-----------------------
   0 C :    0.312167
   1 C :   -0.278740
   2 C :   -0.301725
   3 C :    0.001719
   4 O :   -0.498749
   5 H :    0.146099
   6 H :    0.148711
   7 H :    0.157596
   8 H :    0.141005
   9 H :    0.150478
  10 H :    0.150942
  11 H :    0.141305
  12 C :   -0.029719
  13 H :    0.134680
  14 C :    0.089191
  15 C :   -0.290447
  16 C :   -0.020821
  17 O :   -0.528916
  18 H :    0.153369
  19 O :   -0.531184
  20 H :    0.149078
  21 H :    0.171169
  22 H :    0.138046
  23 H :    0.143637
  24 H :    0.151111
Sum of atomic charges:   -0.0000000

LOEWDIN ATOMIC CHARGES
----------------------
   0 C :    0.190293
   1 C :   -0.229119
   2 C :   -0.219168
   3 C :   -0.025902
   4 O :   -0.302700
   5 H :    0.098149
   6 H :    0.117959
   7 H :    0.120638
   8 H :    0.113741
   9 H :    0.112246
  10 H :    0.107488
  11 H :    0.101493
  12 C :   -0.052874
  13 H :    0.098862
  14 C :    0.044183
  15 C :   -0.234501
  16 C :   -0.033946
  17 O :   -0.339519
  18 H :    0.111799
  19 O :   -0.341644
  20 H :    0.113866
  21 H :    0.130820
  22 H :    0.111444
  23 H :    0.102804
  24 H :    0.103587

  Mayer bond orders larger than 0.100000
B(  0-C ,  1-C ) :   0.9283 B(  0-C ,  4-O ) :   0.9284 B(  0-C ,  5-H ) :   0.9178
B(  0-C , 19-O ) :   0.8267 B(  1-C ,  2-C ) :   0.9497 B(  1-C ,  6-H ) :   0.9319
B(  1-C ,  7-H ) :   0.9212 B(  2-C ,  3-C ) :   0.9534 B(  2-C ,  8-H ) :   0.9449
B(  2-C ,  9-H ) :   0.9458 B(  3-C ,  4-O ) :   0.8366 B(  3-C , 10-H ) :   0.9353
B(  3-C , 11-H ) :   0.9395 B( 12-C , 13-H ) :   0.9133 B( 12-C , 14-C ) :   0.9166
B( 12-C , 17-O ) :   0.8558 B( 12-C , 18-H ) :   0.9216 B( 14-C , 15-C ) :   0.9249
B( 14-C , 19-O ) :   0.8720 B( 14-C , 20-H ) :   0.9334 B( 15-C , 16-C ) :   0.9475
B( 15-C , 21-H ) :   0.9363 B( 15-C , 22-H ) :   0.9391 B( 16-C , 17-O ) :   0.8432
B( 16-C , 23-H ) :   0.9348 B( 16-C , 24-H ) :   0.9337

FINAL SINGLE POINT ENERGY      -538.421972843891

DIPOLE MOMENT
-------------
                                X             Y             Z
Electronic contribution:     -0.22227      -2.21903       0.61454
Nuclear contribution   :     -0.10544       2.87752      -0.91359
                        -----------------------------------------
Total Dipole Moment    :     -0.32772       0.65849      -0.29905
                        -----------------------------------------
Magnitude (a.u.)       :      0.79400
Magnitude (Debye)      :      2.01819

Rotational constants in cm-1:     0.078094     0.023436     0.021812
Rotational constants in MHz :  2341.206882   702.602471   653.920410

                             ****ORCA TERMINATED NORMALLY****
TOTAL RUN TIME: 0 days 0 hours 57 minutes 33 seconds 672 msec
