                         Program Version 4.2.0 -  RELEASE  -
|  1> # Test redundant internal optimization
|  2> #
|  3> ! RKS B3LYP  Opt TightSCF SmallPrint
|  4>
|  5> %basis
|  6>         Basis "6-31G"
|  7> end
|  8>
|  9> %geom
| 10> Constraints
| 11> { D 4  0  15  12  345.0   C } # D for Dihedral angle
| 12> { D 0  15  12  16  60.0   C } # D for Dihedral angle
| 13> { D 0  4  3  2   C } # D for Dihedral angle
| 14> { D 4  3  2  1   C } # D for Dihedral angle
| 15> { D 3  2  1  0   C } # D for Dihedral angle
| 16> { D 2  1  0  4   C } # D for Dihedral angle
| 17> { D 1  0  4  3   C } # D for Dihedral angle
| 18> { D 16  20  19  18   C } # D for Dihedral angle
| 19> { D 20  19  18  17   C } # D for Dihedral angle
| 20> { D 19  18  17  16   C } # D for Dihedral angle
| 21> { D 18  17  16  20   C } # D for Dihedral angle
| 22> { D 17  16  20  19   C } # D for Dihedral angle
| 23> { D 15  12  16  20   C } # D for Dihedral angle
| 24> end
| 25> end
| 26>
| 27>
| 28> #%pal
| 29> #nprocs 8
| 30> #end
| 31>
| 32> * xyz 0 1
| 33> C  -21.048   26.222   46.251
| 34> C  -20.361   27.558   45.944
| 35> C  -20.329   28.222   47.341
| 36> C  -20.110   27.022   48.296
| 37> O  -20.473   25.807   47.535
| 38> H  -20.833   25.428   45.533
| 39> H  -19.344   27.382   45.576
| 40> H  -20.898   28.157   45.201
| 41> H  -19.543   28.978   47.434
| 42> H  -21.289   28.710   47.548
| 43> H  -20.733   27.082   49.195
| 44> H  -19.064   26.913   48.597
| 45> C  -23.221   25.764   47.645
| 46> H  -24.305   25.934   47.630
| 47> H  -23.043   24.681   47.667
| 48> O  -22.586   26.394   46.375
| 49> C  -22.651   26.363   48.961
| 50> C  -23.004   27.848   49.096
| 51> C  -24.471   27.779   49.581
| 52> C  -24.484   26.519   50.483
| 53> O  -23.283   25.734   50.126
| 54> H  -21.583   26.144   49.020
| 55> O  -22.101   28.515   50.170
| 56> H  -22.892   28.404   48.159
| 57> H  -24.783   28.680   50.119
| 58> H  -25.145   27.649   48.726
| 59> H  -25.375   25.902   50.328
| 60> H  -24.405   26.765   51.545
| 61> H  -22.198   27.974   51.119
| 62> *
| 63>
| 64>                          ****END OF INPUT****
 Total Charge           Charge          ....    0
 Multiplicity           Mult            ....    1
 Number of Electrons    NEL             ....  102
FINAL SINGLE POINT ENERGY      -652.793419715847
FINAL SINGLE POINT ENERGY      -652.833060403713
FINAL SINGLE POINT ENERGY      -652.853610044191
FINAL SINGLE POINT ENERGY      -652.857544408052
FINAL SINGLE POINT ENERGY      -652.858029704239
FINAL SINGLE POINT ENERGY      -652.858119071909
FINAL SINGLE POINT ENERGY      -652.858131075774
FINAL SINGLE POINT ENERGY      -652.858134276265
                    ***********************HURRAY********************

CARTESIAN COORDINATES (ANGSTROEM)
---------------------------------
  C    -21.037116   26.222009   46.370885
  C    -20.445707   27.530254   45.839941
  C    -20.125691   28.285875   47.152271
  C    -19.697036   27.161512   48.119180
  O    -20.215321   25.891252   47.511264
  H    -20.888338   25.382566   45.681439
  H    -19.531559   27.297857   45.283158
  H    -21.139041   28.065499   45.187485
  H    -19.337044   29.033816   47.022205
  H    -21.014363   28.802974   47.522249
  H    -20.106869   27.286426   49.123366
  H    -18.611785   27.041867   48.180242
  C    -23.161693   25.774756   47.745530
  H    -24.214005   25.979836   47.528782
  H    -23.034964   24.684663   47.796795
  O    -22.476614   26.304076   46.570096
  C    -22.777476   26.331147   49.119404
  C    -23.064002   27.823459   49.337363
  C    -24.586650   27.812167   49.626118
  C    -24.787314   26.487565   50.407242
  O    -23.590880   25.653824   50.137229
  H    -21.745185   26.069833   49.342153
  O    -22.282560   28.350846   50.447106
  H    -22.807460   28.442413   48.479615
  H    -24.881432   28.694472   50.200291
  H    -25.146347   27.811836   48.685550
  H    -25.682291   25.941152   50.093731
  H    -24.834909   26.641571   51.490003
  H    -22.331351   27.724477   51.200305

 Multiplicity           Mult            ....    1
 Number of Electrons    NEL             ....  102
 Basis Dimension        Dim             ....  149

ORBITAL ENERGIES
----------------

  NO   OCC          E(Eh)            E(eV)
   0   2.0000     -19.150162      -521.1024
   1   2.0000     -19.145900      -520.9864
   2   2.0000     -19.144840      -520.9576
   3   2.0000     -19.140563      -520.8412
   4   2.0000     -10.278122      -279.6819
   5   2.0000     -10.241542      -278.6865
   6   2.0000     -10.233299      -278.4622
   7   2.0000     -10.229390      -278.3559
   8   2.0000     -10.229253      -278.3521
   9   2.0000     -10.226807      -278.2856
  10   2.0000     -10.191219      -277.3172
  11   2.0000     -10.187711      -277.2217
  12   2.0000     -10.186187      -277.1802
  13   2.0000      -1.049985       -28.5715
  14   2.0000      -1.038486       -28.2586
  15   2.0000      -1.009981       -27.4830
  16   2.0000      -0.992875       -27.0175
  17   2.0000      -0.790164       -21.5015
  18   2.0000      -0.782654       -21.2971
  19   2.0000      -0.768407       -20.9094
  20   2.0000      -0.732095       -19.9213
  21   2.0000      -0.676660       -18.4129
  22   2.0000      -0.607942       -16.5429
  23   2.0000      -0.604543       -16.4504
  24   2.0000      -0.598781       -16.2937
  25   2.0000      -0.570709       -15.5298
  26   2.0000      -0.526974       -14.3397
  27   2.0000      -0.511813       -13.9271
  28   2.0000      -0.495434       -13.4814
  29   2.0000      -0.486028       -13.2255
  30   2.0000      -0.477109       -12.9828
  31   2.0000      -0.462839       -12.5945
  32   2.0000      -0.449679       -12.2364
  33   2.0000      -0.434138       -11.8135
  34   2.0000      -0.417029       -11.3479
  35   2.0000      -0.411469       -11.1967
  36   2.0000      -0.407449       -11.0872
  37   2.0000      -0.397147       -10.8069
  38   2.0000      -0.375516       -10.2183
  39   2.0000      -0.368863       -10.0373
  40   2.0000      -0.360303        -9.8043
  41   2.0000      -0.358167        -9.7462
  42   2.0000      -0.347227        -9.4485
  43   2.0000      -0.336535        -9.1576
  44   2.0000      -0.328900        -8.9498
  45   2.0000      -0.311370        -8.4728
  46   2.0000      -0.307956        -8.3799
  47   2.0000      -0.273538        -7.4433
  48   2.0000      -0.269136        -7.3236
  49   2.0000      -0.255157        -6.9432
  50   2.0000      -0.239400        -6.5144
  51   0.0000       0.059262         1.6126
  52   0.0000       0.078589         2.1385
  53   0.0000       0.090874         2.4728
  54   0.0000       0.092941         2.5290
  55   0.0000       0.099723         2.7136

MULLIKEN ATOMIC CHARGES
-----------------------
   0 C :    0.313832
   1 C :   -0.267351
   2 C :   -0.311697
   3 C :   -0.035770
   4 O :   -0.514968
   5 H :    0.151805
   6 H :    0.149870
   7 H :    0.159035
   8 H :    0.147672
   9 H :    0.163972
  10 H :    0.160317
  11 H :    0.152316
  12 C :   -0.003436
  13 H :    0.145601
  14 H :    0.155268
  15 O :   -0.545554
  16 C :    0.034993
  17 C :    0.083738
  18 C :   -0.300598
  19 C :   -0.032837
  20 O :   -0.526226
  21 H :    0.188568
  22 O :   -0.607542
  23 H :    0.165092
  24 H :    0.160216
  25 H :    0.152114
  26 H :    0.147231
  27 H :    0.148650
  28 H :    0.365691
Sum of atomic charges:   -0.0000000

LOEWDIN ATOMIC CHARGES
----------------------
   0 C :    0.181004
   1 C :   -0.218134
   2 C :   -0.217731
   3 C :   -0.039295
   4 O :   -0.323633
   5 H :    0.097804
   6 H :    0.116953
   7 H :    0.125437
   8 H :    0.117867
   9 H :    0.115479
  10 H :    0.109188
  11 H :    0.107659
  12 C :   -0.034748
  13 H :    0.109961
  14 H :    0.108558
  15 O :   -0.343753
  16 C :   -0.000971
  17 C :    0.032132
  18 C :   -0.239377
  19 C :   -0.039908
  20 O :   -0.326502
  21 H :    0.126273
  22 O :   -0.416563
  23 H :    0.116869
  24 H :    0.126095
  25 H :    0.117644
  26 H :    0.104490
  27 H :    0.103242
  28 H :    0.283960

  Mayer bond orders larger than 0.100000
B(  0-C ,  1-C ) :   0.9315 B(  0-C ,  4-O ) :   0.9094 B(  0-C ,  5-H ) :   0.9298
B(  0-C , 15-O ) :   0.8446 B(  1-C ,  2-C ) :   0.9559 B(  1-C ,  6-H ) :   0.9367
B(  1-C ,  7-H ) :   0.9367 B(  2-C ,  3-C ) :   0.9562 B(  2-C ,  8-H ) :   0.9438
B(  2-C ,  9-H ) :   0.9332 B(  3-C ,  4-O ) :   0.8218 B(  3-C , 10-H ) :   0.9118
B(  3-C , 11-H ) :   0.9407 B( 12-C , 13-H ) :   0.9410 B( 12-C , 14-H ) :   0.9182
B( 12-C , 15-O ) :   0.8393 B( 12-C , 16-C ) :   0.8807 B( 16-C , 17-C ) :   0.9045
B( 16-C , 20-O ) :   0.8225 B( 16-C , 21-H ) :   0.9105 B( 17-C , 18-C ) :   0.9144
B( 17-C , 22-O ) :   0.8776 B( 17-C , 23-H ) :   0.9168 B( 18-C , 19-C ) :   0.9436
B( 18-C , 24-H ) :   0.9376 B( 18-C , 25-H ) :   0.9333 B( 19-C , 20-O ) :   0.8469
B( 19-C , 26-H ) :   0.9348 B( 19-C , 27-H ) :   0.9373 B( 22-O , 28-H ) :   0.7945

FINAL SINGLE POINT ENERGY      -652.858134679728

DIPOLE MOMENT
-------------
                                X             Y             Z
Electronic contribution:      0.22156      -3.69561       0.83100
Nuclear contribution   :     -0.50159       4.35454      -0.89651
                        -----------------------------------------
Total Dipole Moment    :     -0.28003       0.65893      -0.06551
                        -----------------------------------------
Magnitude (a.u.)       :      0.71896
Magnitude (Debye)      :      1.82744

Rotational constants in cm-1:     0.047249     0.017820     0.015854
Rotational constants in MHz :  1416.480806   534.236033   475.293992

                             ****ORCA TERMINATED NORMALLY****
TOTAL RUN TIME: 0 days 0 hours 29 minutes 19 seconds 592 msec
