                         Program Version 4.2.0 -  RELEASE  -
|  1> # Test redundant internal optimization
|  2> #
|  3> ! RKS B3LYP  Opt TightSCF SmallPrint
|  4>
|  5> %basis
|  6>         Basis "6-31G"
|  7> end
|  8>
|  9> %geom
| 10> Constraints
| 11> { D 4  0  15  12  60.0   C } # D for Dihedral angle
| 12> { D 0  15  12  16  90.0   C } # D for Dihedral angle
| 13> { D 0  4  3  2   C } # D for Dihedral angle
| 14> { D 4  3  2  1   C } # D for Dihedral angle
| 15> { D 3  2  1  0   C } # D for Dihedral angle
| 16> { D 2  1  0  4   C } # D for Dihedral angle
| 17> { D 1  0  4  3   C } # D for Dihedral angle
| 18> { D 16  20  19  18   C } # D for Dihedral angle
| 19> { D 20  19  18  17   C } # D for Dihedral angle
| 20> { D 19  18  17  16   C } # D for Dihedral angle
| 21> { D 18  17  16  20   C } # D for Dihedral angle
| 22> { D 17  16  20  19   C } # D for Dihedral angle
| 23> { D 15  12  16  20   C } # D for Dihedral angle
| 24> end
| 25> end
| 26>
| 27>
| 28> #%pal
| 29> #nprocs 8
| 30> #end
| 31>
| 32> * xyz 0 1
| 33> C  -21.048   26.222   46.251
| 34> C  -20.361   27.558   45.944
| 35> C  -20.329   28.222   47.341
| 36> C  -20.110   27.022   48.296
| 37> O  -20.473   25.807   47.535
| 38> H  -20.833   25.428   45.533
| 39> H  -19.344   27.382   45.576
| 40> H  -20.898   28.157   45.201
| 41> H  -19.543   28.978   47.434
| 42> H  -21.289   28.710   47.548
| 43> H  -20.733   27.082   49.195
| 44> H  -19.064   26.913   48.597
| 45> C  -23.051   27.452   47.413
| 46> H  -24.022   27.151   47.826
| 47> H  -22.332   27.519   48.241
| 48> O  -22.586   26.394   46.375
| 49> C  -23.199   28.871   46.799
| 50> C  -24.311   28.908   45.744
| 51> C  -25.579   28.989   46.627
| 52> C  -25.117   29.855   47.826
| 53> O  -23.639   29.828   47.821
| 54> H  -22.225   29.210   46.442
| 55> O  -24.170   30.182   44.867
| 56> H  -24.307   28.034   45.084
| 57> H  -26.434   29.425   46.102
| 58> H  -25.867   27.986   46.963
| 59> H  -25.480   29.471   48.785
| 60> H  -25.421   30.901   47.727
| 61> H  -24.172   31.072   45.507
| 62> *
| 63>
| 64>                          ****END OF INPUT****
 Total Charge           Charge          ....    0
 Multiplicity           Mult            ....    1
 Number of Electrons    NEL             ....  102
FINAL SINGLE POINT ENERGY      -652.807542670068
FINAL SINGLE POINT ENERGY      -652.838872011418
FINAL SINGLE POINT ENERGY      -652.855032163464
FINAL SINGLE POINT ENERGY      -652.857626720788
FINAL SINGLE POINT ENERGY      -652.858007740994
FINAL SINGLE POINT ENERGY      -652.858077578069
FINAL SINGLE POINT ENERGY      -652.858084077928
FINAL SINGLE POINT ENERGY      -652.858084572701
                    ***********************HURRAY********************

CARTESIAN COORDINATES (ANGSTROEM)
---------------------------------
  C    -21.183617   26.343179   46.402207
  C    -20.305401   27.512809   45.932279
  C    -19.932141   28.204588   47.279330
  C    -19.809259   26.998583   48.246180
  O    -20.515838   25.871837   47.592333
  H    -21.176868   25.506834   45.701539
  H    -19.410515   27.101553   45.453885
  H    -20.812363   28.169881   45.221483
  H    -18.995396   28.765961   47.209914
  H    -20.707894   28.899446   47.606777
  H    -20.259714   27.182066   49.226190
  H    -18.771434   26.681925   48.386031
  C    -23.174671   27.502023   47.512615
  H    -24.143852   27.074428   47.782864
  H    -22.572675   27.559846   48.426432
  O    -22.605579   26.561810   46.555952
  C    -23.353084   28.906273   46.924731
  C    -24.336935   28.988904   45.748489
  C    -25.701847   28.997575   46.482003
  C    -25.404780   29.797408   47.775858
  O    -23.928447   29.793805   47.943355
  H    -22.392663   29.339619   46.641442
  O    -24.122050   30.202940   44.975844
  H    -24.225396   28.166402   45.043224
  H    -26.471117   29.463943   45.861304
  H    -26.019163   27.974209   46.707571
  H    -25.863476   29.355133   48.665161
  H    -25.717027   30.844042   47.706132
  H    -24.023801   30.961977   45.588874

 Multiplicity           Mult            ....    1
 Number of Electrons    NEL             ....  102
 Basis Dimension        Dim             ....  149

ORBITAL ENERGIES
----------------

  NO   OCC          E(Eh)            E(eV)
   0   2.0000     -19.148762      -521.0643
   1   2.0000     -19.145795      -520.9836
   2   2.0000     -19.143964      -520.9338
   3   2.0000     -19.139824      -520.8211
   4   2.0000     -10.279963      -279.7320
   5   2.0000     -10.239222      -278.6234
   6   2.0000     -10.235300      -278.5167
   7   2.0000     -10.235140      -278.5123
   8   2.0000     -10.233001      -278.4541
   9   2.0000     -10.230567      -278.3879
  10   2.0000     -10.193628      -277.3827
  11   2.0000     -10.191221      -277.3172
  12   2.0000     -10.190498      -277.2975
  13   2.0000      -1.053264       -28.6608
  14   2.0000      -1.039138       -28.2764
  15   2.0000      -1.008239       -27.4356
  16   2.0000      -0.997517       -27.1438
  17   2.0000      -0.789087       -21.4721
  18   2.0000      -0.784309       -21.3421
  19   2.0000      -0.772522       -21.0214
  20   2.0000      -0.736083       -20.0298
  21   2.0000      -0.679925       -18.5017
  22   2.0000      -0.608341       -16.5538
  23   2.0000      -0.604934       -16.4611
  24   2.0000      -0.603630       -16.4256
  25   2.0000      -0.575889       -15.6707
  26   2.0000      -0.530971       -14.4485
  27   2.0000      -0.507171       -13.8008
  28   2.0000      -0.501043       -13.6341
  29   2.0000      -0.495286       -13.4774
  30   2.0000      -0.474331       -12.9072
  31   2.0000      -0.461971       -12.5709
  32   2.0000      -0.450030       -12.2459
  33   2.0000      -0.437951       -11.9172
  34   2.0000      -0.430524       -11.7152
  35   2.0000      -0.416399       -11.3308
  36   2.0000      -0.410244       -11.1633
  37   2.0000      -0.395876       -10.7723
  38   2.0000      -0.384864       -10.4727
  39   2.0000      -0.370186       -10.0733
  40   2.0000      -0.361586        -9.8392
  41   2.0000      -0.357914        -9.7393
  42   2.0000      -0.350569        -9.5395
  43   2.0000      -0.335630        -9.1330
  44   2.0000      -0.317668        -8.6442
  45   2.0000      -0.314957        -8.5704
  46   2.0000      -0.304011        -8.2726
  47   2.0000      -0.280075        -7.6212
  48   2.0000      -0.267745        -7.2857
  49   2.0000      -0.259455        -7.0601
  50   2.0000      -0.242198        -6.5905
  51   0.0000       0.061159         1.6642
  52   0.0000       0.069134         1.8812
  53   0.0000       0.084712         2.3051
  54   0.0000       0.095803         2.6069
  55   0.0000       0.101751         2.7688

MULLIKEN ATOMIC CHARGES
-----------------------
   0 C :    0.303670
   1 C :   -0.281630
   2 C :   -0.325576
   3 C :   -0.015220
   4 O :   -0.505646
   5 H :    0.167434
   6 H :    0.155578
   7 H :    0.158634
   8 H :    0.148739
   9 H :    0.162336
  10 H :    0.147901
  11 H :    0.148631
  12 C :   -0.029544
  13 H :    0.153799
  14 H :    0.154436
  15 O :   -0.521131
  16 C :    0.049878
  17 C :    0.089675
  18 C :   -0.305893
  19 C :   -0.029506
  20 O :   -0.529014
  21 H :    0.159134
  22 O :   -0.603695
  23 H :    0.173619
  24 H :    0.163379
  25 H :    0.153054
  26 H :    0.147912
  27 H :    0.147200
  28 H :    0.361847
Sum of atomic charges:    0.0000000

LOEWDIN ATOMIC CHARGES
----------------------
   0 C :    0.176939
   1 C :   -0.231738
   2 C :   -0.226725
   3 C :   -0.033978
   4 O :   -0.318427
   5 H :    0.114189
   6 H :    0.122498
   7 H :    0.121371
   8 H :    0.117777
   9 H :    0.113634
  10 H :    0.102683
  11 H :    0.104805
  12 C :   -0.042320
  13 H :    0.113010
  14 H :    0.108647
  15 O :   -0.323054
  16 C :    0.001142
  17 C :    0.036751
  18 C :   -0.242042
  19 C :   -0.037520
  20 O :   -0.332758
  21 H :    0.110301
  22 O :   -0.415522
  23 H :    0.126427
  24 H :    0.127250
  25 H :    0.117482
  26 H :    0.105039
  27 H :    0.102847
  28 H :    0.281291

  Mayer bond orders larger than 0.100000
B(  0-C ,  1-C ) :   0.9156 B(  0-C ,  4-O ) :   0.9057 B(  0-C ,  5-H ) :   0.9359
B(  0-C , 15-O ) :   0.8904 B(  1-C ,  2-C ) :   0.9550 B(  1-C ,  6-H ) :   0.9329
B(  1-C ,  7-H ) :   0.9318 B(  2-C ,  3-C ) :   0.9451 B(  2-C ,  8-H ) :   0.9452
B(  2-C ,  9-H ) :   0.9310 B(  3-C ,  4-O ) :   0.8416 B(  3-C , 10-H ) :   0.9321
B(  3-C , 11-H ) :   0.9388 B( 12-C , 13-H ) :   0.9392 B( 12-C , 14-H ) :   0.9154
B( 12-C , 15-O ) :   0.8401 B( 12-C , 16-C ) :   0.8743 B( 16-C , 17-C ) :   0.9070
B( 16-C , 20-O ) :   0.8407 B( 16-C , 21-H ) :   0.9135 B( 17-C , 18-C ) :   0.9135
B( 17-C , 22-O ) :   0.8910 B( 17-C , 23-H ) :   0.9245 B( 18-C , 19-C ) :   0.9423
B( 18-C , 24-H ) :   0.9377 B( 18-C , 25-H ) :   0.9328 B( 19-C , 20-O ) :   0.8401
B( 19-C , 26-H ) :   0.9357 B( 19-C , 27-H ) :   0.9378 B( 22-O , 28-H ) :   0.7969

FINAL SINGLE POINT ENERGY      -652.858071329260

DIPOLE MOMENT
-------------
                                X             Y             Z
Electronic contribution:     -0.79415      -1.92762      -0.86787
Nuclear contribution   :      0.81813       2.57958       1.18906
                        -----------------------------------------
Total Dipole Moment    :      0.02398       0.65196       0.32120
                        -----------------------------------------
Magnitude (a.u.)       :      0.72718
Magnitude (Debye)      :      1.84836

Rotational constants in cm-1:     0.052321     0.014485     0.014173
Rotational constants in MHz :  1568.534560   434.245216   424.902906

                             ****ORCA TERMINATED NORMALLY****
TOTAL RUN TIME: 0 days 0 hours 28 minutes 59 seconds 831 msec
