                         Program Version 4.2.0 -  RELEASE  -
|  1> # Test redundant internal optimization
|  2> #
|  3> ! RKS B3LYP  Opt TightSCF SmallPrint
|  4>
|  5> %basis
|  6>         Basis "6-31G"
|  7> end
|  8>
|  9> %geom
| 10> Constraints
| 11> { D 4  0  15  12  285.0   C } # D for Dihedral angle
| 12> { D 0  15  12  16  15.0   C } # D for Dihedral angle
| 13> { D 0  4  3  2   C } # D for Dihedral angle
| 14> { D 4  3  2  1   C } # D for Dihedral angle
| 15> { D 3  2  1  0   C } # D for Dihedral angle
| 16> { D 2  1  0  4   C } # D for Dihedral angle
| 17> { D 1  0  4  3   C } # D for Dihedral angle
| 18> { D 16  20  19  18   C } # D for Dihedral angle
| 19> { D 20  19  18  17   C } # D for Dihedral angle
| 20> { D 19  18  17  16   C } # D for Dihedral angle
| 21> { D 18  17  16  20   C } # D for Dihedral angle
| 22> { D 17  16  20  19   C } # D for Dihedral angle
| 23> { D 15  12  16  20   C } # D for Dihedral angle
| 24> end
| 25> end
| 26>
| 27>
| 28> #%pal
| 29> #nprocs 8
| 30> #end
| 31>
| 32> * xyz 0 1
| 33> C  -21.048   26.222   46.251
| 34> C  -20.361   27.558   45.944
| 35> C  -20.329   28.222   47.341
| 36> C  -20.110   27.022   48.296
| 37> O  -20.473   25.807   47.535
| 38> H  -20.833   25.428   45.533
| 39> H  -19.344   27.382   45.576
| 40> H  -20.898   28.157   45.201
| 41> H  -19.543   28.978   47.434
| 42> H  -21.289   28.710   47.548
| 43> H  -20.733   27.082   49.195
| 44> H  -19.064   26.913   48.597
| 45> C  -23.396   25.070   46.435
| 46> H  -24.154   25.145   47.225
| 47> H  -23.910   24.890   45.482
| 48> O  -22.586   26.394   46.375
| 49> C  -22.503   23.833   46.731
| 50> C  -21.876   23.921   48.127
| 51> C  -23.054   23.480   49.029
| 52> C  -23.773   22.411   48.169
| 53> O  -23.317   22.613   46.777
| 54> H  -21.785   23.708   45.919
| 55> O  -20.692   22.922   48.243
| 56> H  -21.505   24.922   48.371
| 57> H  -22.724   23.086   49.995
| 58> H  -23.717   24.331   49.223
| 59> H  -24.863   22.507   48.207
| 60> H  -23.498   21.392   48.454
| 61> H  -21.040   21.909   48.003
| 62> *
| 63>
| 64>                          ****END OF INPUT****
 Total Charge           Charge          ....    0
 Multiplicity           Mult            ....    1
 Number of Electrons    NEL             ....  102
FINAL SINGLE POINT ENERGY      -652.807239699305
FINAL SINGLE POINT ENERGY      -652.837527655674
FINAL SINGLE POINT ENERGY      -652.855878030806
FINAL SINGLE POINT ENERGY      -652.858861837092
FINAL SINGLE POINT ENERGY      -652.859532090692
FINAL SINGLE POINT ENERGY      -652.859704156025
FINAL SINGLE POINT ENERGY      -652.859715574423
FINAL SINGLE POINT ENERGY      -652.859719010773
                    ***********************HURRAY********************

CARTESIAN COORDINATES (ANGSTROEM)
---------------------------------
  C    -20.860642   26.279932   46.241540
  C    -20.463114   27.720589   45.910629
  C    -20.530137   28.394345   47.302092
  C    -20.053598   27.276556   48.256886
  O    -20.190810   26.004556   47.498487
  H    -20.495415   25.522584   45.541099
  H    -19.440518   27.730343   45.516898
  H    -21.135379   28.170715   45.178270
  H    -19.903880   29.288901   47.367556
  H    -21.563422   28.675829   47.522969
  H    -20.650553   27.209909   49.170314
  H    -18.996693   27.365621   48.523727
  C    -23.076803   25.019002   46.447169
  H    -23.843850   25.245914   47.194434
  H    -23.584430   24.871397   45.487034
  O    -22.292022   26.255428   46.338203
  C    -22.422680   23.668296   46.805644
  C    -21.783746   23.515631   48.195372
  C    -23.034770   23.358586   49.102134
  C    -24.018279   22.563341   48.205829
  O    -23.534687   22.705479   46.811729
  H    -21.726606   23.344029   46.027225
  O    -20.959233   22.312717   48.227295
  H    -21.124558   24.336038   48.459551
  H    -22.777559   22.830857   50.023510
  H    -23.440357   24.340538   49.368548
  H    -25.045922   22.935545   48.262825
  H    -24.023024   21.493062   48.435437
  H    -21.445315   21.579258   47.793592

 Multiplicity           Mult            ....    1
 Number of Electrons    NEL             ....  102
 Basis Dimension        Dim             ....  149

ORBITAL ENERGIES
----------------

  NO   OCC          E(Eh)            E(eV)
   0   2.0000     -19.145197      -520.9673
   1   2.0000     -19.144982      -520.9614
   2   2.0000     -19.143142      -520.9114
   3   2.0000     -19.128279      -520.5069
   4   2.0000     -10.282504      -279.8012
   5   2.0000     -10.233967      -278.4804
   6   2.0000     -10.230055      -278.3740
   7   2.0000     -10.230040      -278.3735
   8   2.0000     -10.228278      -278.3256
   9   2.0000     -10.224847      -278.2322
  10   2.0000     -10.186608      -277.1917
  11   2.0000     -10.186367      -277.1851
  12   2.0000     -10.183427      -277.1051
  13   2.0000      -1.053444       -28.6657
  14   2.0000      -1.034024       -28.1372
  15   2.0000      -0.998525       -27.1712
  16   2.0000      -0.993651       -27.0386
  17   2.0000      -0.790590       -21.5131
  18   2.0000      -0.771720       -20.9996
  19   2.0000      -0.764533       -20.8040
  20   2.0000      -0.734810       -19.9952
  21   2.0000      -0.673494       -18.3267
  22   2.0000      -0.603943       -16.4341
  23   2.0000      -0.601825       -16.3765
  24   2.0000      -0.596593       -16.2341
  25   2.0000      -0.567701       -15.4479
  26   2.0000      -0.522474       -14.2173
  27   2.0000      -0.516620       -14.0580
  28   2.0000      -0.496867       -13.5204
  29   2.0000      -0.480404       -13.0725
  30   2.0000      -0.467553       -12.7228
  31   2.0000      -0.458220       -12.4688
  32   2.0000      -0.449824       -12.2403
  33   2.0000      -0.431331       -11.7371
  34   2.0000      -0.418447       -11.3865
  35   2.0000      -0.413406       -11.2494
  36   2.0000      -0.401205       -10.9173
  37   2.0000      -0.387863       -10.5543
  38   2.0000      -0.376030       -10.2323
  39   2.0000      -0.365430        -9.9438
  40   2.0000      -0.359792        -9.7904
  41   2.0000      -0.355643        -9.6775
  42   2.0000      -0.349014        -9.4972
  43   2.0000      -0.334942        -9.1142
  44   2.0000      -0.322536        -8.7767
  45   2.0000      -0.306291        -8.3346
  46   2.0000      -0.298922        -8.1341
  47   2.0000      -0.266710        -7.2576
  48   2.0000      -0.262728        -7.1492
  49   2.0000      -0.255680        -6.9574
  50   2.0000      -0.241501        -6.5716
  51   0.0000       0.067236         1.8296
  52   0.0000       0.073167         1.9910
  53   0.0000       0.095807         2.6071
  54   0.0000       0.099855         2.7172
  55   0.0000       0.105183         2.8622

MULLIKEN ATOMIC CHARGES
-----------------------
   0 C :    0.292716
   1 C :   -0.257532
   2 C :   -0.295880
   3 C :   -0.005634
   4 O :   -0.512037
   5 H :    0.146442
   6 H :    0.146335
   7 H :    0.160059
   8 H :    0.141044
   9 H :    0.162973
  10 H :    0.144055
  11 H :    0.148135
  12 C :    0.011968
  13 H :    0.144362
  14 H :    0.156231
  15 O :   -0.540249
  16 C :    0.023632
  17 C :    0.068972
  18 C :   -0.297864
  19 C :   -0.034510
  20 O :   -0.527393
  21 H :    0.159792
  22 O :   -0.603814
  23 H :    0.212061
  24 H :    0.160504
  25 H :    0.143292
  26 H :    0.145993
  27 H :    0.147374
  28 H :    0.358972
Sum of atomic charges:    0.0000000

LOEWDIN ATOMIC CHARGES
----------------------
   0 C :    0.174880
   1 C :   -0.212298
   2 C :   -0.214677
   3 C :   -0.028930
   4 O :   -0.325252
   5 H :    0.096829
   6 H :    0.114345
   7 H :    0.125698
   8 H :    0.113886
   9 H :    0.119555
  10 H :    0.103535
  11 H :    0.105335
  12 C :   -0.039929
  13 H :    0.107334
  14 H :    0.111379
  15 O :   -0.333754
  16 C :    0.005741
  17 C :    0.026928
  18 C :   -0.241987
  19 C :   -0.040555
  20 O :   -0.328673
  21 H :    0.112398
  22 O :   -0.416309
  23 H :    0.141475
  24 H :    0.126144
  25 H :    0.112824
  26 H :    0.103443
  27 H :    0.102739
  28 H :    0.277898

  Mayer bond orders larger than 0.100000
B(  0-C ,  1-C ) :   0.9452 B(  0-C ,  4-O ) :   0.8854 B(  0-C ,  5-H ) :   0.9211
B(  0-C , 15-O ) :   0.8689 B(  1-C ,  2-C ) :   0.9583 B(  1-C ,  6-H ) :   0.9404
B(  1-C ,  7-H ) :   0.9367 B(  2-C ,  3-C ) :   0.9551 B(  2-C ,  8-H ) :   0.9453
B(  2-C ,  9-H ) :   0.9440 B(  3-C ,  4-O ) :   0.8295 B(  3-C , 10-H ) :   0.9361
B(  3-C , 11-H ) :   0.9400 B( 12-C , 13-H ) :   0.9352 B( 12-C , 14-H ) :   0.9228
B( 12-C , 15-O ) :   0.8252 B( 12-C , 16-C ) :   0.8897 B( 16-C , 17-C ) :   0.9093
B( 16-C , 20-O ) :   0.8230 B( 16-C , 21-H ) :   0.9256 B( 17-C , 18-C ) :   0.9081
B( 17-C , 22-O ) :   0.8829 B( 17-C , 23-H ) :   0.8901 B( 18-C , 19-C ) :   0.9400
B( 18-C , 24-H ) :   0.9384 B( 18-C , 25-H ) :   0.9352 B( 19-C , 20-O ) :   0.8391
B( 19-C , 26-H ) :   0.9361 B( 19-C , 27-H ) :   0.9379 B( 22-O , 28-H ) :   0.7960

FINAL SINGLE POINT ENERGY      -652.859719017920

DIPOLE MOMENT
-------------
                                X             Y             Z
Electronic contribution:      0.30285      -4.18340      -2.11124
Nuclear contribution   :     -0.58141       4.99358       2.30773
                        -----------------------------------------
Total Dipole Moment    :     -0.27856       0.81018       0.19648
                        -----------------------------------------
Magnitude (a.u.)       :      0.87897
Magnitude (Debye)      :      2.23418

Rotational constants in cm-1:     0.053069     0.015167     0.013723
Rotational constants in MHz :  1590.969656   454.699112   411.408504

                             ****ORCA TERMINATED NORMALLY****
TOTAL RUN TIME: 0 days 0 hours 51 minutes 22 seconds 275 msec
