                         Program Version 4.2.0 -  RELEASE  -
|  1> # Test redundant internal optimization
|  2> #
|  3> ! RKS B3LYP  Opt TightSCF SmallPrint
|  4>
|  5> %basis
|  6>         Basis "6-31G"
|  7> end
|  8>
|  9> %geom
| 10> Constraints
| 11> { D 4  0  15  12  45.0   C } # D for Dihedral angle
| 12> { D 0  15  12  16  240.0   C } # D for Dihedral angle
| 13> { D 0  4  3  2   C } # D for Dihedral angle
| 14> { D 4  3  2  1   C } # D for Dihedral angle
| 15> { D 3  2  1  0   C } # D for Dihedral angle
| 16> { D 2  1  0  4   C } # D for Dihedral angle
| 17> { D 1  0  4  3   C } # D for Dihedral angle
| 18> { D 16  20  19  18   C } # D for Dihedral angle
| 19> { D 20  19  18  17   C } # D for Dihedral angle
| 20> { D 19  18  17  16   C } # D for Dihedral angle
| 21> { D 18  17  16  20   C } # D for Dihedral angle
| 22> { D 17  16  20  19   C } # D for Dihedral angle
| 23> { D 15  12  16  20   C } # D for Dihedral angle
| 24> end
| 25> end
| 26>
| 27>
| 28> #%pal
| 29> #nprocs 8
| 30> #end
| 31>
| 32> * xyz 0 1
| 33> C  -21.048   26.222   46.251
| 34> C  -20.361   27.558   45.944
| 35> C  -20.329   28.222   47.341
| 36> C  -20.110   27.022   48.296
| 37> O  -20.473   25.807   47.535
| 38> H  -20.833   25.428   45.533
| 39> H  -19.344   27.382   45.576
| 40> H  -20.898   28.157   45.201
| 41> H  -19.543   28.978   47.434
| 42> H  -21.289   28.710   47.548
| 43> H  -20.733   27.082   49.195
| 44> H  -19.064   26.913   48.597
| 45> C  -23.065   27.161   47.638
| 46> H  -22.193   27.462   48.231
| 47> H  -23.613   28.068   47.351
| 48> O  -22.586   26.394   46.375
| 49> C  -24.000   26.309   48.540
| 50> C  -23.259   25.103   49.126
| 51> C  -22.473   25.752   50.290
| 52> C  -23.441   26.851   50.797
| 53> O  -24.421   27.080   49.714
| 54> H  -24.904   26.058   47.982
| 55> H  -23.978   24.369   49.508
| 56> O  -22.336   24.394   48.097
| 57> H  -22.207   25.037   51.074
| 58> H  -21.545   26.198   49.914
| 59> H  -22.927   27.792   51.020
| 60> H  -24.003   26.537   51.680
| 61> H  -21.607   25.110   47.702
| 62> *
| 63>
| 64>                          ****END OF INPUT****
 Total Charge           Charge          ....    0
 Multiplicity           Mult            ....    1
 Number of Electrons    NEL             ....  102
FINAL SINGLE POINT ENERGY      -652.781070156622
FINAL SINGLE POINT ENERGY      -652.815827947733
FINAL SINGLE POINT ENERGY      -652.839169576986
FINAL SINGLE POINT ENERGY      -652.851122909588
FINAL SINGLE POINT ENERGY      -652.856717979774
FINAL SINGLE POINT ENERGY      -652.859337676281
FINAL SINGLE POINT ENERGY      -652.859872686765
FINAL SINGLE POINT ENERGY      -652.860313540190
FINAL SINGLE POINT ENERGY      -652.860437399725
FINAL SINGLE POINT ENERGY      -652.860579322103
FINAL SINGLE POINT ENERGY      -652.860843032008
FINAL SINGLE POINT ENERGY      -652.860848510001
FINAL SINGLE POINT ENERGY      -652.860853023139
FINAL SINGLE POINT ENERGY      -652.860857905763
FINAL SINGLE POINT ENERGY      -652.860862835633
FINAL SINGLE POINT ENERGY      -652.860866499282
FINAL SINGLE POINT ENERGY      -652.860868977868
FINAL SINGLE POINT ENERGY      -652.860871213410
FINAL SINGLE POINT ENERGY      -652.860873674316
                    ***********************HURRAY********************

CARTESIAN COORDINATES (ANGSTROEM)
---------------------------------
  C    -21.121299   26.393997   46.330898
  C    -20.371169   27.636511   45.821681
  C    -20.006122   28.359217   47.152146
  C    -19.733625   27.177042   48.119172
  O    -20.361900   25.980267   47.501224
  H    -21.071301   25.557594   45.631621
  H    -19.467645   27.313558   45.293713
  H    -20.986348   28.237656   45.149138
  H    -19.129469   29.005584   47.050691
  H    -20.839187   28.978718   47.496866
  H    -20.157447   27.329517   49.115820
  H    -18.667389   26.955070   48.215825
  C    -23.113442   27.204285   47.711974
  H    -22.345956   27.619650   48.372708
  H    -23.732837   28.028257   47.345398
  O    -22.525634   26.534070   46.553920
  C    -23.999009   26.232109   48.508193
  C    -23.316025   25.011241   49.164315
  C    -22.657325   25.651534   50.434284
  C    -23.685931   26.731817   50.830857
  O    -24.545980   26.975973   49.642759
  H    -24.842831   25.922189   47.886496
  H    -24.111178   24.328535   49.479072
  O    -22.425866   24.208397   48.382344
  H    -22.490341   24.910878   51.220257
  H    -21.687603   26.082905   50.162821
  H    -23.228919   27.680373   51.132715
  H    -24.349842   26.395944   51.633393
  H    -21.611379   24.713111   48.149699

 Multiplicity           Mult            ....    1
 Number of Electrons    NEL             ....  102
 Basis Dimension        Dim             ....  149

ORBITAL ENERGIES
----------------

  NO   OCC          E(Eh)            E(eV)
   0   2.0000     -19.172264      -521.7038
   1   2.0000     -19.147803      -521.0382
   2   2.0000     -19.136654      -520.7348
   3   2.0000     -19.110284      -520.0173
   4   2.0000     -10.292844      -280.0825
   5   2.0000     -10.249491      -278.9028
   6   2.0000     -10.233878      -278.4780
   7   2.0000     -10.227744      -278.3111
   8   2.0000     -10.226230      -278.2699
   9   2.0000     -10.224294      -278.2172
  10   2.0000     -10.206197      -277.7247
  11   2.0000     -10.199654      -277.5467
  12   2.0000     -10.182381      -277.0767
  13   2.0000      -1.071024       -29.1440
  14   2.0000      -1.022213       -27.8158
  15   2.0000      -1.007610       -27.4185
  16   2.0000      -0.991506       -26.9803
  17   2.0000      -0.802265       -21.8307
  18   2.0000      -0.776506       -21.1298
  19   2.0000      -0.766479       -20.8570
  20   2.0000      -0.737314       -20.0633
  21   2.0000      -0.681858       -18.5543
  22   2.0000      -0.619011       -16.8441
  23   2.0000      -0.605766       -16.4837
  24   2.0000      -0.596759       -16.2386
  25   2.0000      -0.570508       -15.5243
  26   2.0000      -0.529880       -14.4188
  27   2.0000      -0.517893       -14.0926
  28   2.0000      -0.508486       -13.8366
  29   2.0000      -0.487978       -13.2786
  30   2.0000      -0.481473       -13.1015
  31   2.0000      -0.461298       -12.5526
  32   2.0000      -0.442712       -12.0468
  33   2.0000      -0.433583       -11.7984
  34   2.0000      -0.424984       -11.5644
  35   2.0000      -0.421020       -11.4565
  36   2.0000      -0.406502       -11.0615
  37   2.0000      -0.398968       -10.8565
  38   2.0000      -0.388833       -10.5807
  39   2.0000      -0.374725       -10.1968
  40   2.0000      -0.364683        -9.9235
  41   2.0000      -0.361498        -9.8369
  42   2.0000      -0.345888        -9.4121
  43   2.0000      -0.345461        -9.4005
  44   2.0000      -0.327063        -8.8998
  45   2.0000      -0.314438        -8.5563
  46   2.0000      -0.294246        -8.0068
  47   2.0000      -0.278427        -7.5764
  48   2.0000      -0.265916        -7.2359
  49   2.0000      -0.248940        -6.7740
  50   2.0000      -0.228615        -6.2209
  51   0.0000       0.051297         1.3959
  52   0.0000       0.072874         1.9830
  53   0.0000       0.085926         2.3382
  54   0.0000       0.093936         2.5561
  55   0.0000       0.098732         2.6866

MULLIKEN ATOMIC CHARGES
-----------------------
   0 C :    0.293288
   1 C :   -0.262737
   2 C :   -0.319199
   3 C :   -0.019670
   4 O :   -0.539916
   5 H :    0.181588
   6 H :    0.155066
   7 H :    0.163267
   8 H :    0.154386
   9 H :    0.159230
  10 H :    0.149077
  11 H :    0.161295
  12 C :   -0.025476
  13 H :    0.123630
  14 H :    0.162774
  15 O :   -0.521642
  16 C :    0.085456
  17 C :    0.108520
  18 C :   -0.331254
  19 C :   -0.013504
  20 O :   -0.524493
  21 H :    0.160910
  22 H :    0.156125
  23 O :   -0.630306
  24 H :    0.155827
  25 H :    0.137263
  26 H :    0.132586
  27 H :    0.149681
  28 H :    0.398224
Sum of atomic charges:   -0.0000000

LOEWDIN ATOMIC CHARGES
----------------------
   0 C :    0.176823
   1 C :   -0.223608
   2 C :   -0.222577
   3 C :   -0.034662
   4 O :   -0.327797
   5 H :    0.119366
   6 H :    0.120712
   7 H :    0.126905
   8 H :    0.120749
   9 H :    0.114523
  10 H :    0.100775
  11 H :    0.111791
  12 C :   -0.043359
  13 H :    0.093809
  14 H :    0.115481
  15 O :   -0.320904
  16 C :    0.018357
  17 C :    0.042266
  18 C :   -0.245927
  19 C :   -0.033501
  20 O :   -0.326216
  21 H :    0.116530
  22 H :    0.112382
  23 O :   -0.422095
  24 H :    0.122693
  25 H :    0.103620
  26 H :    0.096596
  27 H :    0.106013
  28 H :    0.281256

  Mayer bond orders larger than 0.100000
B(  0-C ,  1-C ) :   0.9200 B(  0-C ,  4-O ) :   0.8384 B(  0-C ,  5-H ) :   0.9305
B(  0-C , 15-O ) :   0.9126 B(  1-C ,  2-C ) :   0.9518 B(  1-C ,  6-H ) :   0.9338
B(  1-C ,  7-H ) :   0.9376 B(  2-C ,  3-C ) :   0.9489 B(  2-C ,  8-H ) :   0.9434
B(  2-C ,  9-H ) :   0.9407 B(  3-C ,  4-O ) :   0.8180 B(  3-C , 10-H ) :   0.9220
B(  3-C , 11-H ) :   0.9385 B( 12-C , 13-H ) :   0.9174 B( 12-C , 14-H ) :   0.9329
B( 12-C , 15-O ) :   0.8098 B( 12-C , 16-C ) :   0.9000 B( 16-C , 17-C ) :   0.8817
B( 16-C , 20-O ) :   0.8369 B( 16-C , 21-H ) :   0.9314 B( 17-C , 18-C ) :   0.9117
B( 17-C , 22-H ) :   0.9334 B( 17-C , 23-O ) :   0.9590 B( 18-C , 19-C ) :   0.9396
B( 18-C , 24-H ) :   0.9425 B( 18-C , 25-H ) :   0.9354 B( 19-C , 20-O ) :   0.8375
B( 19-C , 26-H ) :   0.9345 B( 19-C , 27-H ) :   0.9386 B( 23-O , 28-H ) :   0.7152

FINAL SINGLE POINT ENERGY      -652.860876292550

DIPOLE MOMENT
-------------
                                X             Y             Z
Electronic contribution:     -3.79395      -4.02420      -2.27905
Nuclear contribution   :      5.17086       5.42724       2.48005
                        -----------------------------------------
Total Dipole Moment    :      1.37691       1.40304       0.20100
                        -----------------------------------------
Magnitude (a.u.)       :      1.97606
Magnitude (Debye)      :      5.02274

Rotational constants in cm-1:     0.045374     0.017780     0.017535
Rotational constants in MHz :  1360.289403   533.025143   525.692320

                             ****ORCA TERMINATED NORMALLY****
TOTAL RUN TIME: 0 days 1 hours 59 minutes 28 seconds 668 msec
