                         Program Version 4.2.0 -  RELEASE  -
|  1> # Test redundant internal optimization
|  2> #
|  3> ! RKS B3LYP  Opt TightSCF SmallPrint
|  4>
|  5> %basis
|  6>         Basis "6-31G"
|  7> end
|  8>
|  9> %geom
| 10> Constraints
| 11> { D 4  0  15  12  330.0   C } # D for Dihedral angle
| 12> { D 0  15  12  16  90.0   C } # D for Dihedral angle
| 13> { D 0  4  3  2   C } # D for Dihedral angle
| 14> { D 4  3  2  1   C } # D for Dihedral angle
| 15> { D 3  2  1  0   C } # D for Dihedral angle
| 16> { D 2  1  0  4   C } # D for Dihedral angle
| 17> { D 1  0  4  3   C } # D for Dihedral angle
| 18> { D 16  20  19  18   C } # D for Dihedral angle
| 19> { D 20  19  18  17   C } # D for Dihedral angle
| 20> { D 19  18  17  16   C } # D for Dihedral angle
| 21> { D 18  17  16  20   C } # D for Dihedral angle
| 22> { D 17  16  20  19   C } # D for Dihedral angle
| 23> { D 15  12  16  20   C } # D for Dihedral angle
| 24> end
| 25> end
| 26>
| 27>
| 28> #%pal
| 29> #nprocs 8
| 30> #end
| 31>
| 32> * xyz 0 1
| 33> C  -21.048   26.222   46.251
| 34> C  -20.361   27.558   45.944
| 35> C  -20.329   28.222   47.341
| 36> C  -20.110   27.022   48.296
| 37> O  -20.473   25.807   47.535
| 38> H  -20.833   25.428   45.533
| 39> H  -19.344   27.382   45.576
| 40> H  -20.898   28.157   45.201
| 41> H  -19.543   28.978   47.434
| 42> H  -21.289   28.710   47.548
| 43> H  -20.733   27.082   49.195
| 44> H  -19.064   26.913   48.597
| 45> C  -23.271   25.476   47.424
| 46> H  -24.293   25.251   47.096
| 47> H  -22.725   24.528   47.520
| 48> O  -22.586   26.394   46.375
| 49> C  -23.342   26.124   48.834
| 50> C  -24.234   27.371   48.829
| 51> C  -25.648   26.746   48.875
| 52> C  -25.449   25.492   49.764
| 53> O  -23.997   25.217   49.783
| 54> H  -22.329   26.294   49.202
| 55> H  -24.046   27.971   49.727
| 56> O  -24.014   28.273   47.583
| 57> H  -26.401   27.429   49.281
| 58> H  -25.966   26.458   47.866
| 59> H  -25.975   24.614   49.374
| 60> H  -25.760   25.660   50.798
| 61> H  -24.196   27.693   46.672
| 62> *
| 63>
| 64>                          ****END OF INPUT****
 Total Charge           Charge          ....    0
 Multiplicity           Mult            ....    1
 Number of Electrons    NEL             ....  102
FINAL SINGLE POINT ENERGY      -652.834037595058
FINAL SINGLE POINT ENERGY      -652.859054034421
FINAL SINGLE POINT ENERGY      -652.865067363658
FINAL SINGLE POINT ENERGY      -652.867803423544
FINAL SINGLE POINT ENERGY      -652.868857109272
FINAL SINGLE POINT ENERGY      -652.869343636819
FINAL SINGLE POINT ENERGY      -652.869432024651
FINAL SINGLE POINT ENERGY      -652.869450829788
                    ***********************HURRAY********************

CARTESIAN COORDINATES (ANGSTROEM)
---------------------------------
  C    -21.080577   26.178827   46.340970
  C    -20.524891   27.548361   45.950901
  C    -20.410836   28.245208   47.326153
  C    -20.019426   27.095837   48.278268
  O    -20.375584   25.836502   47.549848
  H    -20.857210   25.370447   45.638268
  H    -19.541217   27.408904   45.489217
  H    -21.173397   28.079004   45.250037
  H    -19.670040   29.050439   47.326325
  H    -21.380420   28.667787   47.607816
  H    -20.548545   27.119510   49.232760
  H    -18.943816   27.038849   48.466086
  C    -23.228036   25.405738   47.447396
  H    -24.204274   25.202859   46.998792
  H    -22.696179   24.458514   47.579674
  O    -22.533359   26.252893   46.463562
  C    -23.369814   26.089189   48.810952
  C    -24.228221   27.365308   48.808144
  C    -25.666686   26.776718   48.813378
  C    -25.525873   25.508201   49.680665
  O    -24.067562   25.187134   49.727320
  H    -22.381577   26.247094   49.240919
  H    -24.056059   27.920418   49.735681
  O    -23.956625   28.284792   47.724725
  H    -26.394698   27.486215   49.216149
  H    -25.964460   26.542755   47.785265
  H    -26.064426   24.645104   49.277129
  H    -25.842712   25.668623   50.715286
  H    -23.550484   27.790767   46.972315

 Multiplicity           Mult            ....    1
 Number of Electrons    NEL             ....  102
 Basis Dimension        Dim             ....  149

ORBITAL ENERGIES
----------------

  NO   OCC          E(Eh)            E(eV)
   0   2.0000     -19.160427      -521.3817
   1   2.0000     -19.156792      -521.2828
   2   2.0000     -19.140339      -520.8351
   3   2.0000     -19.125337      -520.4269
   4   2.0000     -10.289092      -279.9804
   5   2.0000     -10.234869      -278.5050
   6   2.0000     -10.234729      -278.5011
   7   2.0000     -10.234095      -278.4839
   8   2.0000     -10.231050      -278.4010
   9   2.0000     -10.227894      -278.3151
  10   2.0000     -10.192672      -277.3567
  11   2.0000     -10.188750      -277.2500
  12   2.0000     -10.182677      -277.0847
  13   2.0000      -1.063471       -28.9385
  14   2.0000      -1.026016       -27.9193
  15   2.0000      -1.006589       -27.3907
  16   2.0000      -0.997937       -27.1552
  17   2.0000      -0.795881       -21.6570
  18   2.0000      -0.774626       -21.0786
  19   2.0000      -0.768905       -20.9230
  20   2.0000      -0.735874       -20.0241
  21   2.0000      -0.680419       -18.5151
  22   2.0000      -0.606126       -16.4935
  23   2.0000      -0.599843       -16.3226
  24   2.0000      -0.598005       -16.2726
  25   2.0000      -0.580621       -15.7995
  26   2.0000      -0.528830       -14.3902
  27   2.0000      -0.515800       -14.0356
  28   2.0000      -0.500101       -13.6084
  29   2.0000      -0.488093       -13.2817
  30   2.0000      -0.476482       -12.9657
  31   2.0000      -0.459522       -12.5042
  32   2.0000      -0.446194       -12.1416
  33   2.0000      -0.429163       -11.6781
  34   2.0000      -0.424720       -11.5572
  35   2.0000      -0.413649       -11.2559
  36   2.0000      -0.409997       -11.1566
  37   2.0000      -0.393543       -10.7088
  38   2.0000      -0.381143       -10.3714
  39   2.0000      -0.368975       -10.0403
  40   2.0000      -0.364918        -9.9299
  41   2.0000      -0.357009        -9.7147
  42   2.0000      -0.354045        -9.6340
  43   2.0000      -0.342360        -9.3161
  44   2.0000      -0.331046        -9.0082
  45   2.0000      -0.314685        -8.5630
  46   2.0000      -0.296234        -8.0609
  47   2.0000      -0.276523        -7.5246
  48   2.0000      -0.271861        -7.3977
  49   2.0000      -0.255244        -6.9456
  50   2.0000      -0.240340        -6.5400
  51   0.0000       0.058475         1.5912
  52   0.0000       0.076983         2.0948
  53   0.0000       0.088629         2.4117
  54   0.0000       0.095534         2.5996
  55   0.0000       0.104614         2.8467

MULLIKEN ATOMIC CHARGES
-----------------------
   0 C :    0.308261
   1 C :   -0.271798
   2 C :   -0.320514
   3 C :   -0.021995
   4 O :   -0.511512
   5 H :    0.158556
   6 H :    0.152267
   7 H :    0.162043
   8 H :    0.147636
   9 H :    0.176971
  10 H :    0.150128
  11 H :    0.153722
  12 C :   -0.039585
  13 H :    0.155497
  14 H :    0.175289
  15 O :   -0.560254
  16 C :    0.052010
  17 C :    0.110502
  18 C :   -0.307033
  19 C :   -0.021351
  20 O :   -0.518945
  21 H :    0.168373
  22 H :    0.148780
  23 O :   -0.633370
  24 H :    0.153881
  25 H :    0.146936
  26 H :    0.143667
  27 H :    0.150271
  28 H :    0.391568
Sum of atomic charges:   -0.0000000

LOEWDIN ATOMIC CHARGES
----------------------
   0 C :    0.179957
   1 C :   -0.216462
   2 C :   -0.225968
   3 C :   -0.031862
   4 O :   -0.321422
   5 H :    0.102900
   6 H :    0.118079
   7 H :    0.125859
   8 H :    0.118292
   9 H :    0.125020
  10 H :    0.103607
  11 H :    0.108239
  12 C :   -0.047664
  13 H :    0.111470
  14 H :    0.122569
  15 O :   -0.345212
  16 C :    0.006962
  17 C :    0.038514
  18 C :   -0.238846
  19 C :   -0.032479
  20 O :   -0.321835
  21 H :    0.117039
  22 H :    0.107341
  23 O :   -0.431044
  24 H :    0.121965
  25 H :    0.111905
  26 H :    0.102673
  27 H :    0.106356
  28 H :    0.284047

  Mayer bond orders larger than 0.100000
B(  0-C ,  1-C ) :   0.9434 B(  0-C ,  4-O ) :   0.9198 B(  0-C ,  5-H ) :   0.9261
B(  0-C , 15-O ) :   0.8131 B(  1-C ,  2-C ) :   0.9523 B(  1-C ,  6-H ) :   0.9374
B(  1-C ,  7-H ) :   0.9354 B(  2-C ,  3-C ) :   0.9538 B(  2-C ,  8-H ) :   0.9435
B(  2-C ,  9-H ) :   0.9207 B(  3-C ,  4-O ) :   0.8228 B(  3-C , 10-H ) :   0.9243
B(  3-C , 11-H ) :   0.9406 B( 12-C , 13-H ) :   0.9369 B( 12-C , 14-H ) :   0.9245
B( 12-C , 15-O ) :   0.7914 B( 12-C , 16-C ) :   0.8897 B( 16-C , 17-C ) :   0.9119
B( 16-C , 20-O ) :   0.8481 B( 16-C , 21-H ) :   0.9161 B( 17-C , 18-C ) :   0.9039
B( 17-C , 22-H ) :   0.9336 B( 17-C , 23-O ) :   0.9202 B( 18-C , 19-C ) :   0.9403
B( 18-C , 24-H ) :   0.9437 B( 18-C , 25-H ) :   0.9429 B( 19-C , 20-O ) :   0.8338
B( 19-C , 26-H ) :   0.9337 B( 19-C , 27-H ) :   0.9378 B( 23-O , 28-H ) :   0.7192

FINAL SINGLE POINT ENERGY      -652.869452841527

DIPOLE MOMENT
-------------
                                X             Y             Z
Electronic contribution:      0.30919      -2.75725      -0.23915
Nuclear contribution   :     -0.12726       2.93555      -0.05984
                        -----------------------------------------
Total Dipole Moment    :      0.18193       0.17830      -0.29899
                        -----------------------------------------
Magnitude (a.u.)       :      0.39279
Magnitude (Debye)      :      0.99838

Rotational constants in cm-1:     0.051395     0.016783     0.015693
Rotational constants in MHz :  1540.785156   503.133985   470.477244

                             ****ORCA TERMINATED NORMALLY****
TOTAL RUN TIME: 0 days 0 hours 45 minutes 31 seconds 720 msec
