                         Program Version 4.2.0 -  RELEASE  -
|  1> # Test redundant internal optimization
|  2> #
|  3> ! RKS B3LYP  Opt TightSCF SmallPrint
|  4>
|  5> %basis
|  6>         Basis "6-31G"
|  7> end
|  8>
|  9> %geom
| 10> Constraints
| 11> { D 4  0  15  12  315.0   C } # D for Dihedral angle
| 12> { D 0  15  12  16  0.0   C } # D for Dihedral angle
| 13> { D 0  4  3  2   C } # D for Dihedral angle
| 14> { D 4  3  2  1   C } # D for Dihedral angle
| 15> { D 3  2  1  0   C } # D for Dihedral angle
| 16> { D 2  1  0  4   C } # D for Dihedral angle
| 17> { D 1  0  4  3   C } # D for Dihedral angle
| 18> { D 16  20  19  18   C } # D for Dihedral angle
| 19> { D 20  19  18  17   C } # D for Dihedral angle
| 20> { D 19  18  17  16   C } # D for Dihedral angle
| 21> { D 18  17  16  20   C } # D for Dihedral angle
| 22> { D 17  16  20  19   C } # D for Dihedral angle
| 23> { D 15  12  16  20   C } # D for Dihedral angle
| 24> end
| 25> end
| 26>
| 27>
| 28> #%pal
| 29> #nprocs 8
| 30> #end
| 31>
| 32> * xyz 0 1
| 33> C  -21.048   26.222   46.251
| 34> C  -20.361   27.558   45.944
| 35> C  -20.329   28.222   47.341
| 36> C  -20.110   27.022   48.296
| 37> O  -20.473   25.807   47.535
| 38> H  -20.833   25.428   45.533
| 39> H  -19.344   27.382   45.576
| 40> H  -20.898   28.157   45.201
| 41> H  -19.543   28.978   47.434
| 42> H  -21.289   28.710   47.548
| 43> H  -20.733   27.082   49.195
| 44> H  -19.064   26.913   48.597
| 45> C  -23.319   25.255   47.135
| 46> H  -23.837   25.675   48.006
| 47> H  -24.067   24.780   46.487
| 48> O  -22.586   26.394   46.375
| 49> C  -22.351   24.145   47.632
| 50> C  -23.119   22.984   48.273
| 51> C  -23.614   22.210   47.029
| 52> C  -22.453   22.386   46.019
| 53> O  -21.650   23.532   46.499
| 54> H  -21.591   24.594   48.274
| 55> O  -22.152   22.107   49.116
| 56> H  -23.938   23.315   48.921
| 57> H  -23.827   21.156   47.240
| 58> H  -24.534   22.666   46.643
| 59> H  -22.808   22.598   45.004
| 60> H  -21.790   21.517   45.989
| 61> H  -21.324   21.763   48.486
| 62> *
| 63>
| 64>                          ****END OF INPUT****
 Total Charge           Charge          ....    0
 Multiplicity           Mult            ....    1
 Number of Electrons    NEL             ....  102
FINAL SINGLE POINT ENERGY      -652.822167131292
FINAL SINGLE POINT ENERGY      -652.843311002332
FINAL SINGLE POINT ENERGY      -652.856208545564
FINAL SINGLE POINT ENERGY      -652.858238001699
FINAL SINGLE POINT ENERGY      -652.858684135487
FINAL SINGLE POINT ENERGY      -652.858721240262
FINAL SINGLE POINT ENERGY      -652.858727089171
                    ***********************HURRAY********************

CARTESIAN COORDINATES (ANGSTROEM)
---------------------------------
  C    -20.919973   26.268288   46.230075
  C    -20.495602   27.714388   45.968286
  C    -20.427966   28.286379   47.402499
  C    -19.921141   27.090231   48.238252
  O    -20.165473   25.879516   47.406553
  H    -20.653057   25.534739   45.467816
  H    -19.509050   27.716418   45.490915
  H    -21.205757   28.240395   45.327236
  H    -19.767020   29.155125   47.480071
  H    -21.430041   28.584422   47.723687
  H    -20.446457   26.979043   49.191266
  H    -18.843878   27.126460   48.425553
  C    -23.095940   25.217741   47.092118
  H    -23.622681   25.693831   47.930471
  H    -23.850130   24.878185   46.371063
  O    -22.355581   26.281004   46.418072
  C    -22.320565   24.015338   47.635493
  C    -23.231947   22.938849   48.248219
  C    -23.717318   22.177934   46.983832
  C    -22.481001   22.227970   46.050804
  O    -21.606836   23.311750   46.560353
  H    -21.555270   24.342041   48.337431
  O    -22.476958   22.073849   49.139030
  H    -24.048881   23.337444   48.851747
  H    -24.017579   21.158990   47.239011
  H    -24.577294   22.689464   46.538013
  H    -22.745131   22.440883   45.010125
  H    -21.897650   21.302489   46.080116
  H    -21.598825   21.894834   48.740895

 Multiplicity           Mult            ....    1
 Number of Electrons    NEL             ....  102
 Basis Dimension        Dim             ....  149

ORBITAL ENERGIES
----------------

  NO   OCC          E(Eh)            E(eV)
   0   2.0000     -19.140579      -520.8416
   1   2.0000     -19.138322      -520.7802
   2   2.0000     -19.136981      -520.7437
   3   2.0000     -19.134130      -520.6662
   4   2.0000     -10.270509      -279.4747
   5   2.0000     -10.241582      -278.6876
   6   2.0000     -10.230316      -278.3811
   7   2.0000     -10.229147      -278.3492
   8   2.0000     -10.227974      -278.3173
   9   2.0000     -10.223507      -278.1958
  10   2.0000     -10.188015      -277.2300
  11   2.0000     -10.182122      -277.0696
  12   2.0000     -10.179764      -277.0055
  13   2.0000      -1.046144       -28.4670
  14   2.0000      -1.032800       -28.1039
  15   2.0000      -1.003793       -27.3146
  16   2.0000      -0.985114       -26.8063
  17   2.0000      -0.788187       -21.4477
  18   2.0000      -0.779511       -21.2116
  19   2.0000      -0.762100       -20.7378
  20   2.0000      -0.730059       -19.8659
  21   2.0000      -0.671159       -18.2632
  22   2.0000      -0.602491       -16.3946
  23   2.0000      -0.599923       -16.3247
  24   2.0000      -0.594356       -16.1733
  25   2.0000      -0.567414       -15.4401
  26   2.0000      -0.520286       -14.1577
  27   2.0000      -0.508881       -13.8474
  28   2.0000      -0.494139       -13.4462
  29   2.0000      -0.479070       -13.0362
  30   2.0000      -0.472638       -12.8611
  31   2.0000      -0.458079       -12.4650
  32   2.0000      -0.444760       -12.1025
  33   2.0000      -0.439254       -11.9527
  34   2.0000      -0.412761       -11.2318
  35   2.0000      -0.407414       -11.0863
  36   2.0000      -0.396549       -10.7906
  37   2.0000      -0.391871       -10.6634
  38   2.0000      -0.374248       -10.1838
  39   2.0000      -0.366401        -9.9703
  40   2.0000      -0.360671        -9.8144
  41   2.0000      -0.353942        -9.6312
  42   2.0000      -0.344304        -9.3690
  43   2.0000      -0.335229        -9.1220
  44   2.0000      -0.320927        -8.7329
  45   2.0000      -0.306623        -8.3436
  46   2.0000      -0.292243        -7.9523
  47   2.0000      -0.271209        -7.3800
  48   2.0000      -0.258956        -7.0465
  49   2.0000      -0.245990        -6.6937
  50   2.0000      -0.238712        -6.4957
  51   0.0000       0.067095         1.8257
  52   0.0000       0.087322         2.3762
  53   0.0000       0.089396         2.4326
  54   0.0000       0.098137         2.6704
  55   0.0000       0.105997         2.8843

MULLIKEN ATOMIC CHARGES
-----------------------
   0 C :    0.310390
   1 C :   -0.261647
   2 C :   -0.297651
   3 C :   -0.014315
   4 O :   -0.511968
   5 H :    0.166282
   6 H :    0.144371
   7 H :    0.158658
   8 H :    0.139669
   9 H :    0.157755
  10 H :    0.139876
  11 H :    0.147051
  12 C :    0.027607
  13 H :    0.133478
  14 H :    0.137659
  15 O :   -0.553948
  16 C :    0.031190
  17 C :    0.078209
  18 C :   -0.290749
  19 C :   -0.031870
  20 O :   -0.518979
  21 H :    0.197234
  22 O :   -0.604195
  23 H :    0.150420
  24 H :    0.161349
  25 H :    0.140667
  26 H :    0.147185
  27 H :    0.147558
  28 H :    0.368711
Sum of atomic charges:    0.0000000

LOEWDIN ATOMIC CHARGES
----------------------
   0 C :    0.182658
   1 C :   -0.214701
   2 C :   -0.216484
   3 C :   -0.033565
   4 O :   -0.321537
   5 H :    0.107660
   6 H :    0.113534
   7 H :    0.125289
   8 H :    0.112961
   9 H :    0.116951
  10 H :    0.100680
  11 H :    0.104486
  12 C :   -0.033197
  13 H :    0.102750
  14 H :    0.101133
  15 O :   -0.339131
  16 C :   -0.001916
  17 C :    0.037225
  18 C :   -0.240365
  19 C :   -0.039869
  20 O :   -0.326862
  21 H :    0.132210
  22 O :   -0.414921
  23 H :    0.114632
  24 H :    0.126015
  25 H :    0.111267
  26 H :    0.104325
  27 H :    0.103134
  28 H :    0.285638

  Mayer bond orders larger than 0.100000
B(  0-C ,  1-C ) :   0.9413 B(  0-C ,  4-O ) :   0.8840 B(  0-C ,  5-H ) :   0.9180
B(  0-C , 15-O ) :   0.8435 B(  1-C ,  2-C ) :   0.9547 B(  1-C ,  6-H ) :   0.9396
B(  1-C ,  7-H ) :   0.9363 B(  2-C ,  3-C ) :   0.9559 B(  2-C ,  8-H ) :   0.9454
B(  2-C ,  9-H ) :   0.9450 B(  3-C ,  4-O ) :   0.8386 B(  3-C , 10-H ) :   0.9354
B(  3-C , 11-H ) :   0.9401 B( 12-C , 13-H ) :   0.9206 B( 12-C , 14-H ) :   0.9288
B( 12-C , 15-O ) :   0.8409 B( 12-C , 16-C ) :   0.9047 B( 16-C , 17-C ) :   0.8925
B( 16-C , 20-O ) :   0.8344 B( 16-C , 21-H ) :   0.9019 B( 17-C , 18-C ) :   0.9089
B( 17-C , 22-O ) :   0.8945 B( 17-C , 23-H ) :   0.9337 B( 18-C , 19-C ) :   0.9395
B( 18-C , 24-H ) :   0.9381 B( 18-C , 25-H ) :   0.9337 B( 19-C , 20-O ) :   0.8507
B( 19-C , 26-H ) :   0.9343 B( 19-C , 27-H ) :   0.9379 B( 22-O , 28-H ) :   0.7916

FINAL SINGLE POINT ENERGY      -652.858727456189

DIPOLE MOMENT
-------------
                                X             Y             Z
Electronic contribution:      0.91181      -2.74553       0.54416
Nuclear contribution   :     -1.18851       3.12741      -0.85556
                        -----------------------------------------
Total Dipole Moment    :     -0.27670       0.38188      -0.31140
                        -----------------------------------------
Magnitude (a.u.)       :      0.56512
Magnitude (Debye)      :      1.43643

Rotational constants in cm-1:     0.058506     0.014459     0.013574
Rotational constants in MHz :  1753.953645   433.456917   406.927279

                             ****ORCA TERMINATED NORMALLY****
TOTAL RUN TIME: 0 days 1 hours 7 minutes 4 seconds 252 msec
