                         Program Version 4.2.0 -  RELEASE  -
|  1> # Test redundant internal optimization
|  2> #
|  3> ! RKS B3LYP  Opt TightSCF SmallPrint
|  4>
|  5> %basis
|  6>         Basis "6-31G"
|  7> end
|  8>
|  9> %geom
| 10> Constraints
| 11> { D 4  0  15  12  195.0   C } # D for Dihedral angle
| 12> { D 0  15  12  16  120.0   C } # D for Dihedral angle
| 13> { D 0  4  3  2   C } # D for Dihedral angle
| 14> { D 4  3  2  1   C } # D for Dihedral angle
| 15> { D 3  2  1  0   C } # D for Dihedral angle
| 16> { D 2  1  0  4   C } # D for Dihedral angle
| 17> { D 1  0  4  3   C } # D for Dihedral angle
| 18> { D 16  20  19  18   C } # D for Dihedral angle
| 19> { D 20  19  18  17   C } # D for Dihedral angle
| 20> { D 19  18  17  16   C } # D for Dihedral angle
| 21> { D 18  17  16  20   C } # D for Dihedral angle
| 22> { D 17  16  20  19   C } # D for Dihedral angle
| 23> { D 15  12  16  20   C } # D for Dihedral angle
| 24> end
| 25> end
| 26>
| 27>
| 28> #%pal
| 29> #nprocs 8
| 30> #end
| 31>
| 32> * xyz 0 1
| 33> C  -21.048   26.222   46.251
| 34> C  -20.361   27.558   45.944
| 35> C  -20.329   28.222   47.341
| 36> C  -20.110   27.022   48.296
| 37> O  -20.473   25.807   47.535
| 38> H  -20.833   25.428   45.533
| 39> H  -19.344   27.382   45.576
| 40> H  -20.898   28.157   45.201
| 41> H  -19.543   28.978   47.434
| 42> H  -21.289   28.710   47.548
| 43> H  -20.733   27.082   49.195
| 44> H  -19.064   26.913   48.597
| 45> C  -23.353   26.472   45.026
| 46> H  -23.872   27.437   44.960
| 47> H  -22.654   26.400   44.183
| 48> O  -22.586   26.394   46.375
| 49> C  -24.405   25.340   44.867
| 50> C  -25.521   25.467   45.910
| 51> C  -26.400   26.581   45.294
| 52> C  -26.289   26.315   43.771
| 53> O  -25.097   25.461   43.580
| 54> H  -23.894   24.375   44.866
| 55> O  -26.312   24.134   46.007
| 56> H  -25.151   25.720   46.909
| 57> H  -27.435   26.549   45.648
| 58> H  -25.990   27.566   45.546
| 59> H  -26.166   27.237   43.193
| 60> H  -27.148   25.764   43.380
| 61> H  -26.694   23.859   45.016
| 62> *
| 63>
| 64>                          ****END OF INPUT****
 Total Charge           Charge          ....    0
 Multiplicity           Mult            ....    1
 Number of Electrons    NEL             ....  102
FINAL SINGLE POINT ENERGY      -652.835562978513
FINAL SINGLE POINT ENERGY      -652.858173375708
FINAL SINGLE POINT ENERGY      -652.861324933279
FINAL SINGLE POINT ENERGY      -652.861882683955
FINAL SINGLE POINT ENERGY      -652.861966154751
FINAL SINGLE POINT ENERGY      -652.861975492118
                    ***********************HURRAY********************

CARTESIAN COORDINATES (ANGSTROEM)
---------------------------------
  C    -21.133628   26.205943   46.160378
  C    -20.380949   27.510646   45.912025
  C    -20.426265   28.178497   47.307465
  C    -20.322797   26.975615   48.267324
  O    -20.680734   25.783376   47.451273
  H    -20.923442   25.398380   45.451599
  H    -19.348886   27.283149   45.619593
  H    -20.832875   28.124874   45.127772
  H    -19.617874   28.901032   47.453447
  H    -21.381683   28.695097   47.438775
  H    -21.011120   27.035511   49.113548
  H    -19.306317   26.807209   48.634340
  C    -23.277865   26.532325   44.966983
  H    -23.738382   27.525307   44.904272
  H    -22.591683   26.425793   44.116775
  O    -22.574398   26.427870   46.239825
  C    -24.331745   25.427291   44.889401
  C    -25.435033   25.511409   45.953537
  C    -26.368339   26.590676   45.350378
  C    -26.275596   26.330073   43.826165
  O    -25.048988   25.519208   43.611952
  H    -23.840025   24.450285   44.916219
  O    -26.116404   24.233085   46.092354
  H    -25.052838   25.755847   46.942957
  H    -27.383689   26.485410   45.739456
  H    -26.004833   27.592372   45.605336
  H    -26.199348   27.250558   43.239691
  H    -27.118422   25.743659   43.447314
  H    -26.267844   23.851501   45.201847

 Multiplicity           Mult            ....    1
 Number of Electrons    NEL             ....  102
 Basis Dimension        Dim             ....  149

ORBITAL ENERGIES
----------------

  NO   OCC          E(Eh)            E(eV)
   0   2.0000     -19.145017      -520.9624
   1   2.0000     -19.144026      -520.9354
   2   2.0000     -19.142892      -520.9046
   3   2.0000     -19.132744      -520.6284
   4   2.0000     -10.282814      -279.8096
   5   2.0000     -10.234110      -278.4843
   6   2.0000     -10.233441      -278.4661
   7   2.0000     -10.232024      -278.4275
   8   2.0000     -10.231694      -278.4186
   9   2.0000     -10.226762      -278.2843
  10   2.0000     -10.189308      -277.2652
  11   2.0000     -10.188689      -277.2483
  12   2.0000     -10.186423      -277.1867
  13   2.0000      -1.055711       -28.7274
  14   2.0000      -1.035013       -28.1641
  15   2.0000      -1.002527       -27.2802
  16   2.0000      -0.996970       -27.1289
  17   2.0000      -0.789519       -21.4839
  18   2.0000      -0.778701       -21.1895
  19   2.0000      -0.767424       -20.8827
  20   2.0000      -0.732358       -19.9285
  21   2.0000      -0.676531       -18.4093
  22   2.0000      -0.603428       -16.4201
  23   2.0000      -0.602560       -16.3965
  24   2.0000      -0.595995       -16.2178
  25   2.0000      -0.578263       -15.7353
  26   2.0000      -0.521100       -14.1798
  27   2.0000      -0.518981       -14.1222
  28   2.0000      -0.497561       -13.5393
  29   2.0000      -0.491538       -13.3754
  30   2.0000      -0.470422       -12.8008
  31   2.0000      -0.457540       -12.4503
  32   2.0000      -0.454997       -12.3811
  33   2.0000      -0.440889       -11.9972
  34   2.0000      -0.425331       -11.5738
  35   2.0000      -0.413061       -11.2400
  36   2.0000      -0.402034       -10.9399
  37   2.0000      -0.390818       -10.6347
  38   2.0000      -0.377083       -10.2609
  39   2.0000      -0.367258        -9.9936
  40   2.0000      -0.360664        -9.8142
  41   2.0000      -0.358282        -9.7493
  42   2.0000      -0.355262        -9.6672
  43   2.0000      -0.331652        -9.0247
  44   2.0000      -0.316289        -8.6067
  45   2.0000      -0.311514        -8.4767
  46   2.0000      -0.301137        -8.1944
  47   2.0000      -0.275346        -7.4925
  48   2.0000      -0.261349        -7.1117
  49   2.0000      -0.257412        -7.0045
  50   2.0000      -0.241333        -6.5670
  51   0.0000       0.065950         1.7946
  52   0.0000       0.072839         1.9820
  53   0.0000       0.094990         2.5848
  54   0.0000       0.098590         2.6828
  55   0.0000       0.103839         2.8256

MULLIKEN ATOMIC CHARGES
-----------------------
   0 C :    0.296693
   1 C :   -0.269247
   2 C :   -0.298142
   3 C :   -0.002118
   4 O :   -0.501486
   5 H :    0.143562
   6 H :    0.146302
   7 H :    0.144333
   8 H :    0.143153
   9 H :    0.158930
  10 H :    0.156037
  11 H :    0.143303
  12 C :   -0.025759
  13 H :    0.138130
  14 H :    0.142631
  15 O :   -0.513419
  16 C :    0.061378
  17 C :    0.096179
  18 C :   -0.294455
  19 C :   -0.034341
  20 O :   -0.528249
  21 H :    0.162237
  22 O :   -0.604330
  23 H :    0.179697
  24 H :    0.162011
  25 H :    0.141132
  26 H :    0.146270
  27 H :    0.147472
  28 H :    0.362095
Sum of atomic charges:    0.0000000

LOEWDIN ATOMIC CHARGES
----------------------
   0 C :    0.180533
   1 C :   -0.230460
   2 C :   -0.216644
   3 C :   -0.024425
   4 O :   -0.301860
   5 H :    0.098047
   6 H :    0.114765
   7 H :    0.114680
   8 H :    0.114960
   9 H :    0.117624
  10 H :    0.110391
  11 H :    0.103366
  12 C :   -0.043994
  13 H :    0.100307
  14 H :    0.104779
  15 O :   -0.339601
  16 C :    0.012207
  17 C :    0.039863
  18 C :   -0.239845
  19 C :   -0.039262
  20 O :   -0.333840
  21 H :    0.116766
  22 O :   -0.414942
  23 H :    0.130073
  24 H :    0.126831
  25 H :    0.112087
  26 H :    0.103567
  27 H :    0.103031
  28 H :    0.280996

  Mayer bond orders larger than 0.100000
B(  0-C ,  1-C ) :   0.9290 B(  0-C ,  4-O ) :   0.9438 B(  0-C ,  5-H ) :   0.9195
B(  0-C , 15-O ) :   0.8252 B(  1-C ,  2-C ) :   0.9523 B(  1-C ,  6-H ) :   0.9337
B(  1-C ,  7-H ) :   0.9361 B(  2-C ,  3-C ) :   0.9559 B(  2-C ,  8-H ) :   0.9449
B(  2-C ,  9-H ) :   0.9446 B(  3-C ,  4-O ) :   0.8335 B(  3-C , 10-H ) :   0.9343
B(  3-C , 11-H ) :   0.9397 B( 12-C , 13-H ) :   0.9307 B( 12-C , 14-H ) :   0.9187
B( 12-C , 15-O ) :   0.8339 B( 12-C , 16-C ) :   0.8890 B( 16-C , 17-C ) :   0.9164
B( 16-C , 20-O ) :   0.8399 B( 16-C , 21-H ) :   0.9271 B( 17-C , 18-C ) :   0.9110
B( 17-C , 22-O ) :   0.8885 B( 17-C , 23-H ) :   0.9234 B( 18-C , 19-C ) :   0.9406
B( 18-C , 24-H ) :   0.9384 B( 18-C , 25-H ) :   0.9355 B( 19-C , 20-O ) :   0.8440
B( 19-C , 26-H ) :   0.9354 B( 19-C , 27-H ) :   0.9380 B( 22-O , 28-H ) :   0.7961

FINAL SINGLE POINT ENERGY      -652.861976804822

DIPOLE MOMENT
-------------
                                X             Y             Z
Electronic contribution:     -1.39474      -5.76458      -0.06188
Nuclear contribution   :      1.73454       7.22952      -0.53330
                        -----------------------------------------
Total Dipole Moment    :      0.33980       1.46494      -0.59518
                        -----------------------------------------
Magnitude (a.u.)       :      1.61733
Magnitude (Debye)      :      4.11092

Rotational constants in cm-1:     0.059691     0.011840     0.011166
Rotational constants in MHz :  1789.488633   354.950957   334.755289

                             ****ORCA TERMINATED NORMALLY****
TOTAL RUN TIME: 0 days 0 hours 17 minutes 55 seconds 130 msec
