                         Program Version 4.2.0 -  RELEASE  -
|  1> # Test redundant internal optimization
|  2> #
|  3> ! RKS B3LYP  Opt TightSCF SmallPrint
|  4>
|  5> %basis
|  6>         Basis "6-31G"
|  7> end
|  8>
|  9> %geom
| 10> Constraints
| 11> { D 4  0  15  12  30.0   C } # D for Dihedral angle
| 12> { D 0  15  12  16  225.0   C } # D for Dihedral angle
| 13> { D 0  4  3  2   C } # D for Dihedral angle
| 14> { D 4  3  2  1   C } # D for Dihedral angle
| 15> { D 3  2  1  0   C } # D for Dihedral angle
| 16> { D 2  1  0  4   C } # D for Dihedral angle
| 17> { D 1  0  4  3   C } # D for Dihedral angle
| 18> { D 16  20  19  18   C } # D for Dihedral angle
| 19> { D 20  19  18  17   C } # D for Dihedral angle
| 20> { D 19  18  17  16   C } # D for Dihedral angle
| 21> { D 18  17  16  20   C } # D for Dihedral angle
| 22> { D 17  16  20  19   C } # D for Dihedral angle
| 23> { D 15  12  16  20   C } # D for Dihedral angle
| 24> end
| 25> end
| 26>
| 27>
| 28> #%pal
| 29> #nprocs 8
| 30> #end
| 31>
| 32> * xyz 0 1
| 33> C  -21.048   26.222   46.251
| 34> C  -20.361   27.558   45.944
| 35> C  -20.329   28.222   47.341
| 36> C  -20.110   27.022   48.296
| 37> O  -20.473   25.807   47.535
| 38> H  -20.833   25.428   45.533
| 39> H  -19.344   27.382   45.576
| 40> H  -20.898   28.157   45.201
| 41> H  -19.543   28.978   47.434
| 42> H  -21.289   28.710   47.548
| 43> H  -20.733   27.082   49.195
| 44> H  -19.064   26.913   48.597
| 45> C  -23.091   26.824   47.779
| 46> H  -22.287   26.683   48.512
| 47> H  -23.372   27.885   47.778
| 48> O  -22.586   26.394   46.375
| 49> C  -24.328   26.009   48.248
| 50> C  -25.467   26.086   47.224
| 51> C  -25.002   25.062   46.161
| 52> C  -24.304   23.968   47.008
| 53> O  -24.004   24.581   48.321
| 54> H  -24.605   26.326   49.255
| 55> H  -26.408   25.765   47.684
| 56> O  -25.667   27.511   46.639
| 57> H  -25.829   24.663   45.565
| 58> H  -24.289   25.531   45.473
| 59> H  -23.371   23.617   46.554
| 60> H  -24.952   23.107   47.195
| 61> H  -24.736   27.852   46.174
| 62> *
| 63>
| 64>                          ****END OF INPUT****
 Total Charge           Charge          ....    0
 Multiplicity           Mult            ....    1
 Number of Electrons    NEL             ....  102
FINAL SINGLE POINT ENERGY      -652.824327011784
FINAL SINGLE POINT ENERGY      -652.849048461634
FINAL SINGLE POINT ENERGY      -652.855955099068
FINAL SINGLE POINT ENERGY      -652.858427881301
FINAL SINGLE POINT ENERGY      -652.858702259589
FINAL SINGLE POINT ENERGY      -652.858748433735
FINAL SINGLE POINT ENERGY      -652.858751878406
                    ***********************HURRAY********************

CARTESIAN COORDINATES (ANGSTROEM)
---------------------------------
  C    -21.107569   26.311306   46.417229
  C    -20.387856   27.596175   45.996344
  C    -20.129490   28.283132   47.363854
  C    -19.860275   27.085633   48.304261
  O    -20.405533   25.890130   47.602197
  H    -21.015330   25.499438   45.694262
  H    -19.442555   27.332573   45.508552
  H    -20.984911   28.201469   45.310460
  H    -19.285385   28.978594   47.332346
  H    -21.013798   28.845744   47.682006
  H    -20.344789   27.176964   49.280220
  H    -18.793106   26.897133   48.451908
  C    -23.138324   26.850278   47.843479
  H    -22.410000   26.695965   48.643174
  H    -23.438073   27.906299   47.816225
  O    -22.547799   26.467553   46.565978
  C    -24.358686   25.988665   48.165685
  C    -25.503495   26.062765   47.140491
  C    -25.061277   25.001875   46.086397
  C    -24.383957   23.923792   46.958543
  O    -24.067849   24.567493   48.260385
  H    -24.704426   26.300037   49.159368
  H    -26.447212   25.782926   47.613332
  O    -25.733702   27.386184   46.596938
  H    -25.909133   24.612888   45.514964
  H    -24.340765   25.459563   45.404584
  H    -23.456325   23.546017   46.521324
  H    -25.048798   23.082059   47.176887
  H    -25.002582   27.612350   45.984610

 Multiplicity           Mult            ....    1
 Number of Electrons    NEL             ....  102
 Basis Dimension        Dim             ....  149

ORBITAL ENERGIES
----------------

  NO   OCC          E(Eh)            E(eV)
   0   2.0000     -19.153438      -521.1915
   1   2.0000     -19.146963      -521.0154
   2   2.0000     -19.135823      -520.7122
   3   2.0000     -19.128294      -520.5073
   4   2.0000     -10.285168      -279.8736
   5   2.0000     -10.236578      -278.5515
   6   2.0000     -10.231695      -278.4186
   7   2.0000     -10.228766      -278.3389
   8   2.0000     -10.225200      -278.2418
   9   2.0000     -10.216687      -278.0102
  10   2.0000     -10.197659      -277.4924
  11   2.0000     -10.192281      -277.3461
  12   2.0000     -10.174687      -276.8673
  13   2.0000      -1.059032       -28.8177
  14   2.0000      -1.023394       -27.8480
  15   2.0000      -1.005685       -27.3661
  16   2.0000      -0.996234       -27.1089
  17   2.0000      -0.794719       -21.6254
  18   2.0000      -0.773085       -21.0367
  19   2.0000      -0.762952       -20.7610
  20   2.0000      -0.734982       -19.9999
  21   2.0000      -0.676488       -18.4082
  22   2.0000      -0.609276       -16.5793
  23   2.0000      -0.601914       -16.3789
  24   2.0000      -0.596915       -16.2429
  25   2.0000      -0.560921       -15.2634
  26   2.0000      -0.527639       -14.3578
  27   2.0000      -0.510403       -13.8888
  28   2.0000      -0.497936       -13.5495
  29   2.0000      -0.487022       -13.2525
  30   2.0000      -0.475619       -12.9423
  31   2.0000      -0.460281       -12.5249
  32   2.0000      -0.437089       -11.8938
  33   2.0000      -0.430685       -11.7195
  34   2.0000      -0.424619       -11.5545
  35   2.0000      -0.415202       -11.2982
  36   2.0000      -0.400238       -10.8910
  37   2.0000      -0.390238       -10.6189
  38   2.0000      -0.381991       -10.3945
  39   2.0000      -0.372013       -10.1230
  40   2.0000      -0.365819        -9.9544
  41   2.0000      -0.357492        -9.7278
  42   2.0000      -0.344792        -9.3823
  43   2.0000      -0.329086        -8.9549
  44   2.0000      -0.321305        -8.7431
  45   2.0000      -0.310697        -8.4545
  46   2.0000      -0.301481        -8.2037
  47   2.0000      -0.269983        -7.3466
  48   2.0000      -0.261588        -7.1182
  49   2.0000      -0.256125        -6.9695
  50   2.0000      -0.231902        -6.3104
  51   0.0000       0.064357         1.7512
  52   0.0000       0.085372         2.3231
  53   0.0000       0.092303         2.5117
  54   0.0000       0.094411         2.5691
  55   0.0000       0.103828         2.8253

MULLIKEN ATOMIC CHARGES
-----------------------
   0 C :    0.306556
   1 C :   -0.261181
   2 C :   -0.312067
   3 C :   -0.024149
   4 O :   -0.500041
   5 H :    0.161577
   6 H :    0.149915
   7 H :    0.151673
   8 H :    0.150689
   9 H :    0.152618
  10 H :    0.149657
  11 H :    0.154075
  12 C :   -0.034649
  13 H :    0.168140
  14 H :    0.134365
  15 O :   -0.550323
  16 C :    0.103882
  17 C :    0.088209
  18 C :   -0.309216
  19 C :   -0.001936
  20 O :   -0.518478
  21 H :    0.141624
  22 H :    0.157308
  23 O :   -0.610353
  24 H :    0.139878
  25 H :    0.164197
  26 H :    0.145391
  27 H :    0.139519
  28 H :    0.363123
Sum of atomic charges:    0.0000000

LOEWDIN ATOMIC CHARGES
----------------------
   0 C :    0.182265
   1 C :   -0.225921
   2 C :   -0.222422
   3 C :   -0.034622
   4 O :   -0.310299
   5 H :    0.110224
   6 H :    0.117219
   7 H :    0.120653
   8 H :    0.119041
   9 H :    0.112380
  10 H :    0.103625
  11 H :    0.108326
  12 C :   -0.053056
  13 H :    0.117427
  14 H :    0.097907
  15 O :   -0.344555
  16 C :    0.018825
  17 C :    0.037287
  18 C :   -0.242488
  19 C :   -0.024022
  20 O :   -0.319956
  21 H :    0.111177
  22 H :    0.114337
  23 O :   -0.413823
  24 H :    0.113194
  25 H :    0.121192
  26 H :    0.104808
  27 H :    0.099688
  28 H :    0.281590

  Mayer bond orders larger than 0.100000
B(  0-C ,  1-C ) :   0.9196 B(  0-C ,  4-O ) :   0.9213 B(  0-C ,  5-H ) :   0.9347
B(  0-C , 15-O ) :   0.8525 B(  1-C ,  2-C ) :   0.9548 B(  1-C ,  6-H ) :   0.9344
B(  1-C ,  7-H ) :   0.9378 B(  2-C ,  3-C ) :   0.9494 B(  2-C ,  8-H ) :   0.9445
B(  2-C ,  9-H ) :   0.9436 B(  3-C ,  4-O ) :   0.8326 B(  3-C , 10-H ) :   0.9295
B(  3-C , 11-H ) :   0.9396 B( 12-C , 13-H ) :   0.9100 B( 12-C , 14-H ) :   0.9087
B( 12-C , 15-O ) :   0.8326 B( 12-C , 16-C ) :   0.8987 B( 16-C , 17-C ) :   0.8891
B( 16-C , 20-O ) :   0.8852 B( 16-C , 21-H ) :   0.9276 B( 17-C , 18-C ) :   0.9338
B( 17-C , 22-H ) :   0.9377 B( 17-C , 23-O ) :   0.8968 B( 18-C , 19-C ) :   0.9448
B( 18-C , 24-H ) :   0.9418 B( 18-C , 25-H ) :   0.9274 B( 19-C , 20-O ) :   0.8377
B( 19-C , 26-H ) :   0.9330 B( 19-C , 27-H ) :   0.9379 B( 23-O , 28-H ) :   0.7934

FINAL SINGLE POINT ENERGY      -652.858750206084

DIPOLE MOMENT
-------------
                                X             Y             Z
Electronic contribution:     -2.53347      -2.61966       1.07916
Nuclear contribution   :      3.46035       3.42092      -1.58753
                        -----------------------------------------
Total Dipole Moment    :      0.92687       0.80126      -0.50837
                        -----------------------------------------
Magnitude (a.u.)       :      1.32648
Magnitude (Debye)      :      3.37164

Rotational constants in cm-1:     0.049877     0.015911     0.014645
Rotational constants in MHz :  1495.271096   477.013900   439.039334

                             ****ORCA TERMINATED NORMALLY****
TOTAL RUN TIME: 0 days 0 hours 39 minutes 12 seconds 984 msec
