                         Program Version 4.2.0 -  RELEASE  -
|  1> # Test redundant internal optimization
|  2> #
|  3> ! RKS B3LYP  Opt TightSCF SmallPrint
|  4>
|  5> %basis
|  6>         Basis "6-31G"
|  7> end
|  8>
|  9> %geom
| 10> Constraints
| 11> { D 4  0  15  12  0.0   C } # D for Dihedral angle
| 12> { D 0  15  12  16  300.0   C } # D for Dihedral angle
| 13> { D 0  4  3  2   C } # D for Dihedral angle
| 14> { D 4  3  2  1   C } # D for Dihedral angle
| 15> { D 3  2  1  0   C } # D for Dihedral angle
| 16> { D 2  1  0  4   C } # D for Dihedral angle
| 17> { D 1  0  4  3   C } # D for Dihedral angle
| 18> { D 16  20  19  18   C } # D for Dihedral angle
| 19> { D 20  19  18  17   C } # D for Dihedral angle
| 20> { D 19  18  17  16   C } # D for Dihedral angle
| 21> { D 18  17  16  20   C } # D for Dihedral angle
| 22> { D 17  16  20  19   C } # D for Dihedral angle
| 23> { D 15  12  16  20   C } # D for Dihedral angle
| 24> end
| 25> end
| 26>
| 27>
| 28> #%pal
| 29> #nprocs 8
| 30> #end
| 31>
| 32> * xyz 0 1
| 33> C  -21.048   26.222   46.251
| 34> C  -20.361   27.558   45.944
| 35> C  -20.329   28.222   47.341
| 36> C  -20.110   27.022   48.296
| 37> O  -20.473   25.807   47.535
| 38> H  -20.833   25.428   45.533
| 39> H  -19.344   27.382   45.576
| 40> H  -20.898   28.157   45.201
| 41> H  -19.543   28.978   47.434
| 42> H  -21.289   28.710   47.548
| 43> H  -20.733   27.082   49.195
| 44> H  -19.064   26.913   48.597
| 45> C  -23.172   26.101   47.783
| 46> H  -22.726   26.789   48.512
| 47> H  -24.259   26.255   47.787
| 48> O  -22.586   26.394   46.375
| 49> C  -22.900   24.646   48.256
| 50> C  -23.418   23.623   47.238
| 51> C  -22.299   23.649   46.170
| 52> C  -21.016   23.871   47.010
| 53> O  -21.457   24.390   48.323
| 54> H  -23.294   24.518   49.266
| 55> H  -23.487   22.633   47.702
| 56> O  -24.811   23.991   46.659
| 57> H  -22.256   22.730   45.577
| 58> H  -22.457   24.486   45.479
| 59> H  -20.332   24.592   46.550
| 60> H  -20.474   22.939   47.198
| 61> H  -24.766   24.980   46.190
| 62> *
| 63>
| 64>                          ****END OF INPUT****
 Total Charge           Charge          ....    0
 Multiplicity           Mult            ....    1
 Number of Electrons    NEL             ....  102
FINAL SINGLE POINT ENERGY      -652.682244592274
FINAL SINGLE POINT ENERGY      -652.756771763655
FINAL SINGLE POINT ENERGY      -652.796242531335
FINAL SINGLE POINT ENERGY      -652.820065619127
FINAL SINGLE POINT ENERGY      -652.833797044960
FINAL SINGLE POINT ENERGY      -652.841835622691
FINAL SINGLE POINT ENERGY      -652.846388227051
FINAL SINGLE POINT ENERGY      -652.848828378776
FINAL SINGLE POINT ENERGY      -652.849799622097
FINAL SINGLE POINT ENERGY      -652.849951433994
FINAL SINGLE POINT ENERGY      -652.849995126173
FINAL SINGLE POINT ENERGY      -652.850017791261
FINAL SINGLE POINT ENERGY      -652.850025099132
FINAL SINGLE POINT ENERGY      -652.850029364460
                    ***********************HURRAY********************

CARTESIAN COORDINATES (ANGSTROEM)
---------------------------------
  C    -21.004873   26.591921   46.161006
  C    -20.563715   28.047631   46.016082
  C    -20.289868   28.448513   47.486350
  C    -19.725093   27.146317   48.099280
  O    -20.128363   26.060028   47.164286
  H    -20.873266   25.973570   45.270638
  H    -19.643167   28.090894   45.421388
  H    -21.327788   28.661128   45.535034
  H    -19.590283   29.285133   47.571776
  H    -21.226390   28.736898   47.974313
  H    -20.127444   26.909643   49.086821
  H    -18.631831   27.131914   48.138731
  C    -23.078252   26.081093   47.684472
  H    -22.770759   26.721123   48.524804
  H    -24.139516   26.265200   47.495436
  O    -22.430927   26.575412   46.471185
  C    -22.962849   24.619813   48.165377
  C    -23.570394   23.604254   47.184026
  C    -22.341260   23.237228   46.293917
  C    -21.172148   23.288325   47.303149
  O    -21.659880   24.068673   48.471565
  H    -23.518601   24.618100   49.112546
  H    -23.930657   22.726903   47.725746
  O    -24.720204   24.083725   46.445949
  H    -22.451152   22.260522   45.815296
  H    -22.231649   23.997053   45.510752
  H    -20.280871   23.782726   46.918307
  H    -20.913068   22.294502   47.681050
  H    -24.430733   24.759761   45.796720

 Multiplicity           Mult            ....    1
 Number of Electrons    NEL             ....  102
 Basis Dimension        Dim             ....  149

ORBITAL ENERGIES
----------------

  NO   OCC          E(Eh)            E(eV)
   0   2.0000     -19.149189      -521.0759
   1   2.0000     -19.140001      -520.8259
   2   2.0000     -19.137025      -520.7449
   3   2.0000     -19.128683      -520.5179
   4   2.0000     -10.284057      -279.8434
   5   2.0000     -10.232662      -278.4449
   6   2.0000     -10.231087      -278.4020
   7   2.0000     -10.230465      -278.3851
   8   2.0000     -10.226730      -278.2835
   9   2.0000     -10.212788      -277.9041
  10   2.0000     -10.191224      -277.3173
  11   2.0000     -10.186449      -277.1874
  12   2.0000     -10.181495      -277.0526
  13   2.0000      -1.054514       -28.6948
  14   2.0000      -1.023173       -27.8419
  15   2.0000      -1.005192       -27.3527
  16   2.0000      -0.992015       -26.9941
  17   2.0000      -0.790717       -21.5165
  18   2.0000      -0.770693       -20.9716
  19   2.0000      -0.765126       -20.8201
  20   2.0000      -0.733659       -19.9639
  21   2.0000      -0.676375       -18.4051
  22   2.0000      -0.605125       -16.4663
  23   2.0000      -0.603130       -16.4120
  24   2.0000      -0.597615       -16.2619
  25   2.0000      -0.555059       -15.1039
  26   2.0000      -0.526061       -14.3149
  27   2.0000      -0.507383       -13.8066
  28   2.0000      -0.498812       -13.5734
  29   2.0000      -0.482180       -13.1208
  30   2.0000      -0.468295       -12.7430
  31   2.0000      -0.457844       -12.4586
  32   2.0000      -0.438047       -11.9199
  33   2.0000      -0.427245       -11.6259
  34   2.0000      -0.417596       -11.3634
  35   2.0000      -0.410798       -11.1784
  36   2.0000      -0.405363       -11.0305
  37   2.0000      -0.390325       -10.6213
  38   2.0000      -0.378783       -10.3072
  39   2.0000      -0.369262       -10.0481
  40   2.0000      -0.359856        -9.7922
  41   2.0000      -0.357105        -9.7173
  42   2.0000      -0.345115        -9.3911
  43   2.0000      -0.330297        -8.9878
  44   2.0000      -0.316731        -8.6187
  45   2.0000      -0.307623        -8.3709
  46   2.0000      -0.298637        -8.1263
  47   2.0000      -0.268857        -7.3160
  48   2.0000      -0.259177        -7.0526
  49   2.0000      -0.255241        -6.9455
  50   2.0000      -0.224842        -6.1183
  51   0.0000       0.062967         1.7134
  52   0.0000       0.087211         2.3731
  53   0.0000       0.089049         2.4231
  54   0.0000       0.097819         2.6618
  55   0.0000       0.103096         2.8054

MULLIKEN ATOMIC CHARGES
-----------------------
   0 C :    0.313913
   1 C :   -0.253056
   2 C :   -0.314696
   3 C :   -0.012024
   4 O :   -0.504039
   5 H :    0.147445
   6 H :    0.142459
   7 H :    0.157577
   8 H :    0.146972
   9 H :    0.157337
  10 H :    0.160909
  11 H :    0.151101
  12 C :   -0.027799
  13 H :    0.132338
  14 H :    0.163692
  15 O :   -0.566817
  16 C :    0.103414
  17 C :    0.084128
  18 C :   -0.320417
  19 C :   -0.005928
  20 O :   -0.515075
  21 H :    0.143922
  22 H :    0.160807
  23 O :   -0.608387
  24 H :    0.148007
  25 H :    0.142978
  26 H :    0.169704
  27 H :    0.135677
  28 H :    0.365857
Sum of atomic charges:   -0.0000000

LOEWDIN ATOMIC CHARGES
----------------------
   0 C :    0.182202
   1 C :   -0.218081
   2 C :   -0.219661
   3 C :   -0.029574
   4 O :   -0.303904
   5 H :    0.099296
   6 H :    0.112039
   7 H :    0.124122
   8 H :    0.117246
   9 H :    0.115124
  10 H :    0.111380
  11 H :    0.106941
  12 C :   -0.047114
  13 H :    0.094527
  14 H :    0.122413
  15 O :   -0.361526
  16 C :    0.007196
  17 C :    0.032226
  18 C :   -0.240066
  19 C :   -0.031778
  20 O :   -0.314898
  21 H :    0.114254
  22 H :    0.115321
  23 O :   -0.412224
  24 H :    0.118119
  25 H :    0.108823
  26 H :    0.115821
  27 H :    0.098936
  28 H :    0.282838

  Mayer bond orders larger than 0.100000
B(  0-C ,  1-C ) :   0.9339 B(  0-C ,  4-O ) :   0.9222 B(  0-C ,  5-H ) :   0.9264
B(  0-C , 15-O ) :   0.8243 B(  1-C ,  2-C ) :   0.9551 B(  1-C ,  6-H ) :   0.9358
B(  1-C ,  7-H ) :   0.9370 B(  2-C ,  3-C ) :   0.9533 B(  2-C ,  8-H ) :   0.9445
B(  2-C ,  9-H ) :   0.9440 B(  3-C ,  4-O ) :   0.8201 B(  3-C , 10-H ) :   0.9301
B(  3-C , 11-H ) :   0.9398 B( 12-C , 13-H ) :   0.9266 B( 12-C , 14-H ) :   0.9166
B( 12-C , 15-O ) :   0.8383 B( 12-C , 16-C ) :   0.8844 B( 16-C , 17-C ) :   0.8822
B( 16-C , 20-O ) :   0.8918 B( 16-C , 21-H ) :   0.9176 B( 17-C , 18-C ) :   0.9296
B( 17-C , 22-H ) :   0.9366 B( 17-C , 23-O ) :   0.8994 B( 18-C , 19-C ) :   0.9447
B( 18-C , 24-H ) :   0.9423 B( 18-C , 25-H ) :   0.9357 B( 19-C , 20-O ) :   0.8293
B( 19-C , 26-H ) :   0.9133 B( 19-C , 27-H ) :   0.9399 B( 23-O , 28-H ) :   0.7895

FINAL SINGLE POINT ENERGY      -652.850032848235

DIPOLE MOMENT
-------------
                                X             Y             Z
Electronic contribution:     -2.37868      -2.86071       0.40119
Nuclear contribution   :      3.09415       3.64402      -0.68613
                        -----------------------------------------
Total Dipole Moment    :      0.71547       0.78331      -0.28494
                        -----------------------------------------
Magnitude (a.u.)       :      1.09848
Magnitude (Debye)      :      2.79211

Rotational constants in cm-1:     0.048922     0.018540     0.016530
Rotational constants in MHz :  1466.654470   555.823605   495.550067

                             ****ORCA TERMINATED NORMALLY****
TOTAL RUN TIME: 0 days 0 hours 52 minutes 8 seconds 976 msec
