                         Program Version 4.2.0 -  RELEASE  -
|  1> # Test redundant internal optimization
|  2> #
|  3> ! RKS B3LYP  Opt TightSCF SmallPrint
|  4>
|  5> %basis
|  6>         Basis "6-31G"
|  7> end
|  8>
|  9> %geom
| 10> Constraints
| 11> { D 4  0  15  12  255.0   C } # D for Dihedral angle
| 12> { D 0  15  12  16  135.0   C } # D for Dihedral angle
| 13> { D 0  4  3  2   C } # D for Dihedral angle
| 14> { D 4  3  2  1   C } # D for Dihedral angle
| 15> { D 3  2  1  0   C } # D for Dihedral angle
| 16> { D 2  1  0  4   C } # D for Dihedral angle
| 17> { D 1  0  4  3   C } # D for Dihedral angle
| 18> { D 16  20  19  18   C } # D for Dihedral angle
| 19> { D 20  19  18  17   C } # D for Dihedral angle
| 20> { D 19  18  17  16   C } # D for Dihedral angle
| 21> { D 18  17  16  20   C } # D for Dihedral angle
| 22> { D 17  16  20  19   C } # D for Dihedral angle
| 23> { D 15  12  16  20   C } # D for Dihedral angle
| 24> end
| 25> end
| 26>
| 27>
| 28> #%pal
| 29> #nprocs 8
| 30> #end
| 31>
| 32> * xyz 0 1
| 33> C  -21.048   26.222   46.251
| 34> C  -20.361   27.558   45.944
| 35> C  -20.329   28.222   47.341
| 36> C  -20.110   27.022   48.296
| 37> O  -20.473   25.807   47.535
| 38> H  -20.833   25.428   45.533
| 39> H  -19.344   27.382   45.576
| 40> H  -20.898   28.157   45.201
| 41> H  -19.543   28.978   47.434
| 42> H  -21.289   28.710   47.548
| 43> H  -20.733   27.082   49.195
| 44> H  -19.064   26.913   48.597
| 45> C  -23.431   25.260   45.734
| 46> H  -23.860   25.617   44.789
| 47> H  -22.801   24.387   45.516
| 48> O  -22.586   26.394   46.375
| 49> C  -24.594   24.786   46.649
| 50> C  -25.620   25.903   46.868
| 51> C  -26.430   25.848   45.550
| 52> C  -26.447   24.336   45.212
| 53> O  -25.357   23.717   45.996
| 54> H  -24.178   24.367   47.567
| 55> H  -26.260   25.663   47.725
| 56> O  -24.968   27.291   47.117
| 57> H  -27.437   26.264   45.654
| 58> H  -25.912   26.415   44.767
| 59> H  -26.277   24.144   44.147
| 60> H  -27.379   23.851   45.514
| 61> H  -24.323   27.551   46.271
| 62> *
| 63>
| 64>                          ****END OF INPUT****
 Total Charge           Charge          ....    0
 Multiplicity           Mult            ....    1
 Number of Electrons    NEL             ....  102
FINAL SINGLE POINT ENERGY      -652.832988419046
FINAL SINGLE POINT ENERGY      -652.857037560610
FINAL SINGLE POINT ENERGY      -652.863203843970
FINAL SINGLE POINT ENERGY      -652.865426926396
FINAL SINGLE POINT ENERGY      -652.866716952116
FINAL SINGLE POINT ENERGY      -652.867463831644
FINAL SINGLE POINT ENERGY      -652.867740418644
FINAL SINGLE POINT ENERGY      -652.867797227165
FINAL SINGLE POINT ENERGY      -652.867802014977
                    ***********************HURRAY********************

CARTESIAN COORDINATES (ANGSTROEM)
---------------------------------
  C    -21.066797   26.138893   46.202082
  C    -20.468500   27.517001   45.922778
  C    -20.569354   28.196268   47.309733
  C    -20.317697   27.027245   48.286835
  O    -20.549185   25.787458   47.497571
  H    -20.778672   25.341529   45.512344
  H    -19.421339   27.399570   45.621358
  H    -21.005632   28.052505   45.137179
  H    -19.843938   29.005667   47.433557
  H    -21.571466   28.612911   47.451337
  H    -20.995512   27.027164   49.143700
  H    -19.283974   26.981654   48.640856
  C    -23.325065   25.187276   45.630340
  H    -23.700644   25.531828   44.660106
  H    -22.718058   24.288300   45.474798
  O    -22.514896   26.254870   46.226679
  C    -24.471187   24.859981   46.593067
  C    -25.458355   26.013145   46.838171
  C    -26.349761   25.941515   45.563602
  C    -26.423531   24.428643   45.272952
  O    -25.293171   23.797071   46.019222
  H    -24.049128   24.472472   47.524064
  H    -26.064246   25.773555   47.719258
  O    -24.873012   27.311658   47.058147
  H    -27.332316   26.390728   45.729152
  H    -25.858880   26.496362   44.756488
  H    -26.321443   24.184089   44.211033
  H    -27.340571   23.969906   45.653287
  H    -23.918669   27.285738   46.812305

 Multiplicity           Mult            ....    1
 Number of Electrons    NEL             ....  102
 Basis Dimension        Dim             ....  149

ORBITAL ENERGIES
----------------

  NO   OCC          E(Eh)            E(eV)
   0   2.0000     -19.163513      -521.4657
   1   2.0000     -19.147722      -521.0360
   2   2.0000     -19.139427      -520.8103
   3   2.0000     -19.112790      -520.0855
   4   2.0000     -10.292896      -280.0839
   5   2.0000     -10.239866      -278.6409
   6   2.0000     -10.231665      -278.4178
   7   2.0000     -10.231075      -278.4017
   8   2.0000     -10.229238      -278.3517
   9   2.0000     -10.225684      -278.2550
  10   2.0000     -10.194037      -277.3939
  11   2.0000     -10.192606      -277.3549
  12   2.0000     -10.178261      -276.9646
  13   2.0000      -1.064711       -28.9723
  14   2.0000      -1.024490       -27.8778
  15   2.0000      -1.007166       -27.4064
  16   2.0000      -0.991717       -26.9860
  17   2.0000      -0.795898       -21.6575
  18   2.0000      -0.772689       -21.0259
  19   2.0000      -0.767101       -20.8739
  20   2.0000      -0.735344       -20.0097
  21   2.0000      -0.679215       -18.4824
  22   2.0000      -0.606271       -16.4975
  23   2.0000      -0.601699       -16.3731
  24   2.0000      -0.593950       -16.1622
  25   2.0000      -0.582358       -15.8468
  26   2.0000      -0.528154       -14.3718
  27   2.0000      -0.523071       -14.2335
  28   2.0000      -0.498529       -13.5657
  29   2.0000      -0.486869       -13.2484
  30   2.0000      -0.472794       -12.8654
  31   2.0000      -0.458005       -12.4630
  32   2.0000      -0.443173       -12.0594
  33   2.0000      -0.438711       -11.9379
  34   2.0000      -0.425473       -11.5777
  35   2.0000      -0.417730       -11.3670
  36   2.0000      -0.406762       -11.0686
  37   2.0000      -0.387639       -10.5482
  38   2.0000      -0.381450       -10.3798
  39   2.0000      -0.366837        -9.9821
  40   2.0000      -0.363301        -9.8859
  41   2.0000      -0.358214        -9.7475
  42   2.0000      -0.346874        -9.4389
  43   2.0000      -0.343824        -9.3559
  44   2.0000      -0.326933        -8.8963
  45   2.0000      -0.316845        -8.6218
  46   2.0000      -0.287176        -7.8145
  47   2.0000      -0.282752        -7.6941
  48   2.0000      -0.260297        -7.0830
  49   2.0000      -0.248410        -6.7596
  50   2.0000      -0.240769        -6.5516
  51   0.0000       0.053911         1.4670
  52   0.0000       0.083074         2.2606
  53   0.0000       0.092823         2.5258
  54   0.0000       0.097407         2.6506
  55   0.0000       0.102403         2.7865

MULLIKEN ATOMIC CHARGES
-----------------------
   0 C :    0.296356
   1 C :   -0.258549
   2 C :   -0.306107
   3 C :   -0.006641
   4 O :   -0.500609
   5 H :    0.148940
   6 H :    0.150327
   7 H :    0.152584
   8 H :    0.147520
   9 H :    0.165588
  10 H :    0.158096
  11 H :    0.146487
  12 C :   -0.018626
  13 H :    0.144169
  14 H :    0.161718
  15 O :   -0.564113
  16 C :    0.062430
  17 C :    0.121844
  18 C :   -0.306983
  19 C :   -0.016513
  20 O :   -0.523299
  21 H :    0.162730
  22 H :    0.146703
  23 O :   -0.646785
  24 H :    0.151959
  25 H :    0.146127
  26 H :    0.140287
  27 H :    0.147499
  28 H :    0.396861
Sum of atomic charges:   -0.0000000

LOEWDIN ATOMIC CHARGES
----------------------
   0 C :    0.179241
   1 C :   -0.218543
   2 C :   -0.216747
   3 C :   -0.027301
   4 O :   -0.317117
   5 H :    0.103832
   6 H :    0.116807
   7 H :    0.121503
   8 H :    0.117202
   9 H :    0.119256
  10 H :    0.110984
  11 H :    0.105134
  12 C :   -0.040184
  13 H :    0.101246
  14 H :    0.114556
  15 O :   -0.343756
  16 C :    0.016174
  17 C :    0.042525
  18 C :   -0.237928
  19 C :   -0.031668
  20 O :   -0.325299
  21 H :    0.118239
  22 H :    0.105174
  23 O :   -0.437243
  24 H :    0.121499
  25 H :    0.111049
  26 H :    0.100944
  27 H :    0.105550
  28 H :    0.284869

  Mayer bond orders larger than 0.100000
B(  0-C ,  1-C ) :   0.9477 B(  0-C ,  4-O ) :   0.9412 B(  0-C ,  5-H ) :   0.9205
B(  0-C , 15-O ) :   0.8095 B(  1-C ,  2-C ) :   0.9558 B(  1-C ,  6-H ) :   0.9369
B(  1-C ,  7-H ) :   0.9371 B(  2-C ,  3-C ) :   0.9525 B(  2-C ,  8-H ) :   0.9447
B(  2-C ,  9-H ) :   0.9428 B(  3-C ,  4-O ) :   0.8314 B(  3-C , 10-H ) :   0.9341
B(  3-C , 11-H ) :   0.9397 B( 12-C , 13-H ) :   0.9283 B( 12-C , 14-H ) :   0.9235
B( 12-C , 15-O ) :   0.7847 B( 12-C , 16-C ) :   0.9006 B( 16-C , 17-C ) :   0.9163
B( 16-C , 20-O ) :   0.8534 B( 16-C , 21-H ) :   0.9281 B( 17-C , 18-C ) :   0.9023
B( 17-C , 22-H ) :   0.9308 B( 17-C , 23-O ) :   0.9317 B( 18-C , 19-C ) :   0.9383
B( 18-C , 24-H ) :   0.9444 B( 18-C , 25-H ) :   0.9433 B( 19-C , 20-O ) :   0.8328
B( 19-C , 26-H ) :   0.9348 B( 19-C , 27-H ) :   0.9391 B( 23-O , 28-H ) :   0.7198

FINAL SINGLE POINT ENERGY      -652.867803472177

DIPOLE MOMENT
-------------
                                X             Y             Z
Electronic contribution:     -0.35275      -3.44053       1.53588
Nuclear contribution   :      1.06207       3.94301      -2.32842
                        -----------------------------------------
Total Dipole Moment    :      0.70931       0.50248      -0.79254
                        -----------------------------------------
Magnitude (a.u.)       :      1.17632
Magnitude (Debye)      :      2.98997

Rotational constants in cm-1:     0.059785     0.013275     0.012392
Rotational constants in MHz :  1792.296856   397.967616   371.497719

                             ****ORCA TERMINATED NORMALLY****
TOTAL RUN TIME: 0 days 0 hours 30 minutes 57 seconds 555 msec
