                         Program Version 4.2.0 -  RELEASE  -
|  1> # Test redundant internal optimization
|  2> #
|  3> ! RKS B3LYP  Opt TightSCF SmallPrint
|  4>
|  5> %basis
|  6>         Basis "6-31G"
|  7> end
|  8>
|  9> %geom
| 10> Constraints
| 11> { D 4  0  15  12  180.0   C } # D for Dihedral angle
| 12> { D 0  15  12  16  210.0   C } # D for Dihedral angle
| 13> { D 0  4  3  2   C } # D for Dihedral angle
| 14> { D 4  3  2  1   C } # D for Dihedral angle
| 15> { D 3  2  1  0   C } # D for Dihedral angle
| 16> { D 2  1  0  4   C } # D for Dihedral angle
| 17> { D 1  0  4  3   C } # D for Dihedral angle
| 18> { D 16  20  19  18   C } # D for Dihedral angle
| 19> { D 20  19  18  17   C } # D for Dihedral angle
| 20> { D 19  18  17  16   C } # D for Dihedral angle
| 21> { D 18  17  16  20   C } # D for Dihedral angle
| 22> { D 17  16  20  19   C } # D for Dihedral angle
| 23> { D 15  12  16  20   C } # D for Dihedral angle
| 24> end
| 25> end
| 26>
| 27>
| 28> #%pal
| 29> #nprocs 8
| 30> #end
| 31>
| 32> * xyz 0 1
| 33> C  -21.048   26.222   46.251
| 34> C  -20.361   27.558   45.944
| 35> C  -20.329   28.222   47.341
| 36> C  -20.110   27.022   48.296
| 37> O  -20.473   25.807   47.535
| 38> H  -20.833   25.428   45.533
| 39> H  -19.344   27.382   45.576
| 40> H  -20.898   28.157   45.201
| 41> H  -19.543   28.978   47.434
| 42> H  -21.289   28.710   47.548
| 43> H  -20.733   27.082   49.195
| 44> H  -19.064   26.913   48.597
| 45> C  -23.309   26.834   45.072
| 46> H  -22.622   27.435   44.463
| 47> H  -23.610   25.956   44.485
| 48> O  -22.586   26.394   46.375
| 49> C  -24.584   27.678   45.348
| 50> C  -24.234   29.011   46.019
| 51> C  -23.751   29.852   44.813
| 52> C  -24.659   29.362   43.657
| 53> O  -25.224   28.065   44.087
| 54> H  -25.303   27.069   45.899
| 55> O  -25.506   29.638   46.651
| 56> H  -23.473   28.913   46.801
| 57> H  -23.839   30.929   44.985
| 58> H  -22.699   29.631   44.598
| 59> H  -24.108   29.220   42.722
| 60> H  -25.500   30.035   43.473
| 61> H  -26.284   29.747   45.885
| 62> *
| 63>
| 64>                          ****END OF INPUT****
 Total Charge           Charge          ....    0
 Multiplicity           Mult            ....    1
 Number of Electrons    NEL             ....  102
FINAL SINGLE POINT ENERGY      -652.831727213658
FINAL SINGLE POINT ENERGY      -652.854267334383
FINAL SINGLE POINT ENERGY      -652.857959263116
FINAL SINGLE POINT ENERGY      -652.858592983614
FINAL SINGLE POINT ENERGY      -652.858694646562
FINAL SINGLE POINT ENERGY      -652.858706805463
                    ***********************HURRAY********************

CARTESIAN COORDINATES (ANGSTROEM)
---------------------------------
  C    -21.123648   26.239878   46.213196
  C    -20.326954   27.504770   45.893919
  C    -20.368013   28.265151   47.246269
  C    -20.313332   27.118148   48.277303
  O    -20.697525   25.890996   47.534071
  H    -20.905587   25.386006   45.563112
  H    -19.300325   27.216584   45.641413
  H    -20.725114   28.090901   45.061419
  H    -19.532179   28.962865   47.355884
  H    -21.298248   28.831072   47.338870
  H    -21.007535   27.251871   49.110359
  H    -19.306065   26.944594   48.666498
  C    -23.243476   26.816425   45.028192
  H    -22.573894   27.371230   44.357531
  H    -23.578193   25.917225   44.496130
  O    -22.568803   26.447886   46.265221
  C    -24.461753   27.676836   45.370020
  C    -24.165049   29.018016   46.055534
  C    -23.743873   29.899341   44.851634
  C    -24.646423   29.381909   43.703578
  O    -25.142087   28.048988   44.124670
  H    -25.168165   27.090403   45.964015
  O    -25.355037   29.539462   46.708281
  H    -23.413465   28.939609   46.837580
  H    -23.901196   30.958229   45.073343
  H    -22.682623   29.751396   44.622132
  H    -24.111421   29.279160   42.754369
  H    -25.523974   30.015327   43.541761
  H    -26.132042   29.395724   46.127699

 Multiplicity           Mult            ....    1
 Number of Electrons    NEL             ....  102
 Basis Dimension        Dim             ....  149

ORBITAL ENERGIES
----------------

  NO   OCC          E(Eh)            E(eV)
   0   2.0000     -19.148360      -521.0534
   1   2.0000     -19.144658      -520.9526
   2   2.0000     -19.144193      -520.9400
   3   2.0000     -19.138333      -520.7805
   4   2.0000     -10.284540      -279.8566
   5   2.0000     -10.240209      -278.6503
   6   2.0000     -10.235839      -278.5313
   7   2.0000     -10.235719      -278.5281
   8   2.0000     -10.234047      -278.4826
   9   2.0000     -10.228716      -278.3375
  10   2.0000     -10.195216      -277.4259
  11   2.0000     -10.193467      -277.3783
  12   2.0000     -10.192885      -277.3625
  13   2.0000      -1.056935       -28.7607
  14   2.0000      -1.039873       -28.2964
  15   2.0000      -1.007762       -27.4226
  16   2.0000      -0.997821       -27.1521
  17   2.0000      -0.792350       -21.5609
  18   2.0000      -0.783698       -21.3255
  19   2.0000      -0.771774       -21.0010
  20   2.0000      -0.735352       -20.0099
  21   2.0000      -0.680321       -18.5125
  22   2.0000      -0.607812       -16.5394
  23   2.0000      -0.606960       -16.5162
  24   2.0000      -0.594359       -16.1733
  25   2.0000      -0.583854       -15.8875
  26   2.0000      -0.528445       -14.3797
  27   2.0000      -0.517933       -14.0937
  28   2.0000      -0.501690       -13.6517
  29   2.0000      -0.496557       -13.5120
  30   2.0000      -0.478043       -13.0082
  31   2.0000      -0.457795       -12.4572
  32   2.0000      -0.455445       -12.3933
  33   2.0000      -0.443356       -12.0643
  34   2.0000      -0.427716       -11.6387
  35   2.0000      -0.418954       -11.4003
  36   2.0000      -0.409110       -11.1325
  37   2.0000      -0.396680       -10.7942
  38   2.0000      -0.380549       -10.3553
  39   2.0000      -0.373603       -10.1663
  40   2.0000      -0.364910        -9.9297
  41   2.0000      -0.360746        -9.8164
  42   2.0000      -0.357645        -9.7320
  43   2.0000      -0.334382        -9.0990
  44   2.0000      -0.317760        -8.6467
  45   2.0000      -0.310156        -8.4398
  46   2.0000      -0.306148        -8.3307
  47   2.0000      -0.274666        -7.4740
  48   2.0000      -0.263040        -7.1577
  49   2.0000      -0.260593        -7.0911
  50   2.0000      -0.246317        -6.7026
  51   0.0000       0.052956         1.4410
  52   0.0000       0.065553         1.7838
  53   0.0000       0.088027         2.3953
  54   0.0000       0.094408         2.5690
  55   0.0000       0.100692         2.7400

MULLIKEN ATOMIC CHARGES
-----------------------
   0 C :    0.314386
   1 C :   -0.288889
   2 C :   -0.306287
   3 C :   -0.002077
   4 O :   -0.499630
   5 H :    0.144240
   6 H :    0.153197
   7 H :    0.139932
   8 H :    0.145399
   9 H :    0.162034
  10 H :    0.158084
  11 H :    0.144616
  12 C :   -0.006142
  13 H :    0.118082
  14 H :    0.152926
  15 O :   -0.519414
  16 C :    0.057606
  17 C :    0.076925
  18 C :   -0.304556
  19 C :   -0.031765
  20 O :   -0.525969
  21 H :    0.173797
  22 O :   -0.603242
  23 H :    0.177978
  24 H :    0.165078
  25 H :    0.142821
  26 H :    0.145695
  27 H :    0.150686
  28 H :    0.364488
Sum of atomic charges:   -0.0000000

LOEWDIN ATOMIC CHARGES
----------------------
   0 C :    0.183960
   1 C :   -0.233255
   2 C :   -0.217646
   3 C :   -0.024731
   4 O :   -0.299797
   5 H :    0.097458
   6 H :    0.119184
   7 H :    0.110056
   8 H :    0.116006
   9 H :    0.113490
  10 H :    0.111496
  11 H :    0.104008
  12 C :   -0.040968
  13 H :    0.088750
  14 H :    0.107975
  15 O :   -0.337754
  16 C :    0.018361
  17 C :    0.036383
  18 C :   -0.243272
  19 C :   -0.038731
  20 O :   -0.329400
  21 H :    0.121498
  22 O :   -0.413557
  23 H :    0.121952
  24 H :    0.127738
  25 H :    0.110098
  26 H :    0.103440
  27 H :    0.104556
  28 H :    0.282703

  Mayer bond orders larger than 0.100000
B(  0-C ,  1-C ) :   0.9263 B(  0-C ,  4-O ) :   0.9407 B(  0-C ,  5-H ) :   0.9223
B(  0-C , 15-O ) :   0.8303 B(  1-C ,  2-C ) :   0.9507 B(  1-C ,  6-H ) :   0.9328
B(  1-C ,  7-H ) :   0.9280 B(  2-C ,  3-C ) :   0.9549 B(  2-C ,  8-H ) :   0.9443
B(  2-C ,  9-H ) :   0.9343 B(  3-C ,  4-O ) :   0.8345 B(  3-C , 10-H ) :   0.9338
B(  3-C , 11-H ) :   0.9394 B( 12-C , 13-H ) :   0.9139 B( 12-C , 14-H ) :   0.9186
B( 12-C , 15-O ) :   0.8316 B( 12-C , 16-C ) :   0.9057 B( 16-C , 17-C ) :   0.9104
B( 16-C , 20-O ) :   0.8402 B( 16-C , 21-H ) :   0.9241 B( 17-C , 18-C ) :   0.9123
B( 17-C , 22-O ) :   0.8899 B( 17-C , 23-H ) :   0.9133 B( 18-C , 19-C ) :   0.9396
B( 18-C , 24-H ) :   0.9370 B( 18-C , 25-H ) :   0.9328 B( 19-C , 20-O ) :   0.8446
B( 19-C , 26-H ) :   0.9355 B( 19-C , 27-H ) :   0.9375 B( 22-O , 28-H ) :   0.7945

FINAL SINGLE POINT ENERGY      -652.858708624472

DIPOLE MOMENT
-------------
                                X             Y             Z
Electronic contribution:     -4.41123      -4.60082       1.51251
Nuclear contribution   :      5.38204       5.61810      -2.48309
                        -----------------------------------------
Total Dipole Moment    :      0.97081       1.01728      -0.97058
                        -----------------------------------------
Magnitude (a.u.)       :      1.70861
Magnitude (Debye)      :      4.34294

Rotational constants in cm-1:     0.049792     0.014604     0.013821
Rotational constants in MHz :  1492.724110   437.802630   414.332568

                             ****ORCA TERMINATED NORMALLY****
TOTAL RUN TIME: 0 days 1 hours 47 minutes 29 seconds 222 msec
