                         Program Version 4.2.0 -  RELEASE  -
|  1> # Test redundant internal optimization
|  2> #
|  3> ! RKS B3LYP  Opt TightSCF SmallPrint
|  4>
|  5> %basis
|  6>         Basis "6-31G"
|  7> end
|  8>
|  9> %geom
| 10> Constraints
| 11> { D 4  0  15  12  120.0   C } # D for Dihedral angle
| 12> { D 0  15  12  16  225.0   C } # D for Dihedral angle
| 13> { D 0  4  3  2   C } # D for Dihedral angle
| 14> { D 4  3  2  1   C } # D for Dihedral angle
| 15> { D 3  2  1  0   C } # D for Dihedral angle
| 16> { D 2  1  0  4   C } # D for Dihedral angle
| 17> { D 1  0  4  3   C } # D for Dihedral angle
| 18> { D 16  20  19  18   C } # D for Dihedral angle
| 19> { D 20  19  18  17   C } # D for Dihedral angle
| 20> { D 19  18  17  16   C } # D for Dihedral angle
| 21> { D 18  17  16  20   C } # D for Dihedral angle
| 22> { D 17  16  20  19   C } # D for Dihedral angle
| 23> { D 15  12  16  20   C } # D for Dihedral angle
| 24> end
| 25> end
| 26>
| 27>
| 28> #%pal
| 29> #nprocs 8
| 30> #end
| 31>
| 32> * xyz 0 1
| 33> C  -21.048   26.222   46.251
| 34> C  -20.361   27.558   45.944
| 35> C  -20.329   28.222   47.341
| 36> C  -20.110   27.022   48.296
| 37> O  -20.473   25.807   47.535
| 38> H  -20.833   25.428   45.533
| 39> H  -19.344   27.382   45.576
| 40> H  -20.898   28.157   45.201
| 41> H  -19.543   28.978   47.434
| 42> H  -21.289   28.710   47.548
| 43> H  -20.733   27.082   49.195
| 44> H  -19.064   26.913   48.597
| 45> C  -23.119   27.818   46.058
| 46> H  -22.280   28.525   46.049
| 47> H  -23.595   27.838   45.069
| 48> O  -22.586   26.394   46.375
| 49> C  -24.164   28.314   47.096
| 50> C  -24.752   29.669   46.690
| 51> C  -25.787   29.253   45.617
| 52> C  -26.314   27.896   46.146
| 53> O  -25.321   27.413   47.129
| 54> H  -23.715   28.295   48.091
| 55> H  -25.250   30.136   47.547
| 56> O  -23.686   30.659   46.146
| 57> H  -26.586   29.990   45.490
| 58> H  -25.293   29.125   44.647
| 59> H  -26.423   27.150   45.350
| 60> H  -27.268   27.994   46.672
| 61> H  -23.174   30.214   45.285
| 62> *
| 63>
| 64>                          ****END OF INPUT****
 Total Charge           Charge          ....    0
 Multiplicity           Mult            ....    1
 Number of Electrons    NEL             ....  102
FINAL SINGLE POINT ENERGY      -652.808406403543
FINAL SINGLE POINT ENERGY      -652.833031517824
FINAL SINGLE POINT ENERGY      -652.842416936021
FINAL SINGLE POINT ENERGY      -652.844568950297
FINAL SINGLE POINT ENERGY      -652.845076351590
FINAL SINGLE POINT ENERGY      -652.845227241553
FINAL SINGLE POINT ENERGY      -652.845254510036
FINAL SINGLE POINT ENERGY      -652.845264191781
FINAL SINGLE POINT ENERGY      -652.845265648400
                    ***********************HURRAY********************

CARTESIAN COORDINATES (ANGSTROEM)
---------------------------------
  C    -21.126787   26.307077   46.317216
  C    -20.148951   27.434911   45.968825
  C    -20.022874   28.187722   47.324271
  C    -20.115635   27.035202   48.353429
  O    -20.711292   25.887936   47.632498
  H    -21.028402   25.420713   45.687827
  H    -19.190648   26.980261   45.697140
  H    -20.465913   28.070849   45.138147
  H    -19.080601   28.738299   47.404309
  H    -20.838908   28.905027   47.458132
  H    -20.743517   27.280047   49.214745
  H    -19.132786   26.710978   48.707645
  C    -23.086073   27.917711   45.960863
  H    -22.328239   28.707773   45.965152
  H    -23.508153   27.854372   44.947642
  O    -22.545878   26.617427   46.304573
  C    -24.166117   28.293104   46.976040
  C    -24.842240   29.642347   46.685813
  C    -25.924661   29.240140   45.638790
  C    -26.349774   27.833160   46.115982
  O    -25.273955   27.344990   47.013865
  H    -23.716848   28.261437   47.973165
  H    -25.313284   30.015001   47.598073
  O    -23.945679   30.705086   46.269774
  H    -26.756484   29.949088   45.605873
  H    -25.469641   29.203420   44.639573
  H    -26.477215   27.124047   45.292118
  H    -27.271790   27.858485   46.704701
  H    -23.755655   30.637391   45.311818

 Multiplicity           Mult            ....    1
 Number of Electrons    NEL             ....  102
 Basis Dimension        Dim             ....  149

ORBITAL ENERGIES
----------------

  NO   OCC          E(Eh)            E(eV)
   0   2.0000     -19.153778      -521.2008
   1   2.0000     -19.134829      -520.6852
   2   2.0000     -19.134194      -520.6679
   3   2.0000     -19.134045      -520.6638
   4   2.0000     -10.276628      -279.6413
   5   2.0000     -10.246900      -278.8323
   6   2.0000     -10.231522      -278.4139
   7   2.0000     -10.229817      -278.3675
   8   2.0000     -10.229362      -278.3551
   9   2.0000     -10.224064      -278.2109
  10   2.0000     -10.198418      -277.5131
  11   2.0000     -10.193562      -277.3809
  12   2.0000     -10.192017      -277.3389
  13   2.0000      -1.046269       -28.4704
  14   2.0000      -1.035228       -28.1700
  15   2.0000      -1.015551       -27.6346
  16   2.0000      -0.989004       -26.9122
  17   2.0000      -0.788284       -21.4503
  18   2.0000      -0.784445       -21.3458
  19   2.0000      -0.770287       -20.9606
  20   2.0000      -0.731629       -19.9086
  21   2.0000      -0.684510       -18.6265
  22   2.0000      -0.613512       -16.6945
  23   2.0000      -0.604495       -16.4491
  24   2.0000      -0.593819       -16.1586
  25   2.0000      -0.569037       -15.4843
  26   2.0000      -0.524220       -14.2648
  27   2.0000      -0.516251       -14.0479
  28   2.0000      -0.502160       -13.6645
  29   2.0000      -0.498002       -13.5513
  30   2.0000      -0.465702       -12.6724
  31   2.0000      -0.455620       -12.3981
  32   2.0000      -0.444435       -12.0937
  33   2.0000      -0.434037       -11.8108
  34   2.0000      -0.431061       -11.7298
  35   2.0000      -0.421298       -11.4641
  36   2.0000      -0.412545       -11.2259
  37   2.0000      -0.397244       -10.8095
  38   2.0000      -0.380311       -10.3488
  39   2.0000      -0.377063       -10.2604
  40   2.0000      -0.362486        -9.8637
  41   2.0000      -0.357161        -9.7189
  42   2.0000      -0.350140        -9.5278
  43   2.0000      -0.330027        -8.9805
  44   2.0000      -0.318895        -8.6776
  45   2.0000      -0.309362        -8.4182
  46   2.0000      -0.286066        -7.7842
  47   2.0000      -0.273724        -7.4484
  48   2.0000      -0.265919        -7.2360
  49   2.0000      -0.247381        -6.7316
  50   2.0000      -0.235163        -6.3991
  51   0.0000       0.045494         1.2379
  52   0.0000       0.074210         2.0194
  53   0.0000       0.083262         2.2657
  54   0.0000       0.088675         2.4130
  55   0.0000       0.103627         2.8198

MULLIKEN ATOMIC CHARGES
-----------------------
   0 C :    0.318704
   1 C :   -0.307188
   2 C :   -0.312423
   3 C :   -0.003252
   4 O :   -0.493192
   5 H :    0.157629
   6 H :    0.157233
   7 H :    0.142941
   8 H :    0.145644
   9 H :    0.160287
  10 H :    0.149642
  11 H :    0.143926
  12 C :   -0.013424
  13 H :    0.130627
  14 H :    0.122056
  15 O :   -0.515821
  16 C :    0.106405
  17 C :    0.079336
  18 C :   -0.327759
  19 C :   -0.013425
  20 O :   -0.498509
  21 H :    0.158862
  22 H :    0.167903
  23 O :   -0.602155
  24 H :    0.160042
  25 H :    0.130915
  26 H :    0.149684
  27 H :    0.150064
  28 H :    0.355248
Sum of atomic charges:   -0.0000000

LOEWDIN ATOMIC CHARGES
----------------------
   0 C :    0.182416
   1 C :   -0.234308
   2 C :   -0.222619
   3 C :   -0.030112
   4 O :   -0.311727
   5 H :    0.106271
   6 H :    0.123424
   7 H :    0.112806
   8 H :    0.116236
   9 H :    0.112573
  10 H :    0.105860
  11 H :    0.103395
  12 C :   -0.048290
  13 H :    0.098984
  14 H :    0.090471
  15 O :   -0.317762
  16 C :    0.020450
  17 C :    0.032276
  18 C :   -0.241937
  19 C :   -0.030400
  20 O :   -0.308450
  21 H :    0.117103
  22 H :    0.119494
  23 O :   -0.410657
  24 H :    0.122848
  25 H :    0.102495
  26 H :    0.105480
  27 H :    0.106227
  28 H :    0.277453

  Mayer bond orders larger than 0.100000
B(  0-C ,  1-C ) :   0.9295 B(  0-C ,  4-O ) :   0.9147 B(  0-C ,  5-H ) :   0.9319
B(  0-C , 15-O ) :   0.8765 B(  1-C ,  2-C ) :   0.9502 B(  1-C ,  6-H ) :   0.9339
B(  1-C ,  7-H ) :   0.9303 B(  2-C ,  3-C ) :   0.9475 B(  2-C ,  8-H ) :   0.9461
B(  2-C ,  9-H ) :   0.9376 B(  3-C ,  4-O ) :   0.8474 B(  3-C , 10-H ) :   0.9336
B(  3-C , 11-H ) :   0.9393 B( 12-C , 13-H ) :   0.8889 B( 12-C , 14-H ) :   0.9269
B( 12-C , 15-O ) :   0.8535 B( 12-C , 16-C ) :   0.8970 B( 16-C , 17-C ) :   0.8692
B( 16-C , 20-O ) :   0.8741 B( 16-C , 21-H ) :   0.9302 B( 17-C , 18-C ) :   0.9274
B( 17-C , 22-H ) :   0.9324 B( 17-C , 23-O ) :   0.8887 B( 18-C , 19-C ) :   0.9405
B( 18-C , 24-H ) :   0.9407 B( 18-C , 25-H ) :   0.9399 B( 19-C , 20-O ) :   0.8539
B( 19-C , 26-H ) :   0.9301 B( 19-C , 27-H ) :   0.9372 B( 23-O , 28-H ) :   0.7998

FINAL SINGLE POINT ENERGY      -652.845265915172

DIPOLE MOMENT
-------------
                                X             Y             Z
Electronic contribution:     -1.68621      -3.75952       1.72112
Nuclear contribution   :      1.93894       5.12089      -2.91532
                        -----------------------------------------
Total Dipole Moment    :      0.25273       1.36138      -1.19420
                        -----------------------------------------
Magnitude (a.u.)       :      1.82848
Magnitude (Debye)      :      4.64763

Rotational constants in cm-1:     0.050745     0.014193     0.012658
Rotational constants in MHz :  1521.296311   425.487440   379.490861

                             ****ORCA TERMINATED NORMALLY****
TOTAL RUN TIME: 0 days 0 hours 31 minutes 40 seconds 904 msec
