                         Program Version 4.2.0 -  RELEASE  -
|  1> # Test redundant internal optimization
|  2> #
|  3> ! RKS B3LYP  Opt TightSCF SmallPrint
|  4>
|  5> %basis
|  6>         Basis "6-31G"
|  7> end
|  8>
|  9> %geom
| 10> Constraints
| 11> { D 4  0  15  12  195.0   C } # D for Dihedral angle
| 12> { D 0  15  12  16  135.0   C } # D for Dihedral angle
| 13> { D 0  4  3  2   C } # D for Dihedral angle
| 14> { D 4  3  2  1   C } # D for Dihedral angle
| 15> { D 3  2  1  0   C } # D for Dihedral angle
| 16> { D 2  1  0  4   C } # D for Dihedral angle
| 17> { D 1  0  4  3   C } # D for Dihedral angle
| 18> { D 16  20  19  18   C } # D for Dihedral angle
| 19> { D 20  19  18  17   C } # D for Dihedral angle
| 20> { D 19  18  17  16   C } # D for Dihedral angle
| 21> { D 18  17  16  20   C } # D for Dihedral angle
| 22> { D 17  16  20  19   C } # D for Dihedral angle
| 23> { D 15  12  16  20   C } # D for Dihedral angle
| 24> end
| 25> end
| 26>
| 27>
| 28> #%pal
| 29> #nprocs 8
| 30> #end
| 31>
| 32> * xyz 0 1
| 33> C  -21.048   26.222   46.251
| 34> C  -20.361   27.558   45.944
| 35> C  -20.329   28.222   47.341
| 36> C  -20.110   27.022   48.296
| 37> O  -20.473   25.807   47.535
| 38> H  -20.833   25.428   45.533
| 39> H  -19.344   27.382   45.576
| 40> H  -20.898   28.157   45.201
| 41> H  -19.543   28.978   47.434
| 42> H  -21.289   28.710   47.548
| 43> H  -20.733   27.082   49.195
| 44> H  -19.064   26.913   48.597
| 45> C  -23.353   26.472   45.026
| 46> H  -23.644   27.513   44.835
| 47> H  -22.712   26.138   44.200
| 48> O  -22.586   26.394   46.375
| 49> C  -24.635   25.595   45.013
| 50> C  -25.666   26.101   46.029
| 51> C  -26.290   27.298   45.273
| 52> C  -26.283   26.825   43.798
| 53> O  -25.319   25.706   43.720
| 54> H  -24.354   24.548   45.137
| 55> H  -26.419   25.328   46.217
| 56> O  -25.034   26.510   47.388
| 57> H  -27.296   27.546   45.627
| 58> H  -25.663   28.189   45.396
| 59> H  -25.973   27.614   43.105
| 60> H  -27.254   26.436   43.479
| 61> H  -24.276   27.284   47.223
| 62> *
| 63>
| 64>                          ****END OF INPUT****
 Total Charge           Charge          ....    0
 Multiplicity           Mult            ....    1
 Number of Electrons    NEL             ....  102
FINAL SINGLE POINT ENERGY      -652.829324609418
FINAL SINGLE POINT ENERGY      -652.853537290410
FINAL SINGLE POINT ENERGY      -652.859670359503
FINAL SINGLE POINT ENERGY      -652.862094957721
FINAL SINGLE POINT ENERGY      -652.863625460312
FINAL SINGLE POINT ENERGY      -652.864614430116
FINAL SINGLE POINT ENERGY      -652.865158956324
FINAL SINGLE POINT ENERGY      -652.865295098105
FINAL SINGLE POINT ENERGY      -652.865316292753
FINAL SINGLE POINT ENERGY      -652.865319934039
                    ***********************HURRAY********************

CARTESIAN COORDINATES (ANGSTROEM)
---------------------------------
  C    -21.113908   26.229216   46.187222
  C    -20.349308   27.520976   45.912646
  C    -20.414564   28.230732   47.285976
  C    -20.335232   27.059036   48.284690
  O    -20.687634   25.843067   47.495229
  H    -20.908277   25.399882   45.503722
  H    -19.314851   27.274967   45.645872
  H    -20.781670   28.114725   45.102077
  H    -19.603174   28.951450   47.423281
  H    -21.366447   28.760812   47.385842
  H    -21.037682   27.145633   49.116711
  H    -19.326922   26.892426   48.673069
  C    -23.259915   26.532006   44.944547
  H    -23.483069   27.579822   44.713843
  H    -22.635185   26.124918   44.139895
  O    -22.558911   26.458061   46.230431
  C    -24.536889   25.691630   45.056137
  C    -25.552309   26.191666   46.097676
  C    -26.249129   27.349916   45.327666
  C    -26.277099   26.838037   43.873198
  O    -25.266137   25.740729   43.790913
  H    -24.258331   24.647221   45.222739
  H    -26.277766   25.391164   46.286243
  O    -25.010014   26.605925   47.366317
  H    -27.246345   27.559300   45.722950
  H    -25.646717   28.257797   45.438120
  H    -26.021130   27.605759   43.136078
  H    -27.238744   26.394447   43.599735
  H    -24.024643   26.586680   47.329175

 Multiplicity           Mult            ....    1
 Number of Electrons    NEL             ....  102
 Basis Dimension        Dim             ....  149

ORBITAL ENERGIES
----------------

  NO   OCC          E(Eh)            E(eV)
   0   2.0000     -19.162007      -521.4247
   1   2.0000     -19.152934      -521.1778
   2   2.0000     -19.140170      -520.8305
   3   2.0000     -19.109633      -519.9996
   4   2.0000     -10.294186      -280.1190
   5   2.0000     -10.241115      -278.6749
   6   2.0000     -10.234204      -278.4869
   7   2.0000     -10.233660      -278.4720
   8   2.0000     -10.228721      -278.3377
   9   2.0000     -10.226373      -278.2738
  10   2.0000     -10.197163      -277.4789
  11   2.0000     -10.195333      -277.4291
  12   2.0000     -10.177975      -276.9568
  13   2.0000      -1.067348       -29.0440
  14   2.0000      -1.025528       -27.9060
  15   2.0000      -1.008575       -27.4447
  16   2.0000      -0.989509       -26.9259
  17   2.0000      -0.796892       -21.6845
  18   2.0000      -0.773790       -21.0559
  19   2.0000      -0.767377       -20.8814
  20   2.0000      -0.738123       -20.0853
  21   2.0000      -0.680834       -18.5264
  22   2.0000      -0.610509       -16.6128
  23   2.0000      -0.601570       -16.3696
  24   2.0000      -0.595084       -16.1931
  25   2.0000      -0.579192       -15.7606
  26   2.0000      -0.528696       -14.3865
  27   2.0000      -0.523628       -14.2486
  28   2.0000      -0.501354       -13.6425
  29   2.0000      -0.489232       -13.3127
  30   2.0000      -0.475198       -12.9308
  31   2.0000      -0.460555       -12.5323
  32   2.0000      -0.449533       -12.2324
  33   2.0000      -0.435173       -11.8417
  34   2.0000      -0.427323       -11.6281
  35   2.0000      -0.414278       -11.2731
  36   2.0000      -0.411039       -11.1849
  37   2.0000      -0.386602       -10.5200
  38   2.0000      -0.383402       -10.4329
  39   2.0000      -0.369996       -10.0681
  40   2.0000      -0.366312        -9.9679
  41   2.0000      -0.364749        -9.9253
  42   2.0000      -0.348736        -9.4896
  43   2.0000      -0.342288        -9.3141
  44   2.0000      -0.322386        -8.7726
  45   2.0000      -0.320359        -8.7174
  46   2.0000      -0.281923        -7.6715
  47   2.0000      -0.278668        -7.5830
  48   2.0000      -0.268736        -7.3127
  49   2.0000      -0.246697        -6.7130
  50   2.0000      -0.240473        -6.5436
  51   0.0000       0.057136         1.5547
  52   0.0000       0.077526         2.1096
  53   0.0000       0.086771         2.3612
  54   0.0000       0.097848         2.6626
  55   0.0000       0.106286         2.8922

MULLIKEN ATOMIC CHARGES
-----------------------
   0 C :    0.309915
   1 C :   -0.270926
   2 C :   -0.300742
   3 C :   -0.008983
   4 O :   -0.501187
   5 H :    0.150526
   6 H :    0.151282
   7 H :    0.147626
   8 H :    0.147840
   9 H :    0.162542
  10 H :    0.161677
  11 H :    0.148730
  12 C :   -0.025500
  13 H :    0.147251
  14 H :    0.150731
  15 O :   -0.554277
  16 C :    0.055121
  17 C :    0.123665
  18 C :   -0.298675
  19 C :   -0.021228
  20 O :   -0.523029
  21 H :    0.159332
  22 H :    0.146027
  23 O :   -0.643029
  24 H :    0.151024
  25 H :    0.144745
  26 H :    0.141494
  27 H :    0.148478
  28 H :    0.399570
Sum of atomic charges:   -0.0000000

LOEWDIN ATOMIC CHARGES
----------------------
   0 C :    0.184107
   1 C :   -0.228758
   2 C :   -0.216697
   3 C :   -0.025299
   4 O :   -0.300432
   5 H :    0.102602
   6 H :    0.117605
   7 H :    0.116643
   8 H :    0.117575
   9 H :    0.119078
  10 H :    0.112901
  11 H :    0.106403
  12 C :   -0.046463
  13 H :    0.102429
  14 H :    0.109172
  15 O :   -0.347988
  16 C :    0.015484
  17 C :    0.042899
  18 C :   -0.235332
  19 C :   -0.032428
  20 O :   -0.326064
  21 H :    0.115578
  22 H :    0.103628
  23 O :   -0.436057
  24 H :    0.121366
  25 H :    0.111050
  26 H :    0.101179
  27 H :    0.105793
  28 H :    0.290027

  Mayer bond orders larger than 0.100000
B(  0-C ,  1-C ) :   0.9317 B(  0-C ,  4-O ) :   0.9534 B(  0-C ,  5-H ) :   0.9203
B(  0-C , 15-O ) :   0.7895 B(  1-C ,  2-C ) :   0.9509 B(  1-C ,  6-H ) :   0.9332
B(  1-C ,  7-H ) :   0.9357 B(  2-C ,  3-C ) :   0.9548 B(  2-C ,  8-H ) :   0.9445
B(  2-C ,  9-H ) :   0.9441 B(  3-C ,  4-O ) :   0.8268 B(  3-C , 10-H ) :   0.9337
B(  3-C , 11-H ) :   0.9394 B( 12-C , 13-H ) :   0.9253 B( 12-C , 14-H ) :   0.9229
B( 12-C , 15-O ) :   0.7906 B( 12-C , 16-C ) :   0.8973 B( 16-C , 17-C ) :   0.9173
B( 16-C , 20-O ) :   0.8545 B( 16-C , 21-H ) :   0.9295 B( 17-C , 18-C ) :   0.9041
B( 17-C , 22-H ) :   0.9280 B( 17-C , 23-O ) :   0.9338 B( 18-C , 19-C ) :   0.9392
B( 18-C , 24-H ) :   0.9447 B( 18-C , 25-H ) :   0.9431 B( 19-C , 20-O ) :   0.8310
B( 19-C , 26-H ) :   0.9344 B( 19-C , 27-H ) :   0.9390 B( 23-O , 28-H ) :   0.7228

FINAL SINGLE POINT ENERGY      -652.865320517151

DIPOLE MOMENT
-------------
                                X             Y             Z
Electronic contribution:     -1.01609      -5.04356       0.80515
Nuclear contribution   :      1.97054       6.13830      -1.46536
                        -----------------------------------------
Total Dipole Moment    :      0.95445       1.09473      -0.66020
                        -----------------------------------------
Magnitude (a.u.)       :      1.59539
Magnitude (Debye)      :      4.05517

Rotational constants in cm-1:     0.058650     0.013089     0.012289
Rotational constants in MHz :  1758.290009   392.411942   368.414399

                             ****ORCA TERMINATED NORMALLY****
TOTAL RUN TIME: 0 days 0 hours 40 minutes 31 seconds 283 msec
