                         Program Version 4.2.0 -  RELEASE  -
|  1> # Test redundant internal optimization
|  2> #
|  3> ! RKS B3LYP  Opt TightSCF SmallPrint
|  4>
|  5> %basis
|  6>         Basis "6-31G"
|  7> end
|  8>
|  9> %geom
| 10> Constraints
| 11> { D 4  0  15  12  90.0   C } # D for Dihedral angle
| 12> { D 0  15  12  16  165.0   C } # D for Dihedral angle
| 13> { D 0  4  3  2   C } # D for Dihedral angle
| 14> { D 4  3  2  1   C } # D for Dihedral angle
| 15> { D 3  2  1  0   C } # D for Dihedral angle
| 16> { D 2  1  0  4   C } # D for Dihedral angle
| 17> { D 1  0  4  3   C } # D for Dihedral angle
| 18> { D 16  20  19  18   C } # D for Dihedral angle
| 19> { D 20  19  18  17   C } # D for Dihedral angle
| 20> { D 19  18  17  16   C } # D for Dihedral angle
| 21> { D 18  17  16  20   C } # D for Dihedral angle
| 22> { D 17  16  20  19   C } # D for Dihedral angle
| 23> { D 15  12  16  20   C } # D for Dihedral angle
| 24> end
| 25> end
| 26>
| 27>
| 28> #%pal
| 29> #nprocs 8
| 30> #end
| 31>
| 32> * xyz 0 1
| 33> C  -21.048   26.222   46.251
| 34> C  -20.361   27.558   45.944
| 35> C  -20.329   28.222   47.341
| 36> C  -20.110   27.022   48.296
| 37> O  -20.473   25.807   47.535
| 38> H  -20.833   25.428   45.533
| 39> H  -19.344   27.382   45.576
| 40> H  -20.898   28.157   45.201
| 41> H  -19.543   28.978   47.434
| 42> H  -21.289   28.710   47.548
| 43> H  -20.733   27.082   49.195
| 44> H  -19.064   26.913   48.597
| 45> C  -23.061   27.816   46.783
| 46> H  -22.860   27.972   47.850
| 47> H  -22.515   28.580   46.216
| 48> O  -22.586   26.394   46.375
| 49> C  -24.579   28.036   46.535
| 50> C  -25.427   27.118   47.422
| 51> C  -25.383   27.863   48.777
| 52> C  -25.378   29.355   48.358
| 53> O  -24.972   29.391   46.937
| 54> H  -24.783   27.948   45.466
| 55> O  -26.881   27.049   46.880
| 56> H  -25.035   26.097   47.485
| 57> H  -26.229   27.615   49.425
| 58> H  -24.463   27.609   49.316
| 59> H  -24.676   29.953   48.947
| 60> H  -26.370   29.810   48.422
| 61> H  -27.296   28.062   46.808
| 62> *
| 63>
| 64>                          ****END OF INPUT****
 Total Charge           Charge          ....    0
 Multiplicity           Mult            ....    1
 Number of Electrons    NEL             ....  102
FINAL SINGLE POINT ENERGY      -652.817852447319
FINAL SINGLE POINT ENERGY      -652.844643390896
FINAL SINGLE POINT ENERGY      -652.856989157993
FINAL SINGLE POINT ENERGY      -652.858962721511
FINAL SINGLE POINT ENERGY      -652.859301147097
FINAL SINGLE POINT ENERGY      -652.859348925487
FINAL SINGLE POINT ENERGY      -652.859353636073
                    ***********************HURRAY********************

CARTESIAN COORDINATES (ANGSTROEM)
---------------------------------
  C    -21.252462   26.379697   46.384824
  C    -20.303559   27.485379   45.903102
  C    -19.910218   28.180628   47.238432
  C    -19.868483   26.993600   48.234300
  O    -20.629456   25.893842   47.595886
  H    -21.296211   25.517136   45.718938
  H    -19.430229   27.013383   45.441977
  H    -20.755969   28.161641   45.172493
  H    -18.943791   28.689548   47.170528
  H    -20.655260   28.924285   47.532045
  H    -20.322264   27.227715   49.202087
  H    -18.852287   26.623595   48.398736
  C    -23.099722   28.039696   46.934452
  H    -22.914545   28.221188   48.001376
  H    -22.603838   28.826364   46.355342
  O    -22.647590   26.713416   46.546114
  C    -24.595937   28.087643   46.627527
  C    -25.457075   27.095706   47.421852
  C    -25.600326   27.825097   48.781490
  C    -25.665647   29.319245   48.378588
  O    -25.124447   29.406154   46.996837
  H    -24.749546   27.962964   45.552315
  O    -26.746868   26.904983   46.775921
  H    -25.009004   26.106607   47.494230
  H    -26.495948   27.486413   49.308134
  H    -24.731273   27.619537   49.416369
  H    -25.071726   29.964835   49.032589
  H    -26.690136   29.702630   48.346127
  H    -27.095182   27.776074   46.490387

 Multiplicity           Mult            ....    1
 Number of Electrons    NEL             ....  102
 Basis Dimension        Dim             ....  149

ORBITAL ENERGIES
----------------

  NO   OCC          E(Eh)            E(eV)
   0   2.0000     -19.149059      -521.0724
   1   2.0000     -19.145879      -520.9859
   2   2.0000     -19.141737      -520.8731
   3   2.0000     -19.133056      -520.6369
   4   2.0000     -10.281921      -279.7853
   5   2.0000     -10.235355      -278.5182
   6   2.0000     -10.233262      -278.4612
   7   2.0000     -10.233075      -278.4561
   8   2.0000     -10.232271      -278.4343
   9   2.0000     -10.231203      -278.4052
  10   2.0000     -10.196571      -277.4628
  11   2.0000     -10.196376      -277.4575
  12   2.0000     -10.186514      -277.1891
  13   2.0000      -1.054623       -28.6977
  14   2.0000      -1.035421       -28.1752
  15   2.0000      -1.003218       -27.2990
  16   2.0000      -0.999548       -27.1991
  17   2.0000      -0.792683       -21.5700
  18   2.0000      -0.782222       -21.2853
  19   2.0000      -0.771107       -20.9829
  20   2.0000      -0.733650       -19.9636
  21   2.0000      -0.681042       -18.5321
  22   2.0000      -0.607801       -16.5391
  23   2.0000      -0.603465       -16.4211
  24   2.0000      -0.597988       -16.2721
  25   2.0000      -0.576206       -15.6794
  26   2.0000      -0.522039       -14.2054
  27   2.0000      -0.517622       -14.0852
  28   2.0000      -0.506169       -13.7735
  29   2.0000      -0.490596       -13.3498
  30   2.0000      -0.473223       -12.8771
  31   2.0000      -0.461152       -12.5486
  32   2.0000      -0.450747       -12.2655
  33   2.0000      -0.438750       -11.9390
  34   2.0000      -0.428585       -11.6624
  35   2.0000      -0.415565       -11.3081
  36   2.0000      -0.409035       -11.1304
  37   2.0000      -0.391344       -10.6490
  38   2.0000      -0.387032       -10.5317
  39   2.0000      -0.366277        -9.9669
  40   2.0000      -0.365843        -9.9551
  41   2.0000      -0.359918        -9.7939
  42   2.0000      -0.353866        -9.6292
  43   2.0000      -0.330681        -8.9983
  44   2.0000      -0.317839        -8.6488
  45   2.0000      -0.308085        -8.3834
  46   2.0000      -0.300541        -8.1781
  47   2.0000      -0.271863        -7.3978
  48   2.0000      -0.270037        -7.3481
  49   2.0000      -0.256565        -6.9815
  50   2.0000      -0.246510        -6.7079
  51   0.0000       0.064603         1.7579
  52   0.0000       0.065580         1.7845
  53   0.0000       0.089718         2.4414
  54   0.0000       0.096663         2.6303
  55   0.0000       0.102268         2.7829

MULLIKEN ATOMIC CHARGES
-----------------------
   0 C :    0.310311
   1 C :   -0.296364
   2 C :   -0.313188
   3 C :   -0.007107
   4 O :   -0.500025
   5 H :    0.167916
   6 H :    0.160018
   7 H :    0.152674
   8 H :    0.147283
   9 H :    0.149824
  10 H :    0.143186
  11 H :    0.147856
  12 C :   -0.002307
  13 H :    0.128960
  14 H :    0.146102
  15 O :   -0.528644
  16 C :    0.053575
  17 C :    0.092927
  18 C :   -0.302101
  19 C :   -0.034169
  20 O :   -0.529630
  21 H :    0.166369
  22 O :   -0.603821
  23 H :    0.183914
  24 H :    0.163598
  25 H :    0.148067
  26 H :    0.146375
  27 H :    0.146957
  28 H :    0.361447
Sum of atomic charges:   -0.0000000

LOEWDIN ATOMIC CHARGES
----------------------
   0 C :    0.175802
   1 C :   -0.230976
   2 C :   -0.223565
   3 C :   -0.032111
   4 O :   -0.319864
   5 H :    0.113896
   6 H :    0.124700
   7 H :    0.118593
   8 H :    0.116949
   9 H :    0.110358
  10 H :    0.102156
  11 H :    0.104792
  12 C :   -0.040562
  13 H :    0.091917
  14 H :    0.102603
  15 O :   -0.322566
  16 C :    0.017608
  17 C :    0.039741
  18 C :   -0.242096
  19 C :   -0.039272
  20 O :   -0.333282
  21 H :    0.119016
  22 O :   -0.414715
  23 H :    0.131748
  24 H :    0.127348
  25 H :    0.114872
  26 H :    0.103509
  27 H :    0.102870
  28 H :    0.280532

  Mayer bond orders larger than 0.100000
B(  0-C ,  1-C ) :   0.9264 B(  0-C ,  4-O ) :   0.9066 B(  0-C ,  5-H ) :   0.9351
B(  0-C , 15-O ) :   0.8858 B(  1-C ,  2-C ) :   0.9531 B(  1-C ,  6-H ) :   0.9346
B(  1-C ,  7-H ) :   0.9324 B(  2-C ,  3-C ) :   0.9472 B(  2-C ,  8-H ) :   0.9455
B(  2-C ,  9-H ) :   0.9400 B(  3-C ,  4-O ) :   0.8482 B(  3-C , 10-H ) :   0.9345
B(  3-C , 11-H ) :   0.9388 B( 12-C , 13-H ) :   0.9158 B( 12-C , 14-H ) :   0.9080
B( 12-C , 15-O ) :   0.8304 B( 12-C , 16-C ) :   0.9018 B( 16-C , 17-C ) :   0.9150
B( 16-C , 20-O ) :   0.8459 B( 16-C , 21-H ) :   0.9245 B( 17-C , 18-C ) :   0.9128
B( 17-C , 22-O ) :   0.8869 B( 17-C , 23-H ) :   0.9215 B( 18-C , 19-C ) :   0.9409
B( 18-C , 24-H ) :   0.9376 B( 18-C , 25-H ) :   0.9342 B( 19-C , 20-O ) :   0.8428
B( 19-C , 26-H ) :   0.9354 B( 19-C , 27-H ) :   0.9382 B( 22-O , 28-H ) :   0.7966

FINAL SINGLE POINT ENERGY      -652.859344886241

DIPOLE MOMENT
-------------
                                X             Y             Z
Electronic contribution:     -3.87063      -3.34392      -2.61154
Nuclear contribution   :      4.83074       4.52975       3.00292
                        -----------------------------------------
Total Dipole Moment    :      0.96011       1.18583       0.39138
                        -----------------------------------------
Magnitude (a.u.)       :      1.57518
Magnitude (Debye)      :      4.00379

Rotational constants in cm-1:     0.054512     0.012912     0.012395
Rotational constants in MHz :  1634.217877   387.101408   371.599557

                             ****ORCA TERMINATED NORMALLY****
TOTAL RUN TIME: 0 days 1 hours 3 minutes 14 seconds 657 msec
