                         Program Version 4.2.0 -  RELEASE  -
|  1> # Test redundant internal optimization
|  2> #
|  3> ! RKS B3LYP  Opt TightSCF SmallPrint
|  4>
|  5> %basis
|  6>         Basis "6-31G"
|  7> end
|  8>
|  9> %geom
| 10> Constraints
| 11> { D 4  0  15  12  270.0   C } # D for Dihedral angle
| 12> { D 0  15  12  16  315.0   C } # D for Dihedral angle
| 13> { D 0  4  3  2   C } # D for Dihedral angle
| 14> { D 4  3  2  1   C } # D for Dihedral angle
| 15> { D 3  2  1  0   C } # D for Dihedral angle
| 16> { D 2  1  0  4   C } # D for Dihedral angle
| 17> { D 1  0  4  3   C } # D for Dihedral angle
| 18> { D 16  20  19  18   C } # D for Dihedral angle
| 19> { D 20  19  18  17   C } # D for Dihedral angle
| 20> { D 19  18  17  16   C } # D for Dihedral angle
| 21> { D 18  17  16  20   C } # D for Dihedral angle
| 22> { D 17  16  20  19   C } # D for Dihedral angle
| 23> { D 15  12  16  20   C } # D for Dihedral angle
| 24> end
| 25> end
| 26>
| 27>
| 28> #%pal
| 29> #nprocs 8
| 30> #end
| 31>
| 32> * xyz 0 1
| 33> C  -21.048   26.222   46.251
| 34> C  -20.361   27.558   45.944
| 35> C  -20.329   28.222   47.341
| 36> C  -20.110   27.022   48.296
| 37> O  -20.473   25.807   47.535
| 38> H  -20.833   25.428   45.533
| 39> H  -19.344   27.382   45.576
| 40> H  -20.898   28.157   45.201
| 41> H  -19.543   28.978   47.434
| 42> H  -21.289   28.710   47.548
| 43> H  -20.733   27.082   49.195
| 44> H  -19.064   26.913   48.597
| 45> C  -23.420   25.119   46.072
| 46> H  -23.347   24.429   46.922
| 47> H  -24.477   25.376   45.929
| 48> O  -22.586   26.394   46.375
| 49> C  -22.938   24.375   44.796
| 50> C  -23.852   23.191   44.463
| 51> C  -25.049   23.899   43.785
| 52> C  -24.379   25.069   43.023
| 53> O  -23.040   25.250   43.623
| 54> H  -21.883   24.114   44.910
| 55> H  -23.353   22.516   43.759
| 56> O  -24.268   22.371   45.715
| 57> H  -25.613   23.237   43.121
| 58> H  -25.741   24.280   44.546
| 59> H  -24.941   26.006   43.113
| 60> H  -24.229   24.846   41.963
| 61> H  -24.771   23.026   46.435
| 62> *
| 63>
| 64>                          ****END OF INPUT****
 Total Charge           Charge          ....    0
 Multiplicity           Mult            ....    1
 Number of Electrons    NEL             ....  102
FINAL SINGLE POINT ENERGY      -652.825974461296
FINAL SINGLE POINT ENERGY      -652.850465409573
FINAL SINGLE POINT ENERGY      -652.855997644828
FINAL SINGLE POINT ENERGY      -652.857001315743
FINAL SINGLE POINT ENERGY      -652.857171468033
FINAL SINGLE POINT ENERGY      -652.857196156134
FINAL SINGLE POINT ENERGY      -652.857198232343
                    ***********************HURRAY********************

CARTESIAN COORDINATES (ANGSTROEM)
---------------------------------
  C    -20.957923   26.190389   46.203386
  C    -20.406155   27.596655   45.962076
  C    -20.452663   28.204152   47.384317
  C    -20.124340   26.994817   48.289293
  O    -20.362703   25.787453   47.462111
  H    -20.666522   25.445316   45.464663
  H    -19.373964   27.522694   45.600524
  H    -21.002898   28.146556   45.232501
  H    -19.742791   29.026496   47.515896
  H    -21.460020   28.577427   47.589936
  H    -20.755836   26.943936   49.180261
  H    -19.072870   26.964998   48.591632
  C    -23.252478   25.176887   46.044027
  H    -23.235733   24.500692   46.912082
  H    -24.247528   25.624609   45.963038
  O    -22.389535   26.319397   46.312225
  C    -22.923549   24.354474   44.795561
  C    -23.926412   23.211901   44.551042
  C    -25.097872   23.958635   43.838392
  C    -24.357661   25.022582   42.998409
  O    -22.992701   25.149317   43.572244
  H    -21.905467   23.962884   44.851407
  H    -23.477220   22.483090   43.872615
  O    -24.303893   22.437240   45.711056
  H    -25.704996   23.282485   43.230955
  H    -25.752960   24.418945   44.589647
  H    -24.844631   26.002221   43.023421
  H    -24.236061   24.715651   41.955237
  H    -24.884618   22.957101   46.303048

 Multiplicity           Mult            ....    1
 Number of Electrons    NEL             ....  102
 Basis Dimension        Dim             ....  149

ORBITAL ENERGIES
----------------

  NO   OCC          E(Eh)            E(eV)
   0   2.0000     -19.152735      -521.1724
   1   2.0000     -19.142219      -520.8863
   2   2.0000     -19.137518      -520.7583
   3   2.0000     -19.129778      -520.5477
   4   2.0000     -10.270019      -279.4614
   5   2.0000     -10.249523      -278.9037
   6   2.0000     -10.235780      -278.5297
   7   2.0000     -10.234483      -278.4944
   8   2.0000     -10.230948      -278.3983
   9   2.0000     -10.217201      -278.0242
  10   2.0000     -10.198805      -277.5236
  11   2.0000     -10.177139      -276.9340
  12   2.0000     -10.175587      -276.8918
  13   2.0000      -1.046187       -28.4682
  14   2.0000      -1.036336       -28.2001
  15   2.0000      -1.019361       -27.7382
  16   2.0000      -0.985983       -26.8300
  17   2.0000      -0.787104       -21.4182
  18   2.0000      -0.779678       -21.2161
  19   2.0000      -0.765489       -20.8300
  20   2.0000      -0.729765       -19.8579
  21   2.0000      -0.679628       -18.4936
  22   2.0000      -0.615207       -16.7406
  23   2.0000      -0.604790       -16.4572
  24   2.0000      -0.589606       -16.0440
  25   2.0000      -0.561061       -15.2673
  26   2.0000      -0.535631       -14.5753
  27   2.0000      -0.512629       -13.9494
  28   2.0000      -0.495452       -13.4819
  29   2.0000      -0.481998       -13.1158
  30   2.0000      -0.468116       -12.7381
  31   2.0000      -0.453219       -12.3327
  32   2.0000      -0.439128       -11.9493
  33   2.0000      -0.434278       -11.8173
  34   2.0000      -0.430961       -11.7270
  35   2.0000      -0.423283       -11.5181
  36   2.0000      -0.405299       -11.0287
  37   2.0000      -0.394740       -10.7414
  38   2.0000      -0.382027       -10.3955
  39   2.0000      -0.367149        -9.9906
  40   2.0000      -0.356746        -9.7075
  41   2.0000      -0.347949        -9.4682
  42   2.0000      -0.340423        -9.2634
  43   2.0000      -0.334931        -9.1139
  44   2.0000      -0.320295        -8.7157
  45   2.0000      -0.313660        -8.5351
  46   2.0000      -0.295645        -8.0449
  47   2.0000      -0.275046        -7.4844
  48   2.0000      -0.266681        -7.2568
  49   2.0000      -0.243788        -6.6338
  50   2.0000      -0.238098        -6.4790
  51   0.0000       0.049609         1.3499
  52   0.0000       0.076141         2.0719
  53   0.0000       0.085421         2.3244
  54   0.0000       0.095381         2.5954
  55   0.0000       0.102431         2.7873

MULLIKEN ATOMIC CHARGES
-----------------------
   0 C :    0.277901
   1 C :   -0.252845
   2 C :   -0.298066
   3 C :    0.000058
   4 O :   -0.512493
   5 H :    0.154042
   6 H :    0.141196
   7 H :    0.158980
   8 H :    0.136757
   9 H :    0.160478
  10 H :    0.144128
  11 H :    0.138559
  12 C :    0.004976
  13 H :    0.140684
  14 H :    0.141185
  15 O :   -0.522132
  16 C :    0.056842
  17 C :    0.083331
  18 C :   -0.319864
  19 C :   -0.014419
  20 O :   -0.513433
  21 H :    0.166087
  22 H :    0.170181
  23 O :   -0.596474
  24 H :    0.159703
  25 H :    0.134712
  26 H :    0.149320
  27 H :    0.152652
  28 H :    0.357954
Sum of atomic charges:   -0.0000000

LOEWDIN ATOMIC CHARGES
----------------------
   0 C :    0.172923
   1 C :   -0.213807
   2 C :   -0.216717
   3 C :   -0.027554
   4 O :   -0.330963
   5 H :    0.102212
   6 H :    0.111822
   7 H :    0.125207
   8 H :    0.111307
   9 H :    0.118239
  10 H :    0.103695
  11 H :    0.100445
  12 C :   -0.047891
  13 H :    0.101869
  14 H :    0.107746
  15 O :   -0.318857
  16 C :    0.003523
  17 C :    0.037583
  18 C :   -0.240691
  19 C :   -0.029927
  20 O :   -0.322941
  21 H :    0.115671
  22 H :    0.120164
  23 O :   -0.403581
  24 H :    0.123902
  25 H :    0.104796
  26 H :    0.105295
  27 H :    0.107502
  28 H :    0.279030

  Mayer bond orders larger than 0.100000
B(  0-C ,  1-C ) :   0.9490 B(  0-C ,  4-O ) :   0.9048 B(  0-C ,  5-H ) :   0.9101
B(  0-C , 15-O ) :   0.8583 B(  1-C ,  2-C ) :   0.9572 B(  1-C ,  6-H ) :   0.9410
B(  1-C ,  7-H ) :   0.9362 B(  2-C ,  3-C ) :   0.9545 B(  2-C ,  8-H ) :   0.9457
B(  2-C ,  9-H ) :   0.9445 B(  3-C ,  4-O ) :   0.8421 B(  3-C , 10-H ) :   0.9359
B(  3-C , 11-H ) :   0.9405 B( 12-C , 13-H ) :   0.9024 B( 12-C , 14-H ) :   0.9379
B( 12-C , 15-O ) :   0.8575 B( 12-C , 16-C ) :   0.8939 B( 16-C , 17-C ) :   0.8681
B( 16-C , 20-O ) :   0.8609 B( 16-C , 21-H ) :   0.9217 B( 17-C , 18-C ) :   0.9219
B( 17-C , 22-H ) :   0.9328 B( 17-C , 23-O ) :   0.9042 B( 18-C , 19-C ) :   0.9381
B( 18-C , 24-H ) :   0.9418 B( 18-C , 25-H ) :   0.9413 B( 19-C , 20-O ) :   0.8456
B( 19-C , 26-H ) :   0.9311 B( 19-C , 27-H ) :   0.9371 B( 23-O , 28-H ) :   0.7961

FINAL SINGLE POINT ENERGY      -652.857198350004

DIPOLE MOMENT
-------------
                                X             Y             Z
Electronic contribution:      0.39631      -3.47557      -0.03904
Nuclear contribution   :     -1.21295       3.96452      -0.27456
                        -----------------------------------------
Total Dipole Moment    :     -0.81664       0.48896      -0.31360
                        -----------------------------------------
Magnitude (a.u.)       :      1.00216
Magnitude (Debye)      :      2.54728

Rotational constants in cm-1:     0.058976     0.012818     0.011427
Rotational constants in MHz :  1768.062738   384.266946   342.575721

                             ****ORCA TERMINATED NORMALLY****
TOTAL RUN TIME: 0 days 2 hours 11 minutes 33 seconds 432 msec
