                         Program Version 4.2.0 -  RELEASE  -
|  1> # Test redundant internal optimization
|  2> #
|  3> ! RKS B3LYP  Opt TightSCF SmallPrint
|  4>
|  5> %basis
|  6>         Basis "6-31G"
|  7> end
|  8>
|  9> %geom
| 10> Constraints
| 11> { D 4  0  15  12  120.0   C } # D for Dihedral angle
| 12> { D 0  15  12  16  75.0   C } # D for Dihedral angle
| 13> { D 0  4  3  2   C } # D for Dihedral angle
| 14> { D 4  3  2  1   C } # D for Dihedral angle
| 15> { D 3  2  1  0   C } # D for Dihedral angle
| 16> { D 2  1  0  4   C } # D for Dihedral angle
| 17> { D 1  0  4  3   C } # D for Dihedral angle
| 18> { D 16  20  19  18   C } # D for Dihedral angle
| 19> { D 20  19  18  17   C } # D for Dihedral angle
| 20> { D 19  18  17  16   C } # D for Dihedral angle
| 21> { D 18  17  16  20   C } # D for Dihedral angle
| 22> { D 17  16  20  19   C } # D for Dihedral angle
| 23> { D 15  12  16  20   C } # D for Dihedral angle
| 24> end
| 25> end
| 26>
| 27>
| 28> #%pal
| 29> #nprocs 8
| 30> #end
| 31>
| 32> * xyz 0 1
| 33> C  -21.048   26.222   46.251
| 34> C  -20.361   27.558   45.944
| 35> C  -20.329   28.222   47.341
| 36> C  -20.110   27.022   48.296
| 37> O  -20.473   25.807   47.535
| 38> H  -20.833   25.428   45.533
| 39> H  -19.344   27.382   45.576
| 40> H  -20.898   28.157   45.201
| 41> H  -19.543   28.978   47.434
| 42> H  -21.289   28.710   47.548
| 43> H  -20.733   27.082   49.195
| 44> H  -19.064   26.913   48.597
| 45> C  -23.119   27.818   46.058
| 46> H  -24.145   27.912   46.434
| 47> H  -22.501   28.578   46.553
| 48> O  -22.586   26.394   46.375
| 49> C  -23.125   28.132   44.536
| 50> C  -23.546   29.581   44.268
| 51> C  -22.239   30.349   44.578
| 52> C  -21.136   29.376   44.092
| 53> O  -21.768   28.043   43.989
| 54> H  -23.729   27.383   44.019
| 55> H  -23.827   29.704   43.216
| 56> O  -24.739   30.043   45.149
| 57> H  -22.189   31.321   44.076
| 58> H  -22.152   30.525   45.657
| 59> H  -20.291   29.319   44.788
| 60> H  -20.760   29.633   43.098
| 61> H  -24.481   29.930   46.208
| 62> *
| 63>
| 64>                          ****END OF INPUT****
 Total Charge           Charge          ....    0
 Multiplicity           Mult            ....    1
 Number of Electrons    NEL             ....  102
FINAL SINGLE POINT ENERGY      -652.749387861272
FINAL SINGLE POINT ENERGY      -652.817008210464
FINAL SINGLE POINT ENERGY      -652.839027880996
FINAL SINGLE POINT ENERGY      -652.844299422960
FINAL SINGLE POINT ENERGY      -652.845011435038
FINAL SINGLE POINT ENERGY      -652.845189246290
FINAL SINGLE POINT ENERGY      -652.845220651757
FINAL SINGLE POINT ENERGY      -652.845224762001
FINAL SINGLE POINT ENERGY      -652.845225353790
                    ***********************HURRAY********************

CARTESIAN COORDINATES (ANGSTROEM)
---------------------------------
  C    -21.052782   26.186901   46.400537
  C    -19.993235   27.254062   46.114192
  C    -19.915893   28.006956   47.469444
  C    -20.141740   26.869944   48.495433
  O    -20.750314   25.754302   47.743481
  H    -20.983053   25.298744   45.772879
  H    -19.045498   26.739521   45.917630
  H    -20.242856   27.865824   45.252667
  H    -18.954648   28.509936   47.613966
  H    -20.703318   28.766124   47.543772
  H    -20.809719   27.156046   49.313336
  H    -19.202878   26.496528   48.915792
  C    -23.052394   27.845951   46.008769
  H    -24.096066   27.736426   46.316986
  H    -22.605462   28.654378   46.611866
  O    -22.457009   26.571678   46.345410
  C    -23.062108   28.233773   44.520292
  C    -23.738202   29.589450   44.239944
  C    -22.544684   30.581107   44.405932
  C    -21.349643   29.773708   43.857567
  O    -21.764834   28.341085   43.858188
  H    -23.571869   27.423022   43.988444
  H    -24.103930   29.605239   43.211305
  O    -24.900682   29.889228   45.045591
  H    -22.706939   31.517919   43.867200
  H    -22.412880   30.819832   45.469470
  H    -20.444894   29.883637   44.463657
  H    -21.113439   30.030004   42.821673
  H    -24.637030   30.120675   45.959576

 Multiplicity           Mult            ....    1
 Number of Electrons    NEL             ....  102
 Basis Dimension        Dim             ....  149

ORBITAL ENERGIES
----------------

  NO   OCC          E(Eh)            E(eV)
   0   2.0000     -19.156910      -521.2860
   1   2.0000     -19.154413      -521.2181
   2   2.0000     -19.131758      -520.6016
   3   2.0000     -19.130531      -520.5682
   4   2.0000     -10.272514      -279.5293
   5   2.0000     -10.253674      -279.0167
   6   2.0000     -10.242638      -278.7164
   7   2.0000     -10.237306      -278.5713
   8   2.0000     -10.237014      -278.5633
   9   2.0000     -10.221792      -278.1491
  10   2.0000     -10.204913      -277.6898
  11   2.0000     -10.188830      -277.2522
  12   2.0000     -10.177368      -276.9403
  13   2.0000      -1.046058       -28.4647
  14   2.0000      -1.039592       -28.2887
  15   2.0000      -1.026699       -27.9379
  16   2.0000      -0.985130       -26.8068
  17   2.0000      -0.792570       -21.5669
  18   2.0000      -0.782035       -21.2803
  19   2.0000      -0.774984       -21.0884
  20   2.0000      -0.732989       -19.9456
  21   2.0000      -0.687196       -18.6995
  22   2.0000      -0.621803       -16.9201
  23   2.0000      -0.604867       -16.4593
  24   2.0000      -0.597417       -16.2565
  25   2.0000      -0.565151       -15.3785
  26   2.0000      -0.532186       -14.4815
  27   2.0000      -0.518811       -14.1176
  28   2.0000      -0.502652       -13.6778
  29   2.0000      -0.484957       -13.1964
  30   2.0000      -0.470003       -12.7894
  31   2.0000      -0.461585       -12.5604
  32   2.0000      -0.450166       -12.2496
  33   2.0000      -0.440433       -11.9848
  34   2.0000      -0.431409       -11.7392
  35   2.0000      -0.427090       -11.6217
  36   2.0000      -0.409691       -11.1483
  37   2.0000      -0.401988       -10.9387
  38   2.0000      -0.388938       -10.5835
  39   2.0000      -0.373510       -10.1637
  40   2.0000      -0.362092        -9.8530
  41   2.0000      -0.356075        -9.6893
  42   2.0000      -0.346314        -9.4237
  43   2.0000      -0.339627        -9.2417
  44   2.0000      -0.324028        -8.8173
  45   2.0000      -0.306481        -8.3398
  46   2.0000      -0.284240        -7.7346
  47   2.0000      -0.280117        -7.6224
  48   2.0000      -0.270857        -7.3704
  49   2.0000      -0.251752        -6.8505
  50   2.0000      -0.236820        -6.4442
  51   0.0000       0.042808         1.1649
  52   0.0000       0.058873         1.6020
  53   0.0000       0.081301         2.2123
  54   0.0000       0.092939         2.5290
  55   0.0000       0.095515         2.5991

MULLIKEN ATOMIC CHARGES
-----------------------
   0 C :    0.321885
   1 C :   -0.312873
   2 C :   -0.316491
   3 C :    0.001419
   4 O :   -0.496017
   5 H :    0.161379
   6 H :    0.146166
   7 H :    0.194309
   8 H :    0.139764
   9 H :    0.138328
  10 H :    0.143170
  11 H :    0.142231
  12 C :   -0.009649
  13 H :    0.168875
  14 H :    0.100178
  15 O :   -0.538597
  16 C :    0.090017
  17 C :    0.084348
  18 C :   -0.318251
  19 C :   -0.018950
  20 O :   -0.513524
  21 H :    0.166079
  22 H :    0.172389
  23 O :   -0.597186
  24 H :    0.161743
  25 H :    0.134382
  26 H :    0.139362
  27 H :    0.157256
  28 H :    0.358258
Sum of atomic charges:    0.0000000

LOEWDIN ATOMIC CHARGES
----------------------
   0 C :    0.190792
   1 C :   -0.240183
   2 C :   -0.223789
   3 C :   -0.030637
   4 O :   -0.313280
   5 H :    0.110265
   6 H :    0.118794
   7 H :    0.136480
   8 H :    0.113154
   9 H :    0.101586
  10 H :    0.102489
  11 H :    0.102267
  12 C :   -0.042664
  13 H :    0.125498
  14 H :    0.076432
  15 O :   -0.333157
  16 C :    0.005306
  17 C :    0.036582
  18 C :   -0.240026
  19 C :   -0.032866
  20 O :   -0.319280
  21 H :    0.118980
  22 H :    0.121266
  23 O :   -0.403241
  24 H :    0.125236
  25 H :    0.104830
  26 H :    0.099779
  27 H :    0.110049
  28 H :    0.279339

  Mayer bond orders larger than 0.100000
B(  0-C ,  1-C ) :   0.9347 B(  0-C ,  4-O ) :   0.9152 B(  0-C ,  5-H ) :   0.9320
B(  0-C , 15-O ) :   0.8488 B(  1-C ,  2-C ) :   0.9507 B(  1-C ,  6-H ) :   0.9347
B(  1-C ,  7-H ) :   0.8911 B(  2-C ,  3-C ) :   0.9488 B(  2-C ,  8-H ) :   0.9465
B(  2-C ,  9-H ) :   0.9417 B(  3-C ,  4-O ) :   0.8502 B(  3-C , 10-H ) :   0.9350
B(  3-C , 11-H ) :   0.9390 B( 12-C , 13-H ) :   0.9176 B( 12-C , 14-H ) :   0.9096
B( 12-C , 15-O ) :   0.8689 B( 12-C , 16-C ) :   0.8896 B( 16-C , 17-C ) :   0.8650
B( 16-C , 20-O ) :   0.8523 B( 16-C , 21-H ) :   0.9283 B( 17-C , 18-C ) :   0.9234
B( 17-C , 22-H ) :   0.9321 B( 17-C , 23-O ) :   0.9018 B( 18-C , 19-C ) :   0.9426
B( 18-C , 24-H ) :   0.9409 B( 18-C , 25-H ) :   0.9409 B( 19-C , 20-O ) :   0.8372
B( 19-C , 26-H ) :   0.9262 B( 19-C , 27-H ) :   0.9387 B( 23-O , 28-H ) :   0.7970

FINAL SINGLE POINT ENERGY      -652.845224634200

DIPOLE MOMENT
-------------
                                X             Y             Z
Electronic contribution:     -3.98894      -5.08706      -1.19722
Nuclear contribution   :      4.80101       6.97062       1.13001
                        -----------------------------------------
Total Dipole Moment    :      0.81207       1.88356      -0.06721
                        -----------------------------------------
Magnitude (a.u.)       :      2.05226
Magnitude (Debye)      :      5.21644

Rotational constants in cm-1:     0.049260     0.015511     0.014225
Rotational constants in MHz :  1476.783858   464.999941   426.467985

                             ****ORCA TERMINATED NORMALLY****
TOTAL RUN TIME: 0 days 1 hours 19 minutes 38 seconds 674 msec
