                         Program Version 4.2.0 -  RELEASE  -
|  1> # Test redundant internal optimization
|  2> #
|  3> ! RKS B3LYP  Opt TightSCF SmallPrint
|  4>
|  5> %basis
|  6>         Basis "6-31G"
|  7> end
|  8>
|  9> %geom
| 10> Constraints
| 11> { D 4  0  15  12  270.0   C } # D for Dihedral angle
| 12> { D 0  15  12  16  120.0   C } # D for Dihedral angle
| 13> { D 0  4  3  2   C } # D for Dihedral angle
| 14> { D 4  3  2  1   C } # D for Dihedral angle
| 15> { D 3  2  1  0   C } # D for Dihedral angle
| 16> { D 2  1  0  4   C } # D for Dihedral angle
| 17> { D 1  0  4  3   C } # D for Dihedral angle
| 18> { D 16  20  19  18   C } # D for Dihedral angle
| 19> { D 20  19  18  17   C } # D for Dihedral angle
| 20> { D 19  18  17  16   C } # D for Dihedral angle
| 21> { D 18  17  16  20   C } # D for Dihedral angle
| 22> { D 17  16  20  19   C } # D for Dihedral angle
| 23> { D 15  12  16  20   C } # D for Dihedral angle
| 24> end
| 25> end
| 26>
| 27>
| 28> #%pal
| 29> #nprocs 8
| 30> #end
| 31>
| 32> * xyz 0 1
| 33> C  -21.048   26.222   46.251
| 34> C  -20.361   27.558   45.944
| 35> C  -20.329   28.222   47.341
| 36> C  -20.110   27.022   48.296
| 37> O  -20.473   25.807   47.535
| 38> H  -20.833   25.428   45.533
| 39> H  -19.344   27.382   45.576
| 40> H  -20.898   28.157   45.201
| 41> H  -19.543   28.978   47.434
| 42> H  -21.289   28.710   47.548
| 43> H  -20.733   27.082   49.195
| 44> H  -19.064   26.913   48.597
| 45> C  -23.420   25.119   46.072
| 46> H  -24.087   25.316   45.224
| 47> H  -22.760   24.284   45.803
| 48> O  -22.586   26.394   46.375
| 49> C  -24.285   24.666   47.281
| 50> C  -25.003   23.344   46.987
| 51> C  -23.871   22.315   47.215
| 52> C  -23.061   22.936   48.381
| 53> O  -23.434   24.366   48.437
| 54> H  -24.946   25.485   47.574
| 55> H  -25.817   23.190   47.705
| 56> O  -25.597   23.278   45.553
| 57> H  -24.248   21.315   47.455
| 58> H  -23.250   22.232   46.315
| 59> H  -21.979   22.854   48.230
| 60> H  -23.318   22.497   49.349
| 61> H  -24.801   23.429   44.816
| 62> *
| 63>
| 64>                          ****END OF INPUT****
 Total Charge           Charge          ....    0
 Multiplicity           Mult            ....    1
 Number of Electrons    NEL             ....  102
FINAL SINGLE POINT ENERGY      -652.828959720695
FINAL SINGLE POINT ENERGY      -652.853020790613
FINAL SINGLE POINT ENERGY      -652.857599666158
FINAL SINGLE POINT ENERGY      -652.858390529217
FINAL SINGLE POINT ENERGY      -652.858532066320
FINAL SINGLE POINT ENERGY      -652.858564585587
FINAL SINGLE POINT ENERGY      -652.858570640037
FINAL SINGLE POINT ENERGY      -652.858571542480
                    ***********************HURRAY********************

CARTESIAN COORDINATES (ANGSTROEM)
---------------------------------
  C    -21.016585   26.171345   46.195837
  C    -20.462364   27.578833   45.976993
  C    -20.491820   28.160572   47.410614
  C    -20.158903   26.931919   48.287370
  O    -20.412531   25.745430   47.434805
  H    -20.750034   25.422986   45.442678
  H    -19.433085   27.510233   45.605148
  H    -21.061610   28.149819   45.265272
  H    -19.777488   28.977918   47.548252
  H    -21.495790   28.531998   47.634501
  H    -20.787687   26.857326   49.177132
  H    -19.104632   26.890056   48.578345
  C    -23.258397   25.136287   45.983016
  H    -23.928602   25.398342   45.155363
  H    -22.608520   24.307520   45.667492
  O    -22.452604   26.303565   46.293203
  C    -24.098542   24.740494   47.200794
  C    -24.938593   23.472378   46.974040
  C    -23.900467   22.344350   47.254384
  C    -23.039147   22.952772   48.384147
  O    -23.281855   24.416587   48.362689
  H    -24.708835   25.600330   47.489808
  H    -25.746392   23.435631   47.708310
  O    -25.608704   23.389218   45.691342
  H    -24.377822   21.403480   47.539128
  H    -23.303587   22.160572   46.350537
  H    -21.967850   22.776199   48.252217
  H    -23.340870   22.592085   49.372100
  H    -24.974681   23.142755   44.987483

 Multiplicity           Mult            ....    1
 Number of Electrons    NEL             ....  102
 Basis Dimension        Dim             ....  149

ORBITAL ENERGIES
----------------

  NO   OCC          E(Eh)            E(eV)
   0   2.0000     -19.147979      -521.0430
   1   2.0000     -19.137650      -520.7619
   2   2.0000     -19.131437      -520.5929
   3   2.0000     -19.129326      -520.5354
   4   2.0000     -10.274085      -279.5721
   5   2.0000     -10.242386      -278.7095
   6   2.0000     -10.228834      -278.3407
   7   2.0000     -10.225683      -278.2550
   8   2.0000     -10.224733      -278.2291
   9   2.0000     -10.214986      -277.9639
  10   2.0000     -10.193353      -277.3752
  11   2.0000     -10.178450      -276.9697
  12   2.0000     -10.177238      -276.9367
  13   2.0000      -1.046625       -28.4801
  14   2.0000      -1.030481       -28.0408
  15   2.0000      -1.011630       -27.5278
  16   2.0000      -0.987708       -26.8769
  17   2.0000      -0.782911       -21.3041
  18   2.0000      -0.777986       -21.1701
  19   2.0000      -0.761592       -20.7240
  20   2.0000      -0.724467       -19.7137
  21   2.0000      -0.675902       -18.3922
  22   2.0000      -0.608538       -16.5592
  23   2.0000      -0.590310       -16.0632
  24   2.0000      -0.585851       -15.9418
  25   2.0000      -0.577143       -15.7049
  26   2.0000      -0.526133       -14.3168
  27   2.0000      -0.508928       -13.8486
  28   2.0000      -0.492595       -13.4042
  29   2.0000      -0.481920       -13.1137
  30   2.0000      -0.464118       -12.6293
  31   2.0000      -0.453590       -12.3428
  32   2.0000      -0.443332       -12.0637
  33   2.0000      -0.428050       -11.6478
  34   2.0000      -0.421583       -11.4719
  35   2.0000      -0.417080       -11.3493
  36   2.0000      -0.400676       -10.9029
  37   2.0000      -0.392716       -10.6863
  38   2.0000      -0.377732       -10.2786
  39   2.0000      -0.366710        -9.9787
  40   2.0000      -0.348731        -9.4894
  41   2.0000      -0.345832        -9.4106
  42   2.0000      -0.340384        -9.2623
  43   2.0000      -0.327684        -8.9167
  44   2.0000      -0.316834        -8.6215
  45   2.0000      -0.311433        -8.4745
  46   2.0000      -0.296739        -8.0747
  47   2.0000      -0.269138        -7.3236
  48   2.0000      -0.262497        -7.1429
  49   2.0000      -0.246500        -6.7076
  50   2.0000      -0.229484        -6.2446
  51   0.0000       0.051733         1.4077
  52   0.0000       0.077486         2.1085
  53   0.0000       0.090977         2.4756
  54   0.0000       0.101574         2.7640
  55   0.0000       0.110030         2.9941

MULLIKEN ATOMIC CHARGES
-----------------------
   0 C :    0.286790
   1 C :   -0.257817
   2 C :   -0.298685
   3 C :    0.000932
   4 O :   -0.502439
   5 H :    0.133090
   6 H :    0.139891
   7 H :    0.151026
   8 H :    0.136619
   9 H :    0.164915
  10 H :    0.159671
  11 H :    0.135079
  12 C :   -0.015266
  13 H :    0.144647
  14 H :    0.115244
  15 O :   -0.513173
  16 C :    0.103310
  17 C :    0.079688
  18 C :   -0.322366
  19 C :   -0.009838
  20 O :   -0.501313
  21 H :    0.161237
  22 H :    0.167877
  23 O :   -0.600818
  24 H :    0.155564
  25 H :    0.129284
  26 H :    0.158092
  27 H :    0.144418
  28 H :    0.354340
Sum of atomic charges:   -0.0000000

LOEWDIN ATOMIC CHARGES
----------------------
   0 C :    0.174414
   1 C :   -0.217285
   2 C :   -0.215747
   3 C :   -0.025958
   4 O :   -0.321699
   5 H :    0.092769
   6 H :    0.110949
   7 H :    0.120845
   8 H :    0.111185
   9 H :    0.120482
  10 H :    0.112180
  11 H :    0.098996
  12 C :   -0.048213
  13 H :    0.106260
  14 H :    0.089507
  15 O :   -0.320228
  16 C :    0.017354
  17 C :    0.032380
  18 C :   -0.241048
  19 C :   -0.029520
  20 O :   -0.310520
  21 H :    0.118453
  22 H :    0.119430
  23 O :   -0.409032
  24 H :    0.121826
  25 H :    0.101686
  26 H :    0.109758
  27 H :    0.103961
  28 H :    0.276815

  Mayer bond orders larger than 0.100000
B(  0-C ,  1-C ) :   0.9482 B(  0-C ,  4-O ) :   0.9240 B(  0-C ,  5-H ) :   0.9197
B(  0-C , 15-O ) :   0.8590 B(  1-C ,  2-C ) :   0.9592 B(  1-C ,  6-H ) :   0.9404
B(  1-C ,  7-H ) :   0.9374 B(  2-C ,  3-C ) :   0.9551 B(  2-C ,  8-H ) :   0.9456
B(  2-C ,  9-H ) :   0.9435 B(  3-C ,  4-O ) :   0.8365 B(  3-C , 10-H ) :   0.9328
B(  3-C , 11-H ) :   0.9404 B( 12-C , 13-H ) :   0.9165 B( 12-C , 14-H ) :   0.9203
B( 12-C , 15-O ) :   0.8521 B( 12-C , 16-C ) :   0.8955 B( 16-C , 17-C ) :   0.8711
B( 16-C , 20-O ) :   0.8771 B( 16-C , 21-H ) :   0.9312 B( 17-C , 18-C ) :   0.9243
B( 17-C , 22-H ) :   0.9321 B( 17-C , 23-O ) :   0.8942 B( 18-C , 19-C ) :   0.9375
B( 18-C , 24-H ) :   0.9425 B( 18-C , 25-H ) :   0.9402 B( 19-C , 20-O ) :   0.8487
B( 19-C , 26-H ) :   0.9280 B( 19-C , 27-H ) :   0.9383 B( 23-O , 28-H ) :   0.7994

FINAL SINGLE POINT ENERGY      -652.858571627460

DIPOLE MOMENT
-------------
                                X             Y             Z
Electronic contribution:     -2.82440      -0.89184       0.00743
Nuclear contribution   :      3.38865       0.49759      -0.55963
                        -----------------------------------------
Total Dipole Moment    :      0.56425      -0.39425      -0.55220
                        -----------------------------------------
Magnitude (a.u.)       :      0.88246
Magnitude (Debye)      :      2.24304

Rotational constants in cm-1:     0.056409     0.014346     0.012682
Rotational constants in MHz :  1691.102368   430.080721   380.206247

                             ****ORCA TERMINATED NORMALLY****
TOTAL RUN TIME: 0 days 0 hours 25 minutes 21 seconds 446 msec
