                         Program Version 4.2.0 -  RELEASE  -
|  1> # Test redundant internal optimization
|  2> #
|  3> ! RKS B3LYP  Opt TightSCF SmallPrint
|  4>
|  5> %basis
|  6>         Basis "6-31G"
|  7> end
|  8>
|  9> %geom
| 10> Constraints
| 11> { D 4  0  15  12  210.0   C } # D for Dihedral angle
| 12> { D 0  15  12  16  15.0   C } # D for Dihedral angle
| 13> { D 0  4  3  2   C } # D for Dihedral angle
| 14> { D 4  3  2  1   C } # D for Dihedral angle
| 15> { D 3  2  1  0   C } # D for Dihedral angle
| 16> { D 2  1  0  4   C } # D for Dihedral angle
| 17> { D 1  0  4  3   C } # D for Dihedral angle
| 18> { D 16  20  19  18   C } # D for Dihedral angle
| 19> { D 20  19  18  17   C } # D for Dihedral angle
| 20> { D 19  18  17  16   C } # D for Dihedral angle
| 21> { D 18  17  16  20   C } # D for Dihedral angle
| 22> { D 17  16  20  19   C } # D for Dihedral angle
| 23> { D 15  12  16  20   C } # D for Dihedral angle
| 24> end
| 25> end
| 26>
| 27>
| 28> #%pal
| 29> #nprocs 8
| 30> #end
| 31>
| 32> * xyz 0 1
| 33> C  -21.048   26.222   46.251
| 34> C  -20.361   27.558   45.944
| 35> C  -20.329   28.222   47.341
| 36> C  -20.110   27.022   48.296
| 37> O  -20.473   25.807   47.535
| 38> H  -20.833   25.428   45.533
| 39> H  -19.344   27.382   45.576
| 40> H  -20.898   28.157   45.201
| 41> H  -19.543   28.978   47.434
| 42> H  -21.289   28.710   47.548
| 43> H  -20.733   27.082   49.195
| 44> H  -19.064   26.913   48.597
| 45> C  -23.389   26.110   45.076
| 46> H  -24.268   25.500   45.320
| 47> H  -23.737   27.049   44.627
| 48> O  -22.586   26.394   46.375
| 49> C  -22.553   25.356   44.005
| 50> C  -23.337   25.196   42.698
| 51> C  -23.174   26.596   42.061
| 52> C  -21.744   27.012   42.487
| 53> O  -21.375   26.144   43.626
| 54> H  -22.187   24.419   44.431
| 55> H  -22.870   24.429   42.070
| 56> O  -24.823   24.805   42.922
| 57> H  -23.299   26.585   40.974
| 58> H  -23.917   27.288   42.477
| 59> H  -21.689   28.060   42.803
| 60> H  -21.006   26.840   41.698
| 61> H  -25.313   25.559   43.548
| 62> *
| 63>
| 64>                          ****END OF INPUT****
 Total Charge           Charge          ....    0
 Multiplicity           Mult            ....    1
 Number of Electrons    NEL             ....  102
FINAL SINGLE POINT ENERGY      -652.820169318700
FINAL SINGLE POINT ENERGY      -652.843229655298
FINAL SINGLE POINT ENERGY      -652.849763383739
FINAL SINGLE POINT ENERGY      -652.851783948622
FINAL SINGLE POINT ENERGY      -652.852087794224
FINAL SINGLE POINT ENERGY      -652.852160547443
FINAL SINGLE POINT ENERGY      -652.852165523322
                    ***********************HURRAY********************

CARTESIAN COORDINATES (ANGSTROEM)
---------------------------------
  C    -20.881202   26.223122   46.253498
  C    -20.215705   27.583242   46.052722
  C    -20.391962   28.235298   47.445091
  C    -20.253232   27.034466   48.405936
  O    -20.470935   25.825460   47.572781
  H    -20.565575   25.446629   45.560778
  H    -19.154514   27.435422   45.818978
  H    -20.671665   28.153111   45.241199
  H    -19.652032   29.016605   47.643781
  H    -21.391074   28.674461   47.522088
  H    -20.990127   27.041056   49.213631
  H    -19.249096   26.945221   48.832369
  C    -23.167201   26.122357   45.111245
  H    -24.021521   25.533389   45.464315
  H    -23.541209   27.099250   44.768099
  O    -22.335357   26.360511   46.279638
  C    -22.530637   25.384300   43.931760
  C    -23.476122   25.227001   42.725794
  C    -23.312783   26.603636   42.008713
  C    -21.824103   26.938852   42.251964
  O    -21.370340   26.084698   43.382233
  H    -22.162073   24.410769   44.269299
  H    -23.109906   24.420404   42.086978
  O    -24.836232   24.852787   43.038188
  H    -23.567795   26.547588   40.947455
  H    -23.973984   27.342781   42.478989
  H    -21.658960   27.988986   42.513236
  H    -21.195640   26.686507   41.393145
  H    -25.321017   25.605091   43.435097

 Multiplicity           Mult            ....    1
 Number of Electrons    NEL             ....  102
 Basis Dimension        Dim             ....  149

ORBITAL ENERGIES
----------------

  NO   OCC          E(Eh)            E(eV)
   0   2.0000     -19.157043      -521.2896
   1   2.0000     -19.152305      -521.1607
   2   2.0000     -19.128949      -520.5252
   3   2.0000     -19.127410      -520.4833
   4   2.0000     -10.265435      -279.3367
   5   2.0000     -10.254689      -279.0443
   6   2.0000     -10.241842      -278.6947
   7   2.0000     -10.240986      -278.6714
   8   2.0000     -10.232904      -278.4515
   9   2.0000     -10.214358      -277.9468
  10   2.0000     -10.204064      -277.6667
  11   2.0000     -10.175107      -276.8787
  12   2.0000     -10.171341      -276.7763
  13   2.0000      -1.046076       -28.4652
  14   2.0000      -1.037312       -28.2267
  15   2.0000      -1.025925       -27.9168
  16   2.0000      -0.980798       -26.6889
  17   2.0000      -0.792132       -21.5550
  18   2.0000      -0.776201       -21.1215
  19   2.0000      -0.768897       -20.9227
  20   2.0000      -0.728001       -19.8099
  21   2.0000      -0.681861       -18.5544
  22   2.0000      -0.621563       -16.9136
  23   2.0000      -0.603639       -16.4259
  24   2.0000      -0.587110       -15.9761
  25   2.0000      -0.560053       -15.2398
  26   2.0000      -0.538769       -14.6606
  27   2.0000      -0.514648       -14.0043
  28   2.0000      -0.493641       -13.4327
  29   2.0000      -0.476489       -12.9659
  30   2.0000      -0.474499       -12.9118
  31   2.0000      -0.455409       -12.3923
  32   2.0000      -0.442204       -12.0330
  33   2.0000      -0.437691       -11.9102
  34   2.0000      -0.432554       -11.7704
  35   2.0000      -0.423456       -11.5228
  36   2.0000      -0.407149       -11.0791
  37   2.0000      -0.393984       -10.7208
  38   2.0000      -0.388778       -10.5792
  39   2.0000      -0.366830        -9.9819
  40   2.0000      -0.357555        -9.7296
  41   2.0000      -0.347708        -9.4616
  42   2.0000      -0.342446        -9.3184
  43   2.0000      -0.337211        -9.1760
  44   2.0000      -0.325855        -8.8670
  45   2.0000      -0.302098        -8.2205
  46   2.0000      -0.299362        -8.1461
  47   2.0000      -0.280544        -7.6340
  48   2.0000      -0.254620        -6.9286
  49   2.0000      -0.248722        -6.7681
  50   2.0000      -0.234927        -6.3927
  51   0.0000       0.045342         1.2338
  52   0.0000       0.063173         1.7190
  53   0.0000       0.083236         2.2650
  54   0.0000       0.094770         2.5788
  55   0.0000       0.102282         2.7832

MULLIKEN ATOMIC CHARGES
-----------------------
   0 C :    0.298669
   1 C :   -0.246822
   2 C :   -0.301922
   3 C :    0.000579
   4 O :   -0.506509
   5 H :    0.164695
   6 H :    0.140290
   7 H :    0.139499
   8 H :    0.135058
   9 H :    0.155276
  10 H :    0.148883
  11 H :    0.136879
  12 C :    0.021544
  13 H :    0.152105
  14 H :    0.114497
  15 O :   -0.535810
  16 C :    0.046829
  17 C :    0.084941
  18 C :   -0.323190
  19 C :   -0.013333
  20 O :   -0.522039
  21 H :    0.168071
  22 H :    0.173295
  23 O :   -0.595645
  24 H :    0.162141
  25 H :    0.137897
  26 H :    0.147106
  27 H :    0.157157
  28 H :    0.359859
Sum of atomic charges:   -0.0000000

LOEWDIN ATOMIC CHARGES
----------------------
   0 C :    0.183618
   1 C :   -0.220541
   2 C :   -0.219989
   3 C :   -0.026020
   4 O :   -0.309522
   5 H :    0.108378
   6 H :    0.112446
   7 H :    0.113701
   8 H :    0.110702
   9 H :    0.115625
  10 H :    0.106040
  11 H :    0.099561
  12 C :   -0.042999
  13 H :    0.113374
  14 H :    0.085865
  15 O :   -0.337849
  16 C :    0.002315
  17 C :    0.039448
  18 C :   -0.241456
  19 C :   -0.029954
  20 O :   -0.325625
  21 H :    0.118087
  22 H :    0.121628
  23 O :   -0.402414
  24 H :    0.125039
  25 H :    0.106471
  26 H :    0.103657
  27 H :    0.109735
  28 H :    0.280680

  Mayer bond orders larger than 0.100000
B(  0-C ,  1-C ) :   0.9367 B(  0-C ,  4-O ) :   0.9189 B(  0-C ,  5-H ) :   0.9106
B(  0-C , 15-O ) :   0.8205 B(  1-C ,  2-C ) :   0.9504 B(  1-C ,  6-H ) :   0.9371
B(  1-C ,  7-H ) :   0.9393 B(  2-C ,  3-C ) :   0.9544 B(  2-C ,  8-H ) :   0.9458
B(  2-C ,  9-H ) :   0.9450 B(  3-C ,  4-O ) :   0.8409 B(  3-C , 10-H ) :   0.9353
B(  3-C , 11-H ) :   0.9402 B( 12-C , 13-H ) :   0.9118 B( 12-C , 14-H ) :   0.9212
B( 12-C , 15-O ) :   0.8609 B( 12-C , 16-C ) :   0.9046 B( 16-C , 17-C ) :   0.8734
B( 16-C , 20-O ) :   0.8396 B( 16-C , 21-H ) :   0.9243 B( 17-C , 18-C ) :   0.9223
B( 17-C , 22-H ) :   0.9318 B( 17-C , 23-O ) :   0.9077 B( 18-C , 19-C ) :   0.9397
B( 18-C , 24-H ) :   0.9408 B( 18-C , 25-H ) :   0.9393 B( 19-C , 20-O ) :   0.8361
B( 19-C , 26-H ) :   0.9310 B( 19-C , 27-H ) :   0.9373 B( 23-O , 28-H ) :   0.7959

FINAL SINGLE POINT ENERGY      -652.852166461315

DIPOLE MOMENT
-------------
                                X             Y             Z
Electronic contribution:     -1.18722      -5.24531       0.86042
Nuclear contribution   :      0.93105       6.55024      -1.97335
                        -----------------------------------------
Total Dipole Moment    :     -0.25617       1.30493      -1.11293
                        -----------------------------------------
Magnitude (a.u.)       :      1.73409
Magnitude (Debye)      :      4.40771

Rotational constants in cm-1:     0.059611     0.013679     0.012344
Rotational constants in MHz :  1787.107780   410.081268   370.053207

                             ****ORCA TERMINATED NORMALLY****
TOTAL RUN TIME: 0 days 0 hours 23 minutes 57 seconds 426 msec
