                         Program Version 4.2.0 -  RELEASE  -
|  1> # Test redundant internal optimization
|  2> #
|  3> ! RKS B3LYP  Opt TightSCF SmallPrint
|  4>
|  5> %basis
|  6>         Basis "6-31G"
|  7> end
|  8>
|  9> %geom
| 10> Constraints
| 11> { D 4  0  15  12  60.0   C } # D for Dihedral angle
| 12> { D 0  15  12  16  285.0   C } # D for Dihedral angle
| 13> { D 0  4  3  2   C } # D for Dihedral angle
| 14> { D 4  3  2  1   C } # D for Dihedral angle
| 15> { D 3  2  1  0   C } # D for Dihedral angle
| 16> { D 2  1  0  4   C } # D for Dihedral angle
| 17> { D 1  0  4  3   C } # D for Dihedral angle
| 18> { D 16  20  19  18   C } # D for Dihedral angle
| 19> { D 20  19  18  17   C } # D for Dihedral angle
| 20> { D 19  18  17  16   C } # D for Dihedral angle
| 21> { D 18  17  16  20   C } # D for Dihedral angle
| 22> { D 17  16  20  19   C } # D for Dihedral angle
| 23> { D 15  12  16  20   C } # D for Dihedral angle
| 24> end
| 25> end
| 26>
| 27>
| 28> #%pal
| 29> #nprocs 8
| 30> #end
| 31>
| 32> * xyz 0 1
| 33> C  -21.048   26.222   46.251
| 34> C  -20.361   27.558   45.944
| 35> C  -20.329   28.222   47.341
| 36> C  -20.110   27.022   48.296
| 37> O  -20.473   25.807   47.535
| 38> H  -20.833   25.428   45.533
| 39> H  -19.344   27.382   45.576
| 40> H  -20.898   28.157   45.201
| 41> H  -19.543   28.978   47.434
| 42> H  -21.289   28.710   47.548
| 43> H  -20.733   27.082   49.195
| 44> H  -19.064   26.913   48.597
| 45> C  -23.051   27.452   47.413
| 46> H  -22.450   28.362   47.296
| 47> H  -24.105   27.712   47.251
| 48> O  -22.586   26.394   46.375
| 49> C  -22.907   26.958   48.880
| 50> C  -23.480   27.977   49.869
| 51> C  -24.998   27.699   49.762
| 52> C  -25.060   26.167   49.542
| 53> O  -23.713   25.752   49.096
| 54> H  -21.866   26.684   49.064
| 55> O  -22.967   27.675   51.304
| 56> H  -23.220   29.012   49.620
| 57> H  -25.552   28.016   50.652
| 58> H  -25.419   28.230   48.900
| 59> H  -25.794   25.882   48.780
| 60> H  -25.277   25.621   50.465
| 61> H  -23.218   26.643   51.574
| 62> *
| 63>
| 64>                          ****END OF INPUT****
 Total Charge           Charge          ....    0
 Multiplicity           Mult            ....    1
 Number of Electrons    NEL             ....  102
FINAL SINGLE POINT ENERGY      -652.771541674164
FINAL SINGLE POINT ENERGY      -652.822842211519
FINAL SINGLE POINT ENERGY      -652.845050898103
FINAL SINGLE POINT ENERGY      -652.850566247341
FINAL SINGLE POINT ENERGY      -652.851445720073
FINAL SINGLE POINT ENERGY      -652.851669019769
FINAL SINGLE POINT ENERGY      -652.851717918165
FINAL SINGLE POINT ENERGY      -652.851741757907
FINAL SINGLE POINT ENERGY      -652.851744526278
                    ***********************HURRAY********************

CARTESIAN COORDINATES (ANGSTROEM)
---------------------------------
  C    -21.134633   26.361997   46.392025
  C    -20.303078   27.548961   45.880153
  C    -19.860806   28.233808   47.208034
  C    -19.661501   27.024882   48.157406
  O    -20.388943   25.888702   47.539258
  H    -21.139472   25.525727   45.690937
  H    -19.434013   27.160640   45.338935
  H    -20.870284   28.205484   45.215444
  H    -18.939724   28.813908   47.093956
  H    -20.633728   28.914134   47.577369
  H    -20.045873   27.200378   49.166599
  H    -18.612793   26.721929   48.229256
  C    -23.133687   27.497200   47.517271
  H    -22.672002   28.493324   47.447708
  H    -24.171368   27.586104   47.183066
  O    -22.553105   26.572159   46.561439
  C    -23.088645   27.011527   48.971668
  C    -23.765484   27.976457   49.955348
  C    -25.262086   27.594150   49.795224
  C    -25.206191   26.064456   49.555842
  O    -23.815309   25.751358   49.148436
  H    -22.061148   26.801484   49.268364
  O    -23.290080   27.747064   51.310395
  H    -23.567026   29.030806   49.756522
  H    -25.826711   27.868320   50.690285
  H    -25.699769   28.119145   48.938863
  H    -25.891013   25.733360   48.769111
  H    -25.413880   25.489051   50.463264
  H    -23.245650   26.780487   51.471823

 Multiplicity           Mult            ....    1
 Number of Electrons    NEL             ....  102
 Basis Dimension        Dim             ....  149

ORBITAL ENERGIES
----------------

  NO   OCC          E(Eh)            E(eV)
   0   2.0000     -19.144320      -520.9434
   1   2.0000     -19.141897      -520.8775
   2   2.0000     -19.140578      -520.8416
   3   2.0000     -19.138155      -520.7757
   4   2.0000     -10.277197      -279.6568
   5   2.0000     -10.244175      -278.7582
   6   2.0000     -10.235257      -278.5155
   7   2.0000     -10.231646      -278.4173
   8   2.0000     -10.231106      -278.4025
   9   2.0000     -10.228603      -278.3344
  10   2.0000     -10.195326      -277.4289
  11   2.0000     -10.190618      -277.3008
  12   2.0000     -10.190359      -277.2938
  13   2.0000      -1.050508       -28.5858
  14   2.0000      -1.035294       -28.1718
  15   2.0000      -1.006296       -27.3827
  16   2.0000      -0.995633       -27.0926
  17   2.0000      -0.789680       -21.4883
  18   2.0000      -0.785751       -21.3814
  19   2.0000      -0.769706       -20.9448
  20   2.0000      -0.734440       -19.9851
  21   2.0000      -0.679974       -18.5030
  22   2.0000      -0.608011       -16.5448
  23   2.0000      -0.605119       -16.4661
  24   2.0000      -0.603548       -16.4234
  25   2.0000      -0.570615       -15.5272
  26   2.0000      -0.522620       -14.2212
  27   2.0000      -0.514357       -13.9964
  28   2.0000      -0.502802       -13.6819
  29   2.0000      -0.490587       -13.3496
  30   2.0000      -0.471557       -12.8317
  31   2.0000      -0.462379       -12.5820
  32   2.0000      -0.451277       -12.2799
  33   2.0000      -0.442936       -12.0529
  34   2.0000      -0.422156       -11.4874
  35   2.0000      -0.417722       -11.3668
  36   2.0000      -0.402669       -10.9572
  37   2.0000      -0.393667       -10.7122
  38   2.0000      -0.381389       -10.3781
  39   2.0000      -0.373220       -10.1558
  40   2.0000      -0.364769        -9.9259
  41   2.0000      -0.361929        -9.8486
  42   2.0000      -0.342825        -9.3287
  43   2.0000      -0.337575        -9.1859
  44   2.0000      -0.317153        -8.6302
  45   2.0000      -0.310390        -8.4461
  46   2.0000      -0.300651        -8.1811
  47   2.0000      -0.271757        -7.3949
  48   2.0000      -0.263993        -7.1836
  49   2.0000      -0.259094        -7.0503
  50   2.0000      -0.236949        -6.4477
  51   0.0000       0.060772         1.6537
  52   0.0000       0.074375         2.0238
  53   0.0000       0.086182         2.3451
  54   0.0000       0.090748         2.4694
  55   0.0000       0.093109         2.5336

MULLIKEN ATOMIC CHARGES
-----------------------
   0 C :    0.301645
   1 C :   -0.276123
   2 C :   -0.312555
   3 C :   -0.021665
   4 O :   -0.499927
   5 H :    0.170457
   6 H :    0.155828
   7 H :    0.150483
   8 H :    0.148219
   9 H :    0.144294
  10 H :    0.144702
  11 H :    0.152434
  12 C :   -0.012740
  13 H :    0.117387
  14 H :    0.155996
  15 O :   -0.509391
  16 C :    0.051531
  17 C :    0.076885
  18 C :   -0.297684
  19 C :   -0.030961
  20 O :   -0.503917
  21 H :    0.181897
  22 O :   -0.604641
  23 H :    0.147018
  24 H :    0.163010
  25 H :    0.143221
  26 H :    0.150662
  27 H :    0.146833
  28 H :    0.367101
Sum of atomic charges:   -0.0000000

LOEWDIN ATOMIC CHARGES
----------------------
   0 C :    0.175508
   1 C :   -0.229120
   2 C :   -0.223246
   3 C :   -0.037377
   4 O :   -0.317191
   5 H :    0.115439
   6 H :    0.121561
   7 H :    0.119476
   8 H :    0.117124
   9 H :    0.105688
  10 H :    0.099855
  11 H :    0.106974
  12 C :   -0.042285
  13 H :    0.089095
  14 H :    0.114785
  15 O :   -0.308479
  16 C :    0.004304
  17 C :    0.033385
  18 C :   -0.241702
  19 C :   -0.039456
  20 O :   -0.316804
  21 H :    0.122814
  22 O :   -0.415792
  23 H :    0.112349
  24 H :    0.126614
  25 H :    0.112304
  26 H :    0.106336
  27 H :    0.102983
  28 H :    0.284856

  Mayer bond orders larger than 0.100000
B(  0-C ,  1-C ) :   0.9137 B(  0-C ,  4-O ) :   0.8966 B(  0-C ,  5-H ) :   0.9369
B(  0-C , 15-O ) :   0.9021 B(  1-C ,  2-C ) :   0.9561 B(  1-C ,  6-H ) :   0.9355
B(  1-C ,  7-H ) :   0.9377 B(  2-C ,  3-C ) :   0.9472 B(  2-C ,  8-H ) :   0.9444
B(  2-C ,  9-H ) :   0.9407 B(  3-C ,  4-O ) :   0.8451 B(  3-C , 10-H ) :   0.9215
B(  3-C , 11-H ) :   0.9395 B( 12-C , 13-H ) :   0.9035 B( 12-C , 14-H ) :   0.9390
B( 12-C , 15-O ) :   0.8634 B( 12-C , 16-C ) :   0.8761 B( 16-C , 17-C ) :   0.8941
B( 16-C , 20-O ) :   0.8629 B( 16-C , 21-H ) :   0.9086 B( 17-C , 18-C ) :   0.9116
B( 17-C , 22-O ) :   0.8911 B( 17-C , 23-H ) :   0.9332 B( 18-C , 19-C ) :   0.9390
B( 18-C , 24-H ) :   0.9376 B( 18-C , 25-H ) :   0.9341 B( 19-C , 20-O ) :   0.8538
B( 19-C , 26-H ) :   0.9334 B( 19-C , 27-H ) :   0.9373 B( 22-O , 28-H ) :   0.7927

FINAL SINGLE POINT ENERGY      -652.851743476079

DIPOLE MOMENT
-------------
                                X             Y             Z
Electronic contribution:     -0.57223      -4.69683       0.62898
Nuclear contribution   :      0.54021       5.88494      -0.93039
                        -----------------------------------------
Total Dipole Moment    :     -0.03202       1.18811      -0.30140
                        -----------------------------------------
Magnitude (a.u.)       :      1.22617
Magnitude (Debye)      :      3.11667

Rotational constants in cm-1:     0.050265     0.015619     0.014244
Rotational constants in MHz :  1506.912273   468.252447   427.023578

                             ****ORCA TERMINATED NORMALLY****
TOTAL RUN TIME: 0 days 0 hours 31 minutes 59 seconds 540 msec
