                         Program Version 4.2.0 -  RELEASE  -
|  1> # Test redundant internal optimization
|  2> #
|  3> ! RKS B3LYP  Opt TightSCF SmallPrint
|  4>
|  5> %basis
|  6>         Basis "6-31G"
|  7> end
|  8>
|  9> %geom
| 10> Constraints
| 11> { D 4  0  15  12  285.0   C } # D for Dihedral angle
| 12> { D 0  15  12  16  255.0   C } # D for Dihedral angle
| 13> { D 0  4  3  2   C } # D for Dihedral angle
| 14> { D 4  3  2  1   C } # D for Dihedral angle
| 15> { D 3  2  1  0   C } # D for Dihedral angle
| 16> { D 2  1  0  4   C } # D for Dihedral angle
| 17> { D 1  0  4  3   C } # D for Dihedral angle
| 18> { D 16  20  19  18   C } # D for Dihedral angle
| 19> { D 20  19  18  17   C } # D for Dihedral angle
| 20> { D 19  18  17  16   C } # D for Dihedral angle
| 21> { D 18  17  16  20   C } # D for Dihedral angle
| 22> { D 17  16  20  19   C } # D for Dihedral angle
| 23> { D 15  12  16  20   C } # D for Dihedral angle
| 24> end
| 25> end
| 26>
| 27>
| 28> #%pal
| 29> #nprocs 8
| 30> #end
| 31>
| 32> * xyz 0 1
| 33> C  -21.048   26.222   46.251
| 34> C  -20.361   27.558   45.944
| 35> C  -20.329   28.222   47.341
| 36> C  -20.110   27.022   48.296
| 37> O  -20.473   25.807   47.535
| 38> H  -20.833   25.428   45.533
| 39> H  -19.344   27.382   45.576
| 40> H  -20.898   28.157   45.201
| 41> H  -19.543   28.978   47.434
| 42> H  -21.289   28.710   47.548
| 43> H  -20.733   27.082   49.195
| 44> H  -19.064   26.913   48.597
| 45> C  -23.396   25.070   46.435
| 46> H  -22.715   24.239   46.655
| 47> H  -24.149   25.116   47.232
| 48> O  -22.586   26.394   46.375
| 49> C  -24.135   24.757   45.105
| 50> C  -25.014   23.508   45.237
| 51> C  -26.253   24.073   45.971
| 52> C  -26.386   25.503   45.388
| 53> O  -25.079   25.830   44.778
| 54> H  -23.406   24.713   44.293
| 55> H  -25.290   23.135   44.244
| 56> O  -24.324   22.357   46.018
| 57> H  -27.153   23.472   45.810
| 58> H  -26.065   24.113   47.051
| 59> H  -26.620   26.249   46.156
| 60> H  -27.136   25.562   44.595
| 61> H  -24.040   22.706   47.017
| 62> *
| 63>
| 64>                          ****END OF INPUT****
 Total Charge           Charge          ....    0
 Multiplicity           Mult            ....    1
 Number of Electrons    NEL             ....  102
FINAL SINGLE POINT ENERGY      -652.830615408434
FINAL SINGLE POINT ENERGY      -652.855032943841
FINAL SINGLE POINT ENERGY      -652.859650759600
FINAL SINGLE POINT ENERGY      -652.860505914115
FINAL SINGLE POINT ENERGY      -652.860670798248
FINAL SINGLE POINT ENERGY      -652.860700960608
FINAL SINGLE POINT ENERGY      -652.860708094221
FINAL SINGLE POINT ENERGY      -652.860709640907
                    ***********************HURRAY********************

CARTESIAN COORDINATES (ANGSTROEM)
---------------------------------
  C    -21.086178   26.149129   46.243666
  C    -20.488685   27.517648   45.915760
  C    -20.445967   28.184989   47.308748
  C    -20.127440   27.005217   48.254434
  O    -20.452940   25.772720   47.492173
  H    -20.864442   25.344605   45.536011
  H    -19.479165   27.383320   45.510924
  H    -21.096142   28.065074   45.192569
  H    -19.697362   28.980981   47.371951
  H    -21.426518   28.610650   47.539851
  H    -20.720554   27.020427   49.172493
  H    -19.065953   26.941120   48.512311
  C    -23.290865   25.106676   46.514218
  H    -22.638348   24.263847   46.774159
  H    -23.987986   25.274157   47.342612
  O    -22.508745   26.331236   46.393664
  C    -24.043027   24.808132   45.217253
  C    -24.932060   23.554318   45.290939
  C    -26.219831   24.114758   45.966884
  C    -26.313266   25.543668   45.387293
  O    -24.968951   25.875685   44.850709
  H    -23.320450   24.745940   44.397140
  H    -25.154662   23.209022   44.279147
  O    -24.341028   22.404659   45.943355
  H    -27.100130   23.505052   45.745655
  H    -26.085715   24.131999   47.057058
  H    -26.592204   26.290987   46.136722
  H    -27.015317   25.605640   44.550251
  H    -24.308069   22.536346   46.913051

 Multiplicity           Mult            ....    1
 Number of Electrons    NEL             ....  102
 Basis Dimension        Dim             ....  149

ORBITAL ENERGIES
----------------

  NO   OCC          E(Eh)            E(eV)
   0   2.0000     -19.149729      -521.0906
   1   2.0000     -19.139986      -520.8255
   2   2.0000     -19.135954      -520.7158
   3   2.0000     -19.135703      -520.7090
   4   2.0000     -10.274433      -279.5815
   5   2.0000     -10.245310      -278.7891
   6   2.0000     -10.230071      -278.3744
   7   2.0000     -10.229940      -278.3708
   8   2.0000     -10.227480      -278.3039
   9   2.0000     -10.221555      -278.1426
  10   2.0000     -10.196148      -277.4513
  11   2.0000     -10.180508      -277.0257
  12   2.0000     -10.180020      -277.0124
  13   2.0000      -1.050587       -28.5879
  14   2.0000      -1.033160       -28.1137
  15   2.0000      -1.014944       -27.6180
  16   2.0000      -0.989390       -26.9227
  17   2.0000      -0.785740       -21.3811
  18   2.0000      -0.780959       -21.2510
  19   2.0000      -0.764201       -20.7950
  20   2.0000      -0.728418       -19.8212
  21   2.0000      -0.678143       -18.4532
  22   2.0000      -0.611387       -16.6367
  23   2.0000      -0.597005       -16.2453
  24   2.0000      -0.591696       -16.1009
  25   2.0000      -0.570435       -15.5223
  26   2.0000      -0.530846       -14.4451
  27   2.0000      -0.509512       -13.8645
  28   2.0000      -0.495769       -13.4905
  29   2.0000      -0.489646       -13.3239
  30   2.0000      -0.466250       -12.6873
  31   2.0000      -0.449677       -12.2363
  32   2.0000      -0.444536       -12.0964
  33   2.0000      -0.432698       -11.7743
  34   2.0000      -0.427534       -11.6338
  35   2.0000      -0.417393       -11.3578
  36   2.0000      -0.406483       -11.0610
  37   2.0000      -0.397889       -10.8271
  38   2.0000      -0.377549       -10.2736
  39   2.0000      -0.364415        -9.9162
  40   2.0000      -0.353954        -9.6316
  41   2.0000      -0.352017        -9.5789
  42   2.0000      -0.342451        -9.3186
  43   2.0000      -0.333870        -9.0851
  44   2.0000      -0.322186        -8.7671
  45   2.0000      -0.313892        -8.5414
  46   2.0000      -0.294804        -8.0220
  47   2.0000      -0.271927        -7.3995
  48   2.0000      -0.269865        -7.3434
  49   2.0000      -0.250375        -6.8131
  50   2.0000      -0.234913        -6.3923
  51   0.0000       0.051637         1.4051
  52   0.0000       0.079211         2.1554
  53   0.0000       0.089994         2.4488
  54   0.0000       0.094669         2.5761
  55   0.0000       0.104853         2.8532

MULLIKEN ATOMIC CHARGES
-----------------------
   0 C :    0.273968
   1 C :   -0.258807
   2 C :   -0.299435
   3 C :   -0.001948
   4 O :   -0.514034
   5 H :    0.143071
   6 H :    0.143070
   7 H :    0.163602
   8 H :    0.139398
   9 H :    0.164943
  10 H :    0.143916
  11 H :    0.141118
  12 C :   -0.028014
  13 H :    0.148573
  14 H :    0.138514
  15 O :   -0.502671
  16 C :    0.092708
  17 C :    0.084197
  18 C :   -0.328676
  19 C :   -0.011847
  20 O :   -0.504023
  21 H :    0.153940
  22 H :    0.167783
  23 O :   -0.597818
  24 H :    0.157895
  25 H :    0.136578
  26 H :    0.146705
  27 H :    0.150750
  28 H :    0.356543
Sum of atomic charges:    0.0000000

LOEWDIN ATOMIC CHARGES
----------------------
   0 C :    0.169293
   1 C :   -0.214375
   2 C :   -0.216132
   3 C :   -0.027782
   4 O :   -0.333716
   5 H :    0.096174
   6 H :    0.113100
   7 H :    0.127394
   8 H :    0.112540
   9 H :    0.120442
  10 H :    0.103854
  11 H :    0.101813
  12 C :   -0.052440
  13 H :    0.109209
  14 H :    0.103909
  15 O :   -0.313975
  16 C :    0.012297
  17 C :    0.033902
  18 C :   -0.243067
  19 C :   -0.030641
  20 O :   -0.314966
  21 H :    0.113369
  22 H :    0.119564
  23 O :   -0.406424
  24 H :    0.122729
  25 H :    0.105089
  26 H :    0.104184
  27 H :    0.106404
  28 H :    0.278253

  Mayer bond orders larger than 0.100000
B(  0-C ,  1-C ) :   0.9495 B(  0-C ,  4-O ) :   0.9007 B(  0-C ,  5-H ) :   0.9183
B(  0-C , 15-O ) :   0.8713 B(  1-C ,  2-C ) :   0.9567 B(  1-C ,  6-H ) :   0.9408
B(  1-C ,  7-H ) :   0.9350 B(  2-C ,  3-C ) :   0.9555 B(  2-C ,  8-H ) :   0.9454
B(  2-C ,  9-H ) :   0.9439 B(  3-C ,  4-O ) :   0.8383 B(  3-C , 10-H ) :   0.9363
B(  3-C , 11-H ) :   0.9405 B( 12-C , 13-H ) :   0.9041 B( 12-C , 14-H ) :   0.9367
B( 12-C , 15-O ) :   0.8481 B( 12-C , 16-C ) :   0.8929 B( 16-C , 17-C ) :   0.8707
B( 16-C , 20-O ) :   0.8701 B( 16-C , 21-H ) :   0.9323 B( 17-C , 18-C ) :   0.9233
B( 17-C , 22-H ) :   0.9327 B( 17-C , 23-O ) :   0.8980 B( 18-C , 19-C ) :   0.9402
B( 18-C , 24-H ) :   0.9417 B( 18-C , 25-H ) :   0.9408 B( 19-C , 20-O ) :   0.8501
B( 19-C , 26-H ) :   0.9309 B( 19-C , 27-H ) :   0.9374 B( 23-O , 28-H ) :   0.7977

FINAL SINGLE POINT ENERGY      -652.860710025108

DIPOLE MOMENT
-------------
                                X             Y             Z
Electronic contribution:     -0.19447      -2.77970      -1.77097
Nuclear contribution   :     -0.18089       3.00847       2.29262
                        -----------------------------------------
Total Dipole Moment    :     -0.37536       0.22878       0.52166
                        -----------------------------------------
Magnitude (a.u.)       :      0.68217
Magnitude (Debye)      :      1.73394

Rotational constants in cm-1:     0.057239     0.012304     0.011160
Rotational constants in MHz :  1715.985616   368.852766   334.561708

                             ****ORCA TERMINATED NORMALLY****
TOTAL RUN TIME: 0 days 2 hours 28 minutes 20 seconds 242 msec
