                         Program Version 4.2.0 -  RELEASE  -
|  1> # Test redundant internal optimization
|  2> #
|  3> ! RKS B3LYP  Opt TightSCF SmallPrint
|  4>
|  5> %basis
|  6>         Basis "6-31G"
|  7> end
|  8>
|  9> %geom
| 10> Constraints
| 11> { D 4  0  15  12  75.0   C } # D for Dihedral angle
| 12> { D 0  15  12  16  225.0   C } # D for Dihedral angle
| 13> { D 0  4  3  2   C } # D for Dihedral angle
| 14> { D 4  3  2  1   C } # D for Dihedral angle
| 15> { D 3  2  1  0   C } # D for Dihedral angle
| 16> { D 2  1  0  4   C } # D for Dihedral angle
| 17> { D 1  0  4  3   C } # D for Dihedral angle
| 18> { D 16  20  19  18   C } # D for Dihedral angle
| 19> { D 20  19  18  17   C } # D for Dihedral angle
| 20> { D 19  18  17  16   C } # D for Dihedral angle
| 21> { D 18  17  16  20   C } # D for Dihedral angle
| 22> { D 17  16  20  19   C } # D for Dihedral angle
| 23> { D 15  12  16  20   C } # D for Dihedral angle
| 24> end
| 25> end
| 26>
| 27>
| 28> #%pal
| 29> #nprocs 8
| 30> #end
| 31>
| 32> * xyz 0 1
| 33> C  -21.048   26.222   46.251
| 34> C  -20.361   27.558   45.944
| 35> C  -20.329   28.222   47.341
| 36> C  -20.110   27.022   48.296
| 37> O  -20.473   25.807   47.535
| 38> H  -20.833   25.428   45.533
| 39> H  -19.344   27.382   45.576
| 40> H  -20.898   28.157   45.201
| 41> H  -19.543   28.978   47.434
| 42> H  -21.289   28.710   47.548
| 43> H  -20.733   27.082   49.195
| 44> H  -19.064   26.913   48.597
| 45> C  -23.049   27.675   47.122
| 46> H  -22.197   28.109   47.659
| 47> H  -23.422   28.421   46.409
| 48> O  -22.586   26.394   46.375
| 49> C  -24.181   27.395   48.149
| 50> C  -24.693   28.694   48.781
| 51> C  -25.623   29.238   47.672
| 52> C  -26.234   27.952   47.062
| 53> O  -25.357   26.834   47.475
| 54> H  -23.837   26.647   48.866
| 55> H  -25.264   28.471   49.690
| 56> O  -23.553   29.682   49.150
| 57> H  -26.387   29.922   48.056
| 58> H  -25.036   29.780   46.921
| 59> H  -26.279   27.987   45.968
| 60> H  -27.233   27.739   47.452
| 61> H  -22.967   29.921   48.256
| 62> *
| 63>
| 64>                          ****END OF INPUT****
 Total Charge           Charge          ....    0
 Multiplicity           Mult            ....    1
 Number of Electrons    NEL             ....  102
FINAL SINGLE POINT ENERGY      -652.778891594611
FINAL SINGLE POINT ENERGY      -652.821528734071
FINAL SINGLE POINT ENERGY      -652.842096008744
FINAL SINGLE POINT ENERGY      -652.846537514627
FINAL SINGLE POINT ENERGY      -652.847291819853
FINAL SINGLE POINT ENERGY      -652.847536300938
FINAL SINGLE POINT ENERGY      -652.847580301783
FINAL SINGLE POINT ENERGY      -652.847587590932
FINAL SINGLE POINT ENERGY      -652.847587018708
                    ***********************HURRAY********************

CARTESIAN COORDINATES (ANGSTROEM)
---------------------------------
  C    -21.177685   26.350538   46.414092
  C    -20.198068   27.419798   45.904260
  C    -19.788302   28.142589   47.223764
  C    -19.779549   26.979961   48.250875
  O    -20.567632   25.882179   47.641105
  H    -21.213169   25.475878   45.762526
  H    -19.335217   26.915554   45.458041
  H    -20.642625   28.084594   45.158514
  H    -18.804600   28.616934   47.145843
  H    -20.504486   28.922826   47.490655
  H    -20.226138   27.250910   49.212468
  H    -18.771861   26.591167   48.423904
  C    -23.076077   27.869438   47.164834
  H    -22.327606   28.340920   47.807615
  H    -23.377862   28.582985   46.386300
  O    -22.576192   26.667583   46.516593
  C    -24.251741   27.474397   48.059040
  C    -24.907186   28.662925   48.781494
  C    -25.884609   29.200793   47.695066
  C    -26.343643   27.908430   46.983176
  O    -25.353712   26.858415   47.327212
  H    -23.892868   26.709776   48.753706
  H    -25.461523   28.298434   49.649138
  O    -23.982086   29.645707   49.314718
  H    -26.714170   29.768103   48.125470
  H    -25.340972   29.865187   47.008563
  H    -26.389304   28.014756   45.894561
  H    -27.316798   27.562482   47.343740
  H    -23.717319   30.278742   48.616728

 Multiplicity           Mult            ....    1
 Number of Electrons    NEL             ....  102
 Basis Dimension        Dim             ....  149

ORBITAL ENERGIES
----------------

  NO   OCC          E(Eh)            E(eV)
   0   2.0000     -19.152086      -521.1547
   1   2.0000     -19.138672      -520.7897
   2   2.0000     -19.137442      -520.7563
   3   2.0000     -19.134009      -520.6629
   4   2.0000     -10.274585      -279.5857
   5   2.0000     -10.245432      -278.7924
   6   2.0000     -10.230169      -278.3771
   7   2.0000     -10.229400      -278.3561
   8   2.0000     -10.227234      -278.2972
   9   2.0000     -10.227008      -278.2910
  10   2.0000     -10.198028      -277.5024
  11   2.0000     -10.193673      -277.3839
  12   2.0000     -10.191098      -277.3139
  13   2.0000      -1.047811       -28.5124
  14   2.0000      -1.034072       -28.1385
  15   2.0000      -1.014596       -27.6086
  16   2.0000      -0.992058       -26.9953
  17   2.0000      -0.787621       -21.4323
  18   2.0000      -0.783825       -21.3290
  19   2.0000      -0.771338       -20.9892
  20   2.0000      -0.731210       -19.8972
  21   2.0000      -0.683339       -18.5946
  22   2.0000      -0.612938       -16.6789
  23   2.0000      -0.604012       -16.4360
  24   2.0000      -0.597179       -16.2501
  25   2.0000      -0.568556       -15.4712
  26   2.0000      -0.523238       -14.2380
  27   2.0000      -0.513727       -13.9792
  28   2.0000      -0.502457       -13.6725
  29   2.0000      -0.493561       -13.4305
  30   2.0000      -0.468144       -12.7388
  31   2.0000      -0.459465       -12.5027
  32   2.0000      -0.439425       -11.9574
  33   2.0000      -0.434701       -11.8288
  34   2.0000      -0.425772       -11.5859
  35   2.0000      -0.419576       -11.4172
  36   2.0000      -0.416985       -11.3467
  37   2.0000      -0.401679       -10.9303
  38   2.0000      -0.381427       -10.3792
  39   2.0000      -0.377611       -10.2753
  40   2.0000      -0.360337        -9.8053
  41   2.0000      -0.355615        -9.6768
  42   2.0000      -0.345818        -9.4102
  43   2.0000      -0.327790        -8.9196
  44   2.0000      -0.318260        -8.6603
  45   2.0000      -0.311898        -8.4872
  46   2.0000      -0.293911        -7.9977
  47   2.0000      -0.272405        -7.4125
  48   2.0000      -0.266254        -7.2451
  49   2.0000      -0.250597        -6.8191
  50   2.0000      -0.236040        -6.4230
  51   0.0000       0.044877         1.2212
  52   0.0000       0.071011         1.9323
  53   0.0000       0.084106         2.2887
  54   0.0000       0.091336         2.4854
  55   0.0000       0.100107         2.7240

MULLIKEN ATOMIC CHARGES
-----------------------
   0 C :    0.297391
   1 C :   -0.278979
   2 C :   -0.314925
   3 C :   -0.011077
   4 O :   -0.502139
   5 H :    0.168363
   6 H :    0.157190
   7 H :    0.145826
   8 H :    0.144156
   9 H :    0.143548
  10 H :    0.148980
  11 H :    0.147004
  12 C :   -0.024146
  13 H :    0.138476
  14 H :    0.121298
  15 O :   -0.504299
  16 C :    0.104644
  17 C :    0.083331
  18 C :   -0.329894
  19 C :   -0.009311
  20 O :   -0.500898
  21 H :    0.171394
  22 H :    0.168541
  23 O :   -0.602511
  24 H :    0.158786
  25 H :    0.129915
  26 H :    0.147610
  27 H :    0.147931
  28 H :    0.353796
Sum of atomic charges:   -0.0000000

LOEWDIN ATOMIC CHARGES
----------------------
   0 C :    0.173170
   1 C :   -0.229756
   2 C :   -0.224476
   3 C :   -0.034756
   4 O :   -0.321852
   5 H :    0.114156
   6 H :    0.122849
   7 H :    0.116852
   8 H :    0.114896
   9 H :    0.105523
  10 H :    0.104475
  11 H :    0.104689
  12 C :   -0.052587
  13 H :    0.102543
  14 H :    0.092070
  15 O :   -0.304449
  16 C :    0.021004
  17 C :    0.033480
  18 C :   -0.241935
  19 C :   -0.029678
  20 O :   -0.309818
  21 H :    0.124085
  22 H :    0.119753
  23 O :   -0.410583
  24 H :    0.122405
  25 H :    0.101698
  26 H :    0.104151
  27 H :    0.105616
  28 H :    0.276474

  Mayer bond orders larger than 0.100000
B(  0-C ,  1-C ) :   0.9152 B(  0-C ,  4-O ) :   0.8952 B(  0-C ,  5-H ) :   0.9358
B(  0-C , 15-O ) :   0.9187 B(  1-C ,  2-C ) :   0.9544 B(  1-C ,  6-H ) :   0.9355
B(  1-C ,  7-H ) :   0.9381 B(  2-C ,  3-C ) :   0.9453 B(  2-C ,  8-H ) :   0.9449
B(  2-C ,  9-H ) :   0.9399 B(  3-C ,  4-O ) :   0.8501 B(  3-C , 10-H ) :   0.9330
B(  3-C , 11-H ) :   0.9386 B( 12-C , 13-H ) :   0.8902 B( 12-C , 14-H ) :   0.9293
B( 12-C , 15-O ) :   0.8440 B( 12-C , 16-C ) :   0.9011 B( 16-C , 17-C ) :   0.8688
B( 16-C , 20-O ) :   0.8713 B( 16-C , 21-H ) :   0.9280 B( 17-C , 18-C ) :   0.9271
B( 17-C , 22-H ) :   0.9324 B( 17-C , 23-O ) :   0.8879 B( 18-C , 19-C ) :   0.9401
B( 18-C , 24-H ) :   0.9413 B( 18-C , 25-H ) :   0.9402 B( 19-C , 20-O ) :   0.8556
B( 19-C , 26-H ) :   0.9304 B( 19-C , 27-H ) :   0.9378 B( 23-O , 28-H ) :   0.8006

FINAL SINGLE POINT ENERGY      -652.847576395426

DIPOLE MOMENT
-------------
                                X             Y             Z
Electronic contribution:     -2.16971      -4.89911       1.01135
Nuclear contribution   :      2.47380       6.74196      -1.53936
                        -----------------------------------------
Total Dipole Moment    :      0.30409       1.84285      -0.52801
                        -----------------------------------------
Magnitude (a.u.)       :      1.94097
Magnitude (Debye)      :      4.93355

Rotational constants in cm-1:     0.050160     0.014174     0.012662
Rotational constants in MHz :  1503.764975   424.929368   379.611861

                             ****ORCA TERMINATED NORMALLY****
TOTAL RUN TIME: 0 days 0 hours 30 minutes 39 seconds 282 msec
