                         Program Version 4.2.0 -  RELEASE  -
|  1> # Test redundant internal optimization
|  2> #
|  3> ! RKS B3LYP  Opt TightSCF SmallPrint
|  4>
|  5> %basis
|  6>         Basis "6-31G"
|  7> end
|  8>
|  9> %geom
| 10> Constraints
| 11> { D 4  0  15  12  315.0   C } # D for Dihedral angle
| 12> { D 0  15  12  16  150.0   C } # D for Dihedral angle
| 13> { D 0  4  3  2   C } # D for Dihedral angle
| 14> { D 4  3  2  1   C } # D for Dihedral angle
| 15> { D 3  2  1  0   C } # D for Dihedral angle
| 16> { D 2  1  0  4   C } # D for Dihedral angle
| 17> { D 1  0  4  3   C } # D for Dihedral angle
| 18> { D 16  20  19  18   C } # D for Dihedral angle
| 19> { D 20  19  18  17   C } # D for Dihedral angle
| 20> { D 19  18  17  16   C } # D for Dihedral angle
| 21> { D 18  17  16  20   C } # D for Dihedral angle
| 22> { D 17  16  20  19   C } # D for Dihedral angle
| 23> { D 15  12  16  20   C } # D for Dihedral angle
| 24> end
| 25> end
| 26>
| 27>
| 28> #%pal
| 29> #nprocs 8
| 30> #end
| 31>
| 32> * xyz 0 1
| 33> C  -21.048   26.222   46.251
| 34> C  -20.361   27.558   45.944
| 35> C  -20.329   28.222   47.341
| 36> C  -20.110   27.022   48.296
| 37> O  -20.473   25.807   47.535
| 38> H  -20.833   25.428   45.533
| 39> H  -19.344   27.382   45.576
| 40> H  -20.898   28.157   45.201
| 41> H  -19.543   28.978   47.434
| 42> H  -21.289   28.710   47.548
| 43> H  -20.733   27.082   49.195
| 44> H  -19.064   26.913   48.597
| 45> C  -23.319   25.255   47.135
| 46> H  -23.611   24.473   46.422
| 47> H  -22.655   24.804   47.885
| 48> O  -22.586   26.394   46.375
| 49> C  -24.596   25.748   47.870
| 50> C  -25.654   26.240   46.876
| 51> C  -26.266   24.907   46.383
| 52> C  -26.219   24.010   47.645
| 53> O  -25.247   24.634   48.568
| 54> H  -24.313   26.479   48.628
| 55> H  -26.408   26.841   47.397
| 56> O  -25.059   27.094   45.723
| 57> H  -27.281   25.025   45.992
| 58> H  -25.647   24.483   45.583
| 59> H  -25.896   22.988   47.422
| 60> H  -27.179   23.971   48.166
| 61> H  -24.302   26.511   45.187
| 62> *
| 63>
| 64>                          ****END OF INPUT****
 Total Charge           Charge          ....    0
 Multiplicity           Mult            ....    1
 Number of Electrons    NEL             ....  102
FINAL SINGLE POINT ENERGY      -652.836319583245
FINAL SINGLE POINT ENERGY      -652.860886685445
FINAL SINGLE POINT ENERGY      -652.867207991541
FINAL SINGLE POINT ENERGY      -652.869432186409
FINAL SINGLE POINT ENERGY      -652.870668518943
FINAL SINGLE POINT ENERGY      -652.871328414485
FINAL SINGLE POINT ENERGY      -652.871533863814
FINAL SINGLE POINT ENERGY      -652.871574466741
FINAL SINGLE POINT ENERGY      -652.871577469838
                    ***********************HURRAY********************

CARTESIAN COORDINATES (ANGSTROEM)
---------------------------------
  C    -21.075629   26.117861   46.271693
  C    -20.548132   27.514715   45.950126
  C    -20.553934   28.182023   47.343075
  C    -20.183959   27.024731   48.293761
  O    -20.440701   25.773813   47.518749
  H    -20.814713   25.324873   45.565005
  H    -19.530543   27.428368   45.553355
  H    -21.169452   28.037689   45.219650
  H    -19.847658   29.014804   47.410944
  H    -21.555407   28.561499   47.564825
  H    -20.785252   27.000528   49.205359
  H    -19.123318   27.007285   48.557861
  C    -23.202134   25.132014   47.135037
  H    -23.456651   24.319460   46.442510
  H    -22.536710   24.746553   47.910463
  O    -22.524159   26.206229   46.392147
  C    -24.454785   25.736915   47.776420
  C    -25.506598   26.265135   46.785831
  C    -26.219918   24.951015   46.350692
  C    -26.199905   24.100099   47.636814
  O    -25.156787   24.696197   48.524092
  H    -24.152506   26.499851   48.499446
  H    -26.215782   26.896601   47.333664
  O    -25.005844   27.045238   45.682813
  H    -27.231466   25.142014   45.983191
  H    -25.649308   24.488710   45.538034
  H    -25.949306   23.049316   47.459649
  H    -27.142521   24.149447   48.189853
  H    -24.029923   26.925014   45.612944

 Multiplicity           Mult            ....    1
 Number of Electrons    NEL             ....  102
 Basis Dimension        Dim             ....  149

ORBITAL ENERGIES
----------------

  NO   OCC          E(Eh)            E(eV)
   0   2.0000     -19.163181      -521.4567
   1   2.0000     -19.157026      -521.2892
   2   2.0000     -19.137976      -520.7708
   3   2.0000     -19.111861      -520.0602
   4   2.0000     -10.292505      -280.0733
   5   2.0000     -10.236550      -278.5507
   6   2.0000     -10.231827      -278.4222
   7   2.0000     -10.231134      -278.4033
   8   2.0000     -10.228428      -278.3297
   9   2.0000     -10.224648      -278.2268
  10   2.0000     -10.196019      -277.4478
  11   2.0000     -10.194623      -277.4098
  12   2.0000     -10.177143      -276.9342
  13   2.0000      -1.068261       -29.0689
  14   2.0000      -1.023627       -27.8543
  15   2.0000      -1.006463       -27.3872
  16   2.0000      -0.990702       -26.9584
  17   2.0000      -0.799729       -21.7617
  18   2.0000      -0.771912       -21.0048
  19   2.0000      -0.766035       -20.8449
  20   2.0000      -0.736063       -20.0293
  21   2.0000      -0.676174       -18.3996
  22   2.0000      -0.609977       -16.5983
  23   2.0000      -0.598192       -16.2776
  24   2.0000      -0.592401       -16.1200
  25   2.0000      -0.578333       -15.7372
  26   2.0000      -0.531627       -14.4663
  27   2.0000      -0.516559       -14.0563
  28   2.0000      -0.504383       -13.7250
  29   2.0000      -0.484611       -13.1869
  30   2.0000      -0.476205       -12.9582
  31   2.0000      -0.460668       -12.5354
  32   2.0000      -0.441532       -12.0147
  33   2.0000      -0.426412       -11.6033
  34   2.0000      -0.423040       -11.5115
  35   2.0000      -0.420822       -11.4512
  36   2.0000      -0.410403       -11.1676
  37   2.0000      -0.385514       -10.4904
  38   2.0000      -0.382286       -10.4025
  39   2.0000      -0.368798       -10.0355
  40   2.0000      -0.365056        -9.9337
  41   2.0000      -0.360416        -9.8074
  42   2.0000      -0.353893        -9.6299
  43   2.0000      -0.343212        -9.3393
  44   2.0000      -0.326944        -8.8966
  45   2.0000      -0.312384        -8.5004
  46   2.0000      -0.285883        -7.7793
  47   2.0000      -0.279740        -7.6121
  48   2.0000      -0.270350        -7.3566
  49   2.0000      -0.248308        -6.7568
  50   2.0000      -0.239796        -6.5252
  51   0.0000       0.060600         1.6490
  52   0.0000       0.078970         2.1489
  53   0.0000       0.092853         2.5267
  54   0.0000       0.096959         2.6384
  55   0.0000       0.103526         2.8171

MULLIKEN ATOMIC CHARGES
-----------------------
   0 C :    0.306030
   1 C :   -0.267629
   2 C :   -0.299378
   3 C :   -0.014057
   4 O :   -0.509508
   5 H :    0.155373
   6 H :    0.151954
   7 H :    0.162515
   8 H :    0.148219
   9 H :    0.163693
  10 H :    0.154650
  11 H :    0.152268
  12 C :   -0.025664
  13 H :    0.138924
  14 H :    0.188184
  15 O :   -0.571081
  16 C :    0.057808
  17 C :    0.115047
  18 C :   -0.300107
  19 C :   -0.023448
  20 O :   -0.522077
  21 H :    0.152696
  22 H :    0.145583
  23 O :   -0.640438
  24 H :    0.150357
  25 H :    0.144840
  26 H :    0.143739
  27 H :    0.149322
  28 H :    0.392184
Sum of atomic charges:   -0.0000000

LOEWDIN ATOMIC CHARGES
----------------------
   0 C :    0.179925
   1 C :   -0.214676
   2 C :   -0.215928
   3 C :   -0.028703
   4 O :   -0.319302
   5 H :    0.102319
   6 H :    0.117958
   7 H :    0.126294
   8 H :    0.117736
   9 H :    0.119615
  10 H :    0.108948
  11 H :    0.108107
  12 C :   -0.050327
  13 H :    0.098399
  14 H :    0.127025
  15 O :   -0.347070
  16 C :    0.018370
  17 C :    0.040588
  18 C :   -0.237105
  19 C :   -0.033200
  20 O :   -0.324554
  21 H :    0.111911
  22 H :    0.104124
  23 O :   -0.435606
  24 H :    0.120919
  25 H :    0.111000
  26 H :    0.102345
  27 H :    0.105662
  28 H :    0.285225

  Mayer bond orders larger than 0.100000
B(  0-C ,  1-C ) :   0.9498 B(  0-C ,  4-O ) :   0.9191 B(  0-C ,  5-H ) :   0.9227
B(  0-C , 15-O ) :   0.8087 B(  1-C ,  2-C ) :   0.9529 B(  1-C ,  6-H ) :   0.9378
B(  1-C ,  7-H ) :   0.9349 B(  2-C ,  3-C ) :   0.9553 B(  2-C ,  8-H ) :   0.9441
B(  2-C ,  9-H ) :   0.9436 B(  3-C ,  4-O ) :   0.8235 B(  3-C , 10-H ) :   0.9348
B(  3-C , 11-H ) :   0.9399 B( 12-C , 13-H ) :   0.9253 B( 12-C , 14-H ) :   0.9103
B( 12-C , 15-O ) :   0.7760 B( 12-C , 16-C ) :   0.9064 B( 16-C , 17-C ) :   0.9117
B( 16-C , 20-O ) :   0.8551 B( 16-C , 21-H ) :   0.9303 B( 17-C , 18-C ) :   0.9027
B( 17-C , 22-H ) :   0.9309 B( 17-C , 23-O ) :   0.9345 B( 18-C , 19-C ) :   0.9391
B( 18-C , 24-H ) :   0.9445 B( 18-C , 25-H ) :   0.9434 B( 19-C , 20-O ) :   0.8325
B( 19-C , 26-H ) :   0.9337 B( 19-C , 27-H ) :   0.9384 B( 23-O , 28-H ) :   0.7250

FINAL SINGLE POINT ENERGY      -652.871578597216

DIPOLE MOMENT
-------------
                                X             Y             Z
Electronic contribution:     -0.47161      -1.44134       0.50879
Nuclear contribution   :      1.31551       1.59001      -0.63168
                        -----------------------------------------
Total Dipole Moment    :      0.84390       0.14867      -0.12289
                        -----------------------------------------
Magnitude (a.u.)       :      0.86566
Magnitude (Debye)      :      2.20034

Rotational constants in cm-1:     0.055794     0.014127     0.012769
Rotational constants in MHz :  1672.676354   423.521320   382.799721

                             ****ORCA TERMINATED NORMALLY****
TOTAL RUN TIME: 0 days 0 hours 26 minutes 43 seconds 323 msec
