                         Program Version 4.2.1 -  RELEASE  -
|  1> # Test redundant internal optimization
|  2> #
|  3> ! RKS B3LYP  Opt TightSCF SmallPrint
|  4>
|  5> %basis
|  6>         Basis "6-31G"
|  7> end
|  8>
|  9> %geom
| 10> Constraints
| 11> { D 4  0  19  14  180.0   C } # D for Dihedral angle
| 12> { D 0  19  14  12  30.0   C } # D for Dihedral angle
| 13> { D 0  4  3  2   C } # D for Dihedral angle
| 14> { D 4  3  2  1   C } # D for Dihedral angle
| 15> { D 3  2  1  0   C } # D for Dihedral angle
| 16> { D 2  1  0  4   C } # D for Dihedral angle
| 17> { D 1  0  4  3   C } # D for Dihedral angle
| 18> { D 14  15  16  17   C } # D for Dihedral angle
| 19> { D 15  16  17  12   C } # D for Dihedral angle
| 20> { D 16  17  12  14   C } # D for Dihedral angle
| 21> { D 17  12  14  15   C } # D for Dihedral angle
| 22> { D 12  14  15  16   C } # D for Dihedral angle
| 23> end
| 24> end
| 25>
| 26>
| 27> #%pal
| 28> #nprocs 8
| 29> #end
| 30>
| 31> * xyz 0 1
| 32> C  -21.048   26.222   46.251
| 33> C  -20.361   27.558   45.944
| 34> C  -20.329   28.222   47.341
| 35> C  -20.110   27.022   48.296
| 36> O  -20.473   25.807   47.535
| 37> H  -20.833   25.428   45.533
| 38> H  -19.344   27.382   45.576
| 39> H  -20.898   28.157   45.201
| 40> H  -19.543   28.978   47.434
| 41> H  -21.289   28.710   47.548
| 42> H  -20.733   27.082   49.195
| 43> H  -19.064   26.913   48.597
| 44> C  -22.352   26.254   43.938
| 45> H  -22.645   26.778   43.015
| 46> C  -23.122   26.788   45.152
| 47> C  -24.486   26.074   44.996
| 48> C  -24.096   24.693   44.413
| 49> O  -22.729   24.838   43.865
| 50> H  -21.266   26.290   44.040
| 51> O  -22.472   26.381   46.366
| 52> H  -23.213   27.880   45.157
| 53> H  -25.031   25.989   45.941
| 54> H  -25.122   26.625   44.291
| 55> H  -24.770   24.368   43.613
| 56> H  -24.054   23.913   45.179
| 57> *
| 58>
| 59>                          ****END OF INPUT****
 Total Charge           Charge          ....    0
 Multiplicity           Mult            ....    1
 Number of Electrons    NEL             ....   86
FINAL SINGLE POINT ENERGY      -538.416622414565
FINAL SINGLE POINT ENERGY      -538.426665891059
FINAL SINGLE POINT ENERGY      -538.427823650435
FINAL SINGLE POINT ENERGY      -538.428109182478
FINAL SINGLE POINT ENERGY      -538.428149866919
FINAL SINGLE POINT ENERGY      -538.428163243286
                    ***********************HURRAY********************

CARTESIAN COORDINATES (ANGSTROEM)
---------------------------------
  C    -20.950044   26.210467   46.239788
  C    -20.187905   27.511338   45.989329
  C    -20.307036   28.225120   47.360578
  C    -20.250041   27.050128   48.359162
  O    -20.561258   25.832982   47.567712
  H    -20.708868   25.375477   45.578224
  H    -19.141279   27.276681   45.761222
  H    -20.591144   28.108049   45.166697
  H    -19.507246   28.953434   47.524663
  H    -21.268095   28.743347   47.427962
  H    -20.979457   27.136479   49.168586
  H    -19.252627   26.900459   48.783277
  C    -22.496585   26.319776   43.747000
  H    -22.967398   26.847092   42.903424
  C    -23.111690   26.811728   45.057629
  C    -24.440795   26.032277   45.086935
  C    -24.075965   24.673374   44.445374
  O    -22.805782   24.890052   43.711456
  H    -21.414454   26.421126   43.659585
  O    -22.394992   26.413721   46.272185
  H    -23.251915   27.900079   45.065877
  H    -24.800118   25.937353   46.113516
  H    -25.197892   26.560246   44.494858
  H    -24.837269   24.322420   43.740761
  H    -23.883145   23.898793   45.191201

 Multiplicity           Mult            ....    1
 Number of Electrons    NEL             ....   86
 Basis Dimension        Dim             ....  127

ORBITAL ENERGIES
----------------

  NO   OCC          E(Eh)            E(eV)
   0   2.0000     -19.137347      -520.7537
   1   2.0000     -19.135239      -520.6963
   2   2.0000     -19.134580      -520.6784
   3   2.0000     -10.275197      -279.6023
   4   2.0000     -10.242535      -278.7135
   5   2.0000     -10.230421      -278.3839
   6   2.0000     -10.223135      -278.1857
   7   2.0000     -10.221530      -278.1420
   8   2.0000     -10.187481      -277.2154
   9   2.0000     -10.186817      -277.1974
  10   2.0000     -10.184648      -277.1384
  11   2.0000      -1.050338       -28.5811
  12   2.0000      -1.018251       -27.7080
  13   2.0000      -0.985487       -26.8165
  14   2.0000      -0.788229       -21.4488
  15   2.0000      -0.780409       -21.2360
  16   2.0000      -0.739414       -20.1205
  17   2.0000      -0.726982       -19.7822
  18   2.0000      -0.619094       -16.8464
  19   2.0000      -0.603177       -16.4133
  20   2.0000      -0.592856       -16.1324
  21   2.0000      -0.563492       -15.3334
  22   2.0000      -0.523725       -14.2513
  23   2.0000      -0.498751       -13.5717
  24   2.0000      -0.490799       -13.3553
  25   2.0000      -0.484490       -13.1836
  26   2.0000      -0.452815       -12.3217
  27   2.0000      -0.450083       -12.2474
  28   2.0000      -0.427336       -11.6284
  29   2.0000      -0.415854       -11.3160
  30   2.0000      -0.404417       -11.0047
  31   2.0000      -0.382821       -10.4171
  32   2.0000      -0.372378       -10.1329
  33   2.0000      -0.366289        -9.9672
  34   2.0000      -0.364952        -9.9309
  35   2.0000      -0.355196        -9.6654
  36   2.0000      -0.350225        -9.5301
  37   2.0000      -0.316672        -8.6171
  38   2.0000      -0.307781        -8.3751
  39   2.0000      -0.294019        -8.0007
  40   2.0000      -0.254920        -6.9367
  41   2.0000      -0.249974        -6.8021
  42   2.0000      -0.241032        -6.5588
  43   0.0000       0.074644         2.0312
  44   0.0000       0.094111         2.5609
  45   0.0000       0.100788         2.7426
  46   0.0000       0.105582         2.8730
  47   0.0000       0.113245         3.0816

MULLIKEN ATOMIC CHARGES
-----------------------
   0 C :    0.298098
   1 C :   -0.278063
   2 C :   -0.298809
   3 C :   -0.000207
   4 O :   -0.505238
   5 H :    0.166566
   6 H :    0.148100
   7 H :    0.136698
   8 H :    0.141731
   9 H :    0.156521
  10 H :    0.152831
  11 H :    0.141608
  12 C :   -0.029819
  13 H :    0.131624
  14 C :    0.078640
  15 C :   -0.288606
  16 C :   -0.003651
  17 O :   -0.523896
  18 H :    0.156140
  19 O :   -0.520026
  20 H :    0.131781
  21 H :    0.173089
  22 H :    0.135148
  23 H :    0.137497
  24 H :    0.162245
Sum of atomic charges:   -0.0000000

LOEWDIN ATOMIC CHARGES
----------------------
   0 C :    0.178887
   1 C :   -0.234386
   2 C :   -0.216686
   3 C :   -0.025168
   4 O :   -0.300974
   5 H :    0.108401
   6 H :    0.116088
   7 H :    0.109879
   8 H :    0.114092
   9 H :    0.115835
  10 H :    0.108518
  11 H :    0.102258
  12 C :   -0.054511
  13 H :    0.097125
  14 C :    0.037405
  15 C :   -0.223294
  16 C :   -0.027660
  17 O :   -0.333527
  18 H :    0.112348
  19 O :   -0.335582
  20 H :    0.097464
  21 H :    0.132857
  22 H :    0.108402
  23 H :    0.099575
  24 H :    0.112655

  Mayer bond orders larger than 0.100000
B(  0-C ,  1-C ) :   0.9247 B(  0-C ,  4-O ) :   0.9256 B(  0-C ,  5-H ) :   0.9129
B(  0-C , 19-O ) :   0.8267 B(  1-C ,  2-C ) :   0.9487 B(  1-C ,  6-H ) :   0.9344
B(  1-C ,  7-H ) :   0.9337 B(  2-C ,  3-C ) :   0.9557 B(  2-C ,  8-H ) :   0.9450
B(  2-C ,  9-H ) :   0.9457 B(  3-C ,  4-O ) :   0.8375 B(  3-C , 10-H ) :   0.9347
B(  3-C , 11-H ) :   0.9398 B( 12-C , 13-H ) :   0.9120 B( 12-C , 14-C ) :   0.9170
B( 12-C , 17-O ) :   0.8652 B( 12-C , 18-H ) :   0.9258 B( 14-C , 15-C ) :   0.9463
B( 14-C , 19-O ) :   0.8445 B( 14-C , 20-H ) :   0.9201 B( 15-C , 16-C ) :   0.9477
B( 15-C , 21-H ) :   0.9342 B( 15-C , 22-H ) :   0.9402 B( 16-C , 17-O ) :   0.8462
B( 16-C , 23-H ) :   0.9341 B( 16-C , 24-H ) :   0.9355

FINAL SINGLE POINT ENERGY      -538.428163910219

DIPOLE MOMENT
-------------
                                X             Y             Z
Electronic contribution:      0.18643      -3.78863       0.35108
Nuclear contribution   :     -0.32363       5.16822      -0.61495
                        -----------------------------------------
Total Dipole Moment    :     -0.13719       1.37959      -0.26387
                        -----------------------------------------
Magnitude (a.u.)       :      1.41128
Magnitude (Debye)      :      3.58719

Rotational constants in cm-1:     0.084579     0.021110     0.020552
Rotational constants in MHz :  2535.615574   632.853525   616.147989

                             ****ORCA TERMINATED NORMALLY****
TOTAL RUN TIME: 0 days 0 hours 15 minutes 11 seconds 65 msec
