                         Program Version 4.2.0 -  RELEASE  -
|  1> # Test redundant internal optimization
|  2> #
|  3> ! RKS B3LYP  Opt TightSCF SmallPrint
|  4>
|  5> %basis
|  6>         Basis "6-31G"
|  7> end
|  8>
|  9> %geom
| 10> Constraints
| 11> { D 4  0  15  12  255.0   C } # D for Dihedral angle
| 12> { D 0  15  12  16  225.0   C } # D for Dihedral angle
| 13> { D 0  4  3  2   C } # D for Dihedral angle
| 14> { D 4  3  2  1   C } # D for Dihedral angle
| 15> { D 3  2  1  0   C } # D for Dihedral angle
| 16> { D 2  1  0  4   C } # D for Dihedral angle
| 17> { D 1  0  4  3   C } # D for Dihedral angle
| 18> { D 16  20  19  18   C } # D for Dihedral angle
| 19> { D 20  19  18  17   C } # D for Dihedral angle
| 20> { D 19  18  17  16   C } # D for Dihedral angle
| 21> { D 18  17  16  20   C } # D for Dihedral angle
| 22> { D 17  16  20  19   C } # D for Dihedral angle
| 23> { D 15  12  16  20   C } # D for Dihedral angle
| 24> end
| 25> end
| 26>
| 27>
| 28> #%pal
| 29> #nprocs 8
| 30> #end
| 31>
| 32> * xyz 0 1
| 33> C  -21.048   26.222   46.251
| 34> C  -20.361   27.558   45.944
| 35> C  -20.329   28.222   47.341
| 36> C  -20.110   27.022   48.296
| 37> O  -20.473   25.807   47.535
| 38> H  -20.833   25.428   45.533
| 39> H  -19.344   27.382   45.576
| 40> H  -20.898   28.157   45.201
| 41> H  -19.543   28.978   47.434
| 42> H  -21.289   28.710   47.548
| 43> H  -20.733   27.082   49.195
| 44> H  -19.064   26.913   48.597
| 45> C  -23.431   25.260   45.734
| 46> H  -22.791   24.658   45.077
| 47> H  -23.841   24.601   46.510
| 48> O  -22.586   26.394   46.375
| 49> C  -24.622   25.799   44.894
| 50> C  -24.131   26.596   43.680
| 51> C  -23.750   25.465   42.696
| 52> C  -24.808   24.373   42.988
| 53> O  -25.384   24.689   44.313
| 54> H  -25.303   26.346   45.549
| 55> H  -24.949   27.203   43.274
| 56> O  -22.940   27.537   44.009
| 57> H  -23.763   25.790   41.651
| 58> H  -22.741   25.097   42.919
| 59> H  -24.376   23.367   43.016
| 60> H  -25.630   24.384   42.268
| 61> H  -22.110   26.950   44.418
| 62> *
| 63>
| 64>                          ****END OF INPUT****
 Total Charge           Charge          ....    0
 Multiplicity           Mult            ....    1
 Number of Electrons    NEL             ....  102
FINAL SINGLE POINT ENERGY      -652.822424558139
FINAL SINGLE POINT ENERGY      -652.848719469117
FINAL SINGLE POINT ENERGY      -652.855174552909
FINAL SINGLE POINT ENERGY      -652.857570258923
FINAL SINGLE POINT ENERGY      -652.858575582925
FINAL SINGLE POINT ENERGY      -652.859669048590
FINAL SINGLE POINT ENERGY      -652.860761443344
FINAL SINGLE POINT ENERGY      -652.861416640865
FINAL SINGLE POINT ENERGY      -652.862006557081
FINAL SINGLE POINT ENERGY      -652.862953571961
FINAL SINGLE POINT ENERGY      -652.863144151469
FINAL SINGLE POINT ENERGY      -652.863197081033
FINAL SINGLE POINT ENERGY      -652.863209120078
                    ***********************HURRAY********************

CARTESIAN COORDINATES (ANGSTROEM)
---------------------------------
  C    -21.037852   26.133040   46.242587
  C    -20.355306   27.459597   45.910584
  C    -20.380946   28.185739   47.278637
  C    -20.186598   27.028712   48.282620
  O    -20.516189   25.787990   47.537238
  H    -20.812227   25.304307   45.567258
  H    -19.322284   27.247103   45.610004
  H    -20.833122   28.008617   45.098831
  H    -19.600329   28.947531   47.363668
  H    -21.351433   28.669877   47.426264
  H    -20.843848   27.097392   49.152811
  H    -19.150381   26.925704   48.617505
  C    -23.332939   25.251120   45.760734
  H    -22.711416   24.570999   45.163818
  H    -23.768238   24.679034   46.585191
  O    -22.489035   26.322300   46.316469
  C    -24.465821   25.828825   44.901301
  C    -24.046797   26.612904   43.648453
  C    -23.727920   25.465812   42.651690
  C    -24.765056   24.382989   43.017309
  O    -25.261610   24.718881   44.382496
  H    -25.131558   26.418437   45.539437
  H    -24.912112   27.183635   43.287857
  O    -22.937419   27.517023   43.846653
  H    -23.806233   25.791762   41.610847
  H    -22.699975   25.129283   42.821375
  H    -24.346286   23.372271   43.031823
  H    -25.637831   24.393912   42.357748
  H    -22.750240   27.555207   44.810793

 Multiplicity           Mult            ....    1
 Number of Electrons    NEL             ....  102
 Basis Dimension        Dim             ....  149

ORBITAL ENERGIES
----------------

  NO   OCC          E(Eh)            E(eV)
   0   2.0000     -19.160026      -521.3708
   1   2.0000     -19.144653      -520.9525
   2   2.0000     -19.144509      -520.9486
   3   2.0000     -19.128255      -520.5063
   4   2.0000     -10.288902      -279.9753
   5   2.0000     -10.237666      -278.5811
   6   2.0000     -10.237603      -278.5793
   7   2.0000     -10.237475      -278.5758
   8   2.0000     -10.231102      -278.4024
   9   2.0000     -10.228681      -278.3366
  10   2.0000     -10.190657      -277.3019
  11   2.0000     -10.190010      -277.2843
  12   2.0000     -10.185682      -277.1665
  13   2.0000      -1.060244       -28.8507
  14   2.0000      -1.031144       -28.0589
  15   2.0000      -1.009484       -27.4695
  16   2.0000      -0.999181       -27.1891
  17   2.0000      -0.792943       -21.5771
  18   2.0000      -0.777245       -21.1499
  19   2.0000      -0.769984       -20.9523
  20   2.0000      -0.735087       -20.0027
  21   2.0000      -0.680833       -18.5264
  22   2.0000      -0.605020       -16.4634
  23   2.0000      -0.602370       -16.3913
  24   2.0000      -0.595103       -16.1936
  25   2.0000      -0.586358       -15.9556
  26   2.0000      -0.524835       -14.2815
  27   2.0000      -0.523432       -14.2433
  28   2.0000      -0.500255       -13.6126
  29   2.0000      -0.491819       -13.3831
  30   2.0000      -0.471118       -12.8198
  31   2.0000      -0.460175       -12.5220
  32   2.0000      -0.444455       -12.0942
  33   2.0000      -0.436769       -11.8851
  34   2.0000      -0.432211       -11.7611
  35   2.0000      -0.422385       -11.4937
  36   2.0000      -0.404616       -11.0102
  37   2.0000      -0.390212       -10.6182
  38   2.0000      -0.382469       -10.4075
  39   2.0000      -0.372720       -10.1422
  40   2.0000      -0.360441        -9.8081
  41   2.0000      -0.356398        -9.6981
  42   2.0000      -0.352132        -9.5820
  43   2.0000      -0.342299        -9.3144
  44   2.0000      -0.328259        -8.9324
  45   2.0000      -0.315007        -8.5718
  46   2.0000      -0.297305        -8.0901
  47   2.0000      -0.277926        -7.5627
  48   2.0000      -0.265275        -7.2185
  49   2.0000      -0.257503        -7.0070
  50   2.0000      -0.243750        -6.6328
  51   0.0000       0.052388         1.4255
  52   0.0000       0.070168         1.9094
  53   0.0000       0.090348         2.4585
  54   0.0000       0.096046         2.6135
  55   0.0000       0.110145         2.9972

MULLIKEN ATOMIC CHARGES
-----------------------
   0 C :    0.291508
   1 C :   -0.289963
   2 C :   -0.299684
   3 C :   -0.001510
   4 O :   -0.501619
   5 H :    0.150744
   6 H :    0.153533
   7 H :    0.168902
   8 H :    0.146284
   9 H :    0.160502
  10 H :    0.153368
  11 H :    0.144316
  12 C :    0.002308
  13 H :    0.130973
  14 H :    0.171031
  15 O :   -0.547469
  16 C :    0.035555
  17 C :    0.118021
  18 C :   -0.296902
  19 C :   -0.021867
  20 O :   -0.517425
  21 H :    0.162633
  22 H :    0.144388
  23 O :   -0.645611
  24 H :    0.153116
  25 H :    0.146309
  26 H :    0.144512
  27 H :    0.152730
  28 H :    0.391319
Sum of atomic charges:   -0.0000000

LOEWDIN ATOMIC CHARGES
----------------------
   0 C :    0.176817
   1 C :   -0.224579
   2 C :   -0.216701
   3 C :   -0.026166
   4 O :   -0.315372
   5 H :    0.102494
   6 H :    0.119293
   7 H :    0.127378
   8 H :    0.116318
   9 H :    0.117590
  10 H :    0.108883
  11 H :    0.103852
  12 C :   -0.037851
  13 H :    0.097862
  14 H :    0.118579
  15 O :   -0.344171
  16 C :    0.011501
  17 C :    0.040082
  18 C :   -0.230787
  19 C :   -0.032104
  20 O :   -0.320124
  21 H :    0.115024
  22 H :    0.101699
  23 O :   -0.435448
  24 H :    0.121807
  25 H :    0.111950
  26 H :    0.103290
  27 H :    0.107498
  28 H :    0.281386

  Mayer bond orders larger than 0.100000
B(  0-C ,  1-C ) :   0.9452 B(  0-C ,  4-O ) :   0.9364 B(  0-C ,  5-H ) :   0.9164
B(  0-C , 15-O ) :   0.8121 B(  1-C ,  2-C ) :   0.9515 B(  1-C ,  6-H ) :   0.9375
B(  1-C ,  7-H ) :   0.9225 B(  2-C ,  3-C ) :   0.9527 B(  2-C ,  8-H ) :   0.9451
B(  2-C ,  9-H ) :   0.9451 B(  3-C ,  4-O ) :   0.8335 B(  3-C , 10-H ) :   0.9349
B(  3-C , 11-H ) :   0.9399 B( 12-C , 13-H ) :   0.9211 B( 12-C , 14-H ) :   0.9271
B( 12-C , 15-O ) :   0.7996 B( 12-C , 16-C ) :   0.9033 B( 16-C , 17-C ) :   0.9167
B( 16-C , 20-O ) :   0.8553 B( 16-C , 21-H ) :   0.9282 B( 17-C , 18-C ) :   0.9130
B( 17-C , 22-H ) :   0.9243 B( 17-C , 23-O ) :   0.9117 B( 18-C , 19-C ) :   0.9402
B( 18-C , 24-H ) :   0.9443 B( 18-C , 25-H ) :   0.9419 B( 19-C , 20-O ) :   0.8353
B( 19-C , 26-H ) :   0.9338 B( 19-C , 27-H ) :   0.9371 B( 23-O , 28-H ) :   0.7175

FINAL SINGLE POINT ENERGY      -652.863212191031

DIPOLE MOMENT
-------------
                                X             Y             Z
Electronic contribution:     -2.77639      -1.64234       1.54173
Nuclear contribution   :      3.32318       1.84336      -1.75918
                        -----------------------------------------
Total Dipole Moment    :      0.54679       0.20102      -0.21745
                        -----------------------------------------
Magnitude (a.u.)       :      0.62183
Magnitude (Debye)      :      1.58058

Rotational constants in cm-1:     0.061862     0.013646     0.012435
Rotational constants in MHz :  1854.566187   409.103272   372.799853

                             ****ORCA TERMINATED NORMALLY****
TOTAL RUN TIME: 0 days 1 hours 32 minutes 32 seconds 755 msec
