                         Program Version 4.2.0 -  RELEASE  -
|  1> # Test redundant internal optimization
|  2> #
|  3> ! RKS B3LYP  Opt TightSCF SmallPrint
|  4>
|  5> %basis
|  6>         Basis "6-31G"
|  7> end
|  8>
|  9> %geom
| 10> Constraints
| 11> { D 4  0  15  12  285.0   C } # D for Dihedral angle
| 12> { D 0  15  12  16  240.0   C } # D for Dihedral angle
| 13> { D 0  4  3  2   C } # D for Dihedral angle
| 14> { D 4  3  2  1   C } # D for Dihedral angle
| 15> { D 3  2  1  0   C } # D for Dihedral angle
| 16> { D 2  1  0  4   C } # D for Dihedral angle
| 17> { D 1  0  4  3   C } # D for Dihedral angle
| 18> { D 16  20  19  18   C } # D for Dihedral angle
| 19> { D 20  19  18  17   C } # D for Dihedral angle
| 20> { D 19  18  17  16   C } # D for Dihedral angle
| 21> { D 18  17  16  20   C } # D for Dihedral angle
| 22> { D 17  16  20  19   C } # D for Dihedral angle
| 23> { D 15  12  16  20   C } # D for Dihedral angle
| 24> end
| 25> end
| 26>
| 27>
| 28> #%pal
| 29> #nprocs 8
| 30> #end
| 31>
| 32> * xyz 0 1
| 33> C  -21.048   26.222   46.251
| 34> C  -20.361   27.558   45.944
| 35> C  -20.329   28.222   47.341
| 36> C  -20.110   27.022   48.296
| 37> O  -20.473   25.807   47.535
| 38> H  -20.833   25.428   45.533
| 39> H  -19.344   27.382   45.576
| 40> H  -20.898   28.157   45.201
| 41> H  -19.543   28.978   47.434
| 42> H  -21.289   28.710   47.548
| 43> H  -20.733   27.082   49.195
| 44> H  -19.064   26.913   48.597
| 45> C  -23.396   25.070   46.435
| 46> H  -22.704   24.220   46.386
| 47> H  -23.954   25.004   47.378
| 48> O  -22.586   26.394   46.375
| 49> C  -24.417   24.937   45.272
| 50> C  -23.707   24.849   43.916
| 51> C  -23.255   23.370   43.893
| 52> C  -24.410   22.639   44.624
| 53> O  -25.152   23.672   45.377
| 54> H  -25.151   25.741   45.347
| 55> H  -24.418   25.049   43.106
| 56> O  -22.522   25.844   43.782
| 57> H  -23.097   22.990   42.879
| 58> H  -22.315   23.256   44.445
| 59> H  -24.048   21.877   45.322
| 60> H  -25.116   22.175   43.930
| 61> H  -21.797   25.662   44.583
| 62> *
| 63>
| 64>                          ****END OF INPUT****
 Total Charge           Charge          ....    0
 Multiplicity           Mult            ....    1
 Number of Electrons    NEL             ....  102
FINAL SINGLE POINT ENERGY      -652.815355582855
FINAL SINGLE POINT ENERGY      -652.846240837508
FINAL SINGLE POINT ENERGY      -652.856673060011
FINAL SINGLE POINT ENERGY      -652.859092081363
FINAL SINGLE POINT ENERGY      -652.859807008089
FINAL SINGLE POINT ENERGY      -652.860327019232
FINAL SINGLE POINT ENERGY      -652.860963435729
FINAL SINGLE POINT ENERGY      -652.861737769449
FINAL SINGLE POINT ENERGY      -652.862299425168
FINAL SINGLE POINT ENERGY      -652.860272942738
FINAL SINGLE POINT ENERGY      -652.864044017121
FINAL SINGLE POINT ENERGY      -652.865104123150
FINAL SINGLE POINT ENERGY      -652.865992446061
FINAL SINGLE POINT ENERGY      -652.866285140940
FINAL SINGLE POINT ENERGY      -652.866359126273
FINAL SINGLE POINT ENERGY      -652.866371352312
FINAL SINGLE POINT ENERGY      -652.866373707422
                    ***********************HURRAY********************

CARTESIAN COORDINATES (ANGSTROEM)
---------------------------------
  C    -21.017922   26.108744   46.289567
  C    -20.374107   27.454726   45.958672
  C    -20.407120   28.169344   47.330220
  C    -20.173017   27.014631   48.328791
  O    -20.475195   25.766535   47.581284
  H    -20.789377   25.284706   45.611911
  H    -19.344297   27.283349   45.626349
  H    -20.905078   28.002918   45.177161
  H    -19.647426   28.952472   47.414711
  H    -21.391038   28.621255   47.484925
  H    -20.823141   27.066198   49.205772
  H    -19.131687   26.937606   48.654746
  C    -23.275456   25.105579   46.470506
  H    -22.622528   24.227686   46.543301
  H    -23.853114   25.171887   47.395949
  O    -22.456206   26.321728   46.353287
  C    -24.242645   24.973676   45.286373
  C    -23.612456   24.828421   43.892256
  C    -23.234402   23.320860   43.870065
  C    -24.379386   22.665635   44.673312
  O    -25.029051   23.753766   45.451350
  H    -24.953848   25.806156   45.317433
  H    -24.383041   25.032378   43.136938
  O    -22.451251   25.654406   43.634366
  H    -23.155413   22.929410   42.852531
  H    -22.262162   23.197505   44.356194
  H    -24.030394   21.893946   45.366302
  H    -25.152481   22.236230   44.028923
  H    -22.496763   26.448247   44.207803

 Multiplicity           Mult            ....    1
 Number of Electrons    NEL             ....  102
 Basis Dimension        Dim             ....  149

ORBITAL ENERGIES
----------------

  NO   OCC          E(Eh)            E(eV)
   0   2.0000     -19.153032      -521.1805
   1   2.0000     -19.143267      -520.9148
   2   2.0000     -19.142190      -520.8855
   3   2.0000     -19.136476      -520.7300
   4   2.0000     -10.280248      -279.7398
   5   2.0000     -10.239620      -278.6342
   6   2.0000     -10.235255      -278.5154
   7   2.0000     -10.230181      -278.3774
   8   2.0000     -10.229863      -278.3687
   9   2.0000     -10.226731      -278.2835
  10   2.0000     -10.189142      -277.2606
  11   2.0000     -10.187172      -277.2071
  12   2.0000     -10.185755      -277.1685
  13   2.0000      -1.057328       -28.7714
  14   2.0000      -1.030899       -28.0522
  15   2.0000      -1.011959       -27.5368
  16   2.0000      -0.995647       -27.0929
  17   2.0000      -0.791425       -21.5358
  18   2.0000      -0.777312       -21.1517
  19   2.0000      -0.766581       -20.8597
  20   2.0000      -0.731688       -19.9103
  21   2.0000      -0.677045       -18.4233
  22   2.0000      -0.603331       -16.4175
  23   2.0000      -0.600471       -16.3397
  24   2.0000      -0.593798       -16.1581
  25   2.0000      -0.579188       -15.7605
  26   2.0000      -0.522194       -14.2096
  27   2.0000      -0.519471       -14.1355
  28   2.0000      -0.501399       -13.6438
  29   2.0000      -0.491851       -13.3839
  30   2.0000      -0.466852       -12.7037
  31   2.0000      -0.454776       -12.3751
  32   2.0000      -0.444184       -12.0869
  33   2.0000      -0.439163       -11.9502
  34   2.0000      -0.429094       -11.6762
  35   2.0000      -0.416943       -11.3456
  36   2.0000      -0.404404       -11.0044
  37   2.0000      -0.388704       -10.5772
  38   2.0000      -0.380260       -10.3474
  39   2.0000      -0.366126        -9.9628
  40   2.0000      -0.360027        -9.7968
  41   2.0000      -0.354109        -9.6358
  42   2.0000      -0.350680        -9.5425
  43   2.0000      -0.338557        -9.2126
  44   2.0000      -0.332713        -9.0536
  45   2.0000      -0.303678        -8.2635
  46   2.0000      -0.296484        -8.0677
  47   2.0000      -0.281924        -7.6715
  48   2.0000      -0.265800        -7.2328
  49   2.0000      -0.258902        -7.0451
  50   2.0000      -0.241294        -6.5659
  51   0.0000       0.054703         1.4885
  52   0.0000       0.077107         2.0982
  53   0.0000       0.090479         2.4620
  54   0.0000       0.097535         2.6541
  55   0.0000       0.108666         2.9569

MULLIKEN ATOMIC CHARGES
-----------------------
   0 C :    0.271066
   1 C :   -0.266887
   2 C :   -0.298734
   3 C :   -0.002880
   4 O :   -0.512602
   5 H :    0.168600
   6 H :    0.153360
   7 H :    0.147861
   8 H :    0.142764
   9 H :    0.163208
  10 H :    0.149426
  11 H :    0.143836
  12 C :   -0.004549
  13 H :    0.148297
  14 H :    0.165289
  15 O :   -0.545771
  16 C :    0.046267
  17 C :    0.110295
  18 C :   -0.297505
  19 C :   -0.018845
  20 O :   -0.519211
  21 H :    0.156681
  22 H :    0.144111
  23 O :   -0.626818
  24 H :    0.152881
  25 H :    0.155395
  26 H :    0.146736
  27 H :    0.149413
  28 H :    0.378314
Sum of atomic charges:   -0.0000000

LOEWDIN ATOMIC CHARGES
----------------------
   0 C :    0.164399
   1 C :   -0.215009
   2 C :   -0.216138
   3 C :   -0.026587
   4 O :   -0.324792
   5 H :    0.107074
   6 H :    0.118612
   7 H :    0.117344
   8 H :    0.114233
   9 H :    0.119505
  10 H :    0.106798
  11 H :    0.103553
  12 C :   -0.040205
  13 H :    0.107968
  14 H :    0.118241
  15 O :   -0.343325
  16 C :    0.009728
  17 C :    0.037007
  18 C :   -0.226275
  19 C :   -0.030884
  20 O :   -0.320785
  21 H :    0.112007
  22 H :    0.099949
  23 O :   -0.422322
  24 H :    0.121724
  25 H :    0.115732
  26 H :    0.104232
  27 H :    0.105782
  28 H :    0.282433

  Mayer bond orders larger than 0.100000
B(  0-C ,  1-C ) :   0.9485 B(  0-C ,  4-O ) :   0.9088 B(  0-C ,  5-H ) :   0.9059
B(  0-C , 15-O ) :   0.8212 B(  1-C ,  2-C ) :   0.9534 B(  1-C ,  6-H ) :   0.9392
B(  1-C ,  7-H ) :   0.9369 B(  2-C ,  3-C ) :   0.9556 B(  2-C ,  8-H ) :   0.9452
B(  2-C ,  9-H ) :   0.9441 B(  3-C ,  4-O ) :   0.8353 B(  3-C , 10-H ) :   0.9355
B(  3-C , 11-H ) :   0.9404 B( 12-C , 13-H ) :   0.9236 B( 12-C , 14-H ) :   0.9330
B( 12-C , 15-O ) :   0.8039 B( 12-C , 16-C ) :   0.8992 B( 16-C , 17-C ) :   0.9103
B( 16-C , 20-O ) :   0.8538 B( 16-C , 21-H ) :   0.9288 B( 17-C , 18-C ) :   0.9244
B( 17-C , 22-H ) :   0.9225 B( 17-C , 23-O ) :   0.9010 B( 18-C , 19-C ) :   0.9416
B( 18-C , 24-H ) :   0.9440 B( 18-C , 25-H ) :   0.9401 B( 19-C , 20-O ) :   0.8355
B( 19-C , 26-H ) :   0.9335 B( 19-C , 27-H ) :   0.9380 B( 23-O , 28-H ) :   0.7544

FINAL SINGLE POINT ENERGY      -652.866374263385

DIPOLE MOMENT
-------------
                                X             Y             Z
Electronic contribution:     -2.78567      -1.04711      -0.00784
Nuclear contribution   :      3.14345       1.43772      -0.03539
                        -----------------------------------------
Total Dipole Moment    :      0.35779       0.39062      -0.04322
                        -----------------------------------------
Magnitude (a.u.)       :      0.53147
Magnitude (Debye)      :      1.35089

Rotational constants in cm-1:     0.060110     0.013896     0.012869
Rotational constants in MHz :  1802.059754   416.598106   385.793592

                             ****ORCA TERMINATED NORMALLY****
TOTAL RUN TIME: 0 days 0 hours 49 minutes 43 seconds 550 msec
