                         Program Version 4.2.0 -  RELEASE  -
|  1> # Test redundant internal optimization
|  2> #
|  3> ! RKS B3LYP  Opt TightSCF SmallPrint
|  4>
|  5> %basis
|  6>         Basis "6-31G"
|  7> end
|  8>
|  9> %geom
| 10> Constraints
| 11> { D 4  0  15  12  180.0   C } # D for Dihedral angle
| 12> { D 0  15  12  16  45.0   C } # D for Dihedral angle
| 13> { D 0  4  3  2   C } # D for Dihedral angle
| 14> { D 4  3  2  1   C } # D for Dihedral angle
| 15> { D 3  2  1  0   C } # D for Dihedral angle
| 16> { D 2  1  0  4   C } # D for Dihedral angle
| 17> { D 1  0  4  3   C } # D for Dihedral angle
| 18> { D 16  20  19  18   C } # D for Dihedral angle
| 19> { D 20  19  18  17   C } # D for Dihedral angle
| 20> { D 19  18  17  16   C } # D for Dihedral angle
| 21> { D 18  17  16  20   C } # D for Dihedral angle
| 22> { D 17  16  20  19   C } # D for Dihedral angle
| 23> { D 15  12  16  20   C } # D for Dihedral angle
| 24> end
| 25> end
| 26>
| 27>
| 28> #%pal
| 29> #nprocs 8
| 30> #end
| 31>
| 32> * xyz 0 1
| 33> C  -21.048   26.222   46.251
| 34> C  -20.361   27.558   45.944
| 35> C  -20.329   28.222   47.341
| 36> C  -20.110   27.022   48.296
| 37> O  -20.473   25.807   47.535
| 38> H  -20.833   25.428   45.533
| 39> H  -19.344   27.382   45.576
| 40> H  -20.898   28.157   45.201
| 41> H  -19.543   28.978   47.434
| 42> H  -21.289   28.710   47.548
| 43> H  -20.733   27.082   49.195
| 44> H  -19.064   26.913   48.597
| 45> C  -23.309   26.834   45.072
| 46> H  -24.388   26.677   45.187
| 47> H  -23.136   27.900   44.878
| 48> O  -22.586   26.394   46.375
| 49> C  -22.830   26.042   43.824
| 50> C  -23.188   24.556   43.936
| 51> C  -24.685   24.564   43.547
| 52> C  -24.763   25.677   42.471
| 53> O  -23.543   26.496   42.625
| 54> H  -21.769   26.241   43.659
| 55> O  -22.360   23.731   42.913
| 56> H  -23.010   24.144   44.935
| 57> H  -25.032   23.596   43.172
| 58> H  -25.298   24.825   44.418
| 59> H  -25.643   26.317   42.594
| 60> H  -24.757   25.275   41.455
| 61> H  -22.523   24.125   41.903
| 62> *
| 63>
| 64>                          ****END OF INPUT****
 Total Charge           Charge          ....    0
 Multiplicity           Mult            ....    1
 Number of Electrons    NEL             ....  102
FINAL SINGLE POINT ENERGY      -652.832590000482
FINAL SINGLE POINT ENERGY      -652.854281995871
FINAL SINGLE POINT ENERGY      -652.857964619970
FINAL SINGLE POINT ENERGY      -652.858527186186
FINAL SINGLE POINT ENERGY      -652.858610557935
FINAL SINGLE POINT ENERGY      -652.858621455165
                    ***********************HURRAY********************

CARTESIAN COORDINATES (ANGSTROEM)
---------------------------------
  C    -21.044673   26.216304   46.205719
  C    -20.283818   27.509910   45.921995
  C    -20.347578   28.228009   47.292651
  C    -20.262098   27.059057   48.295237
  O    -20.611274   25.839370   47.518941
  H    -20.819903   25.379838   45.539532
  H    -19.248865   27.264335   45.656476
  H    -20.710450   28.104977   45.109484
  H    -19.536934   28.951135   47.423532
  H    -21.301068   28.754778   47.393019
  H    -20.961897   27.152457   49.129139
  H    -19.251334   26.902071   48.682785
  C    -23.206896   26.827116   45.082467
  H    -24.261327   26.683798   45.333720
  H    -23.053712   27.894435   44.871668
  O    -22.489918   26.429525   46.288828
  C    -22.835644   26.041457   43.819333
  C    -23.150128   24.539259   43.866662
  C    -24.670046   24.528557   43.564671
  C    -24.841841   25.695935   42.560892
  O    -23.628686   26.544147   42.690830
  H    -21.788436   26.209279   43.550544
  O    -22.382458   23.817833   42.864410
  H    -22.900872   24.072965   44.819503
  H    -24.974305   23.563748   43.151838
  H    -25.239757   24.701855   44.483513
  H    -25.725672   26.307849   42.764275
  H    -24.884188   25.355640   41.521830
  H    -22.431224   24.299360   42.011507

 Multiplicity           Mult            ....    1
 Number of Electrons    NEL             ....  102
 Basis Dimension        Dim             ....  149

ORBITAL ENERGIES
----------------

  NO   OCC          E(Eh)            E(eV)
   0   2.0000     -19.150950      -521.1238
   1   2.0000     -19.142396      -520.8911
   2   2.0000     -19.141280      -520.8607
   3   2.0000     -19.140200      -520.8313
   4   2.0000     -10.279934      -279.7312
   5   2.0000     -10.242322      -278.7077
   6   2.0000     -10.239355      -278.6270
   7   2.0000     -10.236288      -278.5436
   8   2.0000     -10.233165      -278.4586
   9   2.0000     -10.224700      -278.2282
  10   2.0000     -10.191974      -277.3377
  11   2.0000     -10.188701      -277.2487
  12   2.0000     -10.187494      -277.2158
  13   2.0000      -1.053253       -28.6605
  14   2.0000      -1.041091       -28.3295
  15   2.0000      -1.010221       -27.4895
  16   2.0000      -0.993453       -27.0332
  17   2.0000      -0.787556       -21.4305
  18   2.0000      -0.783591       -21.3226
  19   2.0000      -0.769640       -20.9430
  20   2.0000      -0.736754       -20.0481
  21   2.0000      -0.679586       -18.4925
  22   2.0000      -0.610135       -16.6026
  23   2.0000      -0.606398       -16.5009
  24   2.0000      -0.600441       -16.3388
  25   2.0000      -0.571762       -15.5584
  26   2.0000      -0.528564       -14.3830
  27   2.0000      -0.515112       -14.0169
  28   2.0000      -0.500735       -13.6257
  29   2.0000      -0.488680       -13.2977
  30   2.0000      -0.475812       -12.9475
  31   2.0000      -0.462653       -12.5894
  32   2.0000      -0.453027       -12.3275
  33   2.0000      -0.438946       -11.9443
  34   2.0000      -0.424308       -11.5460
  35   2.0000      -0.416589       -11.3360
  36   2.0000      -0.404780       -11.0146
  37   2.0000      -0.397362       -10.8128
  38   2.0000      -0.377693       -10.2776
  39   2.0000      -0.372481       -10.1357
  40   2.0000      -0.365387        -9.9427
  41   2.0000      -0.359101        -9.7716
  42   2.0000      -0.355945        -9.6857
  43   2.0000      -0.336163        -9.1475
  44   2.0000      -0.316121        -8.6021
  45   2.0000      -0.311692        -8.4816
  46   2.0000      -0.306553        -8.3417
  47   2.0000      -0.273307        -7.4371
  48   2.0000      -0.264139        -7.1876
  49   2.0000      -0.257694        -7.0122
  50   2.0000      -0.243990        -6.6393
  51   0.0000       0.060096         1.6353
  52   0.0000       0.071749         1.9524
  53   0.0000       0.087503         2.3811
  54   0.0000       0.094569         2.5734
  55   0.0000       0.100077         2.7232

MULLIKEN ATOMIC CHARGES
-----------------------
   0 C :    0.291433
   1 C :   -0.281638
   2 C :   -0.296852
   3 C :   -0.001188
   4 O :   -0.503914
   5 H :    0.156453
   6 H :    0.149847
   7 H :    0.145534
   8 H :    0.143036
   9 H :    0.159296
  10 H :    0.154734
  11 H :    0.142745
  12 C :   -0.012977
  13 H :    0.152658
  14 H :    0.143585
  15 O :   -0.513077
  16 C :    0.036181
  17 C :    0.087465
  18 C :   -0.303032
  19 C :   -0.029269
  20 O :   -0.529572
  21 H :    0.158459
  22 O :   -0.604789
  23 H :    0.177340
  24 H :    0.163474
  25 H :    0.154886
  26 H :    0.148484
  27 H :    0.147803
  28 H :    0.362895
Sum of atomic charges:   -0.0000000

LOEWDIN ATOMIC CHARGES
----------------------
   0 C :    0.175000
   1 C :   -0.232812
   2 C :   -0.215932
   3 C :   -0.024594
   4 O :   -0.301530
   5 H :    0.101958
   6 H :    0.117166
   7 H :    0.114607
   8 H :    0.114857
   9 H :    0.117326
  10 H :    0.109776
  11 H :    0.103063
  12 C :   -0.045657
  13 H :    0.113706
  14 H :    0.100134
  15 O :   -0.333604
  16 C :   -0.001377
  17 C :    0.034821
  18 C :   -0.239889
  19 C :   -0.037369
  20 O :   -0.329299
  21 H :    0.110244
  22 O :   -0.414483
  23 H :    0.126529
  24 H :    0.127926
  25 H :    0.118552
  26 H :    0.105448
  27 H :    0.103355
  28 H :    0.282080

  Mayer bond orders larger than 0.100000
B(  0-C ,  1-C ) :   0.9270 B(  0-C ,  4-O ) :   0.9331 B(  0-C ,  5-H ) :   0.9141
B(  0-C , 15-O ) :   0.8284 B(  1-C ,  2-C ) :   0.9502 B(  1-C ,  6-H ) :   0.9343
B(  1-C ,  7-H ) :   0.9317 B(  2-C ,  3-C ) :   0.9559 B(  2-C ,  8-H ) :   0.9450
B(  2-C ,  9-H ) :   0.9452 B(  3-C ,  4-O ) :   0.8347 B(  3-C , 10-H ) :   0.9346
B(  3-C , 11-H ) :   0.9397 B( 12-C , 13-H ) :   0.9372 B( 12-C , 14-H ) :   0.9118
B( 12-C , 15-O ) :   0.8488 B( 12-C , 16-C ) :   0.8798 B( 16-C , 17-C ) :   0.9014
B( 16-C , 20-O ) :   0.8352 B( 16-C , 21-H ) :   0.9236 B( 17-C , 18-C ) :   0.9146
B( 17-C , 22-O ) :   0.8859 B( 17-C , 23-H ) :   0.9240 B( 18-C , 19-C ) :   0.9408
B( 18-C , 24-H ) :   0.9378 B( 18-C , 25-H ) :   0.9326 B( 19-C , 20-O ) :   0.8415
B( 19-C , 26-H ) :   0.9352 B( 19-C , 27-H ) :   0.9379 B( 22-O , 28-H ) :   0.7963

FINAL SINGLE POINT ENERGY      -652.858624028283

DIPOLE MOMENT
-------------
                                X             Y             Z
Electronic contribution:      0.12185      -3.11371      -0.86948
Nuclear contribution   :     -0.41470       3.98995       0.49542
                        -----------------------------------------
Total Dipole Moment    :     -0.29285       0.87624      -0.37406
                        -----------------------------------------
Magnitude (a.u.)       :      0.99673
Magnitude (Debye)      :      2.53350

Rotational constants in cm-1:     0.061241     0.012914     0.012245
Rotational constants in MHz :  1835.948240   387.158981   367.094138

                             ****ORCA TERMINATED NORMALLY****
TOTAL RUN TIME: 0 days 0 hours 20 minutes 33 seconds 60 msec
