                         Program Version 4.2.0 -  RELEASE  -
|  1> # Test redundant internal optimization
|  2> #
|  3> ! RKS B3LYP  Opt TightSCF SmallPrint
|  4>
|  5> %basis
|  6>         Basis "6-31G"
|  7> end
|  8>
|  9> %geom
| 10> Constraints
| 11> { D 4  0  15  12  210.0   C } # D for Dihedral angle
| 12> { D 0  15  12  16  120.0   C } # D for Dihedral angle
| 13> { D 0  4  3  2   C } # D for Dihedral angle
| 14> { D 4  3  2  1   C } # D for Dihedral angle
| 15> { D 3  2  1  0   C } # D for Dihedral angle
| 16> { D 2  1  0  4   C } # D for Dihedral angle
| 17> { D 1  0  4  3   C } # D for Dihedral angle
| 18> { D 16  20  19  18   C } # D for Dihedral angle
| 19> { D 20  19  18  17   C } # D for Dihedral angle
| 20> { D 19  18  17  16   C } # D for Dihedral angle
| 21> { D 18  17  16  20   C } # D for Dihedral angle
| 22> { D 17  16  20  19   C } # D for Dihedral angle
| 23> { D 15  12  16  20   C } # D for Dihedral angle
| 24> end
| 25> end
| 26>
| 27>
| 28> #%pal
| 29> #nprocs 8
| 30> #end
| 31>
| 32> * xyz 0 1
| 33> C  -21.048   26.222   46.251
| 34> C  -20.361   27.558   45.944
| 35> C  -20.329   28.222   47.341
| 36> C  -20.110   27.022   48.296
| 37> O  -20.473   25.807   47.535
| 38> H  -20.833   25.428   45.533
| 39> H  -19.344   27.382   45.576
| 40> H  -20.898   28.157   45.201
| 41> H  -19.543   28.978   47.434
| 42> H  -21.289   28.710   47.548
| 43> H  -20.733   27.082   49.195
| 44> H  -19.064   26.913   48.597
| 45> C  -23.389   26.110   45.076
| 46> H  -23.933   27.017   44.782
| 47> H  -22.711   25.836   44.258
| 48> O  -22.586   26.394   46.375
| 49> C  -24.417   24.957   45.245
| 50> C  -25.509   25.329   46.255
| 51> C  -26.431   26.232   45.402
| 52> C  -26.352   25.587   43.996
| 53> O  -25.145   24.733   43.992
| 54> H  -23.883   24.033   45.475
| 55> O  -26.264   24.052   46.715
| 56> H  -25.119   25.837   47.144
| 57> H  -27.455   26.275   45.785
| 58> H  -26.038   27.256   45.381
| 59> H  -26.267   26.331   43.197
| 60> H  -27.207   24.939   43.786
| 61> H  -26.665   23.526   45.841
| 62> *
| 63>
| 64>                          ****END OF INPUT****
 Total Charge           Charge          ....    0
 Multiplicity           Mult            ....    1
 Number of Electrons    NEL             ....  102
FINAL SINGLE POINT ENERGY      -652.836285327220
FINAL SINGLE POINT ENERGY      -652.858654236271
FINAL SINGLE POINT ENERGY      -652.861827460885
FINAL SINGLE POINT ENERGY      -652.862393583420
FINAL SINGLE POINT ENERGY      -652.862480175635
FINAL SINGLE POINT ENERGY      -652.862490987066
FINAL SINGLE POINT ENERGY      -652.862493335078
                    ***********************HURRAY********************

CARTESIAN COORDINATES (ANGSTROEM)
---------------------------------
  C    -21.121250   26.184123   46.166855
  C    -20.390508   27.502457   45.923342
  C    -20.457520   28.168901   47.318301
  C    -20.338803   26.967746   48.279575
  O    -20.669093   25.768929   47.462588
  H    -20.889258   25.380028   45.460779
  H    -19.351918   27.295757   45.638131
  H    -20.853885   28.104345   45.136656
  H    -19.664445   28.906838   47.470889
  H    -21.423947   28.666673   47.441885
  H    -21.033747   27.016083   49.121256
  H    -19.321911   26.818991   48.654196
  C    -23.308495   26.152438   44.990806
  H    -23.795643   27.087959   44.691565
  H    -22.645007   25.842151   44.173279
  O    -22.562921   26.389889   46.219638
  C    -24.336006   25.047300   45.239981
  C    -25.405906   25.385058   46.288635
  C    -26.387044   26.255726   45.464912
  C    -26.337206   25.613059   44.056264
  O    -25.097663   24.795494   44.010147
  H    -23.818160   24.118899   45.497772
  O    -26.046718   24.176169   46.783418
  H    -24.996295   25.884889   47.164470
  H    -27.385954   26.234430   45.907469
  H    -26.045348   27.296340   45.440929
  H    -26.304678   26.352422   43.249800
  H    -27.176061   24.934596   43.873726
  H    -26.230609   23.577309   46.028735

 Multiplicity           Mult            ....    1
 Number of Electrons    NEL             ....  102
 Basis Dimension        Dim             ....  149

ORBITAL ENERGIES
----------------

  NO   OCC          E(Eh)            E(eV)
   0   2.0000     -19.144699      -520.9537
   1   2.0000     -19.144012      -520.9351
   2   2.0000     -19.141718      -520.8726
   3   2.0000     -19.132196      -520.6135
   4   2.0000     -10.282564      -279.8028
   5   2.0000     -10.234053      -278.4827
   6   2.0000     -10.233131      -278.4576
   7   2.0000     -10.231444      -278.4118
   8   2.0000     -10.231008      -278.3999
   9   2.0000     -10.225826      -278.2589
  10   2.0000     -10.187745      -277.2226
  11   2.0000     -10.187425      -277.2139
  12   2.0000     -10.186340      -277.1844
  13   2.0000      -1.054793       -28.7024
  14   2.0000      -1.034361       -28.1464
  15   2.0000      -1.002152       -27.2700
  16   2.0000      -0.996743       -27.1228
  17   2.0000      -0.788904       -21.4672
  18   2.0000      -0.777996       -21.1703
  19   2.0000      -0.766882       -20.8679
  20   2.0000      -0.731417       -19.9029
  21   2.0000      -0.675577       -18.3834
  22   2.0000      -0.602407       -16.3923
  23   2.0000      -0.601874       -16.3778
  24   2.0000      -0.595044       -16.1920
  25   2.0000      -0.579361       -15.7652
  26   2.0000      -0.520846       -14.1730
  27   2.0000      -0.518951       -14.1214
  28   2.0000      -0.496844       -13.5198
  29   2.0000      -0.490089       -13.3360
  30   2.0000      -0.469244       -12.7688
  31   2.0000      -0.456769       -12.4293
  32   2.0000      -0.453896       -12.3511
  33   2.0000      -0.440814       -11.9951
  34   2.0000      -0.425285       -11.5726
  35   2.0000      -0.413181       -11.2432
  36   2.0000      -0.400242       -10.8911
  37   2.0000      -0.390640       -10.6299
  38   2.0000      -0.375352       -10.2139
  39   2.0000      -0.366169        -9.9640
  40   2.0000      -0.359883        -9.7929
  41   2.0000      -0.356231        -9.6935
  42   2.0000      -0.354273        -9.6403
  43   2.0000      -0.331264        -9.0141
  44   2.0000      -0.314950        -8.5702
  45   2.0000      -0.313343        -8.5265
  46   2.0000      -0.300929        -8.1887
  47   2.0000      -0.275900        -7.5076
  48   2.0000      -0.261849        -7.1253
  49   2.0000      -0.255182        -6.9439
  50   2.0000      -0.240586        -6.5467
  51   0.0000       0.065859         1.7921
  52   0.0000       0.073658         2.0043
  53   0.0000       0.095189         2.5902
  54   0.0000       0.099102         2.6967
  55   0.0000       0.105037         2.8582

MULLIKEN ATOMIC CHARGES
-----------------------
   0 C :    0.293911
   1 C :   -0.261127
   2 C :   -0.299708
   3 C :   -0.002488
   4 O :   -0.500873
   5 H :    0.141736
   6 H :    0.144442
   7 H :    0.143429
   8 H :    0.142665
   9 H :    0.160642
  10 H :    0.155790
  11 H :    0.142695
  12 C :   -0.023682
  13 H :    0.137223
  14 H :    0.142849
  15 O :   -0.517003
  16 C :    0.063768
  17 C :    0.097179
  18 C :   -0.305623
  19 C :   -0.030722
  20 O :   -0.528330
  21 H :    0.164512
  22 O :   -0.602930
  23 H :    0.178334
  24 H :    0.163307
  25 H :    0.146369
  26 H :    0.145428
  27 H :    0.146745
  28 H :    0.361459
Sum of atomic charges:   -0.0000000

LOEWDIN ATOMIC CHARGES
----------------------
   0 C :    0.179906
   1 C :   -0.227675
   2 C :   -0.216846
   3 C :   -0.025016
   4 O :   -0.304987
   5 H :    0.097777
   6 H :    0.113599
   7 H :    0.115221
   8 H :    0.114703
   9 H :    0.118468
  10 H :    0.110099
  11 H :    0.102985
  12 C :   -0.041131
  13 H :    0.099606
  14 H :    0.104958
  15 O :   -0.338961
  16 C :    0.011756
  17 C :    0.039977
  18 C :   -0.243063
  19 C :   -0.038549
  20 O :   -0.333784
  21 H :    0.118094
  22 O :   -0.414116
  23 H :    0.129392
  24 H :    0.126951
  25 H :    0.113808
  26 H :    0.103149
  27 H :    0.102865
  28 H :    0.280816

  Mayer bond orders larger than 0.100000
B(  0-C ,  1-C ) :   0.9325 B(  0-C ,  4-O ) :   0.9422 B(  0-C ,  5-H ) :   0.9185
B(  0-C , 15-O ) :   0.8262 B(  1-C ,  2-C ) :   0.9544 B(  1-C ,  6-H ) :   0.9341
B(  1-C ,  7-H ) :   0.9386 B(  2-C ,  3-C ) :   0.9552 B(  2-C ,  8-H ) :   0.9450
B(  2-C ,  9-H ) :   0.9441 B(  3-C ,  4-O ) :   0.8344 B(  3-C , 10-H ) :   0.9343
B(  3-C , 11-H ) :   0.9397 B( 12-C , 13-H ) :   0.9310 B( 12-C , 14-H ) :   0.9185
B( 12-C , 15-O ) :   0.8338 B( 12-C , 16-C ) :   0.8903 B( 16-C , 17-C ) :   0.9164
B( 16-C , 20-O ) :   0.8399 B( 16-C , 21-H ) :   0.9266 B( 17-C , 18-C ) :   0.9120
B( 17-C , 22-O ) :   0.8885 B( 17-C , 23-H ) :   0.9235 B( 18-C , 19-C ) :   0.9415
B( 18-C , 24-H ) :   0.9377 B( 18-C , 25-H ) :   0.9341 B( 19-C , 20-O ) :   0.8443
B( 19-C , 26-H ) :   0.9356 B( 19-C , 27-H ) :   0.9381 B( 22-O , 28-H ) :   0.7965

FINAL SINGLE POINT ENERGY      -652.862493483132

DIPOLE MOMENT
-------------
                                X             Y             Z
Electronic contribution:     -1.25464      -5.60812       0.48950
Nuclear contribution   :      1.53184       6.92834      -1.24053
                        -----------------------------------------
Total Dipole Moment    :      0.27721       1.32022      -0.75103
                        -----------------------------------------
Magnitude (a.u.)       :      1.54398
Magnitude (Debye)      :      3.92449

Rotational constants in cm-1:     0.059091     0.011878     0.011206
Rotational constants in MHz :  1771.516799   356.102245   335.948551

                             ****ORCA TERMINATED NORMALLY****
TOTAL RUN TIME: 0 days 2 hours 11 minutes 46 seconds 359 msec
