                         Program Version 4.2.0 -  RELEASE  -
|  1> # Test redundant internal optimization
|  2> #
|  3> ! RKS B3LYP  Opt TightSCF SmallPrint
|  4>
|  5> %basis
|  6>         Basis "6-31G"
|  7> end
|  8>
|  9> %geom
| 10> Constraints
| 11> { D 4  0  15  12  90.0   C } # D for Dihedral angle
| 12> { D 0  15  12  16  225.0   C } # D for Dihedral angle
| 13> { D 0  4  3  2   C } # D for Dihedral angle
| 14> { D 4  3  2  1   C } # D for Dihedral angle
| 15> { D 3  2  1  0   C } # D for Dihedral angle
| 16> { D 2  1  0  4   C } # D for Dihedral angle
| 17> { D 1  0  4  3   C } # D for Dihedral angle
| 18> { D 16  20  19  18   C } # D for Dihedral angle
| 19> { D 20  19  18  17   C } # D for Dihedral angle
| 20> { D 19  18  17  16   C } # D for Dihedral angle
| 21> { D 18  17  16  20   C } # D for Dihedral angle
| 22> { D 17  16  20  19   C } # D for Dihedral angle
| 23> { D 15  12  16  20   C } # D for Dihedral angle
| 24> end
| 25> end
| 26>
| 27>
| 28> #%pal
| 29> #nprocs 8
| 30> #end
| 31>
| 32> * xyz 0 1
| 33> C  -21.048   26.222   46.251
| 34> C  -20.361   27.558   45.944
| 35> C  -20.329   28.222   47.341
| 36> C  -20.110   27.022   48.296
| 37> O  -20.473   25.807   47.535
| 38> H  -20.833   25.428   45.533
| 39> H  -19.344   27.382   45.576
| 40> H  -20.898   28.157   45.201
| 41> H  -19.543   28.978   47.434
| 42> H  -21.289   28.710   47.548
| 43> H  -20.733   27.082   49.195
| 44> H  -19.064   26.913   48.597
| 45> C  -23.061   27.816   46.783
| 46> H  -22.205   28.387   47.164
| 47> H  -23.470   28.348   45.915
| 48> O  -22.586   26.394   46.375
| 49> C  -24.159   27.789   47.882
| 50> C  -23.618   27.213   49.196
| 51> C  -22.848   28.423   49.776
| 52> C  -23.709   29.633   49.332
| 53> O  -24.569   29.154   48.229
| 54> H  -25.042   27.279   47.494
| 55> H  -24.449   26.932   49.853
| 56> O  -22.714   25.966   48.989
| 57> H  -22.732   28.370   50.863
| 58> H  -21.846   28.478   49.334
| 59> H  -23.101   30.471   48.976
| 60> H  -24.370   29.988   50.127
| 61> H  -21.875   26.225   48.333
| 62> *
| 63>
| 64>                          ****END OF INPUT****
 Total Charge           Charge          ....    0
 Multiplicity           Mult            ....    1
 Number of Electrons    NEL             ....  102
FINAL SINGLE POINT ENERGY      -652.757780166175
FINAL SINGLE POINT ENERGY      -652.820796821505
FINAL SINGLE POINT ENERGY      -652.844152955187
FINAL SINGLE POINT ENERGY      -652.852621614400
FINAL SINGLE POINT ENERGY      -652.855535325894
FINAL SINGLE POINT ENERGY      -652.856761405538
FINAL SINGLE POINT ENERGY      -652.857150740783
FINAL SINGLE POINT ENERGY      -652.857205758740
FINAL SINGLE POINT ENERGY      -652.857217781597
FINAL SINGLE POINT ENERGY      -652.857220796029
                    ***********************HURRAY********************

CARTESIAN COORDINATES (ANGSTROEM)
---------------------------------
  C    -21.133046   26.390346   46.309980
  C    -20.166478   27.467351   45.786893
  C    -19.769453   28.211960   47.099043
  C    -19.745672   27.064333   48.143798
  O    -20.519008   25.943526   47.547044
  H    -21.155369   25.504705   45.673202
  H    -19.297926   26.966597   45.349271
  H    -20.616877   28.117872   45.032683
  H    -18.791315   28.695996   47.016474
  H    -20.493873   28.987369   47.358112
  H    -20.200889   27.327993   49.101608
  H    -18.735322   26.687231   48.320507
  C    -23.115179   27.968092   46.834084
  H    -22.366591   28.668183   47.213291
  H    -23.575285   28.409398   45.944825
  O    -22.529816   26.677871   46.465809
  C    -24.196513   27.742178   47.900037
  C    -23.735583   27.177240   49.260045
  C    -23.121588   28.443789   49.942638
  C    -24.035085   29.577886   49.433505
  O    -24.747683   29.055370   48.233570
  H    -25.008466   27.147294   47.474797
  H    -24.642263   26.904642   49.812023
  O    -22.907960   26.009925   49.304966
  H    -23.120789   28.349165   51.031646
  H    -22.084337   28.575857   49.614225
  H    -23.488979   30.483554   49.149312
  H    -24.806505   29.849403   50.159992
  H    -22.271151   25.941874   48.558619

 Multiplicity           Mult            ....    1
 Number of Electrons    NEL             ....  102
 Basis Dimension        Dim             ....  149

ORBITAL ENERGIES
----------------

  NO   OCC          E(Eh)            E(eV)
   0   2.0000     -19.161730      -521.4172
   1   2.0000     -19.156882      -521.2853
   2   2.0000     -19.140444      -520.8380
   3   2.0000     -19.112547      -520.0788
   4   2.0000     -10.294498      -280.1275
   5   2.0000     -10.241769      -278.6927
   6   2.0000     -10.237788      -278.5844
   7   2.0000     -10.231123      -278.4030
   8   2.0000     -10.230995      -278.3995
   9   2.0000     -10.228261      -278.3251
  10   2.0000     -10.207308      -277.7550
  11   2.0000     -10.206815      -277.7416
  12   2.0000     -10.182900      -277.0908
  13   2.0000      -1.068366       -29.0717
  14   2.0000      -1.025264       -27.8988
  15   2.0000      -1.009288       -27.4641
  16   2.0000      -0.992538       -27.0083
  17   2.0000      -0.802826       -21.8460
  18   2.0000      -0.779136       -21.2014
  19   2.0000      -0.769775       -20.9466
  20   2.0000      -0.739487       -20.1225
  21   2.0000      -0.685890       -18.6640
  22   2.0000      -0.619631       -16.8610
  23   2.0000      -0.605155       -16.4671
  24   2.0000      -0.596683       -16.2366
  25   2.0000      -0.576574       -15.6894
  26   2.0000      -0.533313       -14.5122
  27   2.0000      -0.515974       -14.0404
  28   2.0000      -0.513583       -13.9753
  29   2.0000      -0.490102       -13.3363
  30   2.0000      -0.480991       -13.0884
  31   2.0000      -0.461057       -12.5460
  32   2.0000      -0.441949       -12.0260
  33   2.0000      -0.440800       -11.9948
  34   2.0000      -0.428666       -11.6646
  35   2.0000      -0.424616       -11.5544
  36   2.0000      -0.408990       -11.1292
  37   2.0000      -0.396633       -10.7929
  38   2.0000      -0.392636       -10.6842
  39   2.0000      -0.375685       -10.2229
  40   2.0000      -0.368883       -10.0378
  41   2.0000      -0.360179        -9.8010
  42   2.0000      -0.349202        -9.5023
  43   2.0000      -0.337051        -9.1716
  44   2.0000      -0.332214        -9.0400
  45   2.0000      -0.304767        -8.2931
  46   2.0000      -0.297598        -8.0981
  47   2.0000      -0.278131        -7.5683
  48   2.0000      -0.271169        -7.3789
  49   2.0000      -0.248970        -6.7748
  50   2.0000      -0.237685        -6.4677
  51   0.0000       0.048706         1.3254
  52   0.0000       0.067899         1.8476
  53   0.0000       0.084467         2.2985
  54   0.0000       0.095228         2.5913
  55   0.0000       0.098554         2.6818

MULLIKEN ATOMIC CHARGES
-----------------------
   0 C :    0.299385
   1 C :   -0.286712
   2 C :   -0.313970
   3 C :   -0.028324
   4 O :   -0.510491
   5 H :    0.177612
   6 H :    0.164924
   7 H :    0.157484
   8 H :    0.152615
   9 H :    0.152913
  10 H :    0.160968
  11 H :    0.158553
  12 C :   -0.020829
  13 H :    0.125991
  14 H :    0.161624
  15 O :   -0.538930
  16 C :    0.073502
  17 C :    0.108742
  18 C :   -0.321357
  19 C :   -0.016339
  20 O :   -0.523139
  21 H :    0.164601
  22 H :    0.156595
  23 O :   -0.636543
  24 H :    0.157989
  25 H :    0.133928
  26 H :    0.135640
  27 H :    0.151312
  28 H :    0.402254
Sum of atomic charges:   -0.0000000

LOEWDIN ATOMIC CHARGES
----------------------
   0 C :    0.173080
   1 C :   -0.226452
   2 C :   -0.222135
   3 C :   -0.037566
   4 O :   -0.320222
   5 H :    0.117187
   6 H :    0.127602
   7 H :    0.122870
   8 H :    0.119706
   9 H :    0.108313
  10 H :    0.107900
  11 H :    0.111111
  12 C :   -0.044623
  13 H :    0.094042
  14 H :    0.113991
  15 O :   -0.327076
  16 C :    0.021067
  17 C :    0.042260
  18 C :   -0.245040
  19 C :   -0.033445
  20 O :   -0.324715
  21 H :    0.118167
  22 H :    0.110936
  23 O :   -0.423366
  24 H :    0.123435
  25 H :    0.101183
  26 H :    0.098240
  27 H :    0.107015
  28 H :    0.286531

  Mayer bond orders larger than 0.100000
B(  0-C ,  1-C ) :   0.9246 B(  0-C ,  4-O ) :   0.8674 B(  0-C ,  5-H ) :   0.9318
B(  0-C , 15-O ) :   0.9083 B(  1-C ,  2-C ) :   0.9519 B(  1-C ,  6-H ) :   0.9330
B(  1-C ,  7-H ) :   0.9358 B(  2-C ,  3-C ) :   0.9456 B(  2-C ,  8-H ) :   0.9437
B(  2-C ,  9-H ) :   0.9336 B(  3-C ,  4-O ) :   0.8279 B(  3-C , 10-H ) :   0.9215
B(  3-C , 11-H ) :   0.9385 B( 12-C , 13-H ) :   0.9078 B( 12-C , 14-H ) :   0.9310
B( 12-C , 15-O ) :   0.7971 B( 12-C , 16-C ) :   0.9060 B( 16-C , 17-C ) :   0.8951
B( 16-C , 20-O ) :   0.8424 B( 16-C , 21-H ) :   0.9294 B( 17-C , 18-C ) :   0.9003
B( 17-C , 22-H ) :   0.9307 B( 17-C , 23-O ) :   0.9594 B( 18-C , 19-C ) :   0.9366
B( 18-C , 24-H ) :   0.9433 B( 18-C , 25-H ) :   0.9394 B( 19-C , 20-O ) :   0.8343
B( 19-C , 26-H ) :   0.9346 B( 19-C , 27-H ) :   0.9385 B( 23-O , 28-H ) :   0.7078

FINAL SINGLE POINT ENERGY      -652.857221697578

DIPOLE MOMENT
-------------
                                X             Y             Z
Electronic contribution:     -4.17255      -4.84647      -1.28145
Nuclear contribution   :      5.55633       6.15737       0.78864
                        -----------------------------------------
Total Dipole Moment    :      1.38378       1.31090      -0.49281
                        -----------------------------------------
Magnitude (a.u.)       :      1.96879
Magnitude (Debye)      :      5.00428

Rotational constants in cm-1:     0.044047     0.018091     0.017484
Rotational constants in MHz :  1320.509790   542.340032   524.155100

                             ****ORCA TERMINATED NORMALLY****
TOTAL RUN TIME: 0 days 1 hours 2 minutes 1 seconds 990 msec
