                         Program Version 4.2.0 -  RELEASE  -
|  1> # Test redundant internal optimization
|  2> #
|  3> ! RKS B3LYP  Opt TightSCF SmallPrint
|  4>
|  5> %basis
|  6>         Basis "6-31G"
|  7> end
|  8>
|  9> %geom
| 10> Constraints
| 11> { D 4  0  15  12  165.0   C } # D for Dihedral angle
| 12> { D 0  15  12  16  195.0   C } # D for Dihedral angle
| 13> { D 0  4  3  2   C } # D for Dihedral angle
| 14> { D 4  3  2  1   C } # D for Dihedral angle
| 15> { D 3  2  1  0   C } # D for Dihedral angle
| 16> { D 2  1  0  4   C } # D for Dihedral angle
| 17> { D 1  0  4  3   C } # D for Dihedral angle
| 18> { D 16  20  19  18   C } # D for Dihedral angle
| 19> { D 20  19  18  17   C } # D for Dihedral angle
| 20> { D 19  18  17  16   C } # D for Dihedral angle
| 21> { D 18  17  16  20   C } # D for Dihedral angle
| 22> { D 17  16  20  19   C } # D for Dihedral angle
| 23> { D 15  12  16  20   C } # D for Dihedral angle
| 24> end
| 25> end
| 26>
| 27>
| 28> #%pal
| 29> #nprocs 8
| 30> #end
| 31>
| 32> * xyz 0 1
| 33> C  -21.048   26.222   46.251
| 34> C  -20.361   27.558   45.944
| 35> C  -20.329   28.222   47.341
| 36> C  -20.110   27.022   48.296
| 37> O  -20.473   25.807   47.535
| 38> H  -20.833   25.428   45.533
| 39> H  -19.344   27.382   45.576
| 40> H  -20.898   28.157   45.201
| 41> H  -19.543   28.978   47.434
| 42> H  -21.289   28.710   47.548
| 43> H  -20.733   27.082   49.195
| 44> H  -19.064   26.913   48.597
| 45> C  -23.260   27.170   45.210
| 46> H  -22.660   28.057   44.972
| 47> H  -23.315   26.542   44.312
| 48> O  -22.586   26.394   46.375
| 49> C  -24.703   27.633   45.553
| 50> C  -25.378   28.292   44.345
| 51> C  -25.805   27.059   43.513
| 52> C  -26.178   26.017   44.597
| 53> O  -25.554   26.478   45.856
| 54> H  -24.676   28.255   46.450
| 55> O  -26.621   29.102   44.804
| 56> H  -24.711   28.965   43.794
| 57> H  -26.638   27.272   42.835
| 58> H  -24.963   26.703   42.908
| 59> H  -25.806   25.013   44.359
| 60> H  -27.256   25.963   44.772
| 61> H  -27.303   28.447   45.358
| 62> *
| 63>
| 64>                          ****END OF INPUT****
 Total Charge           Charge          ....    0
 Multiplicity           Mult            ....    1
 Number of Electrons    NEL             ....  102
FINAL SINGLE POINT ENERGY      -652.824519727291
FINAL SINGLE POINT ENERGY      -652.848146462557
FINAL SINGLE POINT ENERGY      -652.852724312891
FINAL SINGLE POINT ENERGY      -652.853524865242
FINAL SINGLE POINT ENERGY      -652.853641680392
FINAL SINGLE POINT ENERGY      -652.853656781832
                    ***********************HURRAY********************

CARTESIAN COORDINATES (ANGSTROEM)
---------------------------------
  C    -21.073803   26.266156   46.169922
  C    -20.272283   27.546980   45.938648
  C    -20.405064   28.264710   47.307649
  C    -20.402167   27.087465   48.304938
  O    -20.726026   25.880235   47.505574
  H    -20.816475   25.432518   45.509178
  H    -19.229049   27.268031   45.749659
  H    -20.606886   28.157452   45.096780
  H    -19.589350   28.970533   47.490145
  H    -21.351707   28.811819   47.355666
  H    -21.147966   27.191197   49.096931
  H    -19.418896   26.912290   48.751660
  C    -23.144642   27.158271   45.062942
  H    -22.607870   28.084515   44.813298
  H    -23.158887   26.521995   44.164415
  O    -22.523477   26.456563   46.165721
  C    -24.561206   27.534286   45.494641
  C    -25.370695   28.258217   44.409563
  C    -25.903564   27.069317   43.566117
  C    -26.152840   25.972582   44.631522
  O    -25.378237   26.368473   45.832079
  H    -24.492745   28.132981   46.407760
  O    -26.453944   29.025555   45.002788
  H    -24.794722   28.978137   43.825916
  H    -26.808896   27.355430   43.024918
  H    -25.149727   26.754297   42.836090
  H    -25.822913   24.981703   44.305972
  H    -27.203734   25.909279   44.930741
  H    -26.870230   28.492013   45.712766

 Multiplicity           Mult            ....    1
 Number of Electrons    NEL             ....  102
 Basis Dimension        Dim             ....  149

ORBITAL ENERGIES
----------------

  NO   OCC          E(Eh)            E(eV)
   0   2.0000     -19.140041      -520.8270
   1   2.0000     -19.139975      -520.8252
   2   2.0000     -19.138659      -520.7894
   3   2.0000     -19.138268      -520.7788
   4   2.0000     -10.280039      -279.7341
   5   2.0000     -10.244744      -278.7737
   6   2.0000     -10.235675      -278.5269
   7   2.0000     -10.235491      -278.5219
   8   2.0000     -10.229407      -278.3563
   9   2.0000     -10.224785      -278.2305
  10   2.0000     -10.191621      -277.3281
  11   2.0000     -10.190756      -277.3046
  12   2.0000     -10.190087      -277.2864
  13   2.0000      -1.052829       -28.6489
  14   2.0000      -1.036884       -28.2150
  15   2.0000      -1.006995       -27.4017
  16   2.0000      -0.991572       -26.9820
  17   2.0000      -0.789113       -21.4729
  18   2.0000      -0.785627       -21.3780
  19   2.0000      -0.769494       -20.9390
  20   2.0000      -0.732804       -19.9406
  21   2.0000      -0.678064       -18.4511
  22   2.0000      -0.605568       -16.4784
  23   2.0000      -0.604068       -16.4375
  24   2.0000      -0.592663       -16.1272
  25   2.0000      -0.580416       -15.7939
  26   2.0000      -0.525128       -14.2895
  27   2.0000      -0.514309       -13.9951
  28   2.0000      -0.497827       -13.5466
  29   2.0000      -0.494456       -13.4548
  30   2.0000      -0.474725       -12.9179
  31   2.0000      -0.462061       -12.5733
  32   2.0000      -0.452959       -12.3256
  33   2.0000      -0.444228       -12.0881
  34   2.0000      -0.426753       -11.6125
  35   2.0000      -0.413059       -11.2399
  36   2.0000      -0.399730       -10.8772
  37   2.0000      -0.394131       -10.7249
  38   2.0000      -0.377750       -10.2791
  39   2.0000      -0.372991       -10.1496
  40   2.0000      -0.362492        -9.8639
  41   2.0000      -0.360039        -9.7972
  42   2.0000      -0.354443        -9.6449
  43   2.0000      -0.333870        -9.0851
  44   2.0000      -0.312773        -8.5110
  45   2.0000      -0.306707        -8.3459
  46   2.0000      -0.297178        -8.0866
  47   2.0000      -0.272742        -7.4217
  48   2.0000      -0.261013        -7.1025
  49   2.0000      -0.251655        -6.8479
  50   2.0000      -0.242628        -6.6023
  51   0.0000       0.063457         1.7268
  52   0.0000       0.077614         2.1120
  53   0.0000       0.086058         2.3417
  54   0.0000       0.096643         2.6298
  55   0.0000       0.102831         2.7982

MULLIKEN ATOMIC CHARGES
-----------------------
   0 C :    0.316414
   1 C :   -0.297117
   2 C :   -0.297968
   3 C :    0.000280
   4 O :   -0.496284
   5 H :    0.143498
   6 H :    0.152810
   7 H :    0.141545
   8 H :    0.144106
   9 H :    0.155112
  10 H :    0.156864
  11 H :    0.142649
  12 C :   -0.000669
  13 H :    0.119878
  14 H :    0.124287
  15 O :   -0.503802
  16 C :    0.070362
  17 C :    0.075769
  18 C :   -0.295174
  19 C :   -0.026517
  20 O :   -0.504763
  21 H :    0.166342
  22 O :   -0.602916
  23 H :    0.147892
  24 H :    0.163129
  25 H :    0.142286
  26 H :    0.148963
  27 H :    0.146138
  28 H :    0.366887
Sum of atomic charges:   -0.0000000

LOEWDIN ATOMIC CHARGES
----------------------
   0 C :    0.184323
   1 C :   -0.235758
   2 C :   -0.216907
   3 C :   -0.025392
   4 O :   -0.300317
   5 H :    0.098091
   6 H :    0.119206
   7 H :    0.111709
   8 H :    0.115206
   9 H :    0.114068
  10 H :    0.110792
  11 H :    0.102873
  12 C :   -0.044648
  13 H :    0.090557
  14 H :    0.090467
  15 O :   -0.322728
  16 C :    0.019107
  17 C :    0.034606
  18 C :   -0.241447
  19 C :   -0.037247
  20 O :   -0.315733
  21 H :    0.119312
  22 O :   -0.414857
  23 H :    0.113192
  24 H :    0.126774
  25 H :    0.111593
  26 H :    0.106108
  27 H :    0.102547
  28 H :    0.284503

  Mayer bond orders larger than 0.100000
B(  0-C ,  1-C ) :   0.9276 B(  0-C ,  4-O ) :   0.9386 B(  0-C ,  5-H ) :   0.9225
B(  0-C , 15-O ) :   0.8356 B(  1-C ,  2-C ) :   0.9501 B(  1-C ,  6-H ) :   0.9334
B(  1-C ,  7-H ) :   0.9280 B(  2-C ,  3-C ) :   0.9545 B(  2-C ,  8-H ) :   0.9450
B(  2-C ,  9-H ) :   0.9455 B(  3-C ,  4-O ) :   0.8362 B(  3-C , 10-H ) :   0.9340
B(  3-C , 11-H ) :   0.9396 B( 12-C , 13-H ) :   0.8983 B( 12-C , 14-H ) :   0.9155
B( 12-C , 15-O ) :   0.8514 B( 12-C , 16-C ) :   0.8990 B( 16-C , 17-C ) :   0.8995
B( 16-C , 20-O ) :   0.8718 B( 16-C , 21-H ) :   0.9239 B( 17-C , 18-C ) :   0.9105
B( 17-C , 22-O ) :   0.8942 B( 17-C , 23-H ) :   0.9333 B( 18-C , 19-C ) :   0.9394
B( 18-C , 24-H ) :   0.9370 B( 18-C , 25-H ) :   0.9345 B( 19-C , 20-O ) :   0.8522
B( 19-C , 26-H ) :   0.9342 B( 19-C , 27-H ) :   0.9377 B( 22-O , 28-H ) :   0.7923

FINAL SINGLE POINT ENERGY      -652.853659916621

DIPOLE MOMENT
-------------
                                X             Y             Z
Electronic contribution:     -2.64276      -2.72125       2.54579
Nuclear contribution   :      3.25966       3.37113      -3.58689
                        -----------------------------------------
Total Dipole Moment    :      0.61690       0.64988      -1.04110
                        -----------------------------------------
Magnitude (a.u.)       :      1.37361
Magnitude (Debye)      :      3.49143

Rotational constants in cm-1:     0.060394     0.011881     0.011305
Rotational constants in MHz :  1810.574928   356.194830   338.914986

                             ****ORCA TERMINATED NORMALLY****
TOTAL RUN TIME: 0 days 0 hours 19 minutes 44 seconds 220 msec
