                         Program Version 4.2.0 -  RELEASE  -
|  1> # Test redundant internal optimization
|  2> #
|  3> ! RKS B3LYP  Opt TightSCF SmallPrint
|  4>
|  5> %basis
|  6>         Basis "6-31G"
|  7> end
|  8>
|  9> %geom
| 10> Constraints
| 11> { D 4  0  15  12  0.0   C } # D for Dihedral angle
| 12> { D 0  15  12  16  180.0   C } # D for Dihedral angle
| 13> { D 0  4  3  2   C } # D for Dihedral angle
| 14> { D 4  3  2  1   C } # D for Dihedral angle
| 15> { D 3  2  1  0   C } # D for Dihedral angle
| 16> { D 2  1  0  4   C } # D for Dihedral angle
| 17> { D 1  0  4  3   C } # D for Dihedral angle
| 18> { D 16  20  19  18   C } # D for Dihedral angle
| 19> { D 20  19  18  17   C } # D for Dihedral angle
| 20> { D 19  18  17  16   C } # D for Dihedral angle
| 21> { D 18  17  16  20   C } # D for Dihedral angle
| 22> { D 17  16  20  19   C } # D for Dihedral angle
| 23> { D 15  12  16  20   C } # D for Dihedral angle
| 24> end
| 25> end
| 26>
| 27>
| 28> #%pal
| 29> #nprocs 8
| 30> #end
| 31>
| 32> * xyz 0 1
| 33> C  -21.048   26.222   46.251
| 34> C  -20.361   27.558   45.944
| 35> C  -20.329   28.222   47.341
| 36> C  -20.110   27.022   48.296
| 37> O  -20.473   25.807   47.535
| 38> H  -20.833   25.428   45.533
| 39> H  -19.344   27.382   45.576
| 40> H  -20.898   28.157   45.201
| 41> H  -19.543   28.978   47.434
| 42> H  -21.289   28.710   47.548
| 43> H  -20.733   27.082   49.195
| 44> H  -19.064   26.913   48.597
| 45> C  -23.172   26.101   47.783
| 46> H  -22.940   25.066   48.063
| 47> H  -22.724   26.767   48.532
| 48> O  -22.586   26.394   46.375
| 49> C  -24.713   26.290   47.844
| 50> C  -25.434   25.275   46.949
| 51> C  -25.400   24.002   47.828
| 52> C  -25.551   24.563   49.265
| 53> O  -25.212   26.001   49.193
| 54> H  -24.954   27.333   47.631
| 55> H  -26.467   25.597   46.773
| 56> O  -24.742   25.076   45.573
| 57> H  -26.191   23.290   47.573
| 58> H  -24.438   23.490   47.712
| 59> H  -24.882   24.072   49.979
| 60> H  -26.577   24.492   49.635
| 61> H  -23.706   24.754   45.725
| 62> *
| 63>
| 64>                          ****END OF INPUT****
 Total Charge           Charge          ....    0
 Multiplicity           Mult            ....    1
 Number of Electrons    NEL             ....  102
FINAL SINGLE POINT ENERGY      -652.829114399046
FINAL SINGLE POINT ENERGY      -652.853151752685
FINAL SINGLE POINT ENERGY      -652.859984113163
FINAL SINGLE POINT ENERGY      -652.862501574145
FINAL SINGLE POINT ENERGY      -652.863984851907
FINAL SINGLE POINT ENERGY      -652.864923368870
FINAL SINGLE POINT ENERGY      -652.865277111492
FINAL SINGLE POINT ENERGY      -652.865367430507
FINAL SINGLE POINT ENERGY      -652.865379988572
                    ***********************HURRAY********************

CARTESIAN COORDINATES (ANGSTROEM)
---------------------------------
  C    -21.089443   26.171668   46.385015
  C    -20.507138   27.518736   45.959712
  C    -20.344274   28.236936   47.319234
  C    -19.962001   27.091410   48.280790
  O    -20.367066   25.833968   47.582326
  H    -20.931023   25.353181   45.680308
  H    -19.535948   27.353579   45.479253
  H    -21.161849   28.051324   45.266609
  H    -19.583820   29.023060   47.290892
  H    -21.293181   28.696734   47.614829
  H    -20.474737   27.135627   49.244762
  H    -18.884328   27.014353   48.448240
  C    -23.104830   26.041778   47.913959
  H    -22.844665   25.036420   48.260196
  H    -22.717126   26.765570   48.637193
  O    -22.541638   26.278210   46.577668
  C    -24.622891   26.222674   47.799573
  C    -25.339555   25.216178   46.882923
  C    -25.420177   23.958747   47.797011
  C    -25.628616   24.560702   49.201534
  O    -25.212892   25.993260   49.116623
  H    -24.844924   27.257385   47.524550
  H    -26.352991   25.586378   46.689079
  O    -24.717249   24.967906   45.608761
  H    -26.231280   23.289944   47.496993
  H    -24.479531   23.403376   47.719198
  H    -25.033580   24.069917   49.977599
  H    -26.678265   24.561164   49.509077
  H    -23.808981   25.353815   45.620094

 Multiplicity           Mult            ....    1
 Number of Electrons    NEL             ....  102
 Basis Dimension        Dim             ....  149

ORBITAL ENERGIES
----------------

  NO   OCC          E(Eh)            E(eV)
   0   2.0000     -19.162155      -521.4287
   1   2.0000     -19.160944      -521.3958
   2   2.0000     -19.138535      -520.7860
   3   2.0000     -19.109750      -520.0027
   4   2.0000     -10.293261      -280.0939
   5   2.0000     -10.241394      -278.6825
   6   2.0000     -10.235559      -278.5237
   7   2.0000     -10.232034      -278.4278
   8   2.0000     -10.227131      -278.2944
   9   2.0000     -10.224215      -278.2150
  10   2.0000     -10.199811      -277.5510
  11   2.0000     -10.196093      -277.4498
  12   2.0000     -10.176147      -276.9070
  13   2.0000      -1.068503       -29.0754
  14   2.0000      -1.024362       -27.8743
  15   2.0000      -1.006857       -27.3980
  16   2.0000      -0.989354       -26.9217
  17   2.0000      -0.800866       -21.7927
  18   2.0000      -0.775298       -21.0969
  19   2.0000      -0.766101       -20.8467
  20   2.0000      -0.737728       -20.0746
  21   2.0000      -0.676908       -18.4196
  22   2.0000      -0.613490       -16.6939
  23   2.0000      -0.599847       -16.3227
  24   2.0000      -0.592853       -16.1324
  25   2.0000      -0.575853       -15.6697
  26   2.0000      -0.533465       -14.5163
  27   2.0000      -0.514776       -14.0078
  28   2.0000      -0.507962       -13.8224
  29   2.0000      -0.486778       -13.2459
  30   2.0000      -0.476609       -12.9692
  31   2.0000      -0.457934       -12.4610
  32   2.0000      -0.441599       -12.0165
  33   2.0000      -0.431580       -11.7439
  34   2.0000      -0.425258       -11.5719
  35   2.0000      -0.422107       -11.4861
  36   2.0000      -0.407499       -11.0886
  37   2.0000      -0.386575       -10.5192
  38   2.0000      -0.384044       -10.4504
  39   2.0000      -0.370952       -10.0941
  40   2.0000      -0.365962        -9.9583
  41   2.0000      -0.361504        -9.8370
  42   2.0000      -0.357105        -9.7173
  43   2.0000      -0.339170        -9.2293
  44   2.0000      -0.333035        -9.0623
  45   2.0000      -0.318794        -8.6748
  46   2.0000      -0.289275        -7.8716
  47   2.0000      -0.276377        -7.5206
  48   2.0000      -0.263425        -7.1682
  49   2.0000      -0.248059        -6.7500
  50   2.0000      -0.239673        -6.5218
  51   0.0000       0.057968         1.5774
  52   0.0000       0.072268         1.9665
  53   0.0000       0.091478         2.4892
  54   0.0000       0.098212         2.6725
  55   0.0000       0.100101         2.7239

MULLIKEN ATOMIC CHARGES
-----------------------
   0 C :    0.307876
   1 C :   -0.256367
   2 C :   -0.311062
   3 C :   -0.021878
   4 O :   -0.507885
   5 H :    0.163610
   6 H :    0.150642
   7 H :    0.164094
   8 H :    0.153121
   9 H :    0.159333
  10 H :    0.153637
  11 H :    0.156658
  12 C :   -0.001418
  13 H :    0.153420
  14 H :    0.151571
  15 O :   -0.579579
  16 C :    0.052791
  17 C :    0.121475
  18 C :   -0.302906
  19 C :   -0.020373
  20 O :   -0.524649
  21 H :    0.154345
  22 H :    0.143806
  23 O :   -0.641724
  24 H :    0.152192
  25 H :    0.146475
  26 H :    0.143259
  27 H :    0.147376
  28 H :    0.392158
Sum of atomic charges:    0.0000000

LOEWDIN ATOMIC CHARGES
----------------------
   0 C :    0.183923
   1 C :   -0.218716
   2 C :   -0.219357
   3 C :   -0.032275
   4 O :   -0.312992
   5 H :    0.109364
   6 H :    0.117137
   7 H :    0.127293
   8 H :    0.120634
   9 H :    0.116458
  10 H :    0.106507
  11 H :    0.110197
  12 C :   -0.039618
  13 H :    0.106306
  14 H :    0.105784
  15 O :   -0.353098
  16 C :    0.019411
  17 C :    0.042211
  18 C :   -0.236980
  19 C :   -0.032211
  20 O :   -0.325680
  21 H :    0.113185
  22 H :    0.103703
  23 O :   -0.437279
  24 H :    0.121188
  25 H :    0.111846
  26 H :    0.102201
  27 H :    0.105354
  28 H :    0.285503

  Mayer bond orders larger than 0.100000
B(  0-C ,  1-C ) :   0.9360 B(  0-C ,  4-O ) :   0.9296 B(  0-C ,  5-H ) :   0.9297
B(  0-C , 15-O ) :   0.7920 B(  1-C ,  2-C ) :   0.9509 B(  1-C ,  6-H ) :   0.9344
B(  1-C ,  7-H ) :   0.9352 B(  2-C ,  3-C ) :   0.9532 B(  2-C ,  8-H ) :   0.9438
B(  2-C ,  9-H ) :   0.9443 B(  3-C ,  4-O ) :   0.8219 B(  3-C , 10-H ) :   0.9305
B(  3-C , 11-H ) :   0.9392 B( 12-C , 13-H ) :   0.9217 B( 12-C , 14-H ) :   0.9200
B( 12-C , 15-O ) :   0.7730 B( 12-C , 16-C ) :   0.9050 B( 15-O , 28-H ) :   0.1006
B( 16-C , 17-C ) :   0.9135 B( 16-C , 20-O ) :   0.8561 B( 16-C , 21-H ) :   0.9294
B( 17-C , 18-C ) :   0.9024 B( 17-C , 22-H ) :   0.9298 B( 17-C , 23-O ) :   0.9359
B( 18-C , 19-C ) :   0.9384 B( 18-C , 24-H ) :   0.9446 B( 18-C , 25-H ) :   0.9427
B( 19-C , 20-O ) :   0.8321 B( 19-C , 26-H ) :   0.9340 B( 19-C , 27-H ) :   0.9390
B( 23-O , 28-H ) :   0.7211

FINAL SINGLE POINT ENERGY      -652.865382404817

DIPOLE MOMENT
-------------
                                X             Y             Z
Electronic contribution:     -1.72188      -1.23829      -1.38690
Nuclear contribution   :      2.81435       1.86717       1.76653
                        -----------------------------------------
Total Dipole Moment    :      1.09247       0.62888       0.37964
                        -----------------------------------------
Magnitude (a.u.)       :      1.31647
Magnitude (Debye)      :      3.34621

Rotational constants in cm-1:     0.053497     0.014287     0.012901
Rotational constants in MHz :  1603.802391   428.304513   386.758953

                             ****ORCA TERMINATED NORMALLY****
TOTAL RUN TIME: 0 days 0 hours 41 minutes 30 seconds 103 msec
