                         Program Version 4.2.0 -  RELEASE  -
|  1> # Test redundant internal optimization
|  2> #
|  3> ! RKS B3LYP  Opt TightSCF SmallPrint
|  4>
|  5> %basis
|  6>         Basis "6-31G"
|  7> end
|  8>
|  9> %geom
| 10> Constraints
| 11> { D 4  0  15  12  135.0   C } # D for Dihedral angle
| 12> { D 0  15  12  16  120.0   C } # D for Dihedral angle
| 13> { D 0  4  3  2   C } # D for Dihedral angle
| 14> { D 4  3  2  1   C } # D for Dihedral angle
| 15> { D 3  2  1  0   C } # D for Dihedral angle
| 16> { D 2  1  0  4   C } # D for Dihedral angle
| 17> { D 1  0  4  3   C } # D for Dihedral angle
| 18> { D 16  20  19  18   C } # D for Dihedral angle
| 19> { D 20  19  18  17   C } # D for Dihedral angle
| 20> { D 19  18  17  16   C } # D for Dihedral angle
| 21> { D 18  17  16  20   C } # D for Dihedral angle
| 22> { D 17  16  20  19   C } # D for Dihedral angle
| 23> { D 15  12  16  20   C } # D for Dihedral angle
| 24> end
| 25> end
| 26>
| 27>
| 28> #%pal
| 29> #nprocs 8
| 30> #end
| 31>
| 32> * xyz 0 1
| 33> C  -21.048   26.222   46.251
| 34> C  -20.361   27.558   45.944
| 35> C  -20.329   28.222   47.341
| 36> C  -20.110   27.022   48.296
| 37> O  -20.473   25.807   47.535
| 38> H  -20.833   25.428   45.533
| 39> H  -19.344   27.382   45.576
| 40> H  -20.898   28.157   45.201
| 41> H  -19.543   28.978   47.434
| 42> H  -21.289   28.710   47.548
| 43> H  -20.733   27.082   49.195
| 44> H  -19.064   26.913   48.597
| 45> C  -23.162   27.680   45.721
| 46> H  -23.653   28.289   46.490
| 47> H  -22.356   28.277   45.273
| 48> O  -22.586   26.394   46.375
| 49> C  -24.198   27.373   44.604
| 50> C  -24.658   28.656   43.904
| 51> C  -23.475   28.930   42.944
| 52> C  -23.021   27.508   42.531
| 53> O  -23.582   26.579   43.536
| 54> H  -25.008   26.772   45.024
| 55> O  -25.962   28.390   43.104
| 56> H  -24.841   29.483   44.598
| 57> H  -23.761   29.543   42.083
| 58> H  -22.672   29.453   43.476
| 59> H  -21.930   27.404   42.516
| 60> H  -23.420   27.208   41.558
| 61> H  -25.801   27.564   42.402
| 62> *
| 63>
| 64>                          ****END OF INPUT****
 Total Charge           Charge          ....    0
 Multiplicity           Mult            ....    1
 Number of Electrons    NEL             ....  102
FINAL SINGLE POINT ENERGY      -652.816283839748
FINAL SINGLE POINT ENERGY      -652.840401981134
FINAL SINGLE POINT ENERGY      -652.849300101648
FINAL SINGLE POINT ENERGY      -652.851328502792
FINAL SINGLE POINT ENERGY      -652.851705702254
FINAL SINGLE POINT ENERGY      -652.851758243746
                    ***********************HURRAY********************

CARTESIAN COORDINATES (ANGSTROEM)
---------------------------------
  C    -21.096216   26.317965   46.235165
  C    -20.146893   27.497837   46.016171
  C    -20.136575   28.169789   47.415204
  C    -20.246082   26.958764   48.369289
  O    -20.748860   25.835473   47.545450
  H    -20.954260   25.481177   45.549835
  H    -19.157342   27.090661   45.780396
  H    -20.422516   28.174755   45.204600
  H    -19.230106   28.757480   47.588891
  H    -20.998569   28.837105   47.526981
  H    -20.938612   27.127492   49.198313
  H    -19.275623   26.649027   48.768130
  C    -23.106266   27.818104   45.675072
  H    -23.653206   28.337154   46.474061
  H    -22.349324   28.504501   45.279675
  O    -22.521454   26.620514   46.234440
  C    -24.083837   27.410174   44.571967
  C    -24.763897   28.577171   43.843163
  C    -23.678532   28.976555   42.809848
  C    -23.035236   27.618260   42.432801
  O    -23.404558   26.664123   43.506070
  H    -24.819236   26.722843   45.000526
  O    -25.991587   28.145512   43.195872
  H    -25.057705   29.398994   44.498192
  H    -24.127839   29.488383   41.955382
  H    -22.947373   29.653024   43.268273
  H    -21.944096   27.672016   42.359670
  H    -23.425855   27.216250   41.493287
  H    -25.849344   27.262898   42.793277

 Multiplicity           Mult            ....    1
 Number of Electrons    NEL             ....  102
 Basis Dimension        Dim             ....  149

ORBITAL ENERGIES
----------------

  NO   OCC          E(Eh)            E(eV)
   0   2.0000     -19.144912      -520.9595
   1   2.0000     -19.140706      -520.8451
   2   2.0000     -19.136319      -520.7257
   3   2.0000     -19.134385      -520.6731
   4   2.0000     -10.278015      -279.6790
   5   2.0000     -10.245688      -278.7994
   6   2.0000     -10.236333      -278.5448
   7   2.0000     -10.234510      -278.4952
   8   2.0000     -10.233697      -278.4731
   9   2.0000     -10.225789      -278.2579
  10   2.0000     -10.194420      -277.4043
  11   2.0000     -10.194036      -277.3938
  12   2.0000     -10.193854      -277.3889
  13   2.0000      -1.049568       -28.5602
  14   2.0000      -1.037966       -28.2445
  15   2.0000      -1.008817       -27.4513
  16   2.0000      -0.989254       -26.9190
  17   2.0000      -0.790735       -21.5170
  18   2.0000      -0.787540       -21.4301
  19   2.0000      -0.771473       -20.9929
  20   2.0000      -0.733888       -19.9701
  21   2.0000      -0.681447       -18.5431
  22   2.0000      -0.608059       -16.5461
  23   2.0000      -0.604870       -16.4594
  24   2.0000      -0.598475       -16.2853
  25   2.0000      -0.575989       -15.6735
  26   2.0000      -0.530290       -14.4299
  27   2.0000      -0.506123       -13.7723
  28   2.0000      -0.505757       -13.7624
  29   2.0000      -0.492619       -13.4048
  30   2.0000      -0.480617       -13.0783
  31   2.0000      -0.462060       -12.5733
  32   2.0000      -0.453381       -12.3371
  33   2.0000      -0.442758       -12.0481
  34   2.0000      -0.429385       -11.6842
  35   2.0000      -0.409587       -11.1454
  36   2.0000      -0.404574       -11.0090
  37   2.0000      -0.397438       -10.8148
  38   2.0000      -0.382254       -10.4017
  39   2.0000      -0.375824       -10.2267
  40   2.0000      -0.366653        -9.9771
  41   2.0000      -0.358620        -9.7586
  42   2.0000      -0.354870        -9.6565
  43   2.0000      -0.334260        -9.0957
  44   2.0000      -0.312679        -8.5084
  45   2.0000      -0.309665        -8.4264
  46   2.0000      -0.291040        -7.9196
  47   2.0000      -0.273889        -7.4529
  48   2.0000      -0.264733        -7.2038
  49   2.0000      -0.256605        -6.9826
  50   2.0000      -0.237557        -6.4642
  51   0.0000       0.054448         1.4816
  52   0.0000       0.076453         2.0804
  53   0.0000       0.083233         2.2649
  54   0.0000       0.098096         2.6693
  55   0.0000       0.102873         2.7993

MULLIKEN ATOMIC CHARGES
-----------------------
   0 C :    0.322464
   1 C :   -0.303038
   2 C :   -0.305813
   3 C :    0.000598
   4 O :   -0.493849
   5 H :    0.164674
   6 H :    0.156280
   7 H :    0.142181
   8 H :    0.144682
   9 H :    0.150113
  10 H :    0.150426
  11 H :    0.143262
  12 C :   -0.004176
  13 H :    0.140015
  14 H :    0.118755
  15 O :   -0.519187
  16 C :    0.069480
  17 C :    0.079261
  18 C :   -0.301172
  19 C :   -0.030285
  20 O :   -0.513802
  21 H :    0.174724
  22 O :   -0.601772
  23 H :    0.150870
  24 H :    0.166239
  25 H :    0.140347
  26 H :    0.144010
  27 H :    0.147357
  28 H :    0.367358
Sum of atomic charges:    0.0000000

LOEWDIN ATOMIC CHARGES
----------------------
   0 C :    0.188295
   1 C :   -0.233371
   2 C :   -0.219968
   3 C :   -0.028024
   4 O :   -0.308201
   5 H :    0.110240
   6 H :    0.122477
   7 H :    0.111432
   8 H :    0.115556
   9 H :    0.110216
  10 H :    0.106986
  11 H :    0.103191
  12 C :   -0.039606
  13 H :    0.103485
  14 H :    0.091031
  15 O :   -0.325536
  16 C :    0.011093
  17 C :    0.034749
  18 C :   -0.242842
  19 C :   -0.039419
  20 O :   -0.324516
  21 H :    0.123170
  22 O :   -0.413884
  23 H :    0.115021
  24 H :    0.128213
  25 H :    0.110025
  26 H :    0.101813
  27 H :    0.103583
  28 H :    0.284791

  Mayer bond orders larger than 0.100000
B(  0-C ,  1-C ) :   0.9327 B(  0-C ,  4-O ) :   0.9205 B(  0-C ,  5-H ) :   0.9261
B(  0-C , 15-O ) :   0.8524 B(  1-C ,  2-C ) :   0.9486 B(  1-C ,  6-H ) :   0.9336
B(  1-C ,  7-H ) :   0.9260 B(  2-C ,  3-C ) :   0.9521 B(  2-C ,  8-H ) :   0.9457
B(  2-C ,  9-H ) :   0.9451 B(  3-C ,  4-O ) :   0.8449 B(  3-C , 10-H ) :   0.9342
B(  3-C , 11-H ) :   0.9395 B( 12-C , 13-H ) :   0.9201 B( 12-C , 14-H ) :   0.9075
B( 12-C , 15-O ) :   0.8612 B( 12-C , 16-C ) :   0.8890 B( 16-C , 17-C ) :   0.8945
B( 16-C , 20-O ) :   0.8600 B( 16-C , 21-H ) :   0.9232 B( 17-C , 18-C ) :   0.9089
B( 17-C , 22-O ) :   0.8942 B( 17-C , 23-H ) :   0.9331 B( 18-C , 19-C ) :   0.9417
B( 18-C , 24-H ) :   0.9369 B( 18-C , 25-H ) :   0.9344 B( 19-C , 20-O ) :   0.8535
B( 19-C , 26-H ) :   0.9337 B( 19-C , 27-H ) :   0.9381 B( 22-O , 28-H ) :   0.7930

FINAL SINGLE POINT ENERGY      -652.851765781040

DIPOLE MOMENT
-------------
                                X             Y             Z
Electronic contribution:     -4.33338      -5.63336       0.10674
Nuclear contribution   :      5.41219       7.15360      -0.53890
                        -----------------------------------------
Total Dipole Moment    :      1.07881       1.52024      -0.43216
                        -----------------------------------------
Magnitude (a.u.)       :      1.91356
Magnitude (Debye)      :      4.86389

Rotational constants in cm-1:     0.064557     0.012258     0.012025
Rotational constants in MHz :  1935.382589   367.500365   360.503492

                             ****ORCA TERMINATED NORMALLY****
TOTAL RUN TIME: 0 days 0 hours 43 minutes 5 seconds 512 msec
