                         Program Version 4.2.0 -  RELEASE  -
|  1> # Test redundant internal optimization
|  2> #
|  3> ! RKS B3LYP  Opt TightSCF SmallPrint
|  4>
|  5> %basis
|  6>         Basis "6-31G"
|  7> end
|  8>
|  9> %geom
| 10> Constraints
| 11> { D 4  0  15  12  30.0   C } # D for Dihedral angle
| 12> { D 0  15  12  16  180.0   C } # D for Dihedral angle
| 13> { D 0  4  3  2   C } # D for Dihedral angle
| 14> { D 4  3  2  1   C } # D for Dihedral angle
| 15> { D 3  2  1  0   C } # D for Dihedral angle
| 16> { D 2  1  0  4   C } # D for Dihedral angle
| 17> { D 1  0  4  3   C } # D for Dihedral angle
| 18> { D 16  20  19  18   C } # D for Dihedral angle
| 19> { D 20  19  18  17   C } # D for Dihedral angle
| 20> { D 19  18  17  16   C } # D for Dihedral angle
| 21> { D 18  17  16  20   C } # D for Dihedral angle
| 22> { D 17  16  20  19   C } # D for Dihedral angle
| 23> { D 15  12  16  20   C } # D for Dihedral angle
| 24> end
| 25> end
| 26>
| 27>
| 28> #%pal
| 29> #nprocs 8
| 30> #end
| 31>
| 32> * xyz 0 1
| 33> C  -21.048   26.222   46.251
| 34> C  -20.361   27.558   45.944
| 35> C  -20.329   28.222   47.341
| 36> C  -20.110   27.022   48.296
| 37> O  -20.473   25.807   47.535
| 38> H  -20.833   25.428   45.533
| 39> H  -19.344   27.382   45.576
| 40> H  -20.898   28.157   45.201
| 41> H  -19.543   28.978   47.434
| 42> H  -21.289   28.710   47.548
| 43> H  -20.733   27.082   49.195
| 44> H  -19.064   26.913   48.597
| 45> C  -23.091   26.824   47.779
| 46> H  -22.791   26.071   48.518
| 47> H  -22.648   27.785   48.070
| 48> O  -22.586   26.394   46.375
| 49> C  -24.636   26.979   47.840
| 50> C  -25.140   27.954   46.769
| 51> C  -25.126   27.064   45.504
| 52> C  -25.519   25.669   46.050
| 53> O  -25.292   25.710   47.511
| 54> H  -24.930   27.237   48.859
| 55> H  -26.161   28.275   47.004
| 56> O  -24.250   29.218   46.627
| 57> H  -25.812   27.417   44.728
| 58> H  -24.118   27.039   45.072
| 59> H  -24.918   24.863   45.616
| 60> H  -26.578   25.443   45.895
| 61> H  -23.222   28.920   46.391
| 62> *
| 63>
| 64>                          ****END OF INPUT****
 Total Charge           Charge          ....    0
 Multiplicity           Mult            ....    1
 Number of Electrons    NEL             ....  102
FINAL SINGLE POINT ENERGY      -652.825296622213
FINAL SINGLE POINT ENERGY      -652.849729522741
FINAL SINGLE POINT ENERGY      -652.855990452232
FINAL SINGLE POINT ENERGY      -652.858642292928
FINAL SINGLE POINT ENERGY      -652.858913775761
FINAL SINGLE POINT ENERGY      -652.858960120131
FINAL SINGLE POINT ENERGY      -652.858962846740
                    ***********************HURRAY********************

CARTESIAN COORDINATES (ANGSTROEM)
---------------------------------
  C    -21.119679   26.268507   46.428201
  C    -20.377884   27.537815   45.993412
  C    -20.131825   28.249626   47.352665
  C    -19.891289   27.065392   48.318450
  O    -20.438678   25.863303   47.633470
  H    -21.019005   25.444061   45.720208
  H    -19.428827   27.249991   45.527966
  H    -20.950438   28.137276   45.280914
  H    -19.272241   28.926285   47.318064
  H    -21.004061   28.841494   47.646013
  H    -20.394670   27.181132   49.282136
  H    -18.828875   26.870912   48.488547
  C    -23.122255   26.812394   47.859750
  H    -22.849647   26.064348   48.610523
  H    -22.751318   27.793489   48.181461
  O    -22.560050   26.417341   46.570030
  C    -24.642386   26.902336   47.763511
  C    -25.182280   27.920051   46.742915
  C    -25.188451   27.084508   45.426355
  C    -25.554411   25.670668   45.927142
  O    -25.291261   25.655703   47.388554
  H    -24.997389   27.137906   48.774672
  H    -26.191195   28.229320   47.023142
  O    -24.417745   29.150508   46.666384
  H    -25.904859   27.473150   44.696413
  H    -24.185714   27.094413   44.994117
  H    -24.951806   24.889360   45.457030
  H    -26.615866   25.440310   45.794794
  H    -23.578896   28.971402   46.192159

 Multiplicity           Mult            ....    1
 Number of Electrons    NEL             ....  102
 Basis Dimension        Dim             ....  149

ORBITAL ENERGIES
----------------

  NO   OCC          E(Eh)            E(eV)
   0   2.0000     -19.154117      -521.2100
   1   2.0000     -19.148891      -521.0678
   2   2.0000     -19.140865      -520.8494
   3   2.0000     -19.129911      -520.5513
   4   2.0000     -10.286226      -279.9024
   5   2.0000     -10.237865      -278.5865
   6   2.0000     -10.235148      -278.5125
   7   2.0000     -10.228689      -278.3368
   8   2.0000     -10.228545      -278.3328
   9   2.0000     -10.217979      -278.0453
  10   2.0000     -10.200283      -277.5638
  11   2.0000     -10.196998      -277.4744
  12   2.0000     -10.177483      -276.9434
  13   2.0000      -1.060807       -28.8660
  14   2.0000      -1.026485       -27.9321
  15   2.0000      -1.008633       -27.4463
  16   2.0000      -0.997485       -27.1430
  17   2.0000      -0.797384       -21.6979
  18   2.0000      -0.775328       -21.0977
  19   2.0000      -0.765183       -20.8217
  20   2.0000      -0.736950       -20.0534
  21   2.0000      -0.677978       -18.4487
  22   2.0000      -0.611993       -16.6532
  23   2.0000      -0.602643       -16.3988
  24   2.0000      -0.599586       -16.3156
  25   2.0000      -0.562610       -15.3094
  26   2.0000      -0.525737       -14.3060
  27   2.0000      -0.517048       -14.0696
  28   2.0000      -0.502680       -13.6786
  29   2.0000      -0.490978       -13.3602
  30   2.0000      -0.471599       -12.8329
  31   2.0000      -0.455906       -12.4058
  32   2.0000      -0.445581       -12.1249
  33   2.0000      -0.429011       -11.6740
  34   2.0000      -0.425527       -11.5792
  35   2.0000      -0.420741       -11.4489
  36   2.0000      -0.400617       -10.9013
  37   2.0000      -0.397638       -10.8203
  38   2.0000      -0.382823       -10.4172
  39   2.0000      -0.374263       -10.1842
  40   2.0000      -0.369444       -10.0531
  41   2.0000      -0.359404        -9.7799
  42   2.0000      -0.347818        -9.4646
  43   2.0000      -0.331988        -9.0338
  44   2.0000      -0.323501        -8.8029
  45   2.0000      -0.312266        -8.4972
  46   2.0000      -0.306715        -8.3461
  47   2.0000      -0.269857        -7.3432
  48   2.0000      -0.262028        -7.1302
  49   2.0000      -0.256102        -6.9689
  50   2.0000      -0.236362        -6.4317
  51   0.0000       0.044102         1.2001
  52   0.0000       0.079483         2.1629
  53   0.0000       0.091848         2.4993
  54   0.0000       0.098302         2.6749
  55   0.0000       0.099767         2.7148

MULLIKEN ATOMIC CHARGES
-----------------------
   0 C :    0.304490
   1 C :   -0.263350
   2 C :   -0.322847
   3 C :   -0.013153
   4 O :   -0.506496
   5 H :    0.165627
   6 H :    0.154031
   7 H :    0.143345
   8 H :    0.151923
   9 H :    0.158128
  10 H :    0.148387
  11 H :    0.153900
  12 C :   -0.019377
  13 H :    0.171536
  14 H :    0.126602
  15 O :   -0.545008
  16 C :    0.094357
  17 C :    0.083739
  18 C :   -0.314931
  19 C :    0.002901
  20 O :   -0.520523
  21 H :    0.145712
  22 H :    0.160004
  23 O :   -0.608832
  24 H :    0.143259
  25 H :    0.161434
  26 H :    0.149493
  27 H :    0.137441
  28 H :    0.358208
Sum of atomic charges:   -0.0000000

LOEWDIN ATOMIC CHARGES
----------------------
   0 C :    0.179440
   1 C :   -0.226412
   2 C :   -0.224380
   3 C :   -0.032458
   4 O :   -0.314504
   5 H :    0.112189
   6 H :    0.119863
   7 H :    0.115198
   8 H :    0.119199
   9 H :    0.112078
  10 H :    0.104819
  11 H :    0.108791
  12 C :   -0.048883
  13 H :    0.117656
  14 H :    0.092859
  15 O :   -0.339023
  16 C :    0.021638
  17 C :    0.037231
  18 C :   -0.243483
  19 C :   -0.023006
  20 O :   -0.321187
  21 H :    0.113132
  22 H :    0.115405
  23 O :   -0.413388
  24 H :    0.114058
  25 H :    0.120068
  26 H :    0.106958
  27 H :    0.099463
  28 H :    0.276679

  Mayer bond orders larger than 0.100000
B(  0-C ,  1-C ) :   0.9182 B(  0-C ,  4-O ) :   0.9135 B(  0-C ,  5-H ) :   0.9348
B(  0-C , 15-O ) :   0.8575 B(  1-C ,  2-C ) :   0.9523 B(  1-C ,  6-H ) :   0.9337
B(  1-C ,  7-H ) :   0.9379 B(  2-C ,  3-C ) :   0.9493 B(  2-C ,  8-H ) :   0.9441
B(  2-C ,  9-H ) :   0.9388 B(  3-C ,  4-O ) :   0.8334 B(  3-C , 10-H ) :   0.9325
B(  3-C , 11-H ) :   0.9394 B( 12-C , 13-H ) :   0.9169 B( 12-C , 14-H ) :   0.8922
B( 12-C , 15-O ) :   0.8210 B( 12-C , 16-C ) :   0.9178 B( 16-C , 17-C ) :   0.8833
B( 16-C , 20-O ) :   0.8838 B( 16-C , 21-H ) :   0.9299 B( 17-C , 18-C ) :   0.9366
B( 17-C , 22-H ) :   0.9367 B( 17-C , 23-O ) :   0.8948 B( 18-C , 19-C ) :   0.9458
B( 18-C , 24-H ) :   0.9412 B( 18-C , 25-H ) :   0.9261 B( 19-C , 20-O ) :   0.8384
B( 19-C , 26-H ) :   0.9321 B( 19-C , 27-H ) :   0.9384 B( 23-O , 28-H ) :   0.7930

FINAL SINGLE POINT ENERGY      -652.858960639838

DIPOLE MOMENT
-------------
                                X             Y             Z
Electronic contribution:     -2.55880      -3.13882       1.27404
Nuclear contribution   :      3.52702       3.87560      -1.76773
                        -----------------------------------------
Total Dipole Moment    :      0.96822       0.73678      -0.49369
                        -----------------------------------------
Magnitude (a.u.)       :      1.31302
Magnitude (Debye)      :      3.33743

Rotational constants in cm-1:     0.049068     0.016211     0.014943
Rotational constants in MHz :  1471.021152   486.004901   447.991330

                             ****ORCA TERMINATED NORMALLY****
TOTAL RUN TIME: 0 days 0 hours 36 minutes 54 seconds 923 msec
