                         Program Version 4.2.0 -  RELEASE  -
|  1> # Test redundant internal optimization
|  2> #
|  3> ! RKS B3LYP  Opt TightSCF SmallPrint
|  4>
|  5> %basis
|  6>         Basis "6-31G"
|  7> end
|  8>
|  9> %geom
| 10> Constraints
| 11> { D 4  0  15  12  45.0   C } # D for Dihedral angle
| 12> { D 0  15  12  16  180.0   C } # D for Dihedral angle
| 13> { D 0  4  3  2   C } # D for Dihedral angle
| 14> { D 4  3  2  1   C } # D for Dihedral angle
| 15> { D 3  2  1  0   C } # D for Dihedral angle
| 16> { D 2  1  0  4   C } # D for Dihedral angle
| 17> { D 1  0  4  3   C } # D for Dihedral angle
| 18> { D 16  20  19  18   C } # D for Dihedral angle
| 19> { D 20  19  18  17   C } # D for Dihedral angle
| 20> { D 19  18  17  16   C } # D for Dihedral angle
| 21> { D 18  17  16  20   C } # D for Dihedral angle
| 22> { D 17  16  20  19   C } # D for Dihedral angle
| 23> { D 15  12  16  20   C } # D for Dihedral angle
| 24> end
| 25> end
| 26>
| 27>
| 28> #%pal
| 29> #nprocs 8
| 30> #end
| 31>
| 32> * xyz 0 1
| 33> C  -21.048   26.222   46.251
| 34> C  -20.361   27.558   45.944
| 35> C  -20.329   28.222   47.341
| 36> C  -20.110   27.022   48.296
| 37> O  -20.473   25.807   47.535
| 38> H  -20.833   25.428   45.533
| 39> H  -19.344   27.382   45.576
| 40> H  -20.898   28.157   45.201
| 41> H  -19.543   28.978   47.434
| 42> H  -21.289   28.710   47.548
| 43> H  -20.733   27.082   49.195
| 44> H  -19.064   26.913   48.597
| 45> C  -23.065   27.161   47.638
| 46> H  -22.727   26.628   48.535
| 47> H  -22.637   28.172   47.658
| 48> O  -22.586   26.394   46.375
| 49> C  -24.611   27.301   47.705
| 50> C  -25.287   25.933   47.852
| 51> C  -25.093   25.647   49.360
| 52> C  -25.213   27.052   50.002
| 53> O  -25.007   28.031   48.914
| 54> H  -24.955   27.886   46.850
| 55> H  -26.353   26.013   47.608
| 56> O  -24.658   24.841   46.945
| 57> H  -25.830   24.943   49.757
| 58> H  -24.097   25.225   49.537
| 59> H  -24.465   27.222   50.783
| 60> H  -26.207   27.237   50.419
| 61> H  -23.590   24.744   47.173
| 62> *
| 63>
| 64>                          ****END OF INPUT****
 Total Charge           Charge          ....    0
 Multiplicity           Mult            ....    1
 Number of Electrons    NEL             ....  102
FINAL SINGLE POINT ENERGY      -652.815751504111
FINAL SINGLE POINT ENERGY      -652.843164803587
FINAL SINGLE POINT ENERGY      -652.856360955316
FINAL SINGLE POINT ENERGY      -652.859890302564
FINAL SINGLE POINT ENERGY      -652.861594166056
FINAL SINGLE POINT ENERGY      -652.862637178881
FINAL SINGLE POINT ENERGY      -652.863093671021
FINAL SINGLE POINT ENERGY      -652.863219410070
FINAL SINGLE POINT ENERGY      -652.863247480926
FINAL SINGLE POINT ENERGY      -652.863249682173
                    ***********************HURRAY********************

CARTESIAN COORDINATES (ANGSTROEM)
---------------------------------
  C    -21.153006   26.306559   46.453506
  C    -20.388539   27.523944   45.919513
  C    -20.033071   28.282636   47.229672
  C    -19.782372   27.131148   48.232324
  O    -20.418278   25.924732   47.633427
  H    -21.123362   25.451610   45.776549
  H    -19.483003   27.171555   45.414644
  H    -20.979535   28.117034   45.217523
  H    -19.146989   28.914675   47.113125
  H    -20.856105   28.928061   47.546006
  H    -20.220884   27.308178   49.218235
  H    -18.720379   26.897962   48.347210
  C    -23.089999   27.217534   47.827611
  H    -22.740475   26.731931   48.745195
  H    -22.753512   28.257873   47.821035
  O    -22.581458   26.480154   46.664783
  C    -24.620762   27.208680   47.740279
  C    -25.279475   25.821698   47.838228
  C    -25.226287   25.554445   49.370722
  C    -25.438482   26.955526   49.978331
  O    -25.146667   27.939521   48.891959
  H    -24.934959   27.750699   46.844357
  H    -26.325572   25.913665   47.524521
  O    -24.686534   24.780663   47.041693
  H    -25.987956   24.835451   49.682905
  H    -24.245882   25.137125   49.625600
  H    -24.779322   27.165572   50.826110
  H    -26.473598   27.131251   50.284538
  H    -23.789536   25.071117   46.752401

 Multiplicity           Mult            ....    1
 Number of Electrons    NEL             ....  102
 Basis Dimension        Dim             ....  149

ORBITAL ENERGIES
----------------

  NO   OCC          E(Eh)            E(eV)
   0   2.0000     -19.165695      -521.5251
   1   2.0000     -19.157858      -521.3118
   2   2.0000     -19.140343      -520.8352
   3   2.0000     -19.110028      -520.0103
   4   2.0000     -10.292914      -280.0844
   5   2.0000     -10.240917      -278.6695
   6   2.0000     -10.238679      -278.6086
   7   2.0000     -10.233767      -278.4750
   8   2.0000     -10.227869      -278.3145
   9   2.0000     -10.225680      -278.2549
  10   2.0000     -10.202004      -277.6106
  11   2.0000     -10.199370      -277.5390
  12   2.0000     -10.176688      -276.9217
  13   2.0000      -1.067890       -29.0588
  14   2.0000      -1.025679       -27.9101
  15   2.0000      -1.009838       -27.4791
  16   2.0000      -0.990359       -26.9490
  17   2.0000      -0.799397       -21.7527
  18   2.0000      -0.779084       -21.2000
  19   2.0000      -0.767151       -20.8752
  20   2.0000      -0.738396       -20.0928
  21   2.0000      -0.681712       -18.5503
  22   2.0000      -0.614609       -16.7244
  23   2.0000      -0.602037       -16.3823
  24   2.0000      -0.594695       -16.1825
  25   2.0000      -0.577560       -15.7162
  26   2.0000      -0.530404       -14.4330
  27   2.0000      -0.516277       -14.0486
  28   2.0000      -0.511011       -13.9053
  29   2.0000      -0.486483       -13.2379
  30   2.0000      -0.475967       -12.9517
  31   2.0000      -0.465121       -12.6566
  32   2.0000      -0.443161       -12.0590
  33   2.0000      -0.432763       -11.7761
  34   2.0000      -0.426705       -11.6112
  35   2.0000      -0.422321       -11.4919
  36   2.0000      -0.410809       -11.1787
  37   2.0000      -0.391253       -10.6465
  38   2.0000      -0.387003       -10.5309
  39   2.0000      -0.370987       -10.0951
  40   2.0000      -0.368166       -10.0183
  41   2.0000      -0.359349        -9.7784
  42   2.0000      -0.350240        -9.5305
  43   2.0000      -0.338290        -9.2054
  44   2.0000      -0.332641        -9.0516
  45   2.0000      -0.321186        -8.7399
  46   2.0000      -0.293548        -7.9878
  47   2.0000      -0.274828        -7.4785
  48   2.0000      -0.265805        -7.2329
  49   2.0000      -0.249888        -6.7998
  50   2.0000      -0.239410        -6.5147
  51   0.0000       0.056626         1.5409
  52   0.0000       0.069988         1.9045
  53   0.0000       0.086402         2.3511
  54   0.0000       0.097899         2.6640
  55   0.0000       0.100882         2.7451

MULLIKEN ATOMIC CHARGES
-----------------------
   0 C :    0.305856
   1 C :   -0.266899
   2 C :   -0.319452
   3 C :   -0.016570
   4 O :   -0.505947
   5 H :    0.170075
   6 H :    0.157928
   7 H :    0.158712
   8 H :    0.151674
   9 H :    0.156088
  10 H :    0.148929
  11 H :    0.156026
  12 C :   -0.019989
  13 H :    0.154607
  14 H :    0.153436
  15 O :   -0.561665
  16 C :    0.050089
  17 C :    0.124168
  18 C :   -0.305206
  19 C :   -0.018179
  20 O :   -0.523664
  21 H :    0.159164
  22 H :    0.145640
  23 O :   -0.638333
  24 H :    0.153360
  25 H :    0.148064
  26 H :    0.140394
  27 H :    0.147027
  28 H :    0.394668
Sum of atomic charges:   -0.0000000

LOEWDIN ATOMIC CHARGES
----------------------
   0 C :    0.177975
   1 C :   -0.224258
   2 C :   -0.223089
   3 C :   -0.032887
   4 O :   -0.316981
   5 H :    0.115128
   6 H :    0.122629
   7 H :    0.124174
   8 H :    0.119013
   9 H :    0.112309
  10 H :    0.104920
  11 H :    0.109416
  12 C :   -0.048293
  13 H :    0.105979
  14 H :    0.105393
  15 O :   -0.333671
  16 C :    0.020433
  17 C :    0.042945
  18 C :   -0.237759
  19 C :   -0.031599
  20 O :   -0.325879
  21 H :    0.115314
  22 H :    0.104980
  23 O :   -0.433672
  24 H :    0.121902
  25 H :    0.112491
  26 H :    0.100706
  27 H :    0.105439
  28 H :    0.286942

  Mayer bond orders larger than 0.100000
B(  0-C ,  1-C ) :   0.9237 B(  0-C ,  4-O ) :   0.9195 B(  0-C ,  5-H ) :   0.9345
B(  0-C , 15-O ) :   0.8386 B(  1-C ,  2-C ) :   0.9551 B(  1-C ,  6-H ) :   0.9339
B(  1-C ,  7-H ) :   0.9359 B(  2-C ,  3-C ) :   0.9483 B(  2-C ,  8-H ) :   0.9438
B(  2-C ,  9-H ) :   0.9380 B(  3-C ,  4-O ) :   0.8331 B(  3-C , 10-H ) :   0.9329
B(  3-C , 11-H ) :   0.9390 B( 12-C , 13-H ) :   0.9173 B( 12-C , 14-H ) :   0.9112
B( 12-C , 15-O ) :   0.7840 B( 12-C , 16-C ) :   0.9070 B( 16-C , 17-C ) :   0.9128
B( 16-C , 20-O ) :   0.8579 B( 16-C , 21-H ) :   0.9292 B( 17-C , 18-C ) :   0.8990
B( 17-C , 22-H ) :   0.9307 B( 17-C , 23-O ) :   0.9391 B( 18-C , 19-C ) :   0.9376
B( 18-C , 24-H ) :   0.9446 B( 18-C , 25-H ) :   0.9428 B( 19-C , 20-O ) :   0.8306
B( 19-C , 26-H ) :   0.9348 B( 19-C , 27-H ) :   0.9391 B( 23-O , 28-H ) :   0.7232

FINAL SINGLE POINT ENERGY      -652.863250736523

DIPOLE MOMENT
-------------
                                X             Y             Z
Electronic contribution:     -2.60351      -2.53845      -2.26328
Nuclear contribution   :      3.80659       3.55681       2.51405
                        -----------------------------------------
Total Dipole Moment    :      1.20307       1.01835       0.25077
                        -----------------------------------------
Magnitude (a.u.)       :      1.59603
Magnitude (Debye)      :      4.05679

Rotational constants in cm-1:     0.049791     0.014789     0.013590
Rotational constants in MHz :  1492.698715   443.352331   407.410671

                             ****ORCA TERMINATED NORMALLY****
TOTAL RUN TIME: 0 days 2 hours 21 minutes 38 seconds 726 msec
