                         Program Version 4.2.0 -  RELEASE  -
|  1> # Test redundant internal optimization
|  2> #
|  3> ! RKS B3LYP  Opt TightSCF SmallPrint
|  4>
|  5> %basis
|  6>         Basis "6-31G"
|  7> end
|  8>
|  9> %geom
| 10> Constraints
| 11> { D 4  0  15  12  330.0   C } # D for Dihedral angle
| 12> { D 0  15  12  16  120.0   C } # D for Dihedral angle
| 13> { D 0  4  3  2   C } # D for Dihedral angle
| 14> { D 4  3  2  1   C } # D for Dihedral angle
| 15> { D 3  2  1  0   C } # D for Dihedral angle
| 16> { D 2  1  0  4   C } # D for Dihedral angle
| 17> { D 1  0  4  3   C } # D for Dihedral angle
| 18> { D 16  20  19  18   C } # D for Dihedral angle
| 19> { D 20  19  18  17   C } # D for Dihedral angle
| 20> { D 19  18  17  16   C } # D for Dihedral angle
| 21> { D 18  17  16  20   C } # D for Dihedral angle
| 22> { D 17  16  20  19   C } # D for Dihedral angle
| 23> { D 15  12  16  20   C } # D for Dihedral angle
| 24> end
| 25> end
| 26>
| 27>
| 28> #%pal
| 29> #nprocs 8
| 30> #end
| 31>
| 32> * xyz 0 1
| 33> C  -21.048   26.222   46.251
| 34> C  -20.361   27.558   45.944
| 35> C  -20.329   28.222   47.341
| 36> C  -20.110   27.022   48.296
| 37> O  -20.473   25.807   47.535
| 38> H  -20.833   25.428   45.533
| 39> H  -19.344   27.382   45.576
| 40> H  -20.898   28.157   45.201
| 41> H  -19.543   28.978   47.434
| 42> H  -21.289   28.710   47.548
| 43> H  -20.733   27.082   49.195
| 44> H  -19.064   26.913   48.597
| 45> C  -23.271   25.476   47.424
| 46> H  -24.005   24.835   46.920
| 47> H  -22.529   24.830   47.912
| 48> O  -22.586   26.394   46.375
| 49> C  -24.004   26.276   48.536
| 50> C  -24.568   25.344   49.613
| 51> C  -23.306   25.036   50.453
| 52> C  -22.514   26.367   50.400
| 53> O  -23.058   27.133   49.259
| 54> H  -24.744   26.934   48.074
| 55> O  -25.625   26.095   50.468
| 56> H  -25.034   24.442   49.201
| 57> H  -23.541   24.731   51.478
| 58> H  -22.731   24.226   49.987
| 59> H  -21.441   26.210   50.247
| 60> H  -22.660   26.976   51.297
| 61> H  -25.180   27.002   50.892
| 62> *
| 63>
| 64>                          ****END OF INPUT****
 Total Charge           Charge          ....    0
 Multiplicity           Mult            ....    1
 Number of Electrons    NEL             ....  102
FINAL SINGLE POINT ENERGY      -652.830742976045
FINAL SINGLE POINT ENERGY      -652.851945297601
FINAL SINGLE POINT ENERGY      -652.861423515379
FINAL SINGLE POINT ENERGY      -652.863957806324
FINAL SINGLE POINT ENERGY      -652.864394520965
FINAL SINGLE POINT ENERGY      -652.864459901156
FINAL SINGLE POINT ENERGY      -652.864466056170
                    ***********************HURRAY********************

CARTESIAN COORDINATES (ANGSTROEM)
---------------------------------
  C    -21.080767   26.237100   46.274332
  C    -20.542008   27.628464   45.946558
  C    -20.327957   28.221016   47.356112
  C    -19.882342   27.006649   48.192733
  O    -20.295963   25.803294   47.405642
  H    -20.898614   25.483760   45.499767
  H    -19.594406   27.524749   45.405590
  H    -21.241599   28.205704   45.337992
  H    -19.587193   29.026995   47.365489
  H    -21.275821   28.604551   47.742030
  H    -20.355874   26.975568   49.170750
  H    -18.795716   26.933466   48.301809
  C    -23.164621   25.438337   47.440498
  H    -23.925670   24.863940   46.895865
  H    -22.426825   24.743929   47.861302
  O    -22.512410   26.321599   46.491732
  C    -23.854532   26.233730   48.548117
  C    -24.579946   25.378543   49.596503
  C    -23.429333   25.050696   50.581606
  C    -22.567125   26.333045   50.564292
  O    -22.945903   27.079361   49.332649
  H    -24.554021   26.929916   48.072132
  O    -25.645065   26.130584   50.240059
  H    -25.062241   24.490212   49.186803
  H    -23.823408   24.811608   51.572020
  H    -22.858650   24.188190   50.219222
  H    -21.496873   26.112325   50.539719
  H    -22.771814   26.993573   51.412448
  H    -25.325304   27.037096   50.433228

 Multiplicity           Mult            ....    1
 Number of Electrons    NEL             ....  102
 Basis Dimension        Dim             ....  149

ORBITAL ENERGIES
----------------

  NO   OCC          E(Eh)            E(eV)
   0   2.0000     -19.148916      -521.0685
   1   2.0000     -19.143864      -520.9310
   2   2.0000     -19.140348      -520.8353
   3   2.0000     -19.136088      -520.7194
   4   2.0000     -10.274362      -279.5796
   5   2.0000     -10.244629      -278.7705
   6   2.0000     -10.234336      -278.4904
   7   2.0000     -10.233469      -278.4669
   8   2.0000     -10.229028      -278.3460
   9   2.0000     -10.220284      -278.1081
  10   2.0000     -10.191368      -277.3212
  11   2.0000     -10.178748      -276.9778
  12   2.0000     -10.175763      -276.8966
  13   2.0000      -1.049428       -28.5564
  14   2.0000      -1.037444       -28.2303
  15   2.0000      -1.008206       -27.4347
  16   2.0000      -0.989650       -26.9297
  17   2.0000      -0.789422       -21.4813
  18   2.0000      -0.780669       -21.2431
  19   2.0000      -0.767073       -20.8731
  20   2.0000      -0.730491       -19.8777
  21   2.0000      -0.672523       -18.3003
  22   2.0000      -0.607656       -16.5352
  23   2.0000      -0.597723       -16.2649
  24   2.0000      -0.589306       -16.0358
  25   2.0000      -0.575092       -15.6490
  26   2.0000      -0.524179       -14.2636
  27   2.0000      -0.513648       -13.9771
  28   2.0000      -0.491383       -13.3712
  29   2.0000      -0.483626       -13.1601
  30   2.0000      -0.479907       -13.0589
  31   2.0000      -0.458811       -12.4849
  32   2.0000      -0.450435       -12.2570
  33   2.0000      -0.440493       -11.9864
  34   2.0000      -0.420476       -11.4417
  35   2.0000      -0.404418       -11.0048
  36   2.0000      -0.398369       -10.8402
  37   2.0000      -0.394315       -10.7299
  38   2.0000      -0.374052       -10.1785
  39   2.0000      -0.370422       -10.0797
  40   2.0000      -0.359165        -9.7734
  41   2.0000      -0.349865        -9.5203
  42   2.0000      -0.342532        -9.3208
  43   2.0000      -0.334110        -9.0916
  44   2.0000      -0.326648        -8.8885
  45   2.0000      -0.311141        -8.4666
  46   2.0000      -0.293116        -7.9761
  47   2.0000      -0.274304        -7.4642
  48   2.0000      -0.263586        -7.1725
  49   2.0000      -0.258954        -7.0465
  50   2.0000      -0.240324        -6.5395
  51   0.0000       0.061991         1.6869
  52   0.0000       0.088140         2.3984
  53   0.0000       0.091660         2.4942
  54   0.0000       0.098019         2.6672
  55   0.0000       0.102546         2.7904

MULLIKEN ATOMIC CHARGES
-----------------------
   0 C :    0.310443
   1 C :   -0.264224
   2 C :   -0.306527
   3 C :   -0.016118
   4 O :   -0.520524
   5 H :    0.143858
   6 H :    0.141548
   7 H :    0.158721
   8 H :    0.136407
   9 H :    0.182109
  10 H :    0.152975
  11 H :    0.140611
  12 C :   -0.013177
  13 H :    0.137496
  14 H :    0.154780
  15 O :   -0.534077
  16 C :    0.075631
  17 C :    0.074038
  18 C :   -0.291455
  19 C :   -0.036696
  20 O :   -0.520283
  21 H :    0.167715
  22 O :   -0.601396
  23 H :    0.153061
  24 H :    0.162142
  25 H :    0.148945
  26 H :    0.150711
  27 H :    0.147857
  28 H :    0.365429
Sum of atomic charges:    0.0000000

LOEWDIN ATOMIC CHARGES
----------------------
   0 C :    0.182493
   1 C :   -0.215615
   2 C :   -0.218942
   3 C :   -0.030192
   4 O :   -0.327593
   5 H :    0.093867
   6 H :    0.112046
   7 H :    0.125404
   8 H :    0.111818
   9 H :    0.128743
  10 H :    0.107390
  11 H :    0.100647
  12 C :   -0.042448
  13 H :    0.104501
  14 H :    0.109222
  15 O :   -0.334713
  16 C :    0.011154
  17 C :    0.035553
  18 C :   -0.237901
  19 C :   -0.041029
  20 O :   -0.328077
  21 H :    0.118206
  22 O :   -0.414018
  23 H :    0.116576
  24 H :    0.126934
  25 H :    0.115951
  26 H :    0.103507
  27 H :    0.103046
  28 H :    0.283470

  Mayer bond orders larger than 0.100000
B(  0-C ,  1-C ) :   0.9435 B(  0-C ,  4-O ) :   0.9088 B(  0-C ,  5-H ) :   0.9266
B(  0-C , 15-O ) :   0.8464 B(  1-C ,  2-C ) :   0.9573 B(  1-C ,  6-H ) :   0.9382
B(  1-C ,  7-H ) :   0.9361 B(  2-C ,  3-C ) :   0.9614 B(  2-C ,  8-H ) :   0.9443
B(  2-C ,  9-H ) :   0.9324 B(  3-C ,  4-O ) :   0.8294 B(  3-C , 10-H ) :   0.9163
B(  3-C , 11-H ) :   0.9403 B( 12-C , 13-H ) :   0.9218 B( 12-C , 14-H ) :   0.9146
B( 12-C , 15-O ) :   0.8456 B( 12-C , 16-C ) :   0.8930 B( 16-C , 17-C ) :   0.8961
B( 16-C , 20-O ) :   0.8525 B( 16-C , 21-H ) :   0.9250 B( 17-C , 18-C ) :   0.9120
B( 17-C , 22-O ) :   0.8917 B( 17-C , 23-H ) :   0.9337 B( 18-C , 19-C ) :   0.9423
B( 18-C , 24-H ) :   0.9372 B( 18-C , 25-H ) :   0.9338 B( 19-C , 20-O ) :   0.8481
B( 19-C , 26-H ) :   0.9201 B( 19-C , 27-H ) :   0.9381 B( 22-O , 28-H ) :   0.7945

FINAL SINGLE POINT ENERGY      -652.864465603843

DIPOLE MOMENT
-------------
                                X             Y             Z
Electronic contribution:     -3.33294      -0.85940      -1.38122
Nuclear contribution   :      3.96815       0.85605       1.74994
                        -----------------------------------------
Total Dipole Moment    :      0.63521      -0.00334       0.36871
                        -----------------------------------------
Magnitude (a.u.)       :      0.73447
Magnitude (Debye)      :      1.86688

Rotational constants in cm-1:     0.053563     0.016218     0.014813
Rotational constants in MHz :  1605.784310   486.195996   444.091441

                             ****ORCA TERMINATED NORMALLY****
TOTAL RUN TIME: 0 days 1 hours 6 minutes 47 seconds 105 msec
