                         Program Version 4.2.0 -  RELEASE  -
|  1> # Test redundant internal optimization
|  2> #
|  3> ! RKS B3LYP  Opt TightSCF SmallPrint
|  4>
|  5> %basis
|  6>         Basis "6-31G"
|  7> end
|  8>
|  9> %geom
| 10> Constraints
| 11> { D 4  0  15  12  210.0   C } # D for Dihedral angle
| 12> { D 0  15  12  16  255.0   C } # D for Dihedral angle
| 13> { D 0  4  3  2   C } # D for Dihedral angle
| 14> { D 4  3  2  1   C } # D for Dihedral angle
| 15> { D 3  2  1  0   C } # D for Dihedral angle
| 16> { D 2  1  0  4   C } # D for Dihedral angle
| 17> { D 1  0  4  3   C } # D for Dihedral angle
| 18> { D 16  20  19  18   C } # D for Dihedral angle
| 19> { D 20  19  18  17   C } # D for Dihedral angle
| 20> { D 19  18  17  16   C } # D for Dihedral angle
| 21> { D 18  17  16  20   C } # D for Dihedral angle
| 22> { D 17  16  20  19   C } # D for Dihedral angle
| 23> { D 15  12  16  20   C } # D for Dihedral angle
| 24> end
| 25> end
| 26>
| 27>
| 28> #%pal
| 29> #nprocs 8
| 30> #end
| 31>
| 32> * xyz 0 1
| 33> C  -21.048   26.222   46.251
| 34> C  -20.361   27.558   45.944
| 35> C  -20.329   28.222   47.341
| 36> C  -20.110   27.022   48.296
| 37> O  -20.473   25.807   47.535
| 38> H  -20.833   25.428   45.533
| 39> H  -19.344   27.382   45.576
| 40> H  -20.898   28.157   45.201
| 41> H  -19.543   28.978   47.434
| 42> H  -21.289   28.710   47.548
| 43> H  -20.733   27.082   49.195
| 44> H  -19.064   26.913   48.597
| 45> C  -23.389   26.110   45.076
| 46> H  -22.750   25.571   44.366
| 47> H  -24.264   25.485   45.294
| 48> O  -22.586   26.394   46.375
| 49> C  -23.896   27.408   44.388
| 50> C  -24.726   28.262   45.353
| 51> C  -23.622   28.953   46.189
| 52> C  -22.488   29.176   45.157
| 53> O  -22.767   28.269   44.022
| 54> H  -24.410   27.144   43.462
| 55> H  -25.308   29.003   44.794
| 56> O  -25.704   27.426   46.223
| 57> H  -23.958   29.889   46.647
| 58> H  -23.286   28.288   46.993
| 59> H  -21.498   28.947   45.565
| 60> H  -22.479   30.195   44.760
| 61> H  -25.142   26.677   46.792
| 62> *
| 63>
| 64>                          ****END OF INPUT****
 Total Charge           Charge          ....    0
 Multiplicity           Mult            ....    1
 Number of Electrons    NEL             ....  102
FINAL SINGLE POINT ENERGY      -652.776516807636
FINAL SINGLE POINT ENERGY      -652.831885702699
FINAL SINGLE POINT ENERGY      -652.851447563052
FINAL SINGLE POINT ENERGY      -652.856236517619
FINAL SINGLE POINT ENERGY      -652.856941019225
FINAL SINGLE POINT ENERGY      -652.857124202358
FINAL SINGLE POINT ENERGY      -652.857182378335
FINAL SINGLE POINT ENERGY      -652.857201367272
FINAL SINGLE POINT ENERGY      -652.857207251116
                    ***********************HURRAY********************

CARTESIAN COORDINATES (ANGSTROEM)
---------------------------------
  C    -20.979464   26.146756   46.244626
  C    -20.194118   27.433226   46.005603
  C    -20.145166   28.047845   47.423757
  C    -20.036703   26.804403   48.332793
  O    -20.476481   25.659458   47.496344
  H    -20.799161   25.368793   45.494071
  H    -19.184812   27.159101   45.675320
  H    -20.645176   28.061453   45.239539
  H    -19.303463   28.734334   47.556399
  H    -21.068448   28.598717   47.631887
  H    -20.676080   26.856920   49.217447
  H    -19.008497   26.592910   48.640401
  C    -23.221255   26.136197   45.173268
  H    -22.629198   25.577189   44.434524
  H    -24.081864   25.516785   45.451370
  O    -22.427159   26.314045   46.384219
  C    -23.779599   27.391482   44.497235
  C    -24.812744   28.186811   45.315313
  C    -23.906356   29.213316   46.059900
  C    -22.804156   29.514203   45.026196
  O    -22.841342   28.404242   44.026345
  H    -24.258758   27.007808   43.585640
  H    -25.508319   28.693434   44.643313
  O    -25.647556   27.386081   46.181131
  H    -24.452979   30.107212   46.370995
  H    -23.489553   28.724230   46.946695
  H    -21.808359   29.576929   45.466014
  H    -22.999699   30.433292   44.465366
  H    -25.111533   27.030828   46.921289

 Multiplicity           Mult            ....    1
 Number of Electrons    NEL             ....  102
 Basis Dimension        Dim             ....  149

ORBITAL ENERGIES
----------------

  NO   OCC          E(Eh)            E(eV)
   0   2.0000     -19.148284      -521.0513
   1   2.0000     -19.147030      -521.0172
   2   2.0000     -19.143870      -520.9312
   3   2.0000     -19.142265      -520.8875
   4   2.0000     -10.281861      -279.7837
   5   2.0000     -10.241702      -278.6909
   6   2.0000     -10.234876      -278.5051
   7   2.0000     -10.234288      -278.4891
   8   2.0000     -10.232131      -278.4304
   9   2.0000     -10.227965      -278.3171
  10   2.0000     -10.190800      -277.3058
  11   2.0000     -10.188793      -277.2511
  12   2.0000     -10.184803      -277.1426
  13   2.0000      -1.054655       -28.6986
  14   2.0000      -1.033376       -28.1196
  15   2.0000      -1.016043       -27.6479
  16   2.0000      -0.996153       -27.1067
  17   2.0000      -0.789604       -21.4862
  18   2.0000      -0.779698       -21.2167
  19   2.0000      -0.771593       -20.9961
  20   2.0000      -0.735168       -20.0049
  21   2.0000      -0.684449       -18.6248
  22   2.0000      -0.610069       -16.6008
  23   2.0000      -0.603801       -16.4303
  24   2.0000      -0.596962       -16.2442
  25   2.0000      -0.576173       -15.6785
  26   2.0000      -0.527762       -14.3611
  27   2.0000      -0.510511       -13.8917
  28   2.0000      -0.502376       -13.6703
  29   2.0000      -0.490204       -13.3391
  30   2.0000      -0.472443       -12.8558
  31   2.0000      -0.464569       -12.6416
  32   2.0000      -0.444899       -12.1063
  33   2.0000      -0.439157       -11.9501
  34   2.0000      -0.429064       -11.6754
  35   2.0000      -0.419830       -11.4242
  36   2.0000      -0.407744       -11.0953
  37   2.0000      -0.393342       -10.7034
  38   2.0000      -0.383503       -10.4357
  39   2.0000      -0.372211       -10.1284
  40   2.0000      -0.361492        -9.8367
  41   2.0000      -0.355480        -9.6731
  42   2.0000      -0.352062        -9.5801
  43   2.0000      -0.334434        -9.1004
  44   2.0000      -0.316054        -8.6003
  45   2.0000      -0.314229        -8.5506
  46   2.0000      -0.309212        -8.4141
  47   2.0000      -0.275992        -7.5101
  48   2.0000      -0.267258        -7.2725
  49   2.0000      -0.259850        -7.0709
  50   2.0000      -0.239936        -6.5290
  51   0.0000       0.063212         1.7201
  52   0.0000       0.071183         1.9370
  53   0.0000       0.084206         2.2913
  54   0.0000       0.093587         2.5466
  55   0.0000       0.098139         2.6705

MULLIKEN ATOMIC CHARGES
-----------------------
   0 C :    0.303979
   1 C :   -0.282298
   2 C :   -0.310030
   3 C :   -0.001576
   4 O :   -0.502341
   5 H :    0.142056
   6 H :    0.146057
   7 H :    0.175244
   8 H :    0.144360
   9 H :    0.152743
  10 H :    0.151001
  11 H :    0.143609
  12 C :   -0.056423
  13 H :    0.141321
  14 H :    0.162415
  15 O :   -0.524030
  16 C :    0.108210
  17 C :    0.091775
  18 C :   -0.318197
  19 C :   -0.010687
  20 O :   -0.525760
  21 H :    0.147775
  22 H :    0.163045
  23 O :   -0.605110
  24 H :    0.150305
  25 H :    0.159624
  26 H :    0.134282
  27 H :    0.148088
  28 H :    0.370565
Sum of atomic charges:   -0.0000000

LOEWDIN ATOMIC CHARGES
----------------------
   0 C :    0.183674
   1 C :   -0.232411
   2 C :   -0.219711
   3 C :   -0.025409
   4 O :   -0.305111
   5 H :    0.096821
   6 H :    0.116488
   7 H :    0.129217
   8 H :    0.115382
   9 H :    0.110666
  10 H :    0.107467
  11 H :    0.103171
  12 C :   -0.053952
  13 H :    0.103356
  14 H :    0.118553
  15 O :   -0.345851
  16 C :    0.007614
  17 C :    0.036832
  18 C :   -0.240463
  19 C :   -0.028992
  20 O :   -0.326185
  21 H :    0.114755
  22 H :    0.116492
  23 O :   -0.407540
  24 H :    0.119515
  25 H :    0.116070
  26 H :    0.098382
  27 H :    0.104503
  28 H :    0.286669

  Mayer bond orders larger than 0.100000
B(  0-C ,  1-C ) :   0.9298 B(  0-C ,  4-O ) :   0.9349 B(  0-C ,  5-H ) :   0.9174
B(  0-C , 15-O ) :   0.8291 B(  1-C ,  2-C ) :   0.9541 B(  1-C ,  6-H ) :   0.9318
B(  1-C ,  7-H ) :   0.9102 B(  2-C ,  3-C ) :   0.9512 B(  2-C ,  8-H ) :   0.9449
B(  2-C ,  9-H ) :   0.9394 B(  3-C ,  4-O ) :   0.8388 B(  3-C , 10-H ) :   0.9349
B(  3-C , 11-H ) :   0.9391 B( 12-C , 13-H ) :   0.9212 B( 12-C , 14-H ) :   0.9125
B( 12-C , 15-O ) :   0.8605 B( 12-C , 16-C ) :   0.8960 B( 16-C , 17-C ) :   0.8849
B( 16-C , 20-O ) :   0.8683 B( 16-C , 21-H ) :   0.9202 B( 17-C , 18-C ) :   0.9263
B( 17-C , 22-H ) :   0.9365 B( 17-C , 23-O ) :   0.9078 B( 18-C , 19-C ) :   0.9475
B( 18-C , 24-H ) :   0.9406 B( 18-C , 25-H ) :   0.9283 B( 19-C , 20-O ) :   0.8354
B( 19-C , 26-H ) :   0.9183 B( 19-C , 27-H ) :   0.9399 B( 23-O , 28-H ) :   0.7891

FINAL SINGLE POINT ENERGY      -652.857207742472

DIPOLE MOMENT
-------------
                                X             Y             Z
Electronic contribution:     -2.87891      -4.09324      -1.21783
Nuclear contribution   :      3.50837       4.97395       1.30509
                        -----------------------------------------
Total Dipole Moment    :      0.62947       0.88070       0.08726
                        -----------------------------------------
Magnitude (a.u.)       :      1.08604
Magnitude (Debye)      :      2.76049

Rotational constants in cm-1:     0.044414     0.017442     0.016042
Rotational constants in MHz :  1331.493456   522.896034   480.937020

                             ****ORCA TERMINATED NORMALLY****
TOTAL RUN TIME: 0 days 0 hours 46 minutes 20 seconds 119 msec
