                         Program Version 4.2.0 -  RELEASE  -
|  1> # Test redundant internal optimization
|  2> #
|  3> ! RKS B3LYP  Opt TightSCF SmallPrint
|  4>
|  5> %basis
|  6>         Basis "6-31G"
|  7> end
|  8>
|  9> %geom
| 10> Constraints
| 11> { D 4  0  15  12  285.0   C } # D for Dihedral angle
| 12> { D 0  15  12  16  180.0   C } # D for Dihedral angle
| 13> { D 0  4  3  2   C } # D for Dihedral angle
| 14> { D 4  3  2  1   C } # D for Dihedral angle
| 15> { D 3  2  1  0   C } # D for Dihedral angle
| 16> { D 2  1  0  4   C } # D for Dihedral angle
| 17> { D 1  0  4  3   C } # D for Dihedral angle
| 18> { D 16  20  19  18   C } # D for Dihedral angle
| 19> { D 20  19  18  17   C } # D for Dihedral angle
| 20> { D 19  18  17  16   C } # D for Dihedral angle
| 21> { D 18  17  16  20   C } # D for Dihedral angle
| 22> { D 17  16  20  19   C } # D for Dihedral angle
| 23> { D 15  12  16  20   C } # D for Dihedral angle
| 24> end
| 25> end
| 26>
| 27>
| 28> #%pal
| 29> #nprocs 8
| 30> #end
| 31>
| 32> * xyz 0 1
| 33> C  -21.048   26.222   46.251
| 34> C  -20.361   27.558   45.944
| 35> C  -20.329   28.222   47.341
| 36> C  -20.110   27.022   48.296
| 37> O  -20.473   25.807   47.535
| 38> H  -20.833   25.428   45.533
| 39> H  -19.344   27.382   45.576
| 40> H  -20.898   28.157   45.201
| 41> H  -19.543   28.978   47.434
| 42> H  -21.289   28.710   47.548
| 43> H  -20.733   27.082   49.195
| 44> H  -19.064   26.913   48.597
| 45> C  -23.396   25.070   46.435
| 46> H  -23.209   24.490   45.523
| 47> H  -23.081   24.466   47.296
| 48> O  -22.586   26.394   46.375
| 49> C  -24.927   25.307   46.559
| 50> C  -25.485   26.000   45.311
| 51> C  -25.592   24.818   44.318
| 52> C  -25.981   23.627   45.229
| 53> O  -25.641   24.027   46.611
| 54> H  -25.133   25.828   47.496
| 55> O  -26.889   26.592   45.614
| 56> H  -24.843   26.808   44.943
| 57> H  -26.327   24.995   43.526
| 58> H  -24.622   24.639   43.840
| 59> H  -25.438   22.711   44.977
| 60> H  -27.054   23.419   45.209
| 61> H  -27.551   25.800   45.984
| 62> *
| 63>
| 64>                          ****END OF INPUT****
 Total Charge           Charge          ....    0
 Multiplicity           Mult            ....    1
 Number of Electrons    NEL             ....  102
FINAL SINGLE POINT ENERGY      -652.840765497670
FINAL SINGLE POINT ENERGY      -652.865392826981
FINAL SINGLE POINT ENERGY      -652.869382441025
FINAL SINGLE POINT ENERGY      -652.870086635889
FINAL SINGLE POINT ENERGY      -652.870185837684
FINAL SINGLE POINT ENERGY      -652.870195760378
                    ***********************HURRAY********************

CARTESIAN COORDINATES (ANGSTROEM)
---------------------------------
  C    -21.108763   26.119108   46.240102
  C    -20.552360   27.508289   45.927402
  C    -20.581590   28.181176   47.318834
  C    -20.251098   27.016589   48.278487
  O    -20.505063   25.771124   47.508570
  H    -20.839833   25.321260   45.539993
  H    -19.525456   27.410379   45.557533
  H    -21.151867   28.033161   45.180877
  H    -19.865995   29.004619   47.403616
  H    -21.584174   28.571200   47.515942
  H    -20.874694   27.009537   49.175872
  H    -19.197207   26.991755   48.570934
  C    -23.265055   24.978140   46.430712
  H    -23.052244   24.357430   45.547048
  H    -22.954839   24.423452   47.323162
  O    -22.542170   26.240685   46.337127
  C    -24.749599   25.317129   46.524013
  C    -25.330590   26.038389   45.299633
  C    -25.554442   24.858899   44.318893
  C    -25.963911   23.693525   45.253288
  O    -25.530955   24.079020   46.620445
  H    -24.934805   25.890117   47.436598
  O    -26.580302   26.703382   45.635442
  H    -24.674547   26.816199   44.912711
  H    -26.324496   25.108478   43.584672
  H    -24.628209   24.631063   43.779826
  H    -25.489311   22.745129   44.984599
  H    -27.047415   23.542796   45.290171
  H    -27.119011   26.109971   46.200499

 Multiplicity           Mult            ....    1
 Number of Electrons    NEL             ....  102
 Basis Dimension        Dim             ....  149

ORBITAL ENERGIES
----------------

  NO   OCC          E(Eh)            E(eV)
   0   2.0000     -19.149192      -521.0760
   1   2.0000     -19.144252      -520.9416
   2   2.0000     -19.140788      -520.8473
   3   2.0000     -19.134266      -520.6699
   4   2.0000     -10.280749      -279.7534
   5   2.0000     -10.234909      -278.5060
   6   2.0000     -10.232405      -278.4379
   7   2.0000     -10.231310      -278.4081
   8   2.0000     -10.229394      -278.3560
   9   2.0000     -10.225348      -278.2459
  10   2.0000     -10.187418      -277.2137
  11   2.0000     -10.186414      -277.1864
  12   2.0000     -10.185210      -277.1537
  13   2.0000      -1.057222       -28.7685
  14   2.0000      -1.035091       -28.1662
  15   2.0000      -1.003410       -27.3042
  16   2.0000      -0.996941       -27.1281
  17   2.0000      -0.791037       -21.5252
  18   2.0000      -0.778020       -21.1710
  19   2.0000      -0.767066       -20.8729
  20   2.0000      -0.729297       -19.8452
  21   2.0000      -0.673120       -18.3165
  22   2.0000      -0.603435       -16.4203
  23   2.0000      -0.599202       -16.3051
  24   2.0000      -0.588652       -16.0180
  25   2.0000      -0.584717       -15.9110
  26   2.0000      -0.522347       -14.2138
  27   2.0000      -0.518107       -14.0984
  28   2.0000      -0.496021       -13.4974
  29   2.0000      -0.489964       -13.3326
  30   2.0000      -0.469726       -12.7819
  31   2.0000      -0.456777       -12.4295
  32   2.0000      -0.450644       -12.2626
  33   2.0000      -0.437976       -11.9179
  34   2.0000      -0.424698       -11.5566
  35   2.0000      -0.409743       -11.1497
  36   2.0000      -0.402256       -10.9459
  37   2.0000      -0.391357       -10.6494
  38   2.0000      -0.376480       -10.2446
  39   2.0000      -0.366887        -9.9835
  40   2.0000      -0.358144        -9.7456
  41   2.0000      -0.356060        -9.6889
  42   2.0000      -0.348794        -9.4912
  43   2.0000      -0.336654        -9.1608
  44   2.0000      -0.323556        -8.8044
  45   2.0000      -0.307040        -8.3550
  46   2.0000      -0.301508        -8.2044
  47   2.0000      -0.273643        -7.4462
  48   2.0000      -0.266196        -7.2436
  49   2.0000      -0.254504        -6.9254
  50   2.0000      -0.246765        -6.7148
  51   0.0000       0.065502         1.7824
  52   0.0000       0.076962         2.0943
  53   0.0000       0.094545         2.5727
  54   0.0000       0.101013         2.7487
  55   0.0000       0.107378         2.9219

MULLIKEN ATOMIC CHARGES
-----------------------
   0 C :    0.292556
   1 C :   -0.261668
   2 C :   -0.298539
   3 C :   -0.003249
   4 O :   -0.511652
   5 H :    0.139920
   6 H :    0.145780
   7 H :    0.155119
   8 H :    0.141556
   9 H :    0.164702
  10 H :    0.149209
  11 H :    0.143139
  12 C :   -0.001626
  13 H :    0.122192
  14 H :    0.169346
  15 O :   -0.529089
  16 C :    0.053171
  17 C :    0.090665
  18 C :   -0.300472
  19 C :   -0.031970
  20 O :   -0.527261
  21 H :    0.167067
  22 O :   -0.604123
  23 H :    0.172412
  24 H :    0.162737
  25 H :    0.144009
  26 H :    0.145481
  27 H :    0.148240
  28 H :    0.362347
Sum of atomic charges:   -0.0000000

LOEWDIN ATOMIC CHARGES
----------------------
   0 C :    0.172627
   1 C :   -0.215280
   2 C :   -0.215740
   3 C :   -0.027333
   4 O :   -0.328851
   5 H :    0.095921
   6 H :    0.114486
   7 H :    0.123095
   8 H :    0.113870
   9 H :    0.120308
  10 H :    0.106561
  11 H :    0.103002
  12 C :   -0.040338
  13 H :    0.089582
  14 H :    0.115780
  15 O :   -0.330383
  16 C :    0.018586
  17 C :    0.037635
  18 C :   -0.242138
  19 C :   -0.038900
  20 O :   -0.330101
  21 H :    0.119149
  22 O :   -0.415338
  23 H :    0.125450
  24 H :    0.126875
  25 H :    0.112925
  26 H :    0.103797
  27 H :    0.103379
  28 H :    0.281375

  Mayer bond orders larger than 0.100000
B(  0-C ,  1-C ) :   0.9489 B(  0-C ,  4-O ) :   0.9119 B(  0-C ,  5-H ) :   0.9199
B(  0-C , 15-O ) :   0.8539 B(  1-C ,  2-C ) :   0.9569 B(  1-C ,  6-H ) :   0.9401
B(  1-C ,  7-H ) :   0.9363 B(  2-C ,  3-C ) :   0.9550 B(  2-C ,  8-H ) :   0.9451
B(  2-C ,  9-H ) :   0.9439 B(  3-C ,  4-O ) :   0.8355 B(  3-C , 10-H ) :   0.9357
B(  3-C , 11-H ) :   0.9403 B( 12-C , 13-H ) :   0.9189 B( 12-C , 14-H ) :   0.9134
B( 12-C , 15-O ) :   0.8174 B( 12-C , 16-C ) :   0.9091 B( 16-C , 17-C ) :   0.9109
B( 16-C , 20-O ) :   0.8436 B( 16-C , 21-H ) :   0.9253 B( 17-C , 18-C ) :   0.9130
B( 17-C , 22-O ) :   0.8890 B( 17-C , 23-H ) :   0.9246 B( 18-C , 19-C ) :   0.9415
B( 18-C , 24-H ) :   0.9374 B( 18-C , 25-H ) :   0.9347 B( 19-C , 20-O ) :   0.8455
B( 19-C , 26-H ) :   0.9356 B( 19-C , 27-H ) :   0.9377 B( 22-O , 28-H ) :   0.7959

FINAL SINGLE POINT ENERGY      -652.870198116429

DIPOLE MOMENT
-------------
                                X             Y             Z
Electronic contribution:     -2.71311      -1.76894       1.87037
Nuclear contribution   :      3.25893       1.77572      -2.47287
                        -----------------------------------------
Total Dipole Moment    :      0.54582       0.00679      -0.60250
                        -----------------------------------------
Magnitude (a.u.)       :      0.81301
Magnitude (Debye)      :      2.06650

Rotational constants in cm-1:     0.059290     0.012017     0.011366
Rotational constants in MHz :  1777.459275   360.266868   340.741281

                             ****ORCA TERMINATED NORMALLY****
TOTAL RUN TIME: 0 days 0 hours 54 minutes 33 seconds 399 msec
