                         Program Version 4.2.1 -  RELEASE  -
|  1> # Test redundant internal optimization
|  2> #
|  3> ! RKS B3LYP  Opt TightSCF SmallPrint
|  4>
|  5> %basis
|  6>         Basis "6-31G"
|  7> end
|  8>
|  9> %geom
| 10> Constraints
| 11> { D 4  0  19  14  210.0   C } # D for Dihedral angle
| 12> { D 0  19  14  12  15.0   C } # D for Dihedral angle
| 13> { D 0  4  3  2   C } # D for Dihedral angle
| 14> { D 4  3  2  1   C } # D for Dihedral angle
| 15> { D 3  2  1  0   C } # D for Dihedral angle
| 16> { D 2  1  0  4   C } # D for Dihedral angle
| 17> { D 1  0  4  3   C } # D for Dihedral angle
| 18> { D 14  15  16  17   C } # D for Dihedral angle
| 19> { D 15  16  17  12   C } # D for Dihedral angle
| 20> { D 16  17  12  14   C } # D for Dihedral angle
| 21> { D 17  12  14  15   C } # D for Dihedral angle
| 22> { D 12  14  15  16   C } # D for Dihedral angle
| 23> end
| 24> end
| 25>
| 26>
| 27> #%pal
| 28> #nprocs 8
| 29> #end
| 30>
| 31> * xyz 0 1
| 32> C  -21.048   26.222   46.251
| 33> C  -20.361   27.558   45.944
| 34> C  -20.329   28.222   47.341
| 35> C  -20.110   27.022   48.296
| 36> O  -20.473   25.807   47.535
| 37> H  -20.833   25.428   45.533
| 38> H  -19.344   27.382   45.576
| 39> H  -20.898   28.157   45.201
| 40> H  -19.543   28.978   47.434
| 41> H  -21.289   28.710   47.548
| 42> H  -20.733   27.082   49.195
| 43> H  -19.064   26.913   48.597
| 44> C  -22.300   25.373   44.157
| 45> H  -22.716   25.412   43.138
| 46> C  -23.197   26.114   45.155
| 47> C  -24.315   25.075   45.405
| 48> C  -23.561   23.724   45.339
| 49> O  -22.279   23.991   44.649
| 50> H  -21.266   25.719   44.135
| 51> O  -22.472   26.381   46.366
| 52> H  -23.580   27.064   44.765
| 53> H  -24.826   25.222   46.362
| 54> H  -25.070   25.135   44.611
| 55> H  -24.114   22.959   44.784
| 56> H  -23.316   23.333   46.332
| 57> *
| 58>
| 59>                          ****END OF INPUT****
 Total Charge           Charge          ....    0
 Multiplicity           Mult            ....    1
 Number of Electrons    NEL             ....   86
FINAL SINGLE POINT ENERGY      -538.409191988711
FINAL SINGLE POINT ENERGY      -538.426315332130
FINAL SINGLE POINT ENERGY      -538.427967778363
FINAL SINGLE POINT ENERGY      -538.428294738642
FINAL SINGLE POINT ENERGY      -538.428358713320
FINAL SINGLE POINT ENERGY      -538.428371005340
FINAL SINGLE POINT ENERGY      -538.428372791896
                    ***********************HURRAY********************

CARTESIAN COORDINATES (ANGSTROEM)
---------------------------------
  C    -20.889323   26.211179   46.240749
  C    -20.204702   27.556371   46.003136
  C    -20.364659   28.244593   47.380085
  C    -20.238918   27.066685   48.370133
  O    -20.478236   25.839122   47.568923
  H    -20.592892   25.391219   45.585821
  H    -19.145834   27.391321   45.769393
  H    -20.658003   28.124569   45.185874
  H    -19.612713   29.020070   47.553993
  H    -21.356886   28.700033   47.449322
  H    -20.972210   27.105739   49.180064
  H    -19.234505   26.973440   48.794494
  C    -22.471529   25.324439   43.940136
  H    -23.086255   25.390065   43.030301
  C    -23.159183   26.091964   45.069200
  C    -24.238690   25.087591   45.515221
  C    -23.551782   23.714836   45.333590
  O    -22.399363   23.946511   44.426454
  H    -21.458247   25.646789   43.697024
  O    -22.337124   26.356722   46.256062
  H    -23.574956   27.046761   44.727904
  H    -24.532627   25.285255   46.547471
  H    -25.123616   25.175696   44.873512
  H    -24.211235   22.966854   44.881412
  H    -23.143512   23.325177   46.268726

 Multiplicity           Mult            ....    1
 Number of Electrons    NEL             ....   86
 Basis Dimension        Dim             ....  127

ORBITAL ENERGIES
----------------

  NO   OCC          E(Eh)            E(eV)
   0   2.0000     -19.135528      -520.7042
   1   2.0000     -19.133444      -520.6475
   2   2.0000     -19.133386      -520.6459
   3   2.0000     -10.272149      -279.5194
   4   2.0000     -10.242674      -278.7173
   5   2.0000     -10.230794      -278.3941
   6   2.0000     -10.221007      -278.1277
   7   2.0000     -10.219786      -278.0945
   8   2.0000     -10.182832      -277.0890
   9   2.0000     -10.182461      -277.0789
  10   2.0000     -10.182244      -277.0730
  11   2.0000      -1.046584       -28.4790
  12   2.0000      -1.017730       -27.6938
  13   2.0000      -0.983097       -26.7514
  14   2.0000      -0.787723       -21.4350
  15   2.0000      -0.776484       -21.1292
  16   2.0000      -0.739609       -20.1258
  17   2.0000      -0.723040       -19.6749
  18   2.0000      -0.618544       -16.8315
  19   2.0000      -0.598957       -16.2984
  20   2.0000      -0.591711       -16.1013
  21   2.0000      -0.562510       -15.3067
  22   2.0000      -0.525397       -14.2968
  23   2.0000      -0.500098       -13.6084
  24   2.0000      -0.484203       -13.1758
  25   2.0000      -0.479256       -13.0412
  26   2.0000      -0.451207       -12.2780
  27   2.0000      -0.448627       -12.2078
  28   2.0000      -0.424189       -11.5428
  29   2.0000      -0.415550       -11.3077
  30   2.0000      -0.398225       -10.8363
  31   2.0000      -0.381970       -10.3939
  32   2.0000      -0.371551       -10.1104
  33   2.0000      -0.366149        -9.9634
  34   2.0000      -0.360550        -9.8111
  35   2.0000      -0.353129        -9.6091
  36   2.0000      -0.346544        -9.4299
  37   2.0000      -0.316090        -8.6012
  38   2.0000      -0.306518        -8.3408
  39   2.0000      -0.293918        -7.9979
  40   2.0000      -0.256054        -6.9676
  41   2.0000      -0.242816        -6.6074
  42   2.0000      -0.241426        -6.5695
  43   0.0000       0.078016         2.1229
  44   0.0000       0.097618         2.6563
  45   0.0000       0.102363         2.7854
  46   0.0000       0.108495         2.9523
  47   0.0000       0.114456         3.1145

MULLIKEN ATOMIC CHARGES
-----------------------
   0 C :    0.281634
   1 C :   -0.259970
   2 C :   -0.298728
   3 C :   -0.001283
   4 O :   -0.504887
   5 H :    0.172109
   6 H :    0.143100
   7 H :    0.136560
   8 H :    0.139433
   9 H :    0.159174
  10 H :    0.150354
  11 H :    0.139602
  12 C :   -0.038126
  13 H :    0.135351
  14 C :    0.090407
  15 C :   -0.277785
  16 C :   -0.010088
  17 O :   -0.522494
  18 H :    0.153209
  19 O :   -0.528153
  20 H :    0.132027
  21 H :    0.169404
  22 H :    0.133720
  23 H :    0.139232
  24 H :    0.166196
Sum of atomic charges:   -0.0000000

LOEWDIN ATOMIC CHARGES
----------------------
   0 C :    0.174815
   1 C :   -0.229038
   2 C :   -0.216789
   3 C :   -0.026703
   4 O :   -0.306629
   5 H :    0.111648
   6 H :    0.112739
   7 H :    0.111657
   8 H :    0.112905
   9 H :    0.117667
  10 H :    0.107025
  11 H :    0.101031
  12 C :   -0.053895
  13 H :    0.099374
  14 C :    0.043620
  15 C :   -0.224555
  16 C :   -0.029052
  17 O :   -0.334155
  18 H :    0.110955
  19 O :   -0.337327
  20 H :    0.100462
  21 H :    0.131563
  22 H :    0.107634
  23 H :    0.100550
  24 H :    0.114496

  Mayer bond orders larger than 0.100000
B(  0-C ,  1-C ) :   0.9287 B(  0-C ,  4-O ) :   0.9214 B(  0-C ,  5-H ) :   0.9052
B(  0-C , 19-O ) :   0.8277 B(  1-C ,  2-C ) :   0.9535 B(  1-C ,  6-H ) :   0.9348
B(  1-C ,  7-H ) :   0.9398 B(  2-C ,  3-C ) :   0.9551 B(  2-C ,  8-H ) :   0.9453
B(  2-C ,  9-H ) :   0.9443 B(  3-C ,  4-O ) :   0.8409 B(  3-C , 10-H ) :   0.9349
B(  3-C , 11-H ) :   0.9398 B( 12-C , 13-H ) :   0.9135 B( 12-C , 14-C ) :   0.9225
B( 12-C , 17-O ) :   0.8611 B( 12-C , 18-H ) :   0.9271 B( 14-C , 15-C ) :   0.9424
B( 14-C , 19-O ) :   0.8456 B( 14-C , 20-H ) :   0.9253 B( 15-C , 16-C ) :   0.9479
B( 15-C , 21-H ) :   0.9357 B( 15-C , 22-H ) :   0.9383 B( 16-C , 17-O ) :   0.8403
B( 16-C , 23-H ) :   0.9343 B( 16-C , 24-H ) :   0.9345

FINAL SINGLE POINT ENERGY      -538.428373303791

DIPOLE MOMENT
-------------
                                X             Y             Z
Electronic contribution:      0.43144      -3.09093       0.14045
Nuclear contribution   :     -0.80928       4.17644      -0.57196
                        -----------------------------------------
Total Dipole Moment    :     -0.37784       1.08551      -0.43151
                        -----------------------------------------
Magnitude (a.u.)       :      1.22772
Magnitude (Debye)      :      3.12063

Rotational constants in cm-1:     0.081195     0.021461     0.020837
Rotational constants in MHz :  2434.174466   643.383018   624.683949

                             ****ORCA TERMINATED NORMALLY****
TOTAL RUN TIME: 0 days 0 hours 8 minutes 11 seconds 460 msec
