                         Program Version 4.2.0 -  RELEASE  -
|  1> # Test redundant internal optimization
|  2> #
|  3> ! RKS B3LYP  Opt TightSCF SmallPrint
|  4>
|  5> %basis
|  6>         Basis "6-31G"
|  7> end
|  8>
|  9> %geom
| 10> Constraints
| 11> { D 4  0  15  12  315.0   C } # D for Dihedral angle
| 12> { D 0  15  12  16  30.0   C } # D for Dihedral angle
| 13> { D 0  4  3  2   C } # D for Dihedral angle
| 14> { D 4  3  2  1   C } # D for Dihedral angle
| 15> { D 3  2  1  0   C } # D for Dihedral angle
| 16> { D 2  1  0  4   C } # D for Dihedral angle
| 17> { D 1  0  4  3   C } # D for Dihedral angle
| 18> { D 16  20  19  18   C } # D for Dihedral angle
| 19> { D 20  19  18  17   C } # D for Dihedral angle
| 20> { D 19  18  17  16   C } # D for Dihedral angle
| 21> { D 18  17  16  20   C } # D for Dihedral angle
| 22> { D 17  16  20  19   C } # D for Dihedral angle
| 23> { D 15  12  16  20   C } # D for Dihedral angle
| 24> end
| 25> end
| 26>
| 27>
| 28> #%pal
| 29> #nprocs 8
| 30> #end
| 31>
| 32> * xyz 0 1
| 33> C  -21.048   26.222   46.251
| 34> C  -20.361   27.558   45.944
| 35> C  -20.329   28.222   47.341
| 36> C  -20.110   27.022   48.296
| 37> O  -20.473   25.807   47.535
| 38> H  -20.833   25.428   45.533
| 39> H  -19.344   27.382   45.576
| 40> H  -20.898   28.157   45.201
| 41> H  -19.543   28.978   47.434
| 42> H  -21.289   28.710   47.548
| 43> H  -20.733   27.082   49.195
| 44> H  -19.064   26.913   48.597
| 45> C  -23.319   25.255   47.135
| 46> H  -24.213   25.662   47.623
| 47> H  -23.637   24.470   46.437
| 48> O  -22.586   26.394   46.375
| 49> C  -22.430   24.588   48.221
| 50> C  -22.077   25.579   49.336
| 51> C  -23.374   25.579   50.179
| 52> C  -23.863   24.112   50.071
| 53> O  -23.169   23.523   48.906
| 54> H  -21.568   24.122   47.741
| 55> O  -20.882   25.040   50.169
| 56> H  -21.813   26.574   48.961
| 57> H  -23.208   25.888   51.215
| 58> H  -24.108   26.265   49.739
| 59> H  -24.945   24.041   49.918
| 60> H  -23.589   23.516   50.945
| 61> H  -21.122   24.043   50.556
| 62> *
| 63>
| 64>                          ****END OF INPUT****
 Total Charge           Charge          ....    0
 Multiplicity           Mult            ....    1
 Number of Electrons    NEL             ....  102
FINAL SINGLE POINT ENERGY      -652.779989924535
FINAL SINGLE POINT ENERGY      -652.829183154804
FINAL SINGLE POINT ENERGY      -652.850210708783
FINAL SINGLE POINT ENERGY      -652.854600086953
FINAL SINGLE POINT ENERGY      -652.855363711808
FINAL SINGLE POINT ENERGY      -652.855597914252
FINAL SINGLE POINT ENERGY      -652.855623811926
FINAL SINGLE POINT ENERGY      -652.855631440917
FINAL SINGLE POINT ENERGY      -652.855631968561
                    ***********************HURRAY********************

CARTESIAN COORDINATES (ANGSTROEM)
---------------------------------
  C    -20.946191   26.276427   46.277961
  C    -20.538187   27.674819   45.811210
  C    -20.321102   28.405044   47.156949
  C    -19.742563   27.302553   48.071061
  O    -20.083342   26.008774   47.406813
  H    -20.691054   25.484939   45.561075
  H    -19.602933   27.599517   45.245909
  H    -21.302545   28.139168   45.185182
  H    -19.647157   29.262668   47.069301
  H    -21.282458   28.761727   47.539612
  H    -20.145444   27.315529   49.085160
  H    -18.650396   27.329785   48.129703
  C    -23.073722   25.203421   47.244500
  H    -23.971458   25.712297   47.605428
  H    -23.397265   24.431774   46.533145
  O    -22.373293   26.247247   46.487202
  C    -22.414275   24.445627   48.413625
  C    -22.080083   25.292485   49.653618
  C    -23.484622   25.492266   50.292675
  C    -24.193206   24.147435   49.983766
  O    -23.432451   23.504304   48.892086
  H    -21.550425   23.866182   48.086046
  O    -21.177942   24.591444   50.549873
  H    -21.595099   26.229630   49.417019
  H    -23.393969   25.687215   51.363853
  H    -24.001180   26.338682   49.828284
  H    -25.232808   24.275112   49.665646
  H    -24.173873   23.461316   50.836859
  H    -21.428958   23.644613   50.584437

 Multiplicity           Mult            ....    1
 Number of Electrons    NEL             ....  102
 Basis Dimension        Dim             ....  149

ORBITAL ENERGIES
----------------

  NO   OCC          E(Eh)            E(eV)
   0   2.0000     -19.149825      -521.0932
   1   2.0000     -19.143864      -520.9310
   2   2.0000     -19.143323      -520.9163
   3   2.0000     -19.133252      -520.6423
   4   2.0000     -10.280101      -279.7358
   5   2.0000     -10.233485      -278.4673
   6   2.0000     -10.232234      -278.4332
   7   2.0000     -10.230338      -278.3816
   8   2.0000     -10.229598      -278.3615
   9   2.0000     -10.229361      -278.3551
  10   2.0000     -10.189006      -277.2570
  11   2.0000     -10.186645      -277.1927
  12   2.0000     -10.185651      -277.1657
  13   2.0000      -1.051688       -28.6179
  14   2.0000      -1.035741       -28.1840
  15   2.0000      -1.003941       -27.3186
  16   2.0000      -0.994980       -27.0748
  17   2.0000      -0.791672       -21.5425
  18   2.0000      -0.776078       -21.1181
  19   2.0000      -0.764975       -20.8160
  20   2.0000      -0.733974       -19.9724
  21   2.0000      -0.676231       -18.4012
  22   2.0000      -0.602462       -16.3938
  23   2.0000      -0.601496       -16.3675
  24   2.0000      -0.600259       -16.3339
  25   2.0000      -0.570802       -15.5323
  26   2.0000      -0.520357       -14.1596
  27   2.0000      -0.519619       -14.1395
  28   2.0000      -0.495933       -13.4950
  29   2.0000      -0.482128       -13.1194
  30   2.0000      -0.476011       -12.9529
  31   2.0000      -0.458600       -12.4791
  32   2.0000      -0.443631       -12.0718
  33   2.0000      -0.435752       -11.8574
  34   2.0000      -0.419768       -11.4225
  35   2.0000      -0.411036       -11.1849
  36   2.0000      -0.403649       -10.9838
  37   2.0000      -0.388933       -10.5834
  38   2.0000      -0.376142       -10.2353
  39   2.0000      -0.367556       -10.0017
  40   2.0000      -0.360377        -9.8064
  41   2.0000      -0.356227        -9.6934
  42   2.0000      -0.350814        -9.5461
  43   2.0000      -0.338541        -9.2122
  44   2.0000      -0.324336        -8.8256
  45   2.0000      -0.305725        -8.3192
  46   2.0000      -0.302450        -8.2301
  47   2.0000      -0.267944        -7.2911
  48   2.0000      -0.265324        -7.2198
  49   2.0000      -0.255248        -6.9457
  50   2.0000      -0.241842        -6.5808
  51   0.0000       0.067020         1.8237
  52   0.0000       0.074738         2.0337
  53   0.0000       0.093860         2.5541
  54   0.0000       0.098498         2.6803
  55   0.0000       0.104542         2.8447

MULLIKEN ATOMIC CHARGES
-----------------------
   0 C :    0.308208
   1 C :   -0.265436
   2 C :   -0.301016
   3 C :   -0.021838
   4 O :   -0.511432
   5 H :    0.143279
   6 H :    0.149411
   7 H :    0.162061
   8 H :    0.144919
   9 H :    0.156353
  10 H :    0.152409
  11 H :    0.154923
  12 C :    0.005990
  13 H :    0.145345
  14 H :    0.151450
  15 O :   -0.542951
  16 C :    0.032192
  17 C :    0.107416
  18 C :   -0.301400
  19 C :   -0.034311
  20 O :   -0.525527
  21 H :    0.177682
  22 O :   -0.604921
  23 H :    0.152266
  24 H :    0.160817
  25 H :    0.142739
  26 H :    0.148167
  27 H :    0.149453
  28 H :    0.363754
Sum of atomic charges:   -0.0000000

LOEWDIN ATOMIC CHARGES
----------------------
   0 C :    0.177413
   1 C :   -0.213726
   2 C :   -0.217112
   3 C :   -0.032916
   4 O :   -0.321492
   5 H :    0.091377
   6 H :    0.116049
   7 H :    0.126827
   8 H :    0.116026
   9 H :    0.115686
  10 H :    0.104300
  11 H :    0.108663
  12 C :   -0.038860
  13 H :    0.109398
  14 H :    0.107119
  15 O :   -0.338877
  16 C :    0.007811
  17 C :    0.040440
  18 C :   -0.244333
  19 C :   -0.040235
  20 O :   -0.328019
  21 H :    0.122926
  22 O :   -0.412839
  23 H :    0.115822
  24 H :    0.126183
  25 H :    0.112236
  26 H :    0.103841
  27 H :    0.103602
  28 H :    0.282691

  Mayer bond orders larger than 0.100000
B(  0-C ,  1-C ) :   0.9398 B(  0-C ,  4-O ) :   0.8977 B(  0-C ,  5-H ) :   0.9246
B(  0-C , 15-O ) :   0.8625 B(  1-C ,  2-C ) :   0.9574 B(  1-C ,  6-H ) :   0.9396
B(  1-C ,  7-H ) :   0.9364 B(  2-C ,  3-C ) :   0.9556 B(  2-C ,  8-H ) :   0.9445
B(  2-C ,  9-H ) :   0.9454 B(  3-C ,  4-O ) :   0.8293 B(  3-C , 10-H ) :   0.9160
B(  3-C , 11-H ) :   0.9401 B( 12-C , 13-H ) :   0.9364 B( 12-C , 14-H ) :   0.9199
B( 12-C , 15-O ) :   0.8315 B( 12-C , 16-C ) :   0.8875 B( 16-C , 17-C ) :   0.9120
B( 16-C , 20-O ) :   0.8166 B( 16-C , 21-H ) :   0.9220 B( 17-C , 18-C ) :   0.9059
B( 17-C , 22-O ) :   0.8989 B( 17-C , 23-H ) :   0.9147 B( 18-C , 19-C ) :   0.9420
B( 18-C , 24-H ) :   0.9380 B( 18-C , 25-H ) :   0.9354 B( 19-C , 20-O ) :   0.8394
B( 19-C , 26-H ) :   0.9348 B( 19-C , 27-H ) :   0.9380 B( 22-O , 28-H ) :   0.7952

FINAL SINGLE POINT ENERGY      -652.855631728899

DIPOLE MOMENT
-------------
                                X             Y             Z
Electronic contribution:      0.44644      -4.88853      -0.63561
Nuclear contribution   :     -0.68362       5.70902       0.64187
                        -----------------------------------------
Total Dipole Moment    :     -0.23718       0.82049       0.00626
                        -----------------------------------------
Magnitude (a.u.)       :      0.85411
Magnitude (Debye)      :      2.17097

Rotational constants in cm-1:     0.049483     0.016941     0.014798
Rotational constants in MHz :  1483.463898   507.880026   443.639572

                             ****ORCA TERMINATED NORMALLY****
TOTAL RUN TIME: 0 days 0 hours 40 minutes 42 seconds 911 msec
