                         Program Version 4.2.0 -  RELEASE  -
|  1> # Test redundant internal optimization
|  2> #
|  3> ! RKS B3LYP  Opt TightSCF SmallPrint
|  4>
|  5> %basis
|  6>         Basis "6-31G"
|  7> end
|  8>
|  9> %geom
| 10> Constraints
| 11> { D 4  0  15  12  240.0   C } # D for Dihedral angle
| 12> { D 0  15  12  16  75.0   C } # D for Dihedral angle
| 13> { D 0  4  3  2   C } # D for Dihedral angle
| 14> { D 4  3  2  1   C } # D for Dihedral angle
| 15> { D 3  2  1  0   C } # D for Dihedral angle
| 16> { D 2  1  0  4   C } # D for Dihedral angle
| 17> { D 1  0  4  3   C } # D for Dihedral angle
| 18> { D 16  20  19  18   C } # D for Dihedral angle
| 19> { D 20  19  18  17   C } # D for Dihedral angle
| 20> { D 19  18  17  16   C } # D for Dihedral angle
| 21> { D 18  17  16  20   C } # D for Dihedral angle
| 22> { D 17  16  20  19   C } # D for Dihedral angle
| 23> { D 15  12  16  20   C } # D for Dihedral angle
| 24> end
| 25> end
| 26>
| 27>
| 28> #%pal
| 29> #nprocs 8
| 30> #end
| 31>
| 32> * xyz 0 1
| 33> C  -21.048   26.222   46.251
| 34> C  -20.361   27.558   45.944
| 35> C  -20.329   28.222   47.341
| 36> C  -20.110   27.022   48.296
| 37> O  -20.473   25.807   47.535
| 38> H  -20.833   25.428   45.533
| 39> H  -19.344   27.382   45.576
| 40> H  -20.898   28.157   45.201
| 41> H  -19.543   28.978   47.434
| 42> H  -21.289   28.710   47.548
| 43> H  -20.733   27.082   49.195
| 44> H  -19.064   26.913   48.597
| 45> C  -23.430   25.483   45.442
| 46> H  -24.458   25.863   45.398
| 47> H  -23.018   25.489   44.425
| 48> O  -22.586   26.394   46.375
| 49> C  -23.475   24.006   45.925
| 50> C  -24.217   23.115   44.923
| 51> C  -23.133   22.890   43.841
| 52> C  -21.822   22.831   44.664
| 53> O  -22.122   23.443   45.977
| 54> H  -23.874   23.974   46.941
| 55> H  -24.494   22.166   45.395
| 56> O  -25.504   23.775   44.356
| 57> H  -23.300   21.980   43.256
| 58> H  -23.114   23.737   43.145
| 59> H  -21.003   23.384   44.190
| 60> H  -21.494   21.805   44.854
| 61> H  -25.251   24.727   43.877
| 62> *
| 63>
| 64>                          ****END OF INPUT****
 Total Charge           Charge          ....    0
 Multiplicity           Mult            ....    1
 Number of Electrons    NEL             ....  102
FINAL SINGLE POINT ENERGY      -652.826942389675
FINAL SINGLE POINT ENERGY      -652.850139959074
FINAL SINGLE POINT ENERGY      -652.854943695056
FINAL SINGLE POINT ENERGY      -652.855689576971
FINAL SINGLE POINT ENERGY      -652.855807290202
FINAL SINGLE POINT ENERGY      -652.855828687275
FINAL SINGLE POINT ENERGY      -652.855830581122
                    ***********************HURRAY********************

CARTESIAN COORDINATES (ANGSTROEM)
---------------------------------
  C    -20.968124   26.229804   46.204331
  C    -20.374197   27.619351   45.976031
  C    -20.442517   28.234251   47.395234
  C    -20.170301   27.019275   48.308296
  O    -20.420262   25.819795   47.471563
  H    -20.701668   25.462834   45.477999
  H    -19.333270   27.520594   45.644495
  H    -20.930485   28.192646   45.230595
  H    -19.717800   29.040683   47.542365
  H    -21.446439   28.631414   47.572755
  H    -20.827966   26.982236   49.180471
  H    -19.128412   26.960966   48.638359
  C    -23.256038   25.550311   45.441174
  H    -24.248195   26.007038   45.504234
  H    -22.907239   25.625423   44.396866
  O    -22.415813   26.364314   46.295082
  C    -23.354444   24.085145   45.873863
  C    -24.222583   23.209103   44.953876
  C    -23.211904   22.829651   43.828882
  C    -21.878583   22.699160   44.596616
  O    -22.059601   23.406638   45.892595
  H    -23.705116   24.066081   46.909557
  H    -24.542796   22.318140   45.497409
  O    -25.453305   23.817995   44.493408
  H    -23.497260   21.910500   43.310584
  H    -23.171107   23.637091   43.085003
  H    -21.032524   23.142832   44.062230
  H    -21.636406   21.659775   44.834670
  H    -25.265644   24.499957   43.816458

 Multiplicity           Mult            ....    1
 Number of Electrons    NEL             ....  102
 Basis Dimension        Dim             ....  149

ORBITAL ENERGIES
----------------

  NO   OCC          E(Eh)            E(eV)
   0   2.0000     -19.151796      -521.1469
   1   2.0000     -19.141133      -520.8567
   2   2.0000     -19.134521      -520.6768
   3   2.0000     -19.126613      -520.4616
   4   2.0000     -10.267846      -279.4023
   5   2.0000     -10.246997      -278.8350
   6   2.0000     -10.233277      -278.4616
   7   2.0000     -10.232765      -278.4477
   8   2.0000     -10.228969      -278.3444
   9   2.0000     -10.214516      -277.9511
  10   2.0000     -10.198413      -277.5129
  11   2.0000     -10.177239      -276.9367
  12   2.0000     -10.177124      -276.9336
  13   2.0000      -1.043734       -28.4014
  14   2.0000      -1.034137       -28.1403
  15   2.0000      -1.017468       -27.6867
  16   2.0000      -0.985575       -26.8189
  17   2.0000      -0.785474       -21.3738
  18   2.0000      -0.778935       -21.1959
  19   2.0000      -0.764298       -20.7976
  20   2.0000      -0.725876       -19.7521
  21   2.0000      -0.679244       -18.4832
  22   2.0000      -0.614265       -16.7150
  23   2.0000      -0.593235       -16.1428
  24   2.0000      -0.588666       -16.0184
  25   2.0000      -0.571365       -15.5476
  26   2.0000      -0.529790       -14.4163
  27   2.0000      -0.508899       -13.8478
  28   2.0000      -0.497670       -13.5423
  29   2.0000      -0.481019       -13.0892
  30   2.0000      -0.464821       -12.6484
  31   2.0000      -0.453645       -12.3443
  32   2.0000      -0.444432       -12.0936
  33   2.0000      -0.431822       -11.7505
  34   2.0000      -0.428702       -11.6656
  35   2.0000      -0.417805       -11.3691
  36   2.0000      -0.406709       -11.0671
  37   2.0000      -0.389398       -10.5961
  38   2.0000      -0.383105       -10.4248
  39   2.0000      -0.363472        -9.8906
  40   2.0000      -0.357418        -9.7259
  41   2.0000      -0.348087        -9.4719
  42   2.0000      -0.342438        -9.3182
  43   2.0000      -0.331799        -9.0287
  44   2.0000      -0.316489        -8.6121
  45   2.0000      -0.307440        -8.3659
  46   2.0000      -0.296345        -8.0640
  47   2.0000      -0.272592        -7.4176
  48   2.0000      -0.264032        -7.1847
  49   2.0000      -0.249736        -6.7957
  50   2.0000      -0.228533        -6.2187
  51   0.0000       0.047648         1.2966
  52   0.0000       0.067418         1.8345
  53   0.0000       0.089825         2.4443
  54   0.0000       0.098823         2.6891
  55   0.0000       0.107277         2.9192

MULLIKEN ATOMIC CHARGES
-----------------------
   0 C :    0.295513
   1 C :   -0.253259
   2 C :   -0.299491
   3 C :   -0.000388
   4 O :   -0.494470
   5 H :    0.149408
   6 H :    0.138850
   7 H :    0.139993
   8 H :    0.136513
   9 H :    0.161100
  10 H :    0.148574
  11 H :    0.136858
  12 C :   -0.031398
  13 H :    0.158225
  14 H :    0.107118
  15 O :   -0.518317
  16 C :    0.095208
  17 C :    0.084489
  18 C :   -0.322755
  19 C :   -0.014259
  20 O :   -0.501396
  21 H :    0.170155
  22 H :    0.170475
  23 O :   -0.598154
  24 H :    0.158700
  25 H :    0.132826
  26 H :    0.139511
  27 H :    0.154698
  28 H :    0.355672
Sum of atomic charges:    0.0000000

LOEWDIN ATOMIC CHARGES
----------------------
   0 C :    0.177702
   1 C :   -0.222539
   2 C :   -0.217070
   3 C :   -0.027680
   4 O :   -0.306641
   5 H :    0.104771
   6 H :    0.110075
   7 H :    0.114991
   8 H :    0.111240
   9 H :    0.118614
  10 H :    0.106182
  11 H :    0.099698
  12 C :   -0.048150
  13 H :    0.118506
  14 H :    0.080147
  15 O :   -0.328533
  16 C :    0.008390
  17 C :    0.035423
  18 C :   -0.242274
  19 C :   -0.031839
  20 O :   -0.311658
  21 H :    0.122726
  22 H :    0.121208
  23 O :   -0.406069
  24 H :    0.123360
  25 H :    0.103341
  26 H :    0.099560
  27 H :    0.108817
  28 H :    0.277706

  Mayer bond orders larger than 0.100000
B(  0-C ,  1-C ) :   0.9393 B(  0-C ,  4-O ) :   0.9291 B(  0-C ,  5-H ) :   0.9158
B(  0-C , 15-O ) :   0.8220 B(  1-C ,  2-C ) :   0.9569 B(  1-C ,  6-H ) :   0.9382
B(  1-C ,  7-H ) :   0.9393 B(  2-C ,  3-C ) :   0.9535 B(  2-C ,  8-H ) :   0.9459
B(  2-C ,  9-H ) :   0.9438 B(  3-C ,  4-O ) :   0.8453 B(  3-C , 10-H ) :   0.9348
B(  3-C , 11-H ) :   0.9399 B( 12-C , 13-H ) :   0.9230 B( 12-C , 14-H ) :   0.9236
B( 12-C , 15-O ) :   0.8804 B( 12-C , 16-C ) :   0.8883 B( 16-C , 17-C ) :   0.8665
B( 16-C , 20-O ) :   0.8619 B( 16-C , 21-H ) :   0.9278 B( 17-C , 18-C ) :   0.9230
B( 17-C , 22-H ) :   0.9319 B( 17-C , 23-O ) :   0.8991 B( 18-C , 19-C ) :   0.9371
B( 18-C , 24-H ) :   0.9422 B( 18-C , 25-H ) :   0.9405 B( 19-C , 20-O ) :   0.8477
B( 19-C , 26-H ) :   0.9309 B( 19-C , 27-H ) :   0.9378 B( 23-O , 28-H ) :   0.7987

FINAL SINGLE POINT ENERGY      -652.855820509353

DIPOLE MOMENT
-------------
                                X             Y             Z
Electronic contribution:     -2.49752      -2.83072       2.02245
Nuclear contribution   :      2.77837       3.21928      -3.36722
                        -----------------------------------------
Total Dipole Moment    :      0.28084       0.38856      -1.34477
                        -----------------------------------------
Magnitude (a.u.)       :      1.42768
Magnitude (Debye)      :      3.62887

Rotational constants in cm-1:     0.059751     0.013301     0.012279
Rotational constants in MHz :  1791.275570   398.765036   368.112970

                             ****ORCA TERMINATED NORMALLY****
TOTAL RUN TIME: 0 days 0 hours 22 minutes 58 seconds 178 msec
