                         Program Version 4.2.0 -  RELEASE  -
|  1> # Test redundant internal optimization
|  2> #
|  3> ! RKS B3LYP  Opt TightSCF SmallPrint
|  4>
|  5> %basis
|  6>         Basis "6-31G"
|  7> end
|  8>
|  9> %geom
| 10> Constraints
| 11> { D 4  0  15  12  225.0   C } # D for Dihedral angle
| 12> { D 0  15  12  16  75.0   C } # D for Dihedral angle
| 13> { D 0  4  3  2   C } # D for Dihedral angle
| 14> { D 4  3  2  1   C } # D for Dihedral angle
| 15> { D 3  2  1  0   C } # D for Dihedral angle
| 16> { D 2  1  0  4   C } # D for Dihedral angle
| 17> { D 1  0  4  3   C } # D for Dihedral angle
| 18> { D 16  20  19  18   C } # D for Dihedral angle
| 19> { D 20  19  18  17   C } # D for Dihedral angle
| 20> { D 19  18  17  16   C } # D for Dihedral angle
| 21> { D 18  17  16  20   C } # D for Dihedral angle
| 22> { D 17  16  20  19   C } # D for Dihedral angle
| 23> { D 15  12  16  20   C } # D for Dihedral angle
| 24> end
| 25> end
| 26>
| 27>
| 28> #%pal
| 29> #nprocs 8
| 30> #end
| 31>
| 32> * xyz 0 1
| 33> C  -21.048   26.222   46.251
| 34> C  -20.361   27.558   45.944
| 35> C  -20.329   28.222   47.341
| 36> C  -20.110   27.022   48.296
| 37> O  -20.473   25.807   47.535
| 38> H  -20.833   25.428   45.533
| 39> H  -19.344   27.382   45.576
| 40> H  -20.898   28.157   45.201
| 41> H  -19.543   28.978   47.434
| 42> H  -21.289   28.710   47.548
| 43> H  -20.733   27.082   49.195
| 44> H  -19.064   26.913   48.597
| 45> C  -23.415   25.773   45.218
| 46> H  -24.435   26.176   45.246
| 47> H  -22.972   26.029   44.247
| 48> O  -22.586   26.394   46.375
| 49> C  -23.501   24.224   45.304
| 50> C  -24.263   23.777   46.557
| 51> C  -25.732   23.988   46.122
| 52> C  -25.708   23.628   44.615
| 53> O  -24.293   23.691   44.191
| 54> H  -22.497   23.805   45.212
| 55> H  -24.067   22.718   46.758
| 56> O  -23.886   24.594   47.824
| 57> H  -26.435   23.369   46.688
| 58> H  -26.020   25.036   46.265
| 59> H  -26.296   24.324   44.008
| 60> H  -26.057   22.610   44.424
| 61> H  -24.074   25.658   47.645
| 62> *
| 63>
| 64>                          ****END OF INPUT****
 Total Charge           Charge          ....    0
 Multiplicity           Mult            ....    1
 Number of Electrons    NEL             ....  102
FINAL SINGLE POINT ENERGY      -652.828677044543
FINAL SINGLE POINT ENERGY      -652.853723857003
FINAL SINGLE POINT ENERGY      -652.860063228732
FINAL SINGLE POINT ENERGY      -652.862603245022
FINAL SINGLE POINT ENERGY      -652.864009727195
FINAL SINGLE POINT ENERGY      -652.864870885548
FINAL SINGLE POINT ENERGY      -652.865262698433
FINAL SINGLE POINT ENERGY      -652.865365439134
FINAL SINGLE POINT ENERGY      -652.865375108873
FINAL SINGLE POINT ENERGY      -652.865377564686
                    ***********************HURRAY********************

CARTESIAN COORDINATES (ANGSTROEM)
---------------------------------
  C    -21.082777   26.178089   46.209128
  C    -20.378617   27.502799   45.925491
  C    -20.449749   28.202818   47.302485
  C    -20.302603   27.032784   48.296977
  O    -20.615739   25.803123   47.513011
  H    -20.847637   25.361590   45.522802
  H    -19.339384   27.305567   45.637095
  H    -20.862409   28.072601   45.128123
  H    -19.669161   28.958552   47.430187
  H    -21.423498   28.687868   47.418103
  H    -20.992365   27.088939   49.141963
  H    -19.281168   26.910008   48.667231
  C    -23.334398   25.799887   45.183416
  H    -24.301838   26.300880   45.252822
  H    -22.894442   26.034775   44.206003
  O    -22.532275   26.387111   46.267475
  C    -23.480678   24.279200   45.331422
  C    -24.239817   23.829783   46.592436
  C    -25.719022   24.064001   46.169332
  C    -25.713387   23.717740   44.666462
  O    -24.286264   23.766830   44.224504
  H    -22.503626   23.793518   45.251897
  H    -24.068438   22.756936   46.739003
  O    -23.890490   24.497309   47.819515
  H    -26.407876   23.441408   46.745571
  H    -25.978173   25.111397   46.354916
  H    -26.292439   24.416857   44.055152
  H    -26.063475   22.701156   44.465727
  H    -23.310255   25.271471   47.631750

 Multiplicity           Mult            ....    1
 Number of Electrons    NEL             ....  102
 Basis Dimension        Dim             ....  149

ORBITAL ENERGIES
----------------

  NO   OCC          E(Eh)            E(eV)
   0   2.0000     -19.162325      -521.4334
   1   2.0000     -19.151550      -521.1402
   2   2.0000     -19.141124      -520.8565
   3   2.0000     -19.109726      -520.0021
   4   2.0000     -10.291755      -280.0529
   5   2.0000     -10.239890      -278.6416
   6   2.0000     -10.234530      -278.4957
   7   2.0000     -10.232282      -278.4346
   8   2.0000     -10.228819      -278.3403
   9   2.0000     -10.226381      -278.2740
  10   2.0000     -10.194229      -277.3991
  11   2.0000     -10.192502      -277.3521
  12   2.0000     -10.177544      -276.9451
  13   2.0000      -1.065450       -28.9924
  14   2.0000      -1.025312       -27.9002
  15   2.0000      -1.006699       -27.3937
  16   2.0000      -0.989584       -26.9279
  17   2.0000      -0.795040       -21.6341
  18   2.0000      -0.771660       -20.9979
  19   2.0000      -0.766139       -20.8477
  20   2.0000      -0.738893       -20.1063
  21   2.0000      -0.679891       -18.5008
  22   2.0000      -0.608410       -16.5557
  23   2.0000      -0.605287       -16.4707
  24   2.0000      -0.594238       -16.1700
  25   2.0000      -0.575859       -15.6699
  26   2.0000      -0.528431       -14.3793
  27   2.0000      -0.523373       -14.2417
  28   2.0000      -0.497114       -13.5272
  29   2.0000      -0.487490       -13.2653
  30   2.0000      -0.469562       -12.7774
  31   2.0000      -0.459520       -12.5042
  32   2.0000      -0.451889       -12.2965
  33   2.0000      -0.432096       -11.7579
  34   2.0000      -0.425809       -11.5869
  35   2.0000      -0.413507       -11.2521
  36   2.0000      -0.408285       -11.1100
  37   2.0000      -0.385898       -10.5008
  38   2.0000      -0.381653       -10.3853
  39   2.0000      -0.370483       -10.0814
  40   2.0000      -0.364451        -9.9172
  41   2.0000      -0.361874        -9.8471
  42   2.0000      -0.347549        -9.4573
  43   2.0000      -0.338593        -9.2136
  44   2.0000      -0.327054        -8.8996
  45   2.0000      -0.321530        -8.7493
  46   2.0000      -0.291553        -7.9336
  47   2.0000      -0.275836        -7.5059
  48   2.0000      -0.266785        -7.2596
  49   2.0000      -0.242831        -6.6078
  50   2.0000      -0.239311        -6.5120
  51   0.0000       0.058050         1.5796
  52   0.0000       0.080848         2.2000
  53   0.0000       0.092811         2.5255
  54   0.0000       0.094828         2.5804
  55   0.0000       0.103846         2.8258

MULLIKEN ATOMIC CHARGES
-----------------------
   0 C :    0.281922
   1 C :   -0.253656
   2 C :   -0.302017
   3 C :   -0.008666
   4 O :   -0.501861
   5 H :    0.152648
   6 H :    0.148711
   7 H :    0.149661
   8 H :    0.146313
   9 H :    0.165678
  10 H :    0.160802
  11 H :    0.148214
  12 C :   -0.045409
  13 H :    0.165259
  14 H :    0.152322
  15 O :   -0.535748
  16 C :    0.047057
  17 C :    0.125914
  18 C :   -0.301053
  19 C :   -0.020652
  20 O :   -0.523279
  21 H :    0.156747
  22 H :    0.146921
  23 O :   -0.638684
  24 H :    0.153447
  25 H :    0.145200
  26 H :    0.142970
  27 H :    0.147831
  28 H :    0.393407
Sum of atomic charges:    0.0000000

LOEWDIN ATOMIC CHARGES
----------------------
   0 C :    0.173413
   1 C :   -0.220565
   2 C :   -0.216663
   3 C :   -0.025969
   4 O :   -0.308167
   5 H :    0.103725
   6 H :    0.115558
   7 H :    0.119580
   8 H :    0.116776
   9 H :    0.120913
  10 H :    0.112412
  11 H :    0.106114
  12 C :   -0.049815
  13 H :    0.118625
  14 H :    0.106820
  15 O :   -0.338625
  16 C :    0.004781
  17 C :    0.043140
  18 C :   -0.236140
  19 C :   -0.032530
  20 O :   -0.325494
  21 H :    0.110724
  22 H :    0.104549
  23 O :   -0.431868
  24 H :    0.122419
  25 H :    0.111417
  26 H :    0.102093
  27 H :    0.105789
  28 H :    0.286990

  Mayer bond orders larger than 0.100000
B(  0-C ,  1-C ) :   0.9403 B(  0-C ,  4-O ) :   0.9393 B(  0-C ,  5-H ) :   0.9159
B(  0-C , 15-O ) :   0.7950 B(  1-C ,  2-C ) :   0.9534 B(  1-C ,  6-H ) :   0.9349
B(  1-C ,  7-H ) :   0.9377 B(  2-C ,  3-C ) :   0.9542 B(  2-C ,  8-H ) :   0.9445
B(  2-C ,  9-H ) :   0.9430 B(  3-C ,  4-O ) :   0.8265 B(  3-C , 10-H ) :   0.9340
B(  3-C , 11-H ) :   0.9396 B( 12-C , 13-H ) :   0.9371 B( 12-C , 14-H ) :   0.9271
B( 12-C , 15-O ) :   0.8106 B( 12-C , 16-C ) :   0.8825 B( 16-C , 17-C ) :   0.9125
B( 16-C , 20-O ) :   0.8502 B( 16-C , 21-H ) :   0.9267 B( 17-C , 18-C ) :   0.9015
B( 17-C , 22-H ) :   0.9297 B( 17-C , 23-O ) :   0.9372 B( 18-C , 19-C ) :   0.9400
B( 18-C , 24-H ) :   0.9439 B( 18-C , 25-H ) :   0.9434 B( 19-C , 20-O ) :   0.8292
B( 19-C , 26-H ) :   0.9343 B( 19-C , 27-H ) :   0.9392 B( 23-O , 28-H ) :   0.7224

FINAL SINGLE POINT ENERGY      -652.865377876530

DIPOLE MOMENT
-------------
                                X             Y             Z
Electronic contribution:      0.21195      -3.38252       0.16884
Nuclear contribution   :      0.16161       4.50534      -0.79461
                        -----------------------------------------
Total Dipole Moment    :      0.37356       1.12282      -0.62576
                        -----------------------------------------
Magnitude (a.u.)       :      1.33860
Magnitude (Debye)      :      3.40246

Rotational constants in cm-1:     0.063031     0.013706     0.012438
Rotational constants in MHz :  1889.630767   410.888365   372.867707

                             ****ORCA TERMINATED NORMALLY****
TOTAL RUN TIME: 0 days 0 hours 29 minutes 48 seconds 429 msec
