                         Program Version 4.2.0 -  RELEASE  -
|  1> # Test redundant internal optimization
|  2> #
|  3> ! RKS B3LYP  Opt TightSCF SmallPrint
|  4>
|  5> %basis
|  6>         Basis "6-31G"
|  7> end
|  8>
|  9> %geom
| 10> Constraints
| 11> { D 4  0  15  12  240.0   C } # D for Dihedral angle
| 12> { D 0  15  12  16  30.0   C } # D for Dihedral angle
| 13> { D 0  4  3  2   C } # D for Dihedral angle
| 14> { D 4  3  2  1   C } # D for Dihedral angle
| 15> { D 3  2  1  0   C } # D for Dihedral angle
| 16> { D 2  1  0  4   C } # D for Dihedral angle
| 17> { D 1  0  4  3   C } # D for Dihedral angle
| 18> { D 16  20  19  18   C } # D for Dihedral angle
| 19> { D 20  19  18  17   C } # D for Dihedral angle
| 20> { D 19  18  17  16   C } # D for Dihedral angle
| 21> { D 18  17  16  20   C } # D for Dihedral angle
| 22> { D 17  16  20  19   C } # D for Dihedral angle
| 23> { D 15  12  16  20   C } # D for Dihedral angle
| 24> end
| 25> end
| 26>
| 27>
| 28> #%pal
| 29> #nprocs 8
| 30> #end
| 31>
| 32> * xyz 0 1
| 33> C  -21.048   26.222   46.251
| 34> C  -20.361   27.558   45.944
| 35> C  -20.329   28.222   47.341
| 36> C  -20.110   27.022   48.296
| 37> O  -20.473   25.807   47.535
| 38> H  -20.833   25.428   45.533
| 39> H  -19.344   27.382   45.576
| 40> H  -20.898   28.157   45.201
| 41> H  -19.543   28.978   47.434
| 42> H  -21.289   28.710   47.548
| 43> H  -20.733   27.082   49.195
| 44> H  -19.064   26.913   48.597
| 45> C  -23.430   25.483   45.442
| 46> H  -24.394   25.269   45.920
| 47> H  -23.625   25.987   44.487
| 48> O  -22.586   26.394   46.375
| 49> C  -22.730   24.131   45.130
| 50> C  -22.571   23.281   46.395
| 51> C  -23.990   22.686   46.554
| 52> C  -24.448   22.473   45.089
| 53> O  -23.568   23.312   44.248
| 54> H  -21.798   24.326   44.595
| 55> H  -21.835   22.487   46.224
| 56> O  -22.121   24.106   47.632
| 57> H  -23.999   21.757   47.133
| 58> H  -24.644   23.404   47.063
| 59> H  -25.489   22.771   44.928
| 60> H  -24.321   21.439   44.758
| 61> H  -22.843   24.908   47.822
| 62> *
| 63>
| 64>                          ****END OF INPUT****
 Total Charge           Charge          ....    0
 Multiplicity           Mult            ....    1
 Number of Electrons    NEL             ....  102
FINAL SINGLE POINT ENERGY      -652.809462019814
FINAL SINGLE POINT ENERGY      -652.839687310462
FINAL SINGLE POINT ENERGY      -652.852829689810
FINAL SINGLE POINT ENERGY      -652.856352983811
FINAL SINGLE POINT ENERGY      -652.857947734504
FINAL SINGLE POINT ENERGY      -652.858409578699
FINAL SINGLE POINT ENERGY      -652.858523629576
FINAL SINGLE POINT ENERGY      -652.858563083808
FINAL SINGLE POINT ENERGY      -652.858568908351
                    ***********************HURRAY********************

CARTESIAN COORDINATES (ANGSTROEM)
---------------------------------
  C    -20.906427   26.225108   46.256758
  C    -20.298929   27.599293   45.966083
  C    -20.530057   28.337692   47.306511
  C    -20.354308   27.218447   48.357691
  O    -20.500150   25.936939   47.616772
  H    -20.540841   25.407973   45.634828
  H    -19.228464   27.488811   45.757340
  H    -20.779429   28.088042   45.115812
  H    -19.829372   29.163639   47.459205
  H    -21.548758   28.734029   47.335203
  H    -21.106879   27.250218   49.149553
  H    -19.356311   27.204776   48.804640
  C    -23.192197   25.452222   45.427287
  H    -24.137482   25.412317   45.974390
  H    -23.383169   25.936560   44.462108
  O    -22.345822   26.326838   46.240861
  C    -22.710733   24.020166   45.120070
  C    -22.570200   23.048001   46.307563
  C    -24.061008   22.693580   46.606458
  C    -24.701427   22.686555   45.203837
  O    -23.774356   23.433727   44.302559
  H    -21.815947   24.028398   44.491485
  H    -22.082101   22.145288   45.922090
  O    -21.784742   23.427509   47.443086
  H    -24.145341   21.731743   47.118462
  H    -24.498277   23.460529   47.256587
  H    -25.682798   23.169337   45.171059
  H    -24.790246   21.678686   44.788655
  H    -21.761228   24.388577   47.649049

 Multiplicity           Mult            ....    1
 Number of Electrons    NEL             ....  102
 Basis Dimension        Dim             ....  149

ORBITAL ENERGIES
----------------

  NO   OCC          E(Eh)            E(eV)
   0   2.0000     -19.152411      -521.1636
   1   2.0000     -19.148570      -521.0591
   2   2.0000     -19.142811      -520.9024
   3   2.0000     -19.117690      -520.2188
   4   2.0000     -10.288671      -279.9690
   5   2.0000     -10.236802      -278.5575
   6   2.0000     -10.233781      -278.4753
   7   2.0000     -10.233728      -278.4739
   8   2.0000     -10.232118      -278.4301
   9   2.0000     -10.227854      -278.3141
  10   2.0000     -10.191355      -277.3209
  11   2.0000     -10.190425      -277.2956
  12   2.0000     -10.180640      -277.0293
  13   2.0000      -1.062649       -28.9162
  14   2.0000      -1.026402       -27.9298
  15   2.0000      -0.999591       -27.2002
  16   2.0000      -0.996471       -27.1154
  17   2.0000      -0.792951       -21.5773
  18   2.0000      -0.772493       -21.0206
  19   2.0000      -0.766438       -20.8558
  20   2.0000      -0.738207       -20.0876
  21   2.0000      -0.679951       -18.5024
  22   2.0000      -0.610567       -16.6144
  23   2.0000      -0.604903       -16.4602
  24   2.0000      -0.597640       -16.2626
  25   2.0000      -0.569908       -15.5080
  26   2.0000      -0.529540       -14.4095
  27   2.0000      -0.523211       -14.2373
  28   2.0000      -0.494744       -13.4627
  29   2.0000      -0.488847       -13.3022
  30   2.0000      -0.465702       -12.6724
  31   2.0000      -0.459107       -12.4929
  32   2.0000      -0.450227       -12.2513
  33   2.0000      -0.429963       -11.6999
  34   2.0000      -0.424281       -11.5453
  35   2.0000      -0.414233       -11.2719
  36   2.0000      -0.403261       -10.9733
  37   2.0000      -0.394293       -10.7292
  38   2.0000      -0.378607       -10.3024
  39   2.0000      -0.371433       -10.1072
  40   2.0000      -0.362957        -9.8766
  41   2.0000      -0.356818        -9.7095
  42   2.0000      -0.350060        -9.5256
  43   2.0000      -0.332836        -9.0569
  44   2.0000      -0.328716        -8.9448
  45   2.0000      -0.313004        -8.5173
  46   2.0000      -0.293748        -7.9933
  47   2.0000      -0.273277        -7.4362
  48   2.0000      -0.259236        -7.0542
  49   2.0000      -0.248048        -6.7497
  50   2.0000      -0.241071        -6.5599
  51   0.0000       0.059155         1.6097
  52   0.0000       0.080510         2.1908
  53   0.0000       0.092354         2.5131
  54   0.0000       0.095547         2.6000
  55   0.0000       0.104071         2.8319

MULLIKEN ATOMIC CHARGES
-----------------------
   0 C :    0.257932
   1 C :   -0.244611
   2 C :   -0.299521
   3 C :   -0.003665
   4 O :   -0.513298
   5 H :    0.158557
   6 H :    0.147950
   7 H :    0.151022
   8 H :    0.143990
   9 H :    0.167314
  10 H :    0.155650
  11 H :    0.149788
  12 C :   -0.001106
  13 H :    0.153433
  14 H :    0.154855
  15 O :   -0.538624
  16 C :    0.024168
  17 C :    0.131091
  18 C :   -0.311980
  19 C :   -0.021757
  20 O :   -0.521525
  21 H :    0.153650
  22 H :    0.150257
  23 O :   -0.635163
  24 H :    0.153865
  25 H :    0.146020
  26 H :    0.143961
  27 H :    0.151101
  28 H :    0.396646
Sum of atomic charges:   -0.0000000

LOEWDIN ATOMIC CHARGES
----------------------
   0 C :    0.166775
   1 C :   -0.215617
   2 C :   -0.215007
   3 C :   -0.026141
   4 O :   -0.316025
   5 H :    0.105660
   6 H :    0.114906
   7 H :    0.121369
   8 H :    0.115447
   9 H :    0.121787
  10 H :    0.109957
  11 H :    0.106521
  12 C :   -0.045308
  13 H :    0.112696
  14 H :    0.107425
  15 O :   -0.339861
  16 C :    0.001705
  17 C :    0.042489
  18 C :   -0.240464
  19 C :   -0.032208
  20 O :   -0.321054
  21 H :    0.108328
  22 H :    0.108282
  23 O :   -0.423996
  24 H :    0.122305
  25 H :    0.110615
  26 H :    0.102617
  27 H :    0.107004
  28 H :    0.289791

  Mayer bond orders larger than 0.100000
B(  0-C ,  1-C ) :   0.9460 B(  0-C ,  4-O ) :   0.8844 B(  0-C ,  5-H ) :   0.9104
B(  0-C , 15-O ) :   0.8446 B(  1-C ,  2-C ) :   0.9544 B(  1-C ,  6-H ) :   0.9361
B(  1-C ,  7-H ) :   0.9395 B(  2-C ,  3-C ) :   0.9536 B(  2-C ,  8-H ) :   0.9450
B(  2-C ,  9-H ) :   0.9424 B(  3-C ,  4-O ) :   0.8196 B(  3-C , 10-H ) :   0.9357
B(  3-C , 11-H ) :   0.9400 B( 12-C , 13-H ) :   0.9354 B( 12-C , 14-H ) :   0.9226
B( 12-C , 15-O ) :   0.8176 B( 12-C , 16-C ) :   0.8940 B( 16-C , 17-C ) :   0.8902
B( 16-C , 20-O ) :   0.8349 B( 16-C , 21-H ) :   0.9260 B( 17-C , 18-C ) :   0.9015
B( 17-C , 22-H ) :   0.9307 B( 17-C , 23-O ) :   0.9489 B( 18-C , 19-C ) :   0.9369
B( 18-C , 24-H ) :   0.9442 B( 18-C , 25-H ) :   0.9431 B( 19-C , 20-O ) :   0.8274
B( 19-C , 26-H ) :   0.9338 B( 19-C , 27-H ) :   0.9386 B( 23-O , 28-H ) :   0.7171

FINAL SINGLE POINT ENERGY      -652.858569872976

DIPOLE MOMENT
-------------
                                X             Y             Z
Electronic contribution:      0.46213      -2.50187      -0.85440
Nuclear contribution   :     -0.51637       3.44938       0.73800
                        -----------------------------------------
Total Dipole Moment    :     -0.05424       0.94751      -0.11640
                        -----------------------------------------
Magnitude (a.u.)       :      0.95618
Magnitude (Debye)      :      2.43041

Rotational constants in cm-1:     0.061368     0.014542     0.012937
Rotational constants in MHz :  1839.771230   435.951851   387.854482

                             ****ORCA TERMINATED NORMALLY****
TOTAL RUN TIME: 0 days 0 hours 47 minutes 4 seconds 337 msec
