                         Program Version 4.2.0 -  RELEASE  -
|  1> # Test redundant internal optimization
|  2> #
|  3> ! RKS B3LYP  Opt TightSCF SmallPrint
|  4>
|  5> %basis
|  6>         Basis "6-31G"
|  7> end
|  8>
|  9> %geom
| 10> Constraints
| 11> { D 4  0  15  12  300.0   C } # D for Dihedral angle
| 12> { D 0  15  12  16  270.0   C } # D for Dihedral angle
| 13> { D 0  4  3  2   C } # D for Dihedral angle
| 14> { D 4  3  2  1   C } # D for Dihedral angle
| 15> { D 3  2  1  0   C } # D for Dihedral angle
| 16> { D 2  1  0  4   C } # D for Dihedral angle
| 17> { D 1  0  4  3   C } # D for Dihedral angle
| 18> { D 16  20  19  18   C } # D for Dihedral angle
| 19> { D 20  19  18  17   C } # D for Dihedral angle
| 20> { D 19  18  17  16   C } # D for Dihedral angle
| 21> { D 18  17  16  20   C } # D for Dihedral angle
| 22> { D 17  16  20  19   C } # D for Dihedral angle
| 23> { D 15  12  16  20   C } # D for Dihedral angle
| 24> end
| 25> end
| 26>
| 27>
| 28> #%pal
| 29> #nprocs 8
| 30> #end
| 31>
| 32> * xyz 0 1
| 33> C  -21.048   26.222   46.251
| 34> C  -20.361   27.558   45.944
| 35> C  -20.329   28.222   47.341
| 36> C  -20.110   27.022   48.296
| 37> O  -20.473   25.807   47.535
| 38> H  -20.833   25.428   45.533
| 39> H  -19.344   27.382   45.576
| 40> H  -20.898   28.157   45.201
| 41> H  -19.543   28.978   47.434
| 42> H  -21.289   28.710   47.548
| 43> H  -20.733   27.082   49.195
| 44> H  -19.064   26.913   48.597
| 45> C  -23.362   25.116   46.798
| 46> H  -22.719   24.498   47.437
| 47> H  -24.259   25.384   47.370
| 48> O  -22.586   26.394   46.375
| 49> C  -23.813   24.258   45.583
| 50> C  -24.672   23.071   46.030
| 51> C  -26.045   23.746   46.260
| 52> C  -26.092   24.833   45.158
| 53> O  -24.698   25.035   44.708
| 54> H  -22.936   23.986   44.992
| 55> H  -24.736   22.328   45.226
| 56> O  -24.127   22.367   47.303
| 57> H  -26.882   23.043   46.188
| 58> H  -26.078   24.203   47.256
| 59> H  -26.491   25.786   45.525
| 60> H  -26.670   24.519   44.285
| 61> H  -24.055   23.090   48.122
| 62> *
| 63>
| 64>                          ****END OF INPUT****
 Total Charge           Charge          ....    0
 Multiplicity           Mult            ....    1
 Number of Electrons    NEL             ....  102
FINAL SINGLE POINT ENERGY      -652.831588204461
FINAL SINGLE POINT ENERGY      -652.856126794731
FINAL SINGLE POINT ENERGY      -652.860798543024
FINAL SINGLE POINT ENERGY      -652.861653609966
FINAL SINGLE POINT ENERGY      -652.861791754704
FINAL SINGLE POINT ENERGY      -652.861805732609
FINAL SINGLE POINT ENERGY      -652.861807100077
                    ***********************HURRAY********************

CARTESIAN COORDINATES (ANGSTROEM)
---------------------------------
  C    -21.089132   26.152417   46.251823
  C    -20.464063   27.510003   45.930747
  C    -20.417216   28.171712   47.325311
  C    -20.126733   26.985600   48.271430
  O    -20.471087   25.759197   47.503506
  H    -20.873620   25.345820   45.544885
  H    -19.456197   27.357686   45.528767
  H    -21.058293   28.070493   45.206357
  H    -19.653772   28.952936   47.395406
  H    -21.390559   28.616152   47.551483
  H    -20.723744   27.009545   49.186728
  H    -19.068198   26.899486   48.534008
  C    -23.271369   25.196567   46.831172
  H    -22.656201   24.596272   47.512133
  H    -24.119243   25.612676   47.384585
  O    -22.511975   26.360866   46.386448
  C    -23.756467   24.342818   45.658579
  C    -24.608027   23.135515   46.086873
  C    -26.015256   23.783071   46.266729
  C    -26.039859   24.855086   45.155652
  O    -24.629279   25.085584   44.752307
  H    -22.896678   24.033185   45.056035
  H    -24.630104   22.403036   45.276643
  O    -24.118981   22.393683   47.228372
  H    -26.820869   23.050205   46.172547
  H    -26.084243   24.236349   47.264346
  H    -26.475475   25.803066   45.486114
  H    -26.575354   24.514296   44.264161
  H    -24.244005   22.904679   48.053854

 Multiplicity           Mult            ....    1
 Number of Electrons    NEL             ....  102
 Basis Dimension        Dim             ....  149

ORBITAL ENERGIES
----------------

  NO   OCC          E(Eh)            E(eV)
   0   2.0000     -19.148811      -521.0657
   1   2.0000     -19.140112      -520.8289
   2   2.0000     -19.139689      -520.8174
   3   2.0000     -19.134723      -520.6823
   4   2.0000     -10.274259      -279.5768
   5   2.0000     -10.244330      -278.7624
   6   2.0000     -10.228967      -278.3443
   7   2.0000     -10.228818      -278.3403
   8   2.0000     -10.224337      -278.2183
   9   2.0000     -10.224154      -278.2134
  10   2.0000     -10.194346      -277.4023
  11   2.0000     -10.182473      -277.0792
  12   2.0000     -10.181364      -277.0490
  13   2.0000      -1.051795       -28.6208
  14   2.0000      -1.032145       -28.0861
  15   2.0000      -1.013741       -27.5853
  16   2.0000      -0.989289       -26.9199
  17   2.0000      -0.786861       -21.4116
  18   2.0000      -0.780383       -21.2353
  19   2.0000      -0.762965       -20.7613
  20   2.0000      -0.729933       -19.8625
  21   2.0000      -0.677080       -18.4243
  22   2.0000      -0.610062       -16.6006
  23   2.0000      -0.599408       -16.3107
  24   2.0000      -0.594079       -16.1657
  25   2.0000      -0.565683       -15.3930
  26   2.0000      -0.529929       -14.4201
  27   2.0000      -0.508340       -13.8326
  28   2.0000      -0.496231       -13.5031
  29   2.0000      -0.490653       -13.3514
  30   2.0000      -0.466946       -12.7062
  31   2.0000      -0.451444       -12.2844
  32   2.0000      -0.442631       -12.0446
  33   2.0000      -0.430531       -11.7154
  34   2.0000      -0.426503       -11.6057
  35   2.0000      -0.418450       -11.3866
  36   2.0000      -0.403400       -10.9771
  37   2.0000      -0.399519       -10.8715
  38   2.0000      -0.375896       -10.2286
  39   2.0000      -0.366941        -9.9850
  40   2.0000      -0.354176        -9.6376
  41   2.0000      -0.352751        -9.5989
  42   2.0000      -0.343402        -9.3444
  43   2.0000      -0.334823        -9.1110
  44   2.0000      -0.325355        -8.8534
  45   2.0000      -0.312373        -8.5001
  46   2.0000      -0.293222        -7.9790
  47   2.0000      -0.271779        -7.3955
  48   2.0000      -0.268812        -7.3147
  49   2.0000      -0.253456        -6.8969
  50   2.0000      -0.234247        -6.3742
  51   0.0000       0.053523         1.4564
  52   0.0000       0.080009         2.1772
  53   0.0000       0.090444         2.4611
  54   0.0000       0.093101         2.5334
  55   0.0000       0.108229         2.9450

MULLIKEN ATOMIC CHARGES
-----------------------
   0 C :    0.279912
   1 C :   -0.260965
   2 C :   -0.299347
   3 C :   -0.004547
   4 O :   -0.514892
   5 H :    0.147540
   6 H :    0.143992
   7 H :    0.164530
   8 H :    0.140613
   9 H :    0.162812
  10 H :    0.143220
  11 H :    0.143511
  12 C :   -0.035749
  13 H :    0.159262
  14 H :    0.137751
  15 O :   -0.505170
  16 C :    0.085342
  17 C :    0.082150
  18 C :   -0.316883
  19 C :   -0.012790
  20 O :   -0.505458
  21 H :    0.154089
  22 H :    0.169424
  23 O :   -0.599301
  24 H :    0.157697
  25 H :    0.130684
  26 H :    0.146595
  27 H :    0.149120
  28 H :    0.356856
Sum of atomic charges:   -0.0000000

LOEWDIN ATOMIC CHARGES
----------------------
   0 C :    0.170845
   1 C :   -0.213063
   2 C :   -0.216450
   3 C :   -0.028434
   4 O :   -0.331648
   5 H :    0.096477
   6 H :    0.113656
   7 H :    0.128083
   8 H :    0.113195
   9 H :    0.119424
  10 H :    0.103358
  11 H :    0.103123
  12 C :   -0.059154
  13 H :    0.112799
  14 H :    0.105120
  15 O :   -0.314440
  16 C :    0.010861
  17 C :    0.033912
  18 C :   -0.240317
  19 C :   -0.030360
  20 O :   -0.316753
  21 H :    0.112681
  22 H :    0.119820
  23 O :   -0.406383
  24 H :    0.122643
  25 H :    0.103153
  26 H :    0.103955
  27 H :    0.105600
  28 H :    0.278297

  Mayer bond orders larger than 0.100000
B(  0-C ,  1-C ) :   0.9502 B(  0-C ,  4-O ) :   0.8931 B(  0-C ,  5-H ) :   0.9165
B(  0-C , 15-O ) :   0.8688 B(  1-C ,  2-C ) :   0.9554 B(  1-C ,  6-H ) :   0.9407
B(  1-C ,  7-H ) :   0.9346 B(  2-C ,  3-C ) :   0.9560 B(  2-C ,  8-H ) :   0.9453
B(  2-C ,  9-H ) :   0.9442 B(  3-C ,  4-O ) :   0.8362 B(  3-C , 10-H ) :   0.9365
B(  3-C , 11-H ) :   0.9406 B( 12-C , 13-H ) :   0.8972 B( 12-C , 14-H ) :   0.9400
B( 12-C , 15-O ) :   0.8555 B( 12-C , 16-C ) :   0.8891 B( 16-C , 17-C ) :   0.8737
B( 16-C , 20-O ) :   0.8689 B( 16-C , 21-H ) :   0.9309 B( 17-C , 18-C ) :   0.9220
B( 17-C , 22-H ) :   0.9322 B( 17-C , 23-O ) :   0.8996 B( 18-C , 19-C ) :   0.9377
B( 18-C , 24-H ) :   0.9420 B( 18-C , 25-H ) :   0.9426 B( 19-C , 20-O ) :   0.8490
B( 19-C , 26-H ) :   0.9313 B( 19-C , 27-H ) :   0.9375 B( 23-O , 28-H ) :   0.7969

FINAL SINGLE POINT ENERGY      -652.861806745951

DIPOLE MOMENT
-------------
                                X             Y             Z
Electronic contribution:      0.00421      -3.13338      -1.52196
Nuclear contribution   :     -0.41366       3.63662       2.07375
                        -----------------------------------------
Total Dipole Moment    :     -0.40945       0.50324       0.55179
                        -----------------------------------------
Magnitude (a.u.)       :      0.85169
Magnitude (Debye)      :      2.16482

Rotational constants in cm-1:     0.057137     0.012777     0.011399
Rotational constants in MHz :  1712.912917   383.044440   341.743877

                             ****ORCA TERMINATED NORMALLY****
TOTAL RUN TIME: 0 days 1 hours 6 minutes 37 seconds 556 msec
