                         Program Version 4.2.0 -  RELEASE  -
|  1> # Test redundant internal optimization
|  2> #
|  3> ! RKS B3LYP  Opt TightSCF SmallPrint
|  4>
|  5> %basis
|  6>         Basis "6-31G"
|  7> end
|  8>
|  9> %geom
| 10> Constraints
| 11> { D 4  0  15  12  75.0   C } # D for Dihedral angle
| 12> { D 0  15  12  16  270.0   C } # D for Dihedral angle
| 13> { D 0  4  3  2   C } # D for Dihedral angle
| 14> { D 4  3  2  1   C } # D for Dihedral angle
| 15> { D 3  2  1  0   C } # D for Dihedral angle
| 16> { D 2  1  0  4   C } # D for Dihedral angle
| 17> { D 1  0  4  3   C } # D for Dihedral angle
| 18> { D 16  20  19  18   C } # D for Dihedral angle
| 19> { D 20  19  18  17   C } # D for Dihedral angle
| 20> { D 19  18  17  16   C } # D for Dihedral angle
| 21> { D 18  17  16  20   C } # D for Dihedral angle
| 22> { D 17  16  20  19   C } # D for Dihedral angle
| 23> { D 15  12  16  20   C } # D for Dihedral angle
| 24> end
| 25> end
| 26>
| 27>
| 28> #%pal
| 29> #nprocs 8
| 30> #end
| 31>
| 32> * xyz 0 1
| 33> C  -21.048   26.222   46.251
| 34> C  -20.361   27.558   45.944
| 35> C  -20.329   28.222   47.341
| 36> C  -20.110   27.022   48.296
| 37> O  -20.473   25.807   47.535
| 38> H  -20.833   25.428   45.533
| 39> H  -19.344   27.382   45.576
| 40> H  -20.898   28.157   45.201
| 41> H  -19.543   28.978   47.434
| 42> H  -21.289   28.710   47.548
| 43> H  -20.733   27.082   49.195
| 44> H  -19.064   26.913   48.597
| 45> C  -23.049   27.675   47.122
| 46> H  -22.313   28.472   46.964
| 47> H  -24.016   28.018   46.732
| 48> O  -22.586   26.394   46.375
| 49> C  -23.208   27.453   48.652
| 50> C  -23.776   28.700   49.338
| 51> C  -25.283   28.582   49.008
| 52> C  -25.530   27.053   49.040
| 53> O  -24.204   26.410   48.918
| 54> H  -22.260   27.103   49.063
| 55> H  -23.612   28.643   50.420
| 56> O  -23.148   30.023   48.818
| 57> H  -25.917   29.122   49.719
| 58> H  -25.482   28.985   48.008
| 59> H  -26.170   26.714   48.217
| 60> H  -25.965   26.719   49.987
| 61> H  -23.301   30.103   47.736
| 62> *
| 63>
| 64>                          ****END OF INPUT****
 Total Charge           Charge          ....    0
 Multiplicity           Mult            ....    1
 Number of Electrons    NEL             ....  102
FINAL SINGLE POINT ENERGY      -652.781005981927
FINAL SINGLE POINT ENERGY      -652.820917018194
FINAL SINGLE POINT ENERGY      -652.841669518789
FINAL SINGLE POINT ENERGY      -652.846855707161
FINAL SINGLE POINT ENERGY      -652.847798676827
FINAL SINGLE POINT ENERGY      -652.848095100753
FINAL SINGLE POINT ENERGY      -652.848129190608
FINAL SINGLE POINT ENERGY      -652.848136741381
FINAL SINGLE POINT ENERGY      -652.848135782200
                    ***********************HURRAY********************

CARTESIAN COORDINATES (ANGSTROEM)
---------------------------------
  C    -21.131227   26.328119   46.389196
  C    -20.227777   27.468163   45.888733
  C    -19.842889   28.190431   47.218185
  C    -19.746064   27.007724   48.217941
  O    -20.472590   25.876788   47.596285
  H    -21.124510   25.463087   45.724207
  H    -19.341244   27.030257   45.419767
  H    -20.724200   28.118954   45.163426
  H    -18.890650   28.724364   47.135984
  H    -20.599034   28.916633   47.524902
  H    -20.191144   27.232829   49.192023
  H    -18.714982   26.675465   48.370030
  C    -23.102867   27.745971   47.151715
  H    -22.476820   28.632690   47.012172
  H    -24.050622   27.914422   46.627893
  O    -22.548761   26.576246   46.492319
  C    -23.364180   27.519392   48.643669
  C    -24.000415   28.730400   49.345296
  C    -25.508170   28.544517   49.002373
  C    -25.671551   27.008197   49.013028
  O    -24.308422   26.433399   48.889885
  H    -22.435919   27.206687   49.127435
  H    -23.841212   28.651856   50.423176
  O    -23.435187   30.016416   48.978120
  H    -26.163205   29.048340   49.717896
  H    -25.711463   28.961379   48.006390
  H    -26.291464   26.640058   48.189491
  H    -26.088219   26.643437   49.956856
  H    -23.840211   30.343779   48.149607

 Multiplicity           Mult            ....    1
 Number of Electrons    NEL             ....  102
 Basis Dimension        Dim             ....  149

ORBITAL ENERGIES
----------------

  NO   OCC          E(Eh)            E(eV)
   0   2.0000     -19.154402      -521.2178
   1   2.0000     -19.139474      -520.8116
   2   2.0000     -19.137305      -520.7525
   3   2.0000     -19.134911      -520.6874
   4   2.0000     -10.273896      -279.5669
   5   2.0000     -10.247384      -278.8455
   6   2.0000     -10.229859      -278.3686
   7   2.0000     -10.229832      -278.3679
   8   2.0000     -10.228402      -278.3290
   9   2.0000     -10.225785      -278.2578
  10   2.0000     -10.198624      -277.5187
  11   2.0000     -10.190358      -277.2937
  12   2.0000     -10.189431      -277.2685
  13   2.0000      -1.046779       -28.4843
  14   2.0000      -1.035218       -28.1697
  15   2.0000      -1.015270       -27.6269
  16   2.0000      -0.992645       -27.0112
  17   2.0000      -0.785260       -21.3680
  18   2.0000      -0.784436       -21.3456
  19   2.0000      -0.770357       -20.9625
  20   2.0000      -0.731356       -19.9012
  21   2.0000      -0.684079       -18.6147
  22   2.0000      -0.613671       -16.6988
  23   2.0000      -0.603960       -16.4346
  24   2.0000      -0.599547       -16.3145
  25   2.0000      -0.564701       -15.3663
  26   2.0000      -0.523320       -14.2403
  27   2.0000      -0.514599       -14.0029
  28   2.0000      -0.503956       -13.7133
  29   2.0000      -0.493979       -13.4419
  30   2.0000      -0.464176       -12.6309
  31   2.0000      -0.454369       -12.3640
  32   2.0000      -0.443043       -12.0558
  33   2.0000      -0.432365       -11.7652
  34   2.0000      -0.430722       -11.7205
  35   2.0000      -0.420832       -11.4514
  36   2.0000      -0.413726       -11.2581
  37   2.0000      -0.400460       -10.8971
  38   2.0000      -0.380065       -10.3421
  39   2.0000      -0.377854       -10.2819
  40   2.0000      -0.360662        -9.8141
  41   2.0000      -0.357476        -9.7274
  42   2.0000      -0.341006        -9.2793
  43   2.0000      -0.329946        -8.9783
  44   2.0000      -0.319306        -8.6888
  45   2.0000      -0.310941        -8.4611
  46   2.0000      -0.297294        -8.0898
  47   2.0000      -0.273858        -7.4521
  48   2.0000      -0.265212        -7.2168
  49   2.0000      -0.253112        -6.8875
  50   2.0000      -0.233810        -6.3623
  51   0.0000       0.046888         1.2759
  52   0.0000       0.075414         2.0521
  53   0.0000       0.079556         2.1648
  54   0.0000       0.087457         2.3798
  55   0.0000       0.098478         2.6797

MULLIKEN ATOMIC CHARGES
-----------------------
   0 C :    0.300814
   1 C :   -0.282866
   2 C :   -0.320241
   3 C :   -0.013126
   4 O :   -0.499609
   5 H :    0.167218
   6 H :    0.156713
   7 H :    0.144824
   8 H :    0.144833
   9 H :    0.161371
  10 H :    0.142789
  11 H :    0.147792
  12 C :   -0.029237
  13 H :    0.126625
  14 H :    0.142664
  15 O :   -0.504226
  16 C :    0.091183
  17 C :    0.077672
  18 C :   -0.326502
  19 C :   -0.008782
  20 O :   -0.498827
  21 H :    0.170003
  22 H :    0.169436
  23 O :   -0.604559
  24 H :    0.159367
  25 H :    0.130326
  26 H :    0.148964
  27 H :    0.148503
  28 H :    0.356877
Sum of atomic charges:   -0.0000000

LOEWDIN ATOMIC CHARGES
----------------------
   0 C :    0.173538
   1 C :   -0.230477
   2 C :   -0.226109
   3 C :   -0.034872
   4 O :   -0.318915
   5 H :    0.113890
   6 H :    0.122905
   7 H :    0.116024
   8 H :    0.115435
   9 H :    0.112394
  10 H :    0.099361
  11 H :    0.104647
  12 C :   -0.053364
  13 H :    0.096247
  14 H :    0.106125
  15 O :   -0.303748
  16 C :    0.013106
  17 C :    0.031807
  18 C :   -0.241288
  19 C :   -0.029518
  20 O :   -0.308689
  21 H :    0.119671
  22 H :    0.119585
  23 O :   -0.412647
  24 H :    0.123037
  25 H :    0.102631
  26 H :    0.105147
  27 H :    0.105892
  28 H :    0.278184

  Mayer bond orders larger than 0.100000
B(  0-C ,  1-C ) :   0.9176 B(  0-C ,  4-O ) :   0.8974 B(  0-C ,  5-H ) :   0.9371
B(  0-C , 15-O ) :   0.9100 B(  1-C ,  2-C ) :   0.9537 B(  1-C ,  6-H ) :   0.9355
B(  1-C ,  7-H ) :   0.9369 B(  2-C ,  3-C ) :   0.9459 B(  2-C ,  8-H ) :   0.9454
B(  2-C ,  9-H ) :   0.9345 B(  3-C ,  4-O ) :   0.8492 B(  3-C , 10-H ) :   0.9259
B(  3-C , 11-H ) :   0.9395 B( 12-C , 13-H ) :   0.8957 B( 12-C , 14-H ) :   0.9400
B( 12-C , 15-O ) :   0.8665 B( 12-C , 16-C ) :   0.8835 B( 16-C , 17-C ) :   0.8683
B( 16-C , 20-O ) :   0.8718 B( 16-C , 21-H ) :   0.9226 B( 17-C , 18-C ) :   0.9300
B( 17-C , 22-H ) :   0.9311 B( 17-C , 23-O ) :   0.8897 B( 18-C , 19-C ) :   0.9371
B( 18-C , 24-H ) :   0.9409 B( 18-C , 25-H ) :   0.9402 B( 19-C , 20-O ) :   0.8532
B( 19-C , 26-H ) :   0.9307 B( 19-C , 27-H ) :   0.9376 B( 23-O , 28-H ) :   0.7989

FINAL SINGLE POINT ENERGY      -652.848134339623

DIPOLE MOMENT
-------------
                                X             Y             Z
Electronic contribution:     -0.91789      -4.16490       0.40321
Nuclear contribution   :      0.64427       5.70620      -0.79533
                        -----------------------------------------
Total Dipole Moment    :     -0.27361       1.54131      -0.39212
                        -----------------------------------------
Magnitude (a.u.)       :      1.61377
Magnitude (Debye)      :      4.10187

Rotational constants in cm-1:     0.047558     0.016053     0.014353
Rotational constants in MHz :  1425.758057   481.251066   430.297359

                             ****ORCA TERMINATED NORMALLY****
TOTAL RUN TIME: 0 days 0 hours 31 minutes 23 seconds 171 msec
