                         Program Version 4.2.1 -  RELEASE  -
|  1> # Test redundant internal optimization
|  2> #
|  3> ! RKS B3LYP  Opt TightSCF SmallPrint
|  4>
|  5> %basis
|  6>         Basis "6-31G"
|  7> end
|  8>
|  9> %geom
| 10> Constraints
| 11> { D 4  0  19  14  285.0   C } # D for Dihedral angle
| 12> { D 0  19  14  12  195.0   C } # D for Dihedral angle
| 13> { D 0  4  3  2   C } # D for Dihedral angle
| 14> { D 4  3  2  1   C } # D for Dihedral angle
| 15> { D 3  2  1  0   C } # D for Dihedral angle
| 16> { D 2  1  0  4   C } # D for Dihedral angle
| 17> { D 1  0  4  3   C } # D for Dihedral angle
| 18> { D 14  15  16  17   C } # D for Dihedral angle
| 19> { D 15  16  17  12   C } # D for Dihedral angle
| 20> { D 16  17  12  14   C } # D for Dihedral angle
| 21> { D 17  12  14  15   C } # D for Dihedral angle
| 22> { D 12  14  15  16   C } # D for Dihedral angle
| 23> end
| 24> end
| 25>
| 26>
| 27> #%pal
| 28> #nprocs 8
| 29> #end
| 30>
| 31> * xyz 0 1
| 32> C  -21.048   26.222   46.251
| 33> C  -20.361   27.558   45.944
| 34> C  -20.329   28.222   47.341
| 35> C  -20.110   27.022   48.296
| 36> O  -20.473   25.807   47.535
| 37> H  -20.833   25.428   45.533
| 38> H  -19.344   27.382   45.576
| 39> H  -20.898   28.157   45.201
| 40> H  -19.543   28.978   47.434
| 41> H  -21.289   28.710   47.548
| 42> H  -20.733   27.082   49.195
| 43> H  -19.064   26.913   48.597
| 44> C  -24.693   25.405   46.167
| 45> H  -25.309   24.549   46.484
| 46> C  -23.203   25.146   46.420
| 47> C  -22.834   24.239   45.223
| 48> C  -23.713   24.796   44.075
| 49> O  -24.785   25.592   44.715
| 50> H  -25.079   26.314   46.630
| 51> O  -22.472   26.381   46.366
| 52> H  -23.009   24.671   47.388
| 53> H  -21.767   24.266   44.982
| 54> H  -23.101   23.197   45.442
| 55> H  -24.168   24.004   43.471
| 56> H  -23.161   25.472   43.416
| 57> *
| 58>
| 59>                          ****END OF INPUT****
 Total Charge           Charge          ....    0
 Multiplicity           Mult            ....    1
 Number of Electrons    NEL             ....   86
FINAL SINGLE POINT ENERGY      -538.428437281106
FINAL SINGLE POINT ENERGY      -538.434717428329
FINAL SINGLE POINT ENERGY      -538.435763898313
FINAL SINGLE POINT ENERGY      -538.435958916380
FINAL SINGLE POINT ENERGY      -538.435969931960
FINAL SINGLE POINT ENERGY      -538.435974166921
                    ***********************HURRAY********************

CARTESIAN COORDINATES (ANGSTROEM)
---------------------------------
  C    -20.933498   26.214803   46.218447
  C    -20.407158   27.630342   45.973276
  C    -20.435586   28.229366   47.398914
  C    -20.072418   27.022102   48.293210
  O    -20.308398   25.813009   47.464858
  H    -20.639134   25.469649   45.477439
  H    -19.382004   27.573277   45.589895
  H    -21.027271   28.178973   45.261810
  H    -19.735119   29.061144   47.520528
  H    -21.443849   28.587719   47.624461
  H    -20.685871   26.958816   49.195782
  H    -19.015204   27.006015   48.575240
  C    -24.604881   25.529655   46.134653
  H    -25.314445   24.769086   46.491628
  C    -23.163931   25.091199   46.391014
  C    -22.924996   24.114999   45.226395
  C    -23.730103   24.740498   44.062520
  O    -24.685661   25.685002   44.679548
  H    -24.833824   26.496514   46.584025
  O    -22.361652   26.317126   46.338990
  H    -23.020998   24.614854   47.367837
  H    -21.871783   23.958514   44.983915
  H    -23.337755   23.139769   45.508939
  H    -24.283203   23.990572   43.485961
  H    -23.100258   25.319998   43.380714

 Multiplicity           Mult            ....    1
 Number of Electrons    NEL             ....   86
 Basis Dimension        Dim             ....  127

ORBITAL ENERGIES
----------------

  NO   OCC          E(Eh)            E(eV)
   0   2.0000     -19.142711      -520.8996
   1   2.0000     -19.136610      -520.7336
   2   2.0000     -19.127753      -520.4926
   3   2.0000     -10.276536      -279.6388
   4   2.0000     -10.239097      -278.6200
   5   2.0000     -10.222813      -278.1769
   6   2.0000     -10.222601      -278.1711
   7   2.0000     -10.220737      -278.1204
   8   2.0000     -10.189489      -277.2701
   9   2.0000     -10.182480      -277.0794
  10   2.0000     -10.182234      -277.0727
  11   2.0000      -1.052541       -28.6411
  12   2.0000      -1.013092       -27.5676
  13   2.0000      -0.987624       -26.8746
  14   2.0000      -0.791830       -21.5468
  15   2.0000      -0.775176       -21.0936
  16   2.0000      -0.744767       -20.2661
  17   2.0000      -0.717704       -19.5297
  18   2.0000      -0.613462       -16.6932
  19   2.0000      -0.600641       -16.3443
  20   2.0000      -0.593424       -16.1479
  21   2.0000      -0.566054       -15.4031
  22   2.0000      -0.527710       -14.3597
  23   2.0000      -0.498095       -13.5539
  24   2.0000      -0.486568       -13.2402
  25   2.0000      -0.476614       -12.9693
  26   2.0000      -0.456608       -12.4249
  27   2.0000      -0.435561       -11.8522
  28   2.0000      -0.427058       -11.6208
  29   2.0000      -0.418281       -11.3820
  30   2.0000      -0.400508       -10.8984
  31   2.0000      -0.385830       -10.4990
  32   2.0000      -0.374434       -10.1889
  33   2.0000      -0.364030        -9.9058
  34   2.0000      -0.360022        -9.7967
  35   2.0000      -0.353518        -9.6197
  36   2.0000      -0.341850        -9.3022
  37   2.0000      -0.325231        -8.8500
  38   2.0000      -0.301960        -8.2167
  39   2.0000      -0.295020        -8.0279
  40   2.0000      -0.268148        -7.2967
  41   2.0000      -0.248810        -6.7705
  42   2.0000      -0.235023        -6.3953
  43   0.0000       0.077721         2.1149
  44   0.0000       0.096458         2.6247
  45   0.0000       0.102039         2.7766
  46   0.0000       0.114513         3.1160
  47   0.0000       0.118541         3.2257

MULLIKEN ATOMIC CHARGES
-----------------------
   0 C :    0.285837
   1 C :   -0.259172
   2 C :   -0.296439
   3 C :   -0.002843
   4 O :   -0.516100
   5 H :    0.140257
   6 H :    0.142377
   7 H :    0.160685
   8 H :    0.139236
   9 H :    0.162810
  10 H :    0.145076
  11 H :    0.141075
  12 C :   -0.000532
  13 H :    0.125244
  14 C :    0.090471
  15 C :   -0.322137
  16 C :    0.007341
  17 O :   -0.519826
  18 H :    0.167244
  19 O :   -0.520429
  20 H :    0.145002
  21 H :    0.153909
  22 H :    0.149464
  23 H :    0.136907
  24 H :    0.144544
Sum of atomic charges:   -0.0000000

LOEWDIN ATOMIC CHARGES
----------------------
   0 C :    0.170232
   1 C :   -0.214496
   2 C :   -0.215582
   3 C :   -0.028008
   4 O :   -0.334394
   5 H :    0.094473
   6 H :    0.112379
   7 H :    0.126033
   8 H :    0.112644
   9 H :    0.119446
  10 H :    0.104156
  11 H :    0.101708
  12 C :   -0.033227
  13 H :    0.091494
  14 C :    0.041333
  15 C :   -0.238865
  16 C :   -0.028732
  17 O :   -0.329462
  18 H :    0.123145
  19 O :   -0.318985
  20 H :    0.104871
  21 H :    0.119177
  22 H :    0.118462
  23 H :    0.099038
  24 H :    0.103160

  Mayer bond orders larger than 0.100000
B(  0-C ,  1-C ) :   0.9484 B(  0-C ,  4-O ) :   0.9015 B(  0-C ,  5-H ) :   0.9116
B(  0-C , 19-O ) :   0.8671 B(  1-C ,  2-C ) :   0.9573 B(  1-C ,  6-H ) :   0.9410
B(  1-C ,  7-H ) :   0.9351 B(  2-C ,  3-C ) :   0.9549 B(  2-C ,  8-H ) :   0.9454
B(  2-C ,  9-H ) :   0.9441 B(  3-C ,  4-O ) :   0.8392 B(  3-C , 10-H ) :   0.9360
B(  3-C , 11-H ) :   0.9404 B( 12-C , 13-H ) :   0.9164 B( 12-C , 14-C ) :   0.9339
B( 12-C , 17-O ) :   0.8669 B( 12-C , 18-H ) :   0.9301 B( 14-C , 15-C ) :   0.9339
B( 14-C , 19-O ) :   0.8267 B( 14-C , 20-H ) :   0.9220 B( 15-C , 16-C ) :   0.9420
B( 15-C , 21-H ) :   0.9307 B( 15-C , 22-H ) :   0.9360 B( 16-C , 17-O ) :   0.8623
B( 16-C , 23-H ) :   0.9329 B( 16-C , 24-H ) :   0.9373

FINAL SINGLE POINT ENERGY      -538.435974341657

DIPOLE MOMENT
-------------
                                X             Y             Z
Electronic contribution:     -1.74379      -0.83378      -0.06850
Nuclear contribution   :      2.32379       0.63124       0.26719
                        -----------------------------------------
Total Dipole Moment    :      0.58000      -0.20254       0.19869
                        -----------------------------------------
Magnitude (a.u.)       :      0.64568
Magnitude (Debye)      :      1.64118

Rotational constants in cm-1:     0.084523     0.020148     0.019763
Rotational constants in MHz :  2533.935052   604.035898   592.472517

                             ****ORCA TERMINATED NORMALLY****
TOTAL RUN TIME: 0 days 0 hours 7 minutes 1 seconds 978 msec
