                         Program Version 4.2.0 -  RELEASE  -
|  1> # Test redundant internal optimization
|  2> #
|  3> ! RKS B3LYP  Opt TightSCF SmallPrint
|  4>
|  5> %basis
|  6>         Basis "6-31G"
|  7> end
|  8>
|  9> %geom
| 10> Constraints
| 11> { D 4  0  15  12  210.0   C } # D for Dihedral angle
| 12> { D 0  15  12  16  345.0   C } # D for Dihedral angle
| 13> { D 0  4  3  2   C } # D for Dihedral angle
| 14> { D 4  3  2  1   C } # D for Dihedral angle
| 15> { D 3  2  1  0   C } # D for Dihedral angle
| 16> { D 2  1  0  4   C } # D for Dihedral angle
| 17> { D 1  0  4  3   C } # D for Dihedral angle
| 18> { D 16  20  19  18   C } # D for Dihedral angle
| 19> { D 20  19  18  17   C } # D for Dihedral angle
| 20> { D 19  18  17  16   C } # D for Dihedral angle
| 21> { D 18  17  16  20   C } # D for Dihedral angle
| 22> { D 17  16  20  19   C } # D for Dihedral angle
| 23> { D 15  12  16  20   C } # D for Dihedral angle
| 24> end
| 25> end
| 26>
| 27>
| 28> #%pal
| 29> #nprocs 8
| 30> #end
| 31>
| 32> * xyz 0 1
| 33> C  -21.048   26.222   46.251
| 34> C  -20.361   27.558   45.944
| 35> C  -20.329   28.222   47.341
| 36> C  -20.110   27.022   48.296
| 37> O  -20.473   25.807   47.535
| 38> H  -20.833   25.428   45.533
| 39> H  -19.344   27.382   45.576
| 40> H  -20.898   28.157   45.201
| 41> H  -19.543   28.978   47.434
| 42> H  -21.289   28.710   47.548
| 43> H  -20.733   27.082   49.195
| 44> H  -19.064   26.913   48.597
| 45> C  -23.389   26.110   45.076
| 46> H  -23.898   25.143   45.169
| 47> H  -24.151   26.885   44.919
| 48> O  -22.586   26.394   46.375
| 49> C  -22.489   26.069   43.810
| 50> C  -23.326   25.903   42.537
| 51> C  -23.842   27.344   42.311
| 52> C  -22.658   28.221   42.788
| 53> O  -21.803   27.353   43.627
| 54> H  -21.716   25.309   43.946
| 55> O  -22.420   25.454   41.358
| 56> H  -24.136   25.174   42.647
| 57> H  -24.113   27.539   41.268
| 58> H  -24.731   27.526   42.927
| 59> H  -22.986   29.082   43.382
| 60> H  -22.040   28.576   41.959
| 61> H  -21.601   26.171   41.229
| 62> *
| 63>
| 64>                          ****END OF INPUT****
 Total Charge           Charge          ....    0
 Multiplicity           Mult            ....    1
 Number of Electrons    NEL             ....  102
FINAL SINGLE POINT ENERGY      -652.820391917524
FINAL SINGLE POINT ENERGY      -652.842600356000
FINAL SINGLE POINT ENERGY      -652.851894819684
FINAL SINGLE POINT ENERGY      -652.853825171874
FINAL SINGLE POINT ENERGY      -652.854195996431
FINAL SINGLE POINT ENERGY      -652.854241384134
FINAL SINGLE POINT ENERGY      -652.854245733895
                    ***********************HURRAY********************

CARTESIAN COORDINATES (ANGSTROEM)
---------------------------------
  C    -20.858844   26.233496   46.233747
  C    -20.188531   27.596643   46.073695
  C    -20.391193   28.220132   47.475505
  C    -20.272033   27.000227   48.413707
  O    -20.474390   25.808316   47.552512
  H    -20.527973   25.460036   45.537120
  H    -19.120745   27.446770   45.868727
  H    -20.623448   28.173610   45.259085
  H    -19.653321   28.995469   47.702483
  H    -21.390708   28.660185   47.542624
  H    -21.024622   26.988773   49.206729
  H    -19.276309   26.900401   48.857308
  C    -23.129357   26.142183   45.049362
  H    -23.653439   25.182234   45.173381
  H    -23.882529   26.938593   45.073533
  O    -22.312749   26.358168   46.235415
  C    -22.450674   26.111290   43.676008
  C    -23.453135   25.929366   42.525000
  C    -23.948421   27.385454   42.304211
  C    -22.682607   28.232226   42.588943
  O    -21.752770   27.359975   43.351320
  H    -21.696229   25.319622   43.638368
  O    -22.797026   25.395431   41.344288
  H    -24.257816   25.228253   42.747352
  H    -24.327099   27.512520   41.287267
  H    -24.754948   27.623271   43.005982
  H    -22.894615   29.127031   43.181031
  H    -22.162592   28.532913   41.674530
  H    -21.951879   25.871412   41.199765

 Multiplicity           Mult            ....    1
 Number of Electrons    NEL             ....  102
 Basis Dimension        Dim             ....  149

ORBITAL ENERGIES
----------------

  NO   OCC          E(Eh)            E(eV)
   0   2.0000     -19.156566      -521.2767
   1   2.0000     -19.148487      -521.0568
   2   2.0000     -19.130768      -520.5747
   3   2.0000     -19.129591      -520.5426
   4   2.0000     -10.271054      -279.4896
   5   2.0000     -10.253520      -279.0125
   6   2.0000     -10.246396      -278.8186
   7   2.0000     -10.242120      -278.7022
   8   2.0000     -10.236039      -278.5368
   9   2.0000     -10.215208      -277.9699
  10   2.0000     -10.199790      -277.5504
  11   2.0000     -10.174626      -276.8656
  12   2.0000     -10.167373      -276.6683
  13   2.0000      -1.050095       -28.5745
  14   2.0000      -1.039769       -28.2936
  15   2.0000      -1.017062       -27.6757
  16   2.0000      -0.982556       -26.7367
  17   2.0000      -0.795061       -21.6347
  18   2.0000      -0.776145       -21.1200
  19   2.0000      -0.770584       -20.9686
  20   2.0000      -0.729418       -19.8485
  21   2.0000      -0.676662       -18.4129
  22   2.0000      -0.615242       -16.7416
  23   2.0000      -0.610970       -16.6253
  24   2.0000      -0.587623       -15.9900
  25   2.0000      -0.565500       -15.3880
  26   2.0000      -0.534039       -14.5319
  27   2.0000      -0.515544       -14.0287
  28   2.0000      -0.491887       -13.3849
  29   2.0000      -0.487774       -13.2730
  30   2.0000      -0.473988       -12.8979
  31   2.0000      -0.456314       -12.4169
  32   2.0000      -0.451651       -12.2901
  33   2.0000      -0.443298       -12.0628
  34   2.0000      -0.424806       -11.5596
  35   2.0000      -0.412871       -11.2348
  36   2.0000      -0.405999       -11.0478
  37   2.0000      -0.392636       -10.6842
  38   2.0000      -0.382628       -10.4118
  39   2.0000      -0.371268       -10.1027
  40   2.0000      -0.359153        -9.7730
  41   2.0000      -0.354123        -9.6362
  42   2.0000      -0.344248        -9.3675
  43   2.0000      -0.335793        -9.1374
  44   2.0000      -0.319308        -8.6888
  45   2.0000      -0.305566        -8.3149
  46   2.0000      -0.299177        -8.1410
  47   2.0000      -0.282066        -7.6754
  48   2.0000      -0.256662        -6.9841
  49   2.0000      -0.250433        -6.8146
  50   2.0000      -0.236921        -6.4469
  51   0.0000       0.054784         1.4908
  52   0.0000       0.081672         2.2224
  53   0.0000       0.086109         2.3431
  54   0.0000       0.089042         2.4230
  55   0.0000       0.096706         2.6315

MULLIKEN ATOMIC CHARGES
-----------------------
   0 C :    0.298943
   1 C :   -0.261724
   2 C :   -0.302018
   3 C :   -0.000147
   4 O :   -0.506754
   5 H :    0.138024
   6 H :    0.133829
   7 H :    0.175336
   8 H :    0.135520
   9 H :    0.155222
  10 H :    0.149578
  11 H :    0.137082
  12 C :    0.025786
  13 H :    0.136538
  14 H :    0.143015
  15 O :   -0.530710
  16 C :    0.029390
  17 C :    0.075711
  18 C :   -0.295719
  19 C :   -0.032072
  20 O :   -0.521740
  21 H :    0.168420
  22 O :   -0.598112
  23 H :    0.160397
  24 H :    0.165772
  25 H :    0.149432
  26 H :    0.153544
  27 H :    0.151620
  28 H :    0.365837
Sum of atomic charges:   -0.0000000

LOEWDIN ATOMIC CHARGES
----------------------
   0 C :    0.185595
   1 C :   -0.229600
   2 C :   -0.218918
   3 C :   -0.026337
   4 O :   -0.308890
   5 H :    0.095529
   6 H :    0.109182
   7 H :    0.129680
   8 H :    0.111139
   9 H :    0.115457
  10 H :    0.106333
  11 H :    0.099700
  12 C :   -0.035942
  13 H :    0.102681
  14 H :    0.105671
  15 O :   -0.338174
  16 C :   -0.001213
  17 C :    0.038952
  18 C :   -0.239578
  19 C :   -0.037643
  20 O :   -0.329048
  21 H :    0.115413
  22 O :   -0.410976
  23 H :    0.119732
  24 H :    0.128627
  25 H :    0.115556
  26 H :    0.107914
  27 H :    0.105078
  28 H :    0.284078

  Mayer bond orders larger than 0.100000
B(  0-C ,  1-C ) :   0.9371 B(  0-C ,  4-O ) :   0.9275 B(  0-C ,  5-H ) :   0.9201
B(  0-C , 15-O ) :   0.8198 B(  1-C ,  2-C ) :   0.9506 B(  1-C ,  6-H ) :   0.9362
B(  1-C ,  7-H ) :   0.9182 B(  2-C ,  3-C ) :   0.9539 B(  2-C ,  8-H ) :   0.9456
B(  2-C ,  9-H ) :   0.9451 B(  3-C ,  4-O ) :   0.8378 B(  3-C , 10-H ) :   0.9356
B(  3-C , 11-H ) :   0.9402 B( 12-C , 13-H ) :   0.9112 B( 12-C , 14-H ) :   0.9298
B( 12-C , 15-O ) :   0.8599 B( 12-C , 16-C ) :   0.8960 B( 16-C , 17-C ) :   0.8925
B( 16-C , 20-O ) :   0.8403 B( 16-C , 21-H ) :   0.9190 B( 17-C , 18-C ) :   0.9117
B( 17-C , 22-O ) :   0.8969 B( 17-C , 23-H ) :   0.9313 B( 18-C , 19-C ) :   0.9405
B( 18-C , 24-H ) :   0.9372 B( 18-C , 25-H ) :   0.9331 B( 19-C , 20-O ) :   0.8385
B( 19-C , 26-H ) :   0.9342 B( 19-C , 27-H ) :   0.9375 B( 22-O , 28-H ) :   0.7938

FINAL SINGLE POINT ENERGY      -652.854246248166

DIPOLE MOMENT
-------------
                                X             Y             Z
Electronic contribution:      0.41718      -4.56831      -0.64091
Nuclear contribution   :     -0.75332       5.72224      -0.05615
                        -----------------------------------------
Total Dipole Moment    :     -0.33614       1.15393      -0.69706
                        -----------------------------------------
Magnitude (a.u.)       :      1.38940
Magnitude (Debye)      :      3.53156

Rotational constants in cm-1:     0.063820     0.013038     0.012271
Rotational constants in MHz :  1913.276298   390.877938   367.883312

                             ****ORCA TERMINATED NORMALLY****
TOTAL RUN TIME: 0 days 0 hours 40 minutes 48 seconds 967 msec
