                         Program Version 4.2.0 -  RELEASE  -
|  1> # Test redundant internal optimization
|  2> #
|  3> ! RKS B3LYP  Opt TightSCF SmallPrint
|  4>
|  5> %basis
|  6>         Basis "6-31G"
|  7> end
|  8>
|  9> %geom
| 10> Constraints
| 11> { D 4  0  15  12  135.0   C } # D for Dihedral angle
| 12> { D 0  15  12  16  135.0   C } # D for Dihedral angle
| 13> { D 0  4  3  2   C } # D for Dihedral angle
| 14> { D 4  3  2  1   C } # D for Dihedral angle
| 15> { D 3  2  1  0   C } # D for Dihedral angle
| 16> { D 2  1  0  4   C } # D for Dihedral angle
| 17> { D 1  0  4  3   C } # D for Dihedral angle
| 18> { D 16  20  19  18   C } # D for Dihedral angle
| 19> { D 20  19  18  17   C } # D for Dihedral angle
| 20> { D 19  18  17  16   C } # D for Dihedral angle
| 21> { D 18  17  16  20   C } # D for Dihedral angle
| 22> { D 17  16  20  19   C } # D for Dihedral angle
| 23> { D 15  12  16  20   C } # D for Dihedral angle
| 24> end
| 25> end
| 26>
| 27>
| 28> #%pal
| 29> #nprocs 8
| 30> #end
| 31>
| 32> * xyz 0 1
| 33> C  -21.048   26.222   46.251
| 34> C  -20.361   27.558   45.944
| 35> C  -20.329   28.222   47.341
| 36> C  -20.110   27.022   48.296
| 37> O  -20.473   25.807   47.535
| 38> H  -20.833   25.428   45.533
| 39> H  -19.344   27.382   45.576
| 40> H  -20.898   28.157   45.201
| 41> H  -19.543   28.978   47.434
| 42> H  -21.289   28.710   47.548
| 43> H  -20.733   27.082   49.195
| 44> H  -19.064   26.913   48.597
| 45> C  -23.162   27.680   45.721
| 46> H  -23.410   28.405   46.505
| 47> H  -22.419   28.136   45.053
| 48> O  -22.586   26.394   46.375
| 49> C  -24.443   27.406   44.885
| 50> C  -24.196   26.330   43.822
| 51> C  -24.281   25.034   44.662
| 52> C  -25.368   25.367   45.714
| 53> O  -25.497   26.840   45.734
| 54> H  -24.822   28.351   44.492
| 55> O  -25.324   26.367   42.755
| 56> H  -23.233   26.442   43.311
| 57> H  -24.536   24.154   44.062
| 58> H  -23.319   24.838   45.151
| 59> H  -25.104   25.016   46.717
| 60> H  -26.348   24.962   45.444
| 61> H  -26.297   26.255   43.244
| 62> *
| 63>
| 64>                          ****END OF INPUT****
 Total Charge           Charge          ....    0
 Multiplicity           Mult            ....    1
 Number of Electrons    NEL             ....  102
FINAL SINGLE POINT ENERGY      -652.820200262580
FINAL SINGLE POINT ENERGY      -652.843974567026
FINAL SINGLE POINT ENERGY      -652.851462093572
FINAL SINGLE POINT ENERGY      -652.853312461854
FINAL SINGLE POINT ENERGY      -652.853607250189
FINAL SINGLE POINT ENERGY      -652.853656682115
                    ***********************HURRAY********************

CARTESIAN COORDINATES (ANGSTROEM)
---------------------------------
  C    -21.115875   26.317322   46.284274
  C    -20.229662   27.520085   45.955916
  C    -20.184206   28.269457   47.313768
  C    -20.197314   27.112426   48.337379
  O    -20.689305   25.923969   47.599011
  H    -20.965364   25.446702   45.641943
  H    -19.235458   27.142347   45.692432
  H    -20.575086   28.141095   45.126551
  H    -19.296405   28.901386   47.410072
  H    -21.067660   28.906508   47.429631
  H    -20.859680   27.297121   49.186825
  H    -19.198082   26.862282   48.704992
  C    -23.200009   27.722576   45.727639
  H    -23.491335   28.414680   46.526978
  H    -22.535454   28.252292   45.033927
  O    -22.555063   26.568493   46.333796
  C    -24.461609   27.318120   44.963082
  C    -24.285337   26.324340   43.805938
  C    -24.309332   24.962200   44.549447
  C    -25.323410   25.210400   45.693674
  O    -25.450360   26.680803   45.830821
  H    -24.921081   28.243415   44.592239
  O    -25.376603   26.452583   42.851326
  H    -23.378040   26.483914   43.221278
  H    -24.616259   24.159333   43.873064
  H    -23.322317   24.740517   44.956427
  H    -24.980215   24.800141   46.646141
  H    -26.322475   24.821094   45.470184
  H    -26.227006   26.462398   43.339245

 Multiplicity           Mult            ....    1
 Number of Electrons    NEL             ....  102
 Basis Dimension        Dim             ....  149

ORBITAL ENERGIES
----------------

  NO   OCC          E(Eh)            E(eV)
   0   2.0000     -19.143555      -520.9226
   1   2.0000     -19.142923      -520.9054
   2   2.0000     -19.135115      -520.6930
   3   2.0000     -19.134870      -520.6863
   4   2.0000     -10.287364      -279.9334
   5   2.0000     -10.237065      -278.5647
   6   2.0000     -10.236690      -278.5545
   7   2.0000     -10.232890      -278.4511
   8   2.0000     -10.230083      -278.3747
   9   2.0000     -10.219008      -278.0733
  10   2.0000     -10.199362      -277.5387
  11   2.0000     -10.197090      -277.4769
  12   2.0000     -10.175802      -276.8977
  13   2.0000      -1.055150       -28.7121
  14   2.0000      -1.031507       -28.0687
  15   2.0000      -1.003103       -27.2958
  16   2.0000      -0.993065       -27.0227
  17   2.0000      -0.795225       -21.6392
  18   2.0000      -0.778484       -21.1836
  19   2.0000      -0.764595       -20.8057
  20   2.0000      -0.737275       -20.0623
  21   2.0000      -0.679438       -18.4884
  22   2.0000      -0.609999       -16.5989
  23   2.0000      -0.602025       -16.3819
  24   2.0000      -0.596019       -16.2185
  25   2.0000      -0.568835       -15.4788
  26   2.0000      -0.525825       -14.3084
  27   2.0000      -0.511299       -13.9131
  28   2.0000      -0.508942       -13.8490
  29   2.0000      -0.487173       -13.2566
  30   2.0000      -0.474066       -12.9000
  31   2.0000      -0.458179       -12.4677
  32   2.0000      -0.450088       -12.2475
  33   2.0000      -0.433413       -11.7938
  34   2.0000      -0.429011       -11.6740
  35   2.0000      -0.419323       -11.4104
  36   2.0000      -0.403627       -10.9832
  37   2.0000      -0.387748       -10.5512
  38   2.0000      -0.384650       -10.4669
  39   2.0000      -0.366044        -9.9606
  40   2.0000      -0.363660        -9.8957
  41   2.0000      -0.361727        -9.8431
  42   2.0000      -0.353860        -9.6290
  43   2.0000      -0.326595        -8.8871
  44   2.0000      -0.318263        -8.6604
  45   2.0000      -0.301818        -8.2129
  46   2.0000      -0.298245        -8.1157
  47   2.0000      -0.270919        -7.3721
  48   2.0000      -0.264131        -7.1874
  49   2.0000      -0.258332        -7.0296
  50   2.0000      -0.235868        -6.4183
  51   0.0000       0.065257         1.7757
  52   0.0000       0.075526         2.0552
  53   0.0000       0.090860         2.4724
  54   0.0000       0.099096         2.6966
  55   0.0000       0.104698         2.8490

MULLIKEN ATOMIC CHARGES
-----------------------
   0 C :    0.317780
   1 C :   -0.303549
   2 C :   -0.303525
   3 C :   -0.001447
   4 O :   -0.493907
   5 H :    0.150284
   6 H :    0.157898
   7 H :    0.146865
   8 H :    0.147587
   9 H :    0.155062
  10 H :    0.154751
  11 H :    0.145140
  12 C :    0.000141
  13 H :    0.154076
  14 H :    0.120496
  15 O :   -0.531812
  16 C :    0.072356
  17 C :    0.079450
  18 C :   -0.284979
  19 C :   -0.014663
  20 O :   -0.525260
  21 H :    0.149574
  22 O :   -0.605569
  23 H :    0.140556
  24 H :    0.147887
  25 H :    0.166361
  26 H :    0.161073
  27 H :    0.133283
  28 H :    0.364093
Sum of atomic charges:   -0.0000000

LOEWDIN ATOMIC CHARGES
----------------------
   0 C :    0.183078
   1 C :   -0.233252
   2 C :   -0.217941
   3 C :   -0.027320
   4 O :   -0.307637
   5 H :    0.100611
   6 H :    0.122923
   7 H :    0.114243
   8 H :    0.117213
   9 H :    0.113062
  10 H :    0.109505
  11 H :    0.104371
  12 C :   -0.037612
  13 H :    0.108550
  14 H :    0.094359
  15 O :   -0.335785
  16 C :    0.010717
  17 C :    0.038503
  18 C :   -0.238763
  19 C :   -0.031144
  20 O :   -0.329020
  21 H :    0.113256
  22 O :   -0.417908
  23 H :    0.110466
  24 H :    0.117963
  25 H :    0.125903
  26 H :    0.113661
  27 H :    0.095179
  28 H :    0.282819

  Mayer bond orders larger than 0.100000
B(  0-C ,  1-C ) :   0.9352 B(  0-C ,  4-O ) :   0.9296 B(  0-C ,  5-H ) :   0.9250
B(  0-C , 15-O ) :   0.8468 B(  1-C ,  2-C ) :   0.9492 B(  1-C ,  6-H ) :   0.9327
B(  1-C ,  7-H ) :   0.9258 B(  2-C ,  3-C ) :   0.9524 B(  2-C ,  8-H ) :   0.9453
B(  2-C ,  9-H ) :   0.9440 B(  3-C ,  4-O ) :   0.8390 B(  3-C , 10-H ) :   0.9339
B(  3-C , 11-H ) :   0.9395 B( 12-C , 13-H ) :   0.9210 B( 12-C , 14-H ) :   0.9002
B( 12-C , 15-O ) :   0.8529 B( 12-C , 16-C ) :   0.8947 B( 16-C , 17-C ) :   0.9085
B( 16-C , 20-O ) :   0.8794 B( 16-C , 21-H ) :   0.9196 B( 17-C , 18-C ) :   0.9239
B( 17-C , 22-O ) :   0.8913 B( 17-C , 23-H ) :   0.9372 B( 18-C , 19-C ) :   0.9460
B( 18-C , 24-H ) :   0.9372 B( 18-C , 25-H ) :   0.9210 B( 19-C , 20-O ) :   0.8350
B( 19-C , 26-H ) :   0.9328 B( 19-C , 27-H ) :   0.9374 B( 22-O , 28-H ) :   0.7951

FINAL SINGLE POINT ENERGY      -652.853659954114

DIPOLE MOMENT
-------------
                                X             Y             Z
Electronic contribution:     -4.02838      -1.91045      -0.42054
Nuclear contribution   :      5.08025       2.65521       0.37070
                        -----------------------------------------
Total Dipole Moment    :      1.05187       0.74477      -0.04984
                        -----------------------------------------
Magnitude (a.u.)       :      1.28980
Magnitude (Debye)      :      3.27841

Rotational constants in cm-1:     0.059751     0.013435     0.012920
Rotational constants in MHz :  1791.304539   402.760566   387.328476

                             ****ORCA TERMINATED NORMALLY****
TOTAL RUN TIME: 0 days 0 hours 55 minutes 48 seconds 764 msec
