                         Program Version 4.2.0 -  RELEASE  -
|  1> # Test redundant internal optimization
|  2> #
|  3> ! RKS B3LYP  Opt TightSCF SmallPrint
|  4>
|  5> %basis
|  6>         Basis "6-31G"
|  7> end
|  8>
|  9> %geom
| 10> Constraints
| 11> { D 4  0  15  12  300.0   C } # D for Dihedral angle
| 12> { D 0  15  12  16  105.0   C } # D for Dihedral angle
| 13> { D 0  4  3  2   C } # D for Dihedral angle
| 14> { D 4  3  2  1   C } # D for Dihedral angle
| 15> { D 3  2  1  0   C } # D for Dihedral angle
| 16> { D 2  1  0  4   C } # D for Dihedral angle
| 17> { D 1  0  4  3   C } # D for Dihedral angle
| 18> { D 16  20  19  18   C } # D for Dihedral angle
| 19> { D 20  19  18  17   C } # D for Dihedral angle
| 20> { D 19  18  17  16   C } # D for Dihedral angle
| 21> { D 18  17  16  20   C } # D for Dihedral angle
| 22> { D 17  16  20  19   C } # D for Dihedral angle
| 23> { D 15  12  16  20   C } # D for Dihedral angle
| 24> end
| 25> end
| 26>
| 27>
| 28> #%pal
| 29> #nprocs 8
| 30> #end
| 31>
| 32> * xyz 0 1
| 33> C  -21.048   26.222   46.251
| 34> C  -20.361   27.558   45.944
| 35> C  -20.329   28.222   47.341
| 36> C  -20.110   27.022   48.296
| 37> O  -20.473   25.807   47.535
| 38> H  -20.833   25.428   45.533
| 39> H  -19.344   27.382   45.576
| 40> H  -20.898   28.157   45.201
| 41> H  -19.543   28.978   47.434
| 42> H  -21.289   28.710   47.548
| 43> H  -20.733   27.082   49.195
| 44> H  -19.064   26.913   48.597
| 45> C  -23.362   25.116   46.798
| 46> H  -24.245   25.000   46.157
| 47> H  -22.731   24.226   46.676
| 48> O  -22.586   26.394   46.375
| 49> C  -23.834   25.162   48.277
| 50> C  -22.658   25.413   49.229
| 51> C  -22.459   26.941   49.085
| 52> C  -23.903   27.468   48.894
| 53> O  -24.726   26.305   48.495
| 54> H  -24.409   24.261   48.498
| 55> O  -23.064   25.050   50.683
| 56> H  -21.762   24.842   48.967
| 57> H  -21.962   27.389   49.951
| 58> H  -21.849   27.159   48.200
| 59> H  -23.970   28.238   48.119
| 60> H  -24.330   27.861   49.821
| 61> H  -23.960   25.611   50.968
| 62> *
| 63>
| 64>                          ****END OF INPUT****
 Total Charge           Charge          ....    0
 Multiplicity           Mult            ....    1
 Number of Electrons    NEL             ....  102
FINAL SINGLE POINT ENERGY      -652.765171529517
FINAL SINGLE POINT ENERGY      -652.830059017738
FINAL SINGLE POINT ENERGY      -652.850317777793
FINAL SINGLE POINT ENERGY      -652.855858599352
FINAL SINGLE POINT ENERGY      -652.856810469654
FINAL SINGLE POINT ENERGY      -652.857027264383
FINAL SINGLE POINT ENERGY      -652.857051063670
FINAL SINGLE POINT ENERGY      -652.857052963171
                    ***********************HURRAY********************

CARTESIAN COORDINATES (ANGSTROEM)
---------------------------------
  C    -20.988460   26.223543   46.286823
  C    -20.307573   27.460706   45.694959
  C    -20.047241   28.313843   46.960037
  C    -19.733443   27.255251   48.043051
  O    -20.258196   25.963452   47.508996
  H    -20.802632   25.316131   45.695181
  H    -19.367430   27.153255   45.226191
  H    -20.934100   27.962618   44.955285
  H    -19.225112   29.024321   46.831477
  H    -20.949904   28.880031   47.215365
  H    -20.175139   27.468586   49.015677
  H    -18.657298   27.104796   48.174908
  C    -23.195217   25.249618   46.832707
  H    -24.031644   25.172026   46.130401
  H    -22.585736   24.337734   46.741137
  O    -22.426649   26.390900   46.322594
  C    -23.820937   25.260215   48.232759
  C    -22.915685   25.354830   49.466850
  C    -22.755079   26.885934   49.625659
  C    -24.138826   27.427608   49.179886
  O    -24.785261   26.345066   48.414924
  H    -24.395428   24.325865   48.280243
  O    -23.561214   24.746311   50.621617
  H    -21.963991   24.838091   49.351655
  H    -22.487361   27.159127   50.648980
  H    -21.996430   27.236915   48.935668
  H    -24.052990   28.310521   48.539406
  H    -24.796226   27.666345   50.022993
  H    -24.479795   25.083362   50.688571

 Multiplicity           Mult            ....    1
 Number of Electrons    NEL             ....  102
 Basis Dimension        Dim             ....  149

ORBITAL ENERGIES
----------------

  NO   OCC          E(Eh)            E(eV)
   0   2.0000     -19.155901      -521.2586
   1   2.0000     -19.153916      -521.2045
   2   2.0000     -19.137585      -520.7602
   3   2.0000     -19.132382      -520.6186
   4   2.0000     -10.283506      -279.8284
   5   2.0000     -10.234308      -278.4897
   6   2.0000     -10.232651      -278.4446
   7   2.0000     -10.232135      -278.4305
   8   2.0000     -10.231617      -278.4164
   9   2.0000     -10.224249      -278.2160
  10   2.0000     -10.194638      -277.4102
  11   2.0000     -10.191776      -277.3323
  12   2.0000     -10.178635      -276.9747
  13   2.0000      -1.056762       -28.7560
  14   2.0000      -1.032447       -28.0943
  15   2.0000      -1.005576       -27.3631
  16   2.0000      -0.998989       -27.1839
  17   2.0000      -0.795365       -21.6430
  18   2.0000      -0.776137       -21.1198
  19   2.0000      -0.766053       -20.8454
  20   2.0000      -0.738369       -20.0920
  21   2.0000      -0.675989       -18.3946
  22   2.0000      -0.608409       -16.5557
  23   2.0000      -0.600555       -16.3419
  24   2.0000      -0.597526       -16.2595
  25   2.0000      -0.574975       -15.6459
  26   2.0000      -0.523926       -14.2568
  27   2.0000      -0.507758       -13.8168
  28   2.0000      -0.502786       -13.6815
  29   2.0000      -0.490167       -13.3381
  30   2.0000      -0.471878       -12.8405
  31   2.0000      -0.460360       -12.5270
  32   2.0000      -0.445463       -12.1217
  33   2.0000      -0.444301       -12.0900
  34   2.0000      -0.421686       -11.4747
  35   2.0000      -0.412161       -11.2155
  36   2.0000      -0.409338       -11.1387
  37   2.0000      -0.387454       -10.5432
  38   2.0000      -0.371269       -10.1028
  39   2.0000      -0.367001        -9.9866
  40   2.0000      -0.363713        -9.8971
  41   2.0000      -0.360150        -9.8002
  42   2.0000      -0.348336        -9.4787
  43   2.0000      -0.338102        -9.2002
  44   2.0000      -0.325395        -8.8544
  45   2.0000      -0.308035        -8.3820
  46   2.0000      -0.300655        -8.1812
  47   2.0000      -0.276130        -7.5139
  48   2.0000      -0.268724        -7.3123
  49   2.0000      -0.264023        -7.1844
  50   2.0000      -0.238076        -6.4784
  51   0.0000       0.063580         1.7301
  52   0.0000       0.081213         2.2099
  53   0.0000       0.090318         2.4577
  54   0.0000       0.101717         2.7679
  55   0.0000       0.106176         2.8892

MULLIKEN ATOMIC CHARGES
-----------------------
   0 C :    0.294704
   1 C :   -0.267868
   2 C :   -0.308585
   3 C :   -0.021343
   4 O :   -0.514282
   5 H :    0.144895
   6 H :    0.151971
   7 H :    0.164554
   8 H :    0.148172
   9 H :    0.160928
  10 H :    0.145666
  11 H :    0.150661
  12 C :   -0.007274
  13 H :    0.163931
  14 H :    0.129275
  15 O :   -0.516745
  16 C :    0.074955
  17 C :    0.071448
  18 C :   -0.303115
  19 C :   -0.026710
  20 O :   -0.526013
  21 H :    0.153917
  22 O :   -0.603939
  23 H :    0.173569
  24 H :    0.147131
  25 H :    0.169558
  26 H :    0.149594
  27 H :    0.139339
  28 H :    0.361605
Sum of atomic charges:   -0.0000000

LOEWDIN ATOMIC CHARGES
----------------------
   0 C :    0.168829
   1 C :   -0.212346
   2 C :   -0.218173
   3 C :   -0.037958
   4 O :   -0.327475
   5 H :    0.090494
   6 H :    0.118159
   7 H :    0.128187
   8 H :    0.117383
   9 H :    0.115933
  10 H :    0.103563
  11 H :    0.106715
  12 C :   -0.040161
  13 H :    0.119759
  14 H :    0.101903
  15 O :   -0.324219
  16 C :    0.009009
  17 C :    0.034765
  18 C :   -0.242444
  19 C :   -0.035811
  20 O :   -0.330106
  21 H :    0.117880
  22 O :   -0.417757
  23 H :    0.125967
  24 H :    0.120406
  25 H :    0.124177
  26 H :    0.105465
  27 H :    0.097021
  28 H :    0.280836

  Mayer bond orders larger than 0.100000
B(  0-C ,  1-C ) :   0.9385 B(  0-C ,  4-O ) :   0.8904 B(  0-C ,  5-H ) :   0.9237
B(  0-C , 15-O ) :   0.8804 B(  1-C ,  2-C ) :   0.9578 B(  1-C ,  6-H ) :   0.9406
B(  1-C ,  7-H ) :   0.9358 B(  2-C ,  3-C ) :   0.9550 B(  2-C ,  8-H ) :   0.9446
B(  2-C ,  9-H ) :   0.9435 B(  3-C ,  4-O ) :   0.8303 B(  3-C , 10-H ) :   0.9193
B(  3-C , 11-H ) :   0.9406 B( 12-C , 13-H ) :   0.9309 B( 12-C , 14-H ) :   0.9103
B( 12-C , 15-O ) :   0.8541 B( 12-C , 16-C ) :   0.8974 B( 16-C , 17-C ) :   0.9077
B( 16-C , 20-O ) :   0.8651 B( 16-C , 21-H ) :   0.9136 B( 17-C , 18-C ) :   0.9257
B( 17-C , 22-O ) :   0.8837 B( 17-C , 23-H ) :   0.9238 B( 18-C , 19-C ) :   0.9423
B( 18-C , 24-H ) :   0.9396 B( 18-C , 25-H ) :   0.9043 B( 19-C , 20-O ) :   0.8425
B( 19-C , 26-H ) :   0.9339 B( 19-C , 27-H ) :   0.9366 B( 22-O , 28-H ) :   0.7965

FINAL SINGLE POINT ENERGY      -652.857050734650

DIPOLE MOMENT
-------------
                                X             Y             Z
Electronic contribution:     -3.92138      -4.12737       0.41091
Nuclear contribution   :      4.68652       4.94477      -0.81263
                        -----------------------------------------
Total Dipole Moment    :      0.76514       0.81740      -0.40172
                        -----------------------------------------
Magnitude (a.u.)       :      1.18952
Magnitude (Debye)      :      3.02353

Rotational constants in cm-1:     0.045166     0.017669     0.016376
Rotational constants in MHz :  1354.038717   529.712339   490.939566

                             ****ORCA TERMINATED NORMALLY****
TOTAL RUN TIME: 0 days 0 hours 32 minutes 44 seconds 188 msec
