                         Program Version 4.2.0 -  RELEASE  -
|  1> # Test redundant internal optimization
|  2> #
|  3> ! RKS B3LYP  Opt TightSCF SmallPrint
|  4>
|  5> %basis
|  6>         Basis "6-31G"
|  7> end
|  8>
|  9> %geom
| 10> Constraints
| 11> { D 4  0  15  12  135.0   C } # D for Dihedral angle
| 12> { D 0  15  12  16  150.0   C } # D for Dihedral angle
| 13> { D 0  4  3  2   C } # D for Dihedral angle
| 14> { D 4  3  2  1   C } # D for Dihedral angle
| 15> { D 3  2  1  0   C } # D for Dihedral angle
| 16> { D 2  1  0  4   C } # D for Dihedral angle
| 17> { D 1  0  4  3   C } # D for Dihedral angle
| 18> { D 16  20  19  18   C } # D for Dihedral angle
| 19> { D 20  19  18  17   C } # D for Dihedral angle
| 20> { D 19  18  17  16   C } # D for Dihedral angle
| 21> { D 18  17  16  20   C } # D for Dihedral angle
| 22> { D 17  16  20  19   C } # D for Dihedral angle
| 23> { D 15  12  16  20   C } # D for Dihedral angle
| 24> end
| 25> end
| 26>
| 27>
| 28> #%pal
| 29> #nprocs 8
| 30> #end
| 31>
| 32> * xyz 0 1
| 33> C  -21.048   26.222   46.251
| 34> C  -20.361   27.558   45.944
| 35> C  -20.329   28.222   47.341
| 36> C  -20.110   27.022   48.296
| 37> O  -20.473   25.807   47.535
| 38> H  -20.833   25.428   45.533
| 39> H  -19.344   27.382   45.576
| 40> H  -20.898   28.157   45.201
| 41> H  -19.543   28.978   47.434
| 42> H  -21.289   28.710   47.548
| 43> H  -20.733   27.082   49.195
| 44> H  -19.064   26.913   48.597
| 45> C  -23.162   27.680   45.721
| 46> H  -23.158   28.493   46.457
| 47> H  -22.543   27.987   44.868
| 48> O  -22.586   26.394   46.375
| 49> C  -24.616   27.492   45.206
| 50> C  -25.585   27.227   46.363
| 51> C  -25.803   28.652   46.923
| 52> C  -25.761   29.539   45.653
| 53> O  -25.109   28.733   44.599
| 54> H  -24.623   26.730   44.425
| 55> H  -26.526   26.815   45.978
| 56> O  -25.017   26.243   47.422
| 57> H  -26.745   28.754   47.472
| 58> H  -24.988   28.916   47.607
| 59> H  -25.190   30.461   45.805
| 60> H  -26.760   29.797   45.291
| 61> H  -24.075   26.636   47.821
| 62> *
| 63>
| 64>                          ****END OF INPUT****
 Total Charge           Charge          ....    0
 Multiplicity           Mult            ....    1
 Number of Electrons    NEL             ....  102
FINAL SINGLE POINT ENERGY      -652.819718233755
FINAL SINGLE POINT ENERGY      -652.845113211345
FINAL SINGLE POINT ENERGY      -652.852964981498
FINAL SINGLE POINT ENERGY      -652.856411139197
FINAL SINGLE POINT ENERGY      -652.858215287873
FINAL SINGLE POINT ENERGY      -652.859328914335
FINAL SINGLE POINT ENERGY      -652.859909321485
FINAL SINGLE POINT ENERGY      -652.860047927050
FINAL SINGLE POINT ENERGY      -652.860068378578
FINAL SINGLE POINT ENERGY      -652.860073070266
                    ***********************HURRAY********************

CARTESIAN COORDINATES (ANGSTROEM)
---------------------------------
  C    -21.157940   26.320784   46.270310
  C    -20.202116   27.468476   45.943915
  C    -20.120030   28.216663   47.299971
  C    -20.205410   27.067029   48.327030
  O    -20.763566   25.906056   47.585116
  H    -21.074113   25.443352   45.627442
  H    -19.230619   27.035252   45.682328
  H    -20.516949   28.106291   45.115323
  H    -19.197188   28.795595   47.398187
  H    -20.963364   28.906440   47.410106
  H    -20.860303   27.289424   49.172915
  H    -19.225513   26.756097   48.698834
  C    -23.134792   27.882321   45.685590
  H    -23.106534   28.720243   46.393134
  H    -22.581825   28.166045   44.784721
  O    -22.578959   26.680259   46.308256
  C    -24.573667   27.543030   45.280006
  C    -25.517790   27.208773   46.447262
  C    -25.876497   28.626685   46.979988
  C    -25.918637   29.482220   45.697239
  O    -25.181344   28.712085   44.649162
  H    -24.550507   26.748686   44.528513
  H    -26.419485   26.738716   46.036746
  O    -24.994837   26.335389   47.463866
  H    -26.824926   28.627489   47.523535
  H    -25.091938   28.952439   47.671734
  H    -25.443413   30.461750   45.809883
  H    -26.934512   29.625482   45.318498
  H    -24.025225   26.206929   47.327389

 Multiplicity           Mult            ....    1
 Number of Electrons    NEL             ....  102
 Basis Dimension        Dim             ....  149

ORBITAL ENERGIES
----------------

  NO   OCC          E(Eh)            E(eV)
   0   2.0000     -19.160722      -521.3898
   1   2.0000     -19.151608      -521.1417
   2   2.0000     -19.140164      -520.8303
   3   2.0000     -19.106780      -519.9219
   4   2.0000     -10.294990      -280.1409
   5   2.0000     -10.242344      -278.7083
   6   2.0000     -10.236114      -278.5388
   7   2.0000     -10.233599      -278.4704
   8   2.0000     -10.227396      -278.3016
   9   2.0000     -10.226260      -278.2707
  10   2.0000     -10.204172      -277.6696
  11   2.0000     -10.202244      -277.6172
  12   2.0000     -10.177804      -276.9521
  13   2.0000      -1.064995       -28.9800
  14   2.0000      -1.025183       -27.8967
  15   2.0000      -1.006915       -27.3996
  16   2.0000      -0.987003       -26.8577
  17   2.0000      -0.801121       -21.7996
  18   2.0000      -0.777027       -21.1440
  19   2.0000      -0.767152       -20.8753
  20   2.0000      -0.739472       -20.1221
  21   2.0000      -0.683927       -18.6106
  22   2.0000      -0.614669       -16.7260
  23   2.0000      -0.600385       -16.3373
  24   2.0000      -0.595600       -16.2071
  25   2.0000      -0.576575       -15.6894
  26   2.0000      -0.528742       -14.3878
  27   2.0000      -0.521741       -14.1973
  28   2.0000      -0.510817       -13.9000
  29   2.0000      -0.487331       -13.2609
  30   2.0000      -0.477664       -12.9979
  31   2.0000      -0.462491       -12.5850
  32   2.0000      -0.443913       -12.0795
  33   2.0000      -0.434455       -11.8221
  34   2.0000      -0.430487       -11.7142
  35   2.0000      -0.422421       -11.4947
  36   2.0000      -0.410811       -11.1787
  37   2.0000      -0.391338       -10.6488
  38   2.0000      -0.385695       -10.4953
  39   2.0000      -0.373174       -10.1546
  40   2.0000      -0.367632       -10.0038
  41   2.0000      -0.362313        -9.8590
  42   2.0000      -0.348473        -9.4824
  43   2.0000      -0.341001        -9.2791
  44   2.0000      -0.322156        -8.7663
  45   2.0000      -0.312734        -8.5099
  46   2.0000      -0.286971        -7.8089
  47   2.0000      -0.274678        -7.4744
  48   2.0000      -0.269459        -7.3323
  49   2.0000      -0.246716        -6.7135
  50   2.0000      -0.238045        -6.4775
  51   0.0000       0.056164         1.5283
  52   0.0000       0.069102         1.8804
  53   0.0000       0.089613         2.4385
  54   0.0000       0.095455         2.5975
  55   0.0000       0.102176         2.7804

MULLIKEN ATOMIC CHARGES
-----------------------
   0 C :    0.328387
   1 C :   -0.298384
   2 C :   -0.309166
   3 C :   -0.005874
   4 O :   -0.494307
   5 H :    0.164419
   6 H :    0.160439
   7 H :    0.152040
   8 H :    0.150838
   9 H :    0.155968
  10 H :    0.157905
  11 H :    0.150414
  12 C :   -0.013827
  13 H :    0.141476
  14 H :    0.151945
  15 O :   -0.572736
  16 C :    0.053596
  17 C :    0.124009
  18 C :   -0.300595
  19 C :   -0.023540
  20 O :   -0.523133
  21 H :    0.160106
  22 H :    0.143591
  23 O :   -0.641586
  24 H :    0.152378
  25 H :    0.143925
  26 H :    0.140009
  27 H :    0.149904
  28 H :    0.401800
Sum of atomic charges:   -0.0000000

LOEWDIN ATOMIC CHARGES
----------------------
   0 C :    0.187326
   1 C :   -0.230612
   2 C :   -0.218312
   3 C :   -0.027868
   4 O :   -0.305323
   5 H :    0.110266
   6 H :    0.124769
   7 H :    0.118317
   8 H :    0.119185
   9 H :    0.112667
  10 H :    0.110974
  11 H :    0.107307
  12 C :   -0.043004
  13 H :    0.096947
  14 H :    0.107709
  15 O :   -0.347987
  16 C :    0.017303
  17 C :    0.042964
  18 C :   -0.236965
  19 C :   -0.033328
  20 O :   -0.326142
  21 H :    0.115544
  22 H :    0.103343
  23 O :   -0.435773
  24 H :    0.121779
  25 H :    0.110173
  26 H :    0.100586
  27 H :    0.106341
  28 H :    0.291816

  Mayer bond orders larger than 0.100000
B(  0-C ,  1-C ) :   0.9397 B(  0-C ,  4-O ) :   0.9407 B(  0-C ,  5-H ) :   0.9280
B(  0-C , 15-O ) :   0.8014 B(  1-C ,  2-C ) :   0.9474 B(  1-C ,  6-H ) :   0.9327
B(  1-C ,  7-H ) :   0.9260 B(  2-C ,  3-C ) :   0.9514 B(  2-C ,  8-H ) :   0.9448
B(  2-C ,  9-H ) :   0.9426 B(  3-C ,  4-O ) :   0.8331 B(  3-C , 10-H ) :   0.9340
B(  3-C , 11-H ) :   0.9391 B( 12-C , 13-H ) :   0.9183 B( 12-C , 14-H ) :   0.9178
B( 12-C , 15-O ) :   0.7910 B( 12-C , 16-C ) :   0.8937 B( 16-C , 17-C ) :   0.9153
B( 16-C , 20-O ) :   0.8550 B( 16-C , 21-H ) :   0.9291 B( 17-C , 18-C ) :   0.9019
B( 17-C , 22-H ) :   0.9287 B( 17-C , 23-O ) :   0.9420 B( 18-C , 19-C ) :   0.9399
B( 18-C , 24-H ) :   0.9445 B( 18-C , 25-H ) :   0.9429 B( 19-C , 20-O ) :   0.8317
B( 19-C , 26-H ) :   0.9343 B( 19-C , 27-H ) :   0.9386 B( 23-O , 28-H ) :   0.7173

FINAL SINGLE POINT ENERGY      -652.860074102782

DIPOLE MOMENT
-------------
                                X             Y             Z
Electronic contribution:     -2.02922      -5.13144      -1.23948
Nuclear contribution   :      3.31619       6.41119       0.96691
                        -----------------------------------------
Total Dipole Moment    :      1.28697       1.27975      -0.27257
                        -----------------------------------------
Magnitude (a.u.)       :      1.83531
Magnitude (Debye)      :      4.66498

Rotational constants in cm-1:     0.051977     0.014152     0.013139
Rotational constants in MHz :  1558.244637   424.254762   393.889813

                             ****ORCA TERMINATED NORMALLY****
TOTAL RUN TIME: 0 days 0 hours 46 minutes 48 seconds 359 msec
