                         Program Version 4.2.1 -  RELEASE  -
|  1> # Test redundant internal optimization
|  2> #
|  3> ! RKS B3LYP  Opt TightSCF SmallPrint
|  4>
|  5> %basis
|  6>         Basis "6-31G"
|  7> end
|  8>
|  9> %geom
| 10> Constraints
| 11> { D 4  0  19  14  180.0   C } # D for Dihedral angle
| 12> { D 0  19  14  12  120.0   C } # D for Dihedral angle
| 13> { D 0  4  3  2   C } # D for Dihedral angle
| 14> { D 4  3  2  1   C } # D for Dihedral angle
| 15> { D 3  2  1  0   C } # D for Dihedral angle
| 16> { D 2  1  0  4   C } # D for Dihedral angle
| 17> { D 1  0  4  3   C } # D for Dihedral angle
| 18> { D 14  15  16  17   C } # D for Dihedral angle
| 19> { D 15  16  17  12   C } # D for Dihedral angle
| 20> { D 16  17  12  14   C } # D for Dihedral angle
| 21> { D 17  12  14  15   C } # D for Dihedral angle
| 22> { D 12  14  15  16   C } # D for Dihedral angle
| 23> end
| 24> end
| 25>
| 26>
| 27> #%pal
| 28> #nprocs 8
| 29> #end
| 30>
| 31> * xyz 0 1
| 32> C  -21.048   26.222   46.251
| 33> C  -20.361   27.558   45.944
| 34> C  -20.329   28.222   47.341
| 35> C  -20.110   27.022   48.296
| 36> O  -20.473   25.807   47.535
| 37> H  -20.833   25.428   45.533
| 38> H  -19.344   27.382   45.576
| 39> H  -20.898   28.157   45.201
| 40> H  -19.543   28.978   47.434
| 41> H  -21.289   28.710   47.548
| 42> H  -20.733   27.082   49.195
| 43> H  -19.064   26.913   48.597
| 44> C  -24.155   25.736   44.730
| 45> H  -24.455   25.866   43.679
| 46> C  -23.122   26.788   45.152
| 47> C  -24.017   28.025   45.398
| 48> C  -25.316   27.410   45.977
| 49> O  -25.297   25.974   45.621
| 50> H  -23.839   24.703   44.886
| 51> O  -22.472   26.381   46.366
| 52> H  -22.354   26.964   44.391
| 53> H  -23.561   28.751   46.078
| 54> H  -24.222   28.538   44.450
| 55> H  -26.220   27.870   45.562
| 56> H  -25.357   27.470   47.069
| 57> *
| 58>
| 59>                          ****END OF INPUT****
 Total Charge           Charge          ....    0
 Multiplicity           Mult            ....    1
 Number of Electrons    NEL             ....   86
FINAL SINGLE POINT ENERGY      -538.424195614235
FINAL SINGLE POINT ENERGY      -538.427245588430
FINAL SINGLE POINT ENERGY      -538.427488119522
FINAL SINGLE POINT ENERGY      -538.427528811354
FINAL SINGLE POINT ENERGY      -538.427539669653
                    ***********************HURRAY********************

CARTESIAN COORDINATES (ANGSTROEM)
---------------------------------
  C    -20.998835   26.229716   46.217916
  C    -20.266972   27.543084   45.945694
  C    -20.319134   28.236240   47.331636
  C    -20.193902   27.048301   48.308377
  O    -20.534444   25.839046   47.514860
  H    -20.765327   25.414345   45.525443
  H    -19.232162   27.320923   45.659793
  H    -20.716871   28.145175   45.151523
  H    -19.518830   28.970926   47.461428
  H    -21.279347   28.743936   47.460104
  H    -20.879858   27.111704   49.156383
  H    -19.173467   26.903879   48.674854
  C    -24.183480   25.743159   44.720747
  H    -24.527655   25.880180   43.683566
  C    -23.148303   26.804897   45.095334
  C    -24.044842   28.022114   45.399753
  C    -25.300646   27.384479   46.041570
  O    -25.275485   25.953773   45.669676
  H    -23.818511   24.724226   44.859503
  O    -22.445876   26.402432   46.311171
  H    -22.440054   27.000582   44.280894
  H    -23.543372   28.731621   46.062239
  H    -24.297823   28.536176   44.464720
  H    -26.231122   27.835149   45.679290
  H    -25.275683   27.430939   47.133528

 Multiplicity           Mult            ....    1
 Number of Electrons    NEL             ....   86
 Basis Dimension        Dim             ....  127

ORBITAL ENERGIES
----------------

  NO   OCC          E(Eh)            E(eV)
   0   2.0000     -19.141366      -520.8631
   1   2.0000     -19.137592      -520.7603
   2   2.0000     -19.126162      -520.4493
   3   2.0000     -10.281569      -279.7757
   4   2.0000     -10.242345      -278.7084
   5   2.0000     -10.226301      -278.2718
   6   2.0000     -10.220564      -278.1157
   7   2.0000     -10.219325      -278.0820
   8   2.0000     -10.191220      -277.3172
   9   2.0000     -10.190301      -277.2922
  10   2.0000     -10.187833      -277.2250
  11   2.0000      -1.054113       -28.6839
  12   2.0000      -1.014119       -27.5956
  13   2.0000      -0.988788       -26.9063
  14   2.0000      -0.789885       -21.4939
  15   2.0000      -0.782210       -21.2850
  16   2.0000      -0.739911       -20.1340
  17   2.0000      -0.724641       -19.7185
  18   2.0000      -0.614096       -16.7104
  19   2.0000      -0.600438       -16.3387
  20   2.0000      -0.597017       -16.2457
  21   2.0000      -0.573082       -15.5944
  22   2.0000      -0.524425       -14.2703
  23   2.0000      -0.503873       -13.7111
  24   2.0000      -0.490345       -13.3430
  25   2.0000      -0.480219       -13.0674
  26   2.0000      -0.451558       -12.2875
  27   2.0000      -0.441692       -12.0190
  28   2.0000      -0.435137       -11.8407
  29   2.0000      -0.418936       -11.3998
  30   2.0000      -0.408886       -11.1264
  31   2.0000      -0.382336       -10.4039
  32   2.0000      -0.374767       -10.1979
  33   2.0000      -0.364890        -9.9292
  34   2.0000      -0.364031        -9.9058
  35   2.0000      -0.356659        -9.7052
  36   2.0000      -0.353767        -9.6265
  37   2.0000      -0.315899        -8.5961
  38   2.0000      -0.302693        -8.2367
  39   2.0000      -0.300018        -8.1639
  40   2.0000      -0.259045        -7.0490
  41   2.0000      -0.254060        -6.9133
  42   2.0000      -0.230409        -6.2697
  43   0.0000       0.070185         1.9098
  44   0.0000       0.088864         2.4181
  45   0.0000       0.095441         2.5971
  46   0.0000       0.107578         2.9273
  47   0.0000       0.118207         3.2166

MULLIKEN ATOMIC CHARGES
-----------------------
   0 C :    0.302546
   1 C :   -0.281278
   2 C :   -0.301176
   3 C :    0.000060
   4 O :   -0.499516
   5 H :    0.141224
   6 H :    0.148604
   7 H :    0.142251
   8 H :    0.143328
   9 H :    0.158060
  10 H :    0.156294
  11 H :    0.142630
  12 C :    0.017405
  13 H :    0.117843
  14 C :    0.047093
  15 C :   -0.294623
  16 C :    0.008526
  17 O :   -0.517135
  18 H :    0.162380
  19 O :   -0.501190
  20 H :    0.123323
  21 H :    0.154807
  22 H :    0.139983
  23 H :    0.130981
  24 H :    0.157580
Sum of atomic charges:    0.0000000

LOEWDIN ATOMIC CHARGES
----------------------
   0 C :    0.182325
   1 C :   -0.234244
   2 C :   -0.216948
   3 C :   -0.024414
   4 O :   -0.300129
   5 H :    0.096065
   6 H :    0.116319
   7 H :    0.112265
   8 H :    0.114894
   9 H :    0.114743
  10 H :    0.110611
  11 H :    0.102963
  12 C :   -0.038231
  13 H :    0.088029
  14 C :    0.032228
  15 C :   -0.229971
  16 C :   -0.026298
  17 O :   -0.326685
  18 H :    0.120392
  19 O :   -0.328903
  20 H :    0.095892
  21 H :    0.120913
  22 H :    0.111319
  23 H :    0.096686
  24 H :    0.110182

  Mayer bond orders larger than 0.100000
B(  0-C ,  1-C ) :   0.9262 B(  0-C ,  4-O ) :   0.9406 B(  0-C ,  5-H ) :   0.9211
B(  0-C , 19-O ) :   0.8402 B(  1-C ,  2-C ) :   0.9512 B(  1-C ,  6-H ) :   0.9332
B(  1-C ,  7-H ) :   0.9317 B(  2-C ,  3-C ) :   0.9554 B(  2-C ,  8-H ) :   0.9447
B(  2-C ,  9-H ) :   0.9426 B(  3-C ,  4-O ) :   0.8352 B(  3-C , 10-H ) :   0.9341
B(  3-C , 11-H ) :   0.9397 B( 12-C , 13-H ) :   0.9118 B( 12-C , 14-C ) :   0.9221
B( 12-C , 17-O ) :   0.8748 B( 12-C , 18-H ) :   0.9329 B( 14-C , 15-C ) :   0.9460
B( 14-C , 19-O ) :   0.8318 B( 14-C , 20-H ) :   0.9160 B( 15-C , 16-C ) :   0.9476
B( 15-C , 21-H ) :   0.9383 B( 15-C , 22-H ) :   0.9391 B( 16-C , 17-O ) :   0.8584
B( 16-C , 23-H ) :   0.9334 B( 16-C , 24-H ) :   0.9352

FINAL SINGLE POINT ENERGY      -538.427540901110

DIPOLE MOMENT
-------------
                                X             Y             Z
Electronic contribution:     -1.39783      -5.23181       1.11598
Nuclear contribution   :      2.27017       6.74142      -1.96250
                        -----------------------------------------
Total Dipole Moment    :      0.87234       1.50962      -0.84652
                        -----------------------------------------
Magnitude (a.u.)       :      1.93817
Magnitude (Debye)      :      4.92644

Rotational constants in cm-1:     0.079398     0.020598     0.019808
Rotational constants in MHz :  2380.289410   617.502802   593.826440

                             ****ORCA TERMINATED NORMALLY****
TOTAL RUN TIME: 0 days 0 hours 6 minutes 52 seconds 898 msec
