                         Program Version 4.2.1 -  RELEASE  -
|  1> # Test redundant internal optimization
|  2> #
|  3> ! RKS B3LYP  Opt TightSCF SmallPrint
|  4>
|  5> %basis
|  6>         Basis "6-31G"
|  7> end
|  8>
|  9> %geom
| 10> Constraints
| 11> { D 4  0  19  14  225.0   C } # D for Dihedral angle
| 12> { D 0  19  14  12  75.0   C } # D for Dihedral angle
| 13> { D 0  4  3  2   C } # D for Dihedral angle
| 14> { D 4  3  2  1   C } # D for Dihedral angle
| 15> { D 3  2  1  0   C } # D for Dihedral angle
| 16> { D 2  1  0  4   C } # D for Dihedral angle
| 17> { D 1  0  4  3   C } # D for Dihedral angle
| 18> { D 14  15  16  17   C } # D for Dihedral angle
| 19> { D 15  16  17  12   C } # D for Dihedral angle
| 20> { D 16  17  12  14   C } # D for Dihedral angle
| 21> { D 17  12  14  15   C } # D for Dihedral angle
| 22> { D 12  14  15  16   C } # D for Dihedral angle
| 23> end
| 24> end
| 25>
| 26>
| 27> #%pal
| 28> #nprocs 8
| 29> #end
| 30>
| 31> * xyz 0 1
| 32> C  -21.048   26.222   46.251
| 33> C  -20.361   27.558   45.944
| 34> C  -20.329   28.222   47.341
| 35> C  -20.110   27.022   48.296
| 36> O  -20.473   25.807   47.535
| 37> H  -20.833   25.428   45.533
| 38> H  -19.344   27.382   45.576
| 39> H  -20.898   28.157   45.201
| 40> H  -19.543   28.978   47.434
| 41> H  -21.289   28.710   47.548
| 42> H  -20.733   27.082   49.195
| 43> H  -19.064   26.913   48.597
| 44> C  -23.256   24.274   45.433
| 45> H  -23.562   23.789   44.492
| 46> C  -23.222   25.800   45.287
| 47> C  -24.721   26.161   45.407
| 48> C  -25.251   25.128   46.431
| 49> O  -24.255   24.034   46.480
| 50> H  -22.321   23.831   45.776
| 51> O  -22.472   26.381   46.366
| 52> H  -22.779   26.132   44.341
| 53> H  -24.885   27.193   45.732
| 54> H  -25.218   26.034   44.437
| 55> H  -26.224   24.713   46.146
| 56> H  -25.325   25.541   47.442
| 57> *
| 58>
| 59>                          ****END OF INPUT****
 Total Charge           Charge          ....    0
 Multiplicity           Mult            ....    1
 Number of Electrons    NEL             ....   86
FINAL SINGLE POINT ENERGY      -538.428453686737
FINAL SINGLE POINT ENERGY      -538.430903593237
FINAL SINGLE POINT ENERGY      -538.431202396150
FINAL SINGLE POINT ENERGY      -538.431243407627
FINAL SINGLE POINT ENERGY      -538.431256064971
                    ***********************HURRAY********************

CARTESIAN COORDINATES (ANGSTROEM)
---------------------------------
  C    -20.984799   26.198044   46.240510
  C    -20.335246   27.550287   45.951506
  C    -20.392406   28.235769   47.337743
  C    -20.176244   27.058343   48.313294
  O    -20.466150   25.829316   47.530443
  H    -20.723464   25.395058   45.545494
  H    -19.296507   27.397808   45.634221
  H    -20.861726   28.109032   45.173323
  H    -19.637357   29.019121   47.452606
  H    -21.381180   28.680256   47.485234
  H    -20.843843   27.086700   49.177754
  H    -19.140650   26.974000   48.656090
  C    -23.309298   24.231653   45.362519
  H    -23.682805   23.799178   44.421517
  C    -23.208976   25.751380   45.241080
  C    -24.672208   26.178917   45.454752
  C    -25.196239   25.155160   46.490045
  O    -24.252711   24.016635   46.458490
  H    -22.375680   23.738626   45.640882
  O    -22.428985   26.355465   46.314197
  H    -22.817766   26.070977   44.264554
  H    -24.726738   27.210957   45.808116
  H    -25.217739   26.101873   44.507251
  H    -26.203153   24.795183   46.251398
  H    -25.184129   25.552260   47.507979

 Multiplicity           Mult            ....    1
 Number of Electrons    NEL             ....   86
 Basis Dimension        Dim             ....  127

ORBITAL ENERGIES
----------------

  NO   OCC          E(Eh)            E(eV)
   0   2.0000     -19.139345      -520.8080
   1   2.0000     -19.136735      -520.7370
   2   2.0000     -19.125388      -520.4283
   3   2.0000     -10.278344      -279.6879
   4   2.0000     -10.241943      -278.6974
   5   2.0000     -10.222258      -278.1618
   6   2.0000     -10.221247      -278.1343
   7   2.0000     -10.217479      -278.0317
   8   2.0000     -10.185614      -277.1647
   9   2.0000     -10.185027      -277.1487
  10   2.0000     -10.184377      -277.1310
  11   2.0000      -1.051378       -28.6094
  12   2.0000      -1.012734       -27.5579
  13   2.0000      -0.988839       -26.9077
  14   2.0000      -0.789499       -21.4833
  15   2.0000      -0.777319       -21.1519
  16   2.0000      -0.736054       -20.0291
  17   2.0000      -0.723207       -19.6795
  18   2.0000      -0.612341       -16.6627
  19   2.0000      -0.597442       -16.2572
  20   2.0000      -0.593038       -16.1374
  21   2.0000      -0.573253       -15.5990
  22   2.0000      -0.524649       -14.2764
  23   2.0000      -0.499611       -13.5951
  24   2.0000      -0.486715       -13.2442
  25   2.0000      -0.476103       -12.9554
  26   2.0000      -0.448222       -12.1967
  27   2.0000      -0.442577       -12.0431
  28   2.0000      -0.435223       -11.8430
  29   2.0000      -0.414373       -11.2757
  30   2.0000      -0.404222       -10.9994
  31   2.0000      -0.379168       -10.3177
  32   2.0000      -0.369316       -10.0496
  33   2.0000      -0.363750        -9.8981
  34   2.0000      -0.358211        -9.7474
  35   2.0000      -0.355160        -9.6644
  36   2.0000      -0.347581        -9.4582
  37   2.0000      -0.314277        -8.5519
  38   2.0000      -0.307013        -8.3542
  39   2.0000      -0.300176        -8.1682
  40   2.0000      -0.261608        -7.1187
  41   2.0000      -0.246308        -6.7024
  42   2.0000      -0.231849        -6.3089
  43   0.0000       0.077938         2.1208
  44   0.0000       0.095659         2.6030
  45   0.0000       0.103002         2.8028
  46   0.0000       0.113471         3.0877
  47   0.0000       0.119498         3.2517

MULLIKEN ATOMIC CHARGES
-----------------------
   0 C :    0.291465
   1 C :   -0.255587
   2 C :   -0.299860
   3 C :   -0.000263
   4 O :   -0.500638
   5 H :    0.134904
   6 H :    0.141898
   7 H :    0.142187
   8 H :    0.140762
   9 H :    0.161025
  10 H :    0.154123
  11 H :    0.140396
  12 C :    0.004112
  13 H :    0.120040
  14 C :    0.062074
  15 C :   -0.294634
  16 C :    0.008240
  17 O :   -0.515959
  18 H :    0.165185
  19 O :   -0.509579
  20 H :    0.119344
  21 H :    0.161189
  22 H :    0.141221
  23 H :    0.132252
  24 H :    0.156103
Sum of atomic charges:   -0.0000000

LOEWDIN ATOMIC CHARGES
----------------------
   0 C :    0.176076
   1 C :   -0.223411
   2 C :   -0.216758
   3 C :   -0.025416
   4 O :   -0.309166
   5 H :    0.095744
   6 H :    0.111756
   7 H :    0.115422
   8 H :    0.113686
   9 H :    0.118660
  10 H :    0.109274
  11 H :    0.101699
  12 C :   -0.046656
  13 H :    0.090051
  14 C :    0.036818
  15 C :   -0.223291
  16 C :   -0.025644
  17 O :   -0.325992
  18 H :    0.118798
  19 O :   -0.327942
  20 H :    0.090306
  21 H :    0.127413
  22 H :    0.111989
  23 H :    0.096748
  24 H :    0.109835

  Mayer bond orders larger than 0.100000
B(  0-C ,  1-C ) :   0.9384 B(  0-C ,  4-O ) :   0.9337 B(  0-C ,  5-H ) :   0.9174
B(  0-C , 19-O ) :   0.8343 B(  1-C ,  2-C ) :   0.9562 B(  1-C ,  6-H ) :   0.9356
B(  1-C ,  7-H ) :   0.9389 B(  2-C ,  3-C ) :   0.9544 B(  2-C ,  8-H ) :   0.9452
B(  2-C ,  9-H ) :   0.9439 B(  3-C ,  4-O ) :   0.8382 B(  3-C , 10-H ) :   0.9342
B(  3-C , 11-H ) :   0.9397 B( 12-C , 13-H ) :   0.9086 B( 12-C , 14-C ) :   0.9088
B( 12-C , 17-O ) :   0.8767 B( 12-C , 18-H ) :   0.9279 B( 14-C , 15-C ) :   0.9597
B( 14-C , 19-O ) :   0.8423 B( 14-C , 20-H ) :   0.9203 B( 15-C , 16-C ) :   0.9459
B( 15-C , 21-H ) :   0.9371 B( 15-C , 22-H ) :   0.9417 B( 16-C , 17-O ) :   0.8546
B( 16-C , 23-H ) :   0.9331 B( 16-C , 24-H ) :   0.9361

FINAL SINGLE POINT ENERGY      -538.431257358822

DIPOLE MOMENT
-------------
                                X             Y             Z
Electronic contribution:     -0.09157      -3.87182       1.38873
Nuclear contribution   :      0.29364       5.07594      -2.41619
                        -----------------------------------------
Total Dipole Moment    :      0.20207       1.20412      -1.02745
                        -----------------------------------------
Magnitude (a.u.)       :      1.59574
Magnitude (Debye)      :      4.05606

Rotational constants in cm-1:     0.080063     0.020383     0.019603
Rotational constants in MHz :  2400.242584   611.076301   587.688905

                             ****ORCA TERMINATED NORMALLY****
TOTAL RUN TIME: 0 days 0 hours 6 minutes 37 seconds 262 msec
