                         Program Version 4.2.0 -  RELEASE  -
|  1> # Test redundant internal optimization
|  2> #
|  3> ! RKS B3LYP  Opt TightSCF SmallPrint
|  4>
|  5> %basis
|  6>         Basis "6-31G"
|  7> end
|  8>
|  9> %geom
| 10> Constraints
| 11> { D 4  0  15  12  45.0   C } # D for Dihedral angle
| 12> { D 0  15  12  16  270.0   C } # D for Dihedral angle
| 13> { D 0  4  3  2   C } # D for Dihedral angle
| 14> { D 4  3  2  1   C } # D for Dihedral angle
| 15> { D 3  2  1  0   C } # D for Dihedral angle
| 16> { D 2  1  0  4   C } # D for Dihedral angle
| 17> { D 1  0  4  3   C } # D for Dihedral angle
| 18> { D 16  20  19  18   C } # D for Dihedral angle
| 19> { D 20  19  18  17   C } # D for Dihedral angle
| 20> { D 19  18  17  16   C } # D for Dihedral angle
| 21> { D 18  17  16  20   C } # D for Dihedral angle
| 22> { D 17  16  20  19   C } # D for Dihedral angle
| 23> { D 15  12  16  20   C } # D for Dihedral angle
| 24> end
| 25> end
| 26>
| 27>
| 28> #%pal
| 29> #nprocs 8
| 30> #end
| 31>
| 32> * xyz 0 1
| 33> C  -21.048   26.222   46.251
| 34> C  -20.361   27.558   45.944
| 35> C  -20.329   28.222   47.341
| 36> C  -20.110   27.022   48.296
| 37> O  -20.473   25.807   47.535
| 38> H  -20.833   25.428   45.533
| 39> H  -19.344   27.382   45.576
| 40> H  -20.898   28.157   45.201
| 41> H  -19.543   28.978   47.434
| 42> H  -21.289   28.710   47.548
| 43> H  -20.733   27.082   49.195
| 44> H  -19.064   26.913   48.597
| 45> C  -23.065   27.161   47.638
| 46> H  -22.300   27.892   47.929
| 47> H  -23.995   27.705   47.427
| 48> O  -22.586   26.394   46.375
| 49> C  -23.330   26.222   48.847
| 50> C  -24.328   25.116   48.484
| 51> C  -23.426   24.122   47.713
| 52> C  -22.068   24.235   48.450
| 53> O  -22.108   25.501   49.214
| 54> H  -23.618   26.824   49.711
| 55> H  -24.722   24.652   49.395
| 56> O  -25.524   25.626   47.635
| 57> H  -23.819   23.100   47.717
| 58> H  -23.325   24.438   46.667
| 59> H  -21.217   24.258   47.760
| 60> H  -21.916   23.428   49.172
| 61> H  -25.151   26.094   46.717
| 62> *
| 63>
| 64>                          ****END OF INPUT****
 Total Charge           Charge          ....    0
 Multiplicity           Mult            ....    1
 Number of Electrons    NEL             ....  102
FINAL SINGLE POINT ENERGY      -652.780329890760
FINAL SINGLE POINT ENERGY      -652.831988212890
FINAL SINGLE POINT ENERGY      -652.851494735285
FINAL SINGLE POINT ENERGY      -652.856280249023
FINAL SINGLE POINT ENERGY      -652.857105123238
FINAL SINGLE POINT ENERGY      -652.857339461093
FINAL SINGLE POINT ENERGY      -652.857383204827
FINAL SINGLE POINT ENERGY      -652.857389696192
                    ***********************HURRAY********************

CARTESIAN COORDINATES (ANGSTROEM)
---------------------------------
  C    -21.071576   26.480749   46.251001
  C    -20.364715   27.799660   45.916439
  C    -20.017260   28.353216   47.329513
  C    -19.705128   27.061419   48.125693
  O    -20.304275   25.949553   47.341044
  H    -21.024975   25.746783   45.445043
  H    -19.450687   27.580638   45.352863
  H    -20.993610   28.469868   45.325674
  H    -19.158325   29.031613   47.306900
  H    -20.859384   28.903942   47.756247
  H    -20.146176   27.036195   49.123842
  H    -18.632207   26.857693   48.187490
  C    -23.146552   27.136290   47.662299
  H    -22.555032   27.955484   48.083464
  H    -24.092034   27.558984   47.306808
  O    -22.506827   26.601587   46.461976
  C    -23.484148   26.150979   48.789991
  C    -24.473697   25.047580   48.376334
  C    -23.516034   23.948408   47.819539
  C    -22.278312   24.083289   48.733707
  O    -22.375339   25.423917   49.377709
  H    -23.907593   26.768434   49.593466
  H    -25.019113   24.687162   49.251123
  O    -25.498227   25.474908   47.445413
  H    -23.964303   22.951510   47.854812
  H    -23.265354   24.193984   46.783060
  H    -21.333395   24.042387   48.193414
  H    -22.282267   23.350272   49.546815
  H    -25.096454   25.602499   46.560321

 Multiplicity           Mult            ....    1
 Number of Electrons    NEL             ....  102
 Basis Dimension        Dim             ....  149

ORBITAL ENERGIES
----------------

  NO   OCC          E(Eh)            E(eV)
   0   2.0000     -19.147098      -521.0190
   1   2.0000     -19.145540      -520.9766
   2   2.0000     -19.135689      -520.7086
   3   2.0000     -19.130298      -520.5619
   4   2.0000     -10.283614      -279.8314
   5   2.0000     -10.231335      -278.4088
   6   2.0000     -10.230925      -278.3976
   7   2.0000     -10.227434      -278.3026
   8   2.0000     -10.226161      -278.2680
   9   2.0000     -10.210645      -277.8458
  10   2.0000     -10.193567      -277.3811
  11   2.0000     -10.190131      -277.2876
  12   2.0000     -10.175642      -276.8933
  13   2.0000      -1.053957       -28.6796
  14   2.0000      -1.022205       -27.8156
  15   2.0000      -1.004509       -27.3341
  16   2.0000      -0.995396       -27.0861
  17   2.0000      -0.789455       -21.4821
  18   2.0000      -0.772095       -21.0098
  19   2.0000      -0.762344       -20.7444
  20   2.0000      -0.732518       -19.9328
  21   2.0000      -0.677168       -18.4267
  22   2.0000      -0.605624       -16.4799
  23   2.0000      -0.602267       -16.3885
  24   2.0000      -0.595521       -16.2050
  25   2.0000      -0.556057       -15.1311
  26   2.0000      -0.526018       -14.3137
  27   2.0000      -0.507161       -13.8006
  28   2.0000      -0.496729       -13.5167
  29   2.0000      -0.487416       -13.2633
  30   2.0000      -0.464761       -12.6468
  31   2.0000      -0.456980       -12.4351
  32   2.0000      -0.438530       -11.9330
  33   2.0000      -0.427221       -11.6253
  34   2.0000      -0.419908       -11.4263
  35   2.0000      -0.411276       -11.1914
  36   2.0000      -0.403516       -10.9802
  37   2.0000      -0.391026       -10.6403
  38   2.0000      -0.383292       -10.4299
  39   2.0000      -0.366831        -9.9820
  40   2.0000      -0.359551        -9.7839
  41   2.0000      -0.354244        -9.6395
  42   2.0000      -0.345529        -9.4023
  43   2.0000      -0.325185        -8.8487
  44   2.0000      -0.314719        -8.5639
  45   2.0000      -0.310545        -8.4504
  46   2.0000      -0.301313        -8.1991
  47   2.0000      -0.266623        -7.2552
  48   2.0000      -0.262660        -7.1474
  49   2.0000      -0.256204        -6.9717
  50   2.0000      -0.227643        -6.1945
  51   0.0000       0.065453         1.7811
  52   0.0000       0.087936         2.3929
  53   0.0000       0.092286         2.5112
  54   0.0000       0.097859         2.6629
  55   0.0000       0.108874         2.9626

MULLIKEN ATOMIC CHARGES
-----------------------
   0 C :    0.310933
   1 C :   -0.269434
   2 C :   -0.323149
   3 C :   -0.011233
   4 O :   -0.504932
   5 H :    0.160253
   6 H :    0.151593
   7 H :    0.152956
   8 H :    0.147554
   9 H :    0.153680
  10 H :    0.172422
  11 H :    0.146806
  12 C :   -0.038658
  13 H :    0.133478
  14 H :    0.158354
  15 O :   -0.549367
  16 C :    0.105929
  17 C :    0.089695
  18 C :   -0.322435
  19 C :   -0.009157
  20 O :   -0.524542
  21 H :    0.141642
  22 H :    0.158739
  23 O :   -0.610116
  24 H :    0.143325
  25 H :    0.158769
  26 H :    0.174555
  27 H :    0.135007
  28 H :    0.367331
Sum of atomic charges:    0.0000000

LOEWDIN ATOMIC CHARGES
----------------------
   0 C :    0.178614
   1 C :   -0.225829
   2 C :   -0.223463
   3 C :   -0.032467
   4 O :   -0.308385
   5 H :    0.109965
   6 H :    0.118336
   7 H :    0.120801
   8 H :    0.116683
   9 H :    0.109743
  10 H :    0.117579
  11 H :    0.105104
  12 C :   -0.050853
  13 H :    0.097953
  14 H :    0.118053
  15 O :   -0.346369
  16 C :    0.009426
  17 C :    0.035495
  18 C :   -0.242321
  19 C :   -0.031408
  20 O :   -0.322428
  21 H :    0.111496
  22 H :    0.114447
  23 O :   -0.413309
  24 H :    0.115224
  25 H :    0.117328
  26 H :    0.118481
  27 H :    0.098143
  28 H :    0.283962

  Mayer bond orders larger than 0.100000
B(  0-C ,  1-C ) :   0.9239 B(  0-C ,  4-O ) :   0.9155 B(  0-C ,  5-H ) :   0.9365
B(  0-C , 15-O ) :   0.8572 B(  1-C ,  2-C ) :   0.9555 B(  1-C ,  6-H ) :   0.9349
B(  1-C ,  7-H ) :   0.9378 B(  2-C ,  3-C ) :   0.9488 B(  2-C ,  8-H ) :   0.9439
B(  2-C ,  9-H ) :   0.9373 B(  3-C ,  4-O ) :   0.8211 B(  3-C , 10-H ) :   0.9229
B(  3-C , 11-H ) :   0.9398 B( 12-C , 13-H ) :   0.9156 B( 12-C , 14-H ) :   0.9189
B( 12-C , 15-O ) :   0.8430 B( 12-C , 16-C ) :   0.8878 B( 16-C , 17-C ) :   0.8862
B( 16-C , 20-O ) :   0.8872 B( 16-C , 21-H ) :   0.9215 B( 17-C , 18-C ) :   0.9310
B( 17-C , 22-H ) :   0.9375 B( 17-C , 23-O ) :   0.8973 B( 18-C , 19-C ) :   0.9484
B( 18-C , 24-H ) :   0.9417 B( 18-C , 25-H ) :   0.9301 B( 19-C , 20-O ) :   0.8226
B( 19-C , 26-H ) :   0.9133 B( 19-C , 27-H ) :   0.9392 B( 23-O , 28-H ) :   0.7908

FINAL SINGLE POINT ENERGY      -652.857388006748

DIPOLE MOMENT
-------------
                                X             Y             Z
Electronic contribution:     -2.81455      -2.15328       0.38691
Nuclear contribution   :      3.64231       2.77612      -0.80650
                        -----------------------------------------
Total Dipole Moment    :      0.82776       0.62284      -0.41959
                        -----------------------------------------
Magnitude (a.u.)       :      1.11767
Magnitude (Debye)      :      2.84088

Rotational constants in cm-1:     0.049036     0.018820     0.016784
Rotational constants in MHz :  1470.067944   564.214265   503.166976

                             ****ORCA TERMINATED NORMALLY****
TOTAL RUN TIME: 0 days 0 hours 43 minutes 17 seconds 365 msec
