                         Program Version 4.2.1 -  RELEASE  -
|  1> # Test redundant internal optimization
|  2> #
|  3> ! RKS B3LYP  Opt TightSCF SmallPrint
|  4>
|  5> %basis
|  6>         Basis "6-31G"
|  7> end
|  8>
|  9> %geom
| 10> Constraints
| 11> { D 4  0  19  14  210.0   C } # D for Dihedral angle
| 12> { D 0  19  14  12  285.0   C } # D for Dihedral angle
| 13> { D 0  4  3  2   C } # D for Dihedral angle
| 14> { D 4  3  2  1   C } # D for Dihedral angle
| 15> { D 3  2  1  0   C } # D for Dihedral angle
| 16> { D 2  1  0  4   C } # D for Dihedral angle
| 17> { D 1  0  4  3   C } # D for Dihedral angle
| 18> { D 14  15  16  17   C } # D for Dihedral angle
| 19> { D 15  16  17  12   C } # D for Dihedral angle
| 20> { D 16  17  12  14   C } # D for Dihedral angle
| 21> { D 17  12  14  15   C } # D for Dihedral angle
| 22> { D 12  14  15  16   C } # D for Dihedral angle
| 23> end
| 24> end
| 25>
| 26>
| 27> #%pal
| 28> #nprocs 8
| 29> #end
| 30>
| 31> * xyz 0 1
| 32> C  -21.048   26.222   46.251
| 33> C  -20.361   27.558   45.944
| 34> C  -20.329   28.222   47.341
| 35> C  -20.110   27.022   48.296
| 36> O  -20.473   25.807   47.535
| 37> H  -20.833   25.428   45.533
| 38> H  -19.344   27.382   45.576
| 39> H  -20.898   28.157   45.201
| 40> H  -19.543   28.978   47.434
| 41> H  -21.289   28.710   47.548
| 42> H  -20.733   27.082   49.195
| 43> H  -19.064   26.913   48.597
| 44> C  -23.023   27.277   44.171
| 45> H  -23.781   27.244   43.373
| 46> C  -23.197   26.114   45.155
| 47> C  -22.551   24.945   44.377
| 48> C  -21.386   25.628   43.617
| 49> O  -21.681   27.078   43.611
| 50> H  -23.032   28.266   44.632
| 51> O  -22.472   26.381   46.366
| 52> H  -24.245   25.925   45.414
| 53> H  -22.206   24.138   45.031
| 54> H  -23.273   24.516   43.671
| 55> H  -21.294   25.276   42.584
| 56> H  -20.424   25.498   44.123
| 57> *
| 58>
| 59>                          ****END OF INPUT****
 Total Charge           Charge          ....    0
 Multiplicity           Mult            ....    1
 Number of Electrons    NEL             ....   86
FINAL SINGLE POINT ENERGY      -538.399459336040
FINAL SINGLE POINT ENERGY      -538.426224583061
FINAL SINGLE POINT ENERGY      -538.428653653075
FINAL SINGLE POINT ENERGY      -538.429072799632
FINAL SINGLE POINT ENERGY      -538.429133226095
FINAL SINGLE POINT ENERGY      -538.429143597024
FINAL SINGLE POINT ENERGY      -538.429143858962
                    ***********************HURRAY********************

CARTESIAN COORDINATES (ANGSTROEM)
---------------------------------
  C    -20.801511   26.280462   46.308341
  C    -20.155154   27.650012   46.108915
  C    -20.345954   28.299321   47.500156
  C    -20.193425   27.102489   48.463094
  O    -20.390447   25.888235   47.629866
  H    -20.461864   25.498318   45.628958
  H    -19.088843   27.510824   45.891287
  H    -20.601103   28.209882   45.286178
  H    -19.617727   29.091239   47.698572
  H    -21.350981   28.725754   47.574273
  H    -20.933969   27.097829   49.267223
  H    -19.189878   27.027769   48.893214
  C    -23.023039   27.229706   44.093547
  H    -23.930023   27.214562   43.472259
  C    -23.055413   26.100299   45.128147
  C    -22.645754   24.886542   44.272269
  C    -21.624007   25.475031   43.266701
  O    -21.834226   26.946945   43.273835
  H    -22.896801   28.217670   44.537736
  O    -22.256540   26.362777   46.316108
  H    -24.059751   25.973507   45.542531
  H    -22.238248   24.072263   44.878336
  H    -23.530970   24.507337   43.750818
  H    -21.781239   25.106281   42.247154
  H    -20.583134   25.291947   43.546483

 Multiplicity           Mult            ....    1
 Number of Electrons    NEL             ....   86
 Basis Dimension        Dim             ....  127

ORBITAL ENERGIES
----------------

  NO   OCC          E(Eh)            E(eV)
   0   2.0000     -19.140830      -520.8485
   1   2.0000     -19.136342      -520.7263
   2   2.0000     -19.133454      -520.6478
   3   2.0000     -10.274258      -279.5768
   4   2.0000     -10.243437      -278.7381
   5   2.0000     -10.231144      -278.4036
   6   2.0000     -10.226405      -278.2746
   7   2.0000     -10.219104      -278.0760
   8   2.0000     -10.193705      -277.3848
   9   2.0000     -10.179498      -276.9982
  10   2.0000     -10.175905      -276.9004
  11   2.0000      -1.048013       -28.5179
  12   2.0000      -1.019462       -27.7410
  13   2.0000      -0.986272       -26.8378
  14   2.0000      -0.788737       -21.4626
  15   2.0000      -0.775918       -21.1138
  16   2.0000      -0.747894       -20.3512
  17   2.0000      -0.720227       -19.5984
  18   2.0000      -0.617192       -16.7946
  19   2.0000      -0.607976       -16.5439
  20   2.0000      -0.592396       -16.1199
  21   2.0000      -0.565389       -15.3850
  22   2.0000      -0.522368       -14.2143
  23   2.0000      -0.506016       -13.7694
  24   2.0000      -0.483507       -13.1569
  25   2.0000      -0.477701       -12.9989
  26   2.0000      -0.453023       -12.3274
  27   2.0000      -0.438378       -11.9289
  28   2.0000      -0.433758       -11.8032
  29   2.0000      -0.416275       -11.3274
  30   2.0000      -0.400405       -10.8956
  31   2.0000      -0.395055       -10.7500
  32   2.0000      -0.376988       -10.2584
  33   2.0000      -0.367267        -9.9938
  34   2.0000      -0.360613        -9.8128
  35   2.0000      -0.349885        -9.5209
  36   2.0000      -0.344450        -9.3730
  37   2.0000      -0.318483        -8.6664
  38   2.0000      -0.305332        -8.3085
  39   2.0000      -0.294409        -8.0113
  40   2.0000      -0.263178        -7.1614
  41   2.0000      -0.252938        -6.8828
  42   2.0000      -0.235254        -6.4016
  43   0.0000       0.072352         1.9688
  44   0.0000       0.089207         2.4274
  45   0.0000       0.101081         2.7506
  46   0.0000       0.102351         2.7851
  47   0.0000       0.107371         2.9217

MULLIKEN ATOMIC CHARGES
-----------------------
   0 C :    0.294840
   1 C :   -0.262460
   2 C :   -0.301429
   3 C :   -0.001478
   4 O :   -0.506505
   5 H :    0.136572
   6 H :    0.140312
   7 H :    0.165716
   8 H :    0.139252
   9 H :    0.156225
  10 H :    0.151170
  11 H :    0.139026
  12 C :   -0.015643
  13 H :    0.130509
  14 C :    0.093709
  15 C :   -0.323461
  16 C :   -0.014898
  17 O :   -0.526756
  18 H :    0.159714
  19 O :   -0.519104
  20 H :    0.150850
  21 H :    0.168144
  22 H :    0.152845
  23 H :    0.142615
  24 H :    0.150235
Sum of atomic charges:   -0.0000000

LOEWDIN ATOMIC CHARGES
----------------------
   0 C :    0.179776
   1 C :   -0.225904
   2 C :   -0.218245
   3 C :   -0.026318
   4 O :   -0.310392
   5 H :    0.096895
   6 H :    0.112576
   7 H :    0.125399
   8 H :    0.113035
   9 H :    0.115818
  10 H :    0.107316
  11 H :    0.100725
  12 C :   -0.051166
  13 H :    0.096110
  14 C :    0.043728
  15 C :   -0.240759
  16 C :   -0.036123
  17 O :   -0.338591
  18 H :    0.116283
  19 O :   -0.327358
  20 H :    0.114808
  21 H :    0.127991
  22 H :    0.121357
  23 H :    0.101734
  24 H :    0.101305

  Mayer bond orders larger than 0.100000
B(  0-C ,  1-C ) :   0.9335 B(  0-C ,  4-O ) :   0.9276 B(  0-C ,  5-H ) :   0.9117
B(  0-C , 19-O ) :   0.8288 B(  1-C ,  2-C ) :   0.9510 B(  1-C ,  6-H ) :   0.9359
B(  1-C ,  7-H ) :   0.9262 B(  2-C ,  3-C ) :   0.9536 B(  2-C ,  8-H ) :   0.9453
B(  2-C ,  9-H ) :   0.9447 B(  3-C ,  4-O ) :   0.8376 B(  3-C , 10-H ) :   0.9352
B(  3-C , 11-H ) :   0.9399 B( 12-C , 13-H ) :   0.9158 B( 12-C , 14-C ) :   0.9052
B( 12-C , 17-O ) :   0.8528 B( 12-C , 18-H ) :   0.9315 B( 14-C , 15-C ) :   0.9289
B( 14-C , 19-O ) :   0.8845 B( 14-C , 20-H ) :   0.9358 B( 15-C , 16-C ) :   0.9430
B( 15-C , 21-H ) :   0.9339 B( 15-C , 22-H ) :   0.9379 B( 16-C , 17-O ) :   0.8507
B( 16-C , 23-H ) :   0.9332 B( 16-C , 24-H ) :   0.9280

FINAL SINGLE POINT ENERGY      -538.429144262767

DIPOLE MOMENT
-------------
                                X             Y             Z
Electronic contribution:     -0.72703      -1.47098       0.70526
Nuclear contribution   :      0.44764       1.54774      -1.05270
                        -----------------------------------------
Total Dipole Moment    :     -0.27939       0.07675      -0.34744
                        -----------------------------------------
Magnitude (a.u.)       :      0.45240
Magnitude (Debye)      :      1.14990

Rotational constants in cm-1:     0.076319     0.023663     0.022231
Rotational constants in MHz :  2287.988707   709.413872   666.455361

                             ****ORCA TERMINATED NORMALLY****
TOTAL RUN TIME: 0 days 0 hours 10 minutes 14 seconds 404 msec
