                         Program Version 4.2.0 -  RELEASE  -
|  1> # Test redundant internal optimization
|  2> #
|  3> ! RKS B3LYP  Opt TightSCF SmallPrint
|  4>
|  5> %basis
|  6>         Basis "6-31G"
|  7> end
|  8>
|  9> %geom
| 10> Constraints
| 11> { D 4  0  15  12  330.0   C } # D for Dihedral angle
| 12> { D 0  15  12  16  195.0   C } # D for Dihedral angle
| 13> { D 0  4  3  2   C } # D for Dihedral angle
| 14> { D 4  3  2  1   C } # D for Dihedral angle
| 15> { D 3  2  1  0   C } # D for Dihedral angle
| 16> { D 2  1  0  4   C } # D for Dihedral angle
| 17> { D 1  0  4  3   C } # D for Dihedral angle
| 18> { D 16  20  19  18   C } # D for Dihedral angle
| 19> { D 20  19  18  17   C } # D for Dihedral angle
| 20> { D 19  18  17  16   C } # D for Dihedral angle
| 21> { D 18  17  16  20   C } # D for Dihedral angle
| 22> { D 17  16  20  19   C } # D for Dihedral angle
| 23> { D 15  12  16  20   C } # D for Dihedral angle
| 24> end
| 25> end
| 26>
| 27>
| 28> #%pal
| 29> #nprocs 8
| 30> #end
| 31>
| 32> * xyz 0 1
| 33> C  -21.048   26.222   46.251
| 34> C  -20.361   27.558   45.944
| 35> C  -20.329   28.222   47.341
| 36> C  -20.110   27.022   48.296
| 37> O  -20.473   25.807   47.535
| 38> H  -20.833   25.428   45.533
| 39> H  -19.344   27.382   45.576
| 40> H  -20.898   28.157   45.201
| 41> H  -19.543   28.978   47.434
| 42> H  -21.289   28.710   47.548
| 43> H  -20.733   27.082   49.195
| 44> H  -19.064   26.913   48.597
| 45> C  -23.271   25.476   47.424
| 46> H  -22.873   24.458   47.329
| 47> H  -23.062   25.832   48.441
| 48> O  -22.586   26.394   46.375
| 49> C  -24.814   25.415   47.253
| 50> C  -25.434   26.817   47.285
| 51> C  -25.140   27.322   45.851
| 52> C  -25.269   26.039   44.993
| 53> O  -25.162   24.896   45.926
| 54> H  -25.228   24.721   47.986
| 55> H  -26.513   26.746   47.456
| 56> O  -24.822   27.730   48.381
| 57> H  -25.828   28.110   45.529
| 58> H  -24.121   27.723   45.795
| 59> H  -24.482   25.959   44.236
| 60> H  -26.243   25.962   44.500
| 61> H  -23.740   27.814   48.229
| 62> *
| 63>
| 64>                          ****END OF INPUT****
 Total Charge           Charge          ....    0
 Multiplicity           Mult            ....    1
 Number of Electrons    NEL             ....  102
FINAL SINGLE POINT ENERGY      -652.836249031071
FINAL SINGLE POINT ENERGY      -652.859446014036
FINAL SINGLE POINT ENERGY      -652.863898682980
FINAL SINGLE POINT ENERGY      -652.865186660066
FINAL SINGLE POINT ENERGY      -652.865304187572
FINAL SINGLE POINT ENERGY      -652.865322179368
FINAL SINGLE POINT ENERGY      -652.865323149285
                    ***********************HURRAY********************

CARTESIAN COORDINATES (ANGSTROEM)
---------------------------------
  C    -21.064892   26.155418   46.320850
  C    -20.447896   27.511307   45.979438
  C    -20.376258   28.183741   47.368543
  C    -20.066791   27.004992   48.317734
  O    -20.425903   25.773085   47.559234
  H    -20.855985   25.344909   45.616309
  H    -19.446110   27.354538   45.564498
  H    -21.047217   28.070651   45.257735
  H    -19.613585   28.966837   47.418385
  H    -21.342284   28.637675   47.612814
  H    -20.646109   27.029375   49.244431
  H    -19.003829   26.921060   48.559814
  C    -23.171055   25.473126   47.433901
  H    -22.793332   24.446369   47.364637
  H    -22.966254   25.843853   48.444922
  O    -22.505590   26.310665   46.436147
  C    -24.677159   25.462603   47.195440
  C    -25.371525   26.833165   47.272452
  C    -25.176739   27.374403   45.821665
  C    -25.280167   26.091928   44.967961
  O    -25.063137   24.948126   45.889494
  H    -25.099961   24.769665   47.933277
  H    -26.429494   26.703726   47.509482
  O    -24.857911   27.706957   48.308457
  H    -25.930649   28.121544   45.556864
  H    -24.180944   27.815698   45.740767
  H    -24.526400   26.051275   44.176655
  H    -26.273643   25.959609   44.528268
  H    -23.972182   28.028701   48.039826

 Multiplicity           Mult            ....    1
 Number of Electrons    NEL             ....  102
 Basis Dimension        Dim             ....  149

ORBITAL ENERGIES
----------------

  NO   OCC          E(Eh)            E(eV)
   0   2.0000     -19.153248      -521.1864
   1   2.0000     -19.149377      -521.0810
   2   2.0000     -19.139057      -520.8002
   3   2.0000     -19.130137      -520.5575
   4   2.0000     -10.285337      -279.8782
   5   2.0000     -10.236366      -278.5457
   6   2.0000     -10.234089      -278.4837
   7   2.0000     -10.227117      -278.2940
   8   2.0000     -10.226081      -278.2658
   9   2.0000     -10.218910      -278.0707
  10   2.0000     -10.197856      -277.4978
  11   2.0000     -10.194378      -277.4031
  12   2.0000     -10.177387      -276.9408
  13   2.0000      -1.061833       -28.8940
  14   2.0000      -1.025432       -27.9034
  15   2.0000      -1.007829       -27.4244
  16   2.0000      -0.996528       -27.1169
  17   2.0000      -0.798525       -21.7290
  18   2.0000      -0.771594       -20.9961
  19   2.0000      -0.763949       -20.7881
  20   2.0000      -0.735703       -20.0195
  21   2.0000      -0.674995       -18.3676
  22   2.0000      -0.610008       -16.5992
  23   2.0000      -0.599832       -16.3222
  24   2.0000      -0.597279       -16.2528
  25   2.0000      -0.564972       -15.3737
  26   2.0000      -0.526831       -14.3358
  27   2.0000      -0.513928       -13.9847
  28   2.0000      -0.499929       -13.6038
  29   2.0000      -0.491193       -13.3660
  30   2.0000      -0.468671       -12.7532
  31   2.0000      -0.457929       -12.4609
  32   2.0000      -0.446998       -12.1634
  33   2.0000      -0.423750       -11.5308
  34   2.0000      -0.421472       -11.4688
  35   2.0000      -0.418001       -11.3744
  36   2.0000      -0.401723       -10.9314
  37   2.0000      -0.398168       -10.8347
  38   2.0000      -0.383426       -10.4335
  39   2.0000      -0.368671       -10.0320
  40   2.0000      -0.365431        -9.9439
  41   2.0000      -0.357764        -9.7353
  42   2.0000      -0.352231        -9.5847
  43   2.0000      -0.336538        -9.1577
  44   2.0000      -0.321336        -8.7440
  45   2.0000      -0.307654        -8.3717
  46   2.0000      -0.304896        -8.2967
  47   2.0000      -0.268821        -7.3150
  48   2.0000      -0.265121        -7.2143
  49   2.0000      -0.257873        -7.0171
  50   2.0000      -0.236436        -6.4337
  51   0.0000       0.041656         1.1335
  52   0.0000       0.083589         2.2746
  53   0.0000       0.092756         2.5240
  54   0.0000       0.097764         2.6603
  55   0.0000       0.103827         2.8253

MULLIKEN ATOMIC CHARGES
-----------------------
   0 C :    0.303223
   1 C :   -0.263571
   2 C :   -0.302585
   3 C :   -0.014476
   4 O :   -0.510097
   5 H :    0.158240
   6 H :    0.150318
   7 H :    0.157846
   8 H :    0.150605
   9 H :    0.144426
  10 H :    0.149594
  11 H :    0.152287
  12 C :   -0.004015
  13 H :    0.157102
  14 H :    0.138940
  15 O :   -0.553112
  16 C :    0.087091
  17 C :    0.081965
  18 C :   -0.314610
  19 C :    0.001586
  20 O :   -0.522250
  21 H :    0.150793
  22 H :    0.161713
  23 O :   -0.608938
  24 H :    0.142780
  25 H :    0.161432
  26 H :    0.144983
  27 H :    0.137585
  28 H :    0.361144
Sum of atomic charges:   -0.0000000

LOEWDIN ATOMIC CHARGES
----------------------
   0 C :    0.179472
   1 C :   -0.216109
   2 C :   -0.216760
   3 C :   -0.031055
   4 O :   -0.321092
   5 H :    0.103459
   6 H :    0.117170
   7 H :    0.123911
   8 H :    0.118530
   9 H :    0.108027
  10 H :    0.105411
  11 H :    0.107997
  12 C :   -0.043224
  13 H :    0.112409
  14 H :    0.101257
  15 O :   -0.346646
  16 C :    0.018388
  17 C :    0.036875
  18 C :   -0.243792
  19 C :   -0.024268
  20 O :   -0.322999
  21 H :    0.114874
  22 H :    0.115900
  23 O :   -0.412331
  24 H :    0.114077
  25 H :    0.119478
  26 H :    0.104466
  27 H :    0.099371
  28 H :    0.277206

  Mayer bond orders larger than 0.100000
B(  0-C ,  1-C ) :   0.9458 B(  0-C ,  4-O ) :   0.9043 B(  0-C ,  5-H ) :   0.9223
B(  0-C , 15-O ) :   0.8368 B(  1-C ,  2-C ) :   0.9522 B(  1-C ,  6-H ) :   0.9367
B(  1-C ,  7-H ) :   0.9360 B(  2-C ,  3-C ) :   0.9542 B(  2-C ,  8-H ) :   0.9441
B(  2-C ,  9-H ) :   0.9452 B(  3-C ,  4-O ) :   0.8327 B(  3-C , 10-H ) :   0.9332
B(  3-C , 11-H ) :   0.9398 B( 12-C , 13-H ) :   0.9226 B( 12-C , 14-H ) :   0.9071
B( 12-C , 15-O ) :   0.8122 B( 12-C , 16-C ) :   0.9130 B( 16-C , 17-C ) :   0.8858
B( 16-C , 20-O ) :   0.8772 B( 16-C , 21-H ) :   0.9285 B( 17-C , 18-C ) :   0.9333
B( 17-C , 22-H ) :   0.9361 B( 17-C , 23-O ) :   0.8986 B( 18-C , 19-C ) :   0.9468
B( 18-C , 24-H ) :   0.9414 B( 18-C , 25-H ) :   0.9266 B( 19-C , 20-O ) :   0.8392
B( 19-C , 26-H ) :   0.9326 B( 19-C , 27-H ) :   0.9382 B( 23-O , 28-H ) :   0.7904

FINAL SINGLE POINT ENERGY      -652.865310247683

DIPOLE MOMENT
-------------
                                X             Y             Z
Electronic contribution:     -2.19078      -4.27670       0.66459
Nuclear contribution   :      3.08452       5.26814      -0.95407
                        -----------------------------------------
Total Dipole Moment    :      0.89374       0.99143      -0.28948
                        -----------------------------------------
Magnitude (a.u.)       :      1.36584
Magnitude (Debye)      :      3.47169

Rotational constants in cm-1:     0.047327     0.016100     0.015305
Rotational constants in MHz :  1418.831207   482.677241   458.826890

                             ****ORCA TERMINATED NORMALLY****
TOTAL RUN TIME: 0 days 0 hours 23 minutes 51 seconds 283 msec
