                         Program Version 4.2.0 -  RELEASE  -
|  1> # Test redundant internal optimization
|  2> #
|  3> ! RKS B3LYP  Opt TightSCF SmallPrint
|  4>
|  5> %basis
|  6>         Basis "6-31G"
|  7> end
|  8>
|  9> %geom
| 10> Constraints
| 11> { D 4  0  15  12  75.0   C } # D for Dihedral angle
| 12> { D 0  15  12  16  120.0   C } # D for Dihedral angle
| 13> { D 0  4  3  2   C } # D for Dihedral angle
| 14> { D 4  3  2  1   C } # D for Dihedral angle
| 15> { D 3  2  1  0   C } # D for Dihedral angle
| 16> { D 2  1  0  4   C } # D for Dihedral angle
| 17> { D 1  0  4  3   C } # D for Dihedral angle
| 18> { D 16  20  19  18   C } # D for Dihedral angle
| 19> { D 20  19  18  17   C } # D for Dihedral angle
| 20> { D 19  18  17  16   C } # D for Dihedral angle
| 21> { D 18  17  16  20   C } # D for Dihedral angle
| 22> { D 17  16  20  19   C } # D for Dihedral angle
| 23> { D 15  12  16  20   C } # D for Dihedral angle
| 24> end
| 25> end
| 26>
| 27>
| 28> #%pal
| 29> #nprocs 8
| 30> #end
| 31>
| 32> * xyz 0 1
| 33> C  -21.048   26.222   46.251
| 34> C  -20.361   27.558   45.944
| 35> C  -20.329   28.222   47.341
| 36> C  -20.110   27.022   48.296
| 37> O  -20.473   25.807   47.535
| 38> H  -20.833   25.428   45.533
| 39> H  -19.344   27.382   45.576
| 40> H  -20.898   28.157   45.201
| 41> H  -19.543   28.978   47.434
| 42> H  -21.289   28.710   47.548
| 43> H  -20.733   27.082   49.195
| 44> H  -19.064   26.913   48.597
| 45> C  -23.049   27.675   47.122
| 46> H  -23.631   27.387   48.006
| 47> H  -22.182   28.259   47.457
| 48> O  -22.586   26.394   46.375
| 49> C  -23.929   28.601   46.237
| 50> C  -25.250   27.920   45.862
| 51> C  -26.079   28.109   47.155
| 52> C  -25.619   29.497   47.668
| 53> O  -24.338   29.791   46.990
| 54> H  -23.341   28.947   45.386
| 55> O  -25.913   28.665   44.671
| 56> H  -25.129   26.867   45.585
| 57> H  -27.158   28.067   46.977
| 58> H  -25.829   27.326   47.880
| 59> H  -25.463   29.512   48.751
| 60> H  -26.317   30.294   47.399
| 61> H  -26.046   29.723   44.926
| 62> *
| 63>
| 64>                          ****END OF INPUT****
 Total Charge           Charge          ....    0
 Multiplicity           Mult            ....    1
 Number of Electrons    NEL             ....  102
FINAL SINGLE POINT ENERGY      -652.783702427769
FINAL SINGLE POINT ENERGY      -652.831542994260
FINAL SINGLE POINT ENERGY      -652.852000408756
FINAL SINGLE POINT ENERGY      -652.855801963835
FINAL SINGLE POINT ENERGY      -652.856339851477
FINAL SINGLE POINT ENERGY      -652.856501352015
FINAL SINGLE POINT ENERGY      -652.856536431726
FINAL SINGLE POINT ENERGY      -652.856545953598
FINAL SINGLE POINT ENERGY      -652.856545746062
                    ***********************HURRAY********************

CARTESIAN COORDINATES (ANGSTROEM)
---------------------------------
  C    -21.242692   26.410427   46.408895
  C    -20.315838   27.539644   45.930369
  C    -19.865507   28.186622   47.276134
  C    -19.779398   26.959595   48.220249
  O    -20.565321   25.882461   47.572046
  H    -21.287579   25.580869   45.701092
  H    -19.461271   27.089752   45.415072
  H    -20.807990   28.239643   45.249975
  H    -18.897784   28.690571   47.185299
  H    -20.584267   28.930496   47.626783
  H    -20.189001   27.151430   49.216725
  H    -18.755718   26.587807   48.321905
  C    -23.179050   27.816484   47.339534
  H    -23.780011   27.412498   48.162191
  H    -22.406013   28.451908   47.773062
  O    -22.645230   26.681204   46.596495
  C    -24.040488   28.655383   46.394216
  C    -25.272866   27.934800   45.829995
  C    -26.270332   28.051522   47.009602
  C    -25.943425   29.438362   47.617766
  O    -24.592029   29.806547   47.119753
  H    -23.420585   29.052941   45.584610
  O    -25.763057   28.606154   44.635816
  H    -25.062857   26.909799   45.529604
  H    -27.300265   27.976393   46.651793
  H    -26.099083   27.247453   47.732837
  H    -25.927528   29.432472   48.712056
  H    -26.632903   30.219477   47.282265
  H    -25.795912   29.572284   44.801860

 Multiplicity           Mult            ....    1
 Number of Electrons    NEL             ....  102
 Basis Dimension        Dim             ....  149

ORBITAL ENERGIES
----------------

  NO   OCC          E(Eh)            E(eV)
   0   2.0000     -19.146537      -521.0038
   1   2.0000     -19.146516      -521.0032
   2   2.0000     -19.141941      -520.8787
   3   2.0000     -19.135362      -520.6997
   4   2.0000     -10.280973      -279.7595
   5   2.0000     -10.235458      -278.5210
   6   2.0000     -10.233841      -278.4770
   7   2.0000     -10.233642      -278.4716
   8   2.0000     -10.233130      -278.4576
   9   2.0000     -10.230769      -278.3934
  10   2.0000     -10.195704      -277.4392
  11   2.0000     -10.194083      -277.3951
  12   2.0000     -10.187950      -277.2282
  13   2.0000      -1.052308       -28.6348
  14   2.0000      -1.036433       -28.2028
  15   2.0000      -1.004891       -27.3445
  16   2.0000      -0.998116       -27.1601
  17   2.0000      -0.790459       -21.5095
  18   2.0000      -0.782844       -21.3023
  19   2.0000      -0.771675       -20.9984
  20   2.0000      -0.734306       -19.9815
  21   2.0000      -0.680771       -18.5247
  22   2.0000      -0.607586       -16.5332
  23   2.0000      -0.604400       -16.4466
  24   2.0000      -0.600222       -16.3329
  25   2.0000      -0.574889       -15.6435
  26   2.0000      -0.527881       -14.3644
  27   2.0000      -0.511375       -13.9152
  28   2.0000      -0.503851       -13.7105
  29   2.0000      -0.491922       -13.3859
  30   2.0000      -0.472959       -12.8699
  31   2.0000      -0.460712       -12.5366
  32   2.0000      -0.445805       -12.1310
  33   2.0000      -0.440914       -11.9979
  34   2.0000      -0.428919       -11.6715
  35   2.0000      -0.416429       -11.3316
  36   2.0000      -0.411129       -11.1874
  37   2.0000      -0.393385       -10.7045
  38   2.0000      -0.384869       -10.4728
  39   2.0000      -0.368910       -10.0385
  40   2.0000      -0.363191        -9.8829
  41   2.0000      -0.360082        -9.7983
  42   2.0000      -0.350060        -9.5256
  43   2.0000      -0.330890        -9.0040
  44   2.0000      -0.316711        -8.6181
  45   2.0000      -0.311640        -8.4802
  46   2.0000      -0.299665        -8.1543
  47   2.0000      -0.277862        -7.5610
  48   2.0000      -0.265933        -7.2364
  49   2.0000      -0.258601        -7.0369
  50   2.0000      -0.242648        -6.6028
  51   0.0000       0.062546         1.7020
  52   0.0000       0.065952         1.7946
  53   0.0000       0.088382         2.4050
  54   0.0000       0.095911         2.6099
  55   0.0000       0.101307         2.7567

MULLIKEN ATOMIC CHARGES
-----------------------
   0 C :    0.304787
   1 C :   -0.283136
   2 C :   -0.321534
   3 C :   -0.011128
   4 O :   -0.501655
   5 H :    0.168521
   6 H :    0.159403
   7 H :    0.151261
   8 H :    0.147051
   9 H :    0.157222
  10 H :    0.146104
  11 H :    0.149489
  12 C :   -0.016778
  13 H :    0.147108
  14 H :    0.142897
  15 O :   -0.528217
  16 C :    0.060830
  17 C :    0.090989
  18 C :   -0.299716
  19 C :   -0.040019
  20 O :   -0.528366
  21 H :    0.156551
  22 O :   -0.602190
  23 H :    0.178939
  24 H :    0.161707
  25 H :    0.151403
  26 H :    0.150089
  27 H :    0.148254
  28 H :    0.360135
Sum of atomic charges:    0.0000000

LOEWDIN ATOMIC CHARGES
----------------------
   0 C :    0.175944
   1 C :   -0.229555
   2 C :   -0.224880
   3 C :   -0.033940
   4 O :   -0.320429
   5 H :    0.114111
   6 H :    0.124085
   7 H :    0.118591
   8 H :    0.116515
   9 H :    0.110456
  10 H :    0.103575
  11 H :    0.105730
  12 C :   -0.041725
  13 H :    0.105786
  14 H :    0.105676
  15 O :   -0.322802
  16 C :    0.011529
  17 C :    0.038376
  18 C :   -0.241248
  19 C :   -0.040690
  20 O :   -0.334201
  21 H :    0.111905
  22 O :   -0.414150
  23 H :    0.129451
  24 H :    0.126664
  25 H :    0.116834
  26 H :    0.105184
  27 H :    0.103068
  28 H :    0.280140

  Mayer bond orders larger than 0.100000
B(  0-C ,  1-C ) :   0.9181 B(  0-C ,  4-O ) :   0.9058 B(  0-C ,  5-H ) :   0.9359
B(  0-C , 15-O ) :   0.8964 B(  1-C ,  2-C ) :   0.9544 B(  1-C ,  6-H ) :   0.9346
B(  1-C ,  7-H ) :   0.9350 B(  2-C ,  3-C ) :   0.9459 B(  2-C ,  8-H ) :   0.9441
B(  2-C ,  9-H ) :   0.9352 B(  3-C ,  4-O ) :   0.8472 B(  3-C , 10-H ) :   0.9340
B(  3-C , 11-H ) :   0.9386 B( 12-C , 13-H ) :   0.9327 B( 12-C , 14-H ) :   0.9056
B( 12-C , 15-O ) :   0.8208 B( 12-C , 16-C ) :   0.8929 B( 16-C , 17-C ) :   0.9137
B( 16-C , 20-O ) :   0.8421 B( 16-C , 21-H ) :   0.9265 B( 17-C , 18-C ) :   0.9129
B( 17-C , 22-O ) :   0.8882 B( 17-C , 23-H ) :   0.9233 B( 18-C , 19-C ) :   0.9437
B( 18-C , 24-H ) :   0.9374 B( 18-C , 25-H ) :   0.9336 B( 19-C , 20-O ) :   0.8427
B( 19-C , 26-H ) :   0.9348 B( 19-C , 27-H ) :   0.9373 B( 22-O , 28-H ) :   0.7978

FINAL SINGLE POINT ENERGY      -652.856544564628

DIPOLE MOMENT
-------------
                                X             Y             Z
Electronic contribution:     -1.90255      -1.94759      -2.10558
Nuclear contribution   :      2.29820       2.73263       2.66153
                        -----------------------------------------
Total Dipole Moment    :      0.39564       0.78504       0.55595
                        -----------------------------------------
Magnitude (a.u.)       :      1.04015
Magnitude (Debye)      :      2.64384

Rotational constants in cm-1:     0.057060     0.012705     0.012249
Rotational constants in MHz :  1710.611293   380.873154   367.201957

                             ****ORCA TERMINATED NORMALLY****
TOTAL RUN TIME: 0 days 1 hours 53 minutes 51 seconds 562 msec
