                         Program Version 4.2.0 -  RELEASE  -
|  1> # Test redundant internal optimization
|  2> #
|  3> ! RKS B3LYP  Opt TightSCF SmallPrint
|  4>
|  5> %basis
|  6>         Basis "6-31G"
|  7> end
|  8>
|  9> %geom
| 10> Constraints
| 11> { D 4  0  15  12  180.0   C } # D for Dihedral angle
| 12> { D 0  15  12  16  105.0   C } # D for Dihedral angle
| 13> { D 0  4  3  2   C } # D for Dihedral angle
| 14> { D 4  3  2  1   C } # D for Dihedral angle
| 15> { D 3  2  1  0   C } # D for Dihedral angle
| 16> { D 2  1  0  4   C } # D for Dihedral angle
| 17> { D 1  0  4  3   C } # D for Dihedral angle
| 18> { D 16  20  19  18   C } # D for Dihedral angle
| 19> { D 20  19  18  17   C } # D for Dihedral angle
| 20> { D 19  18  17  16   C } # D for Dihedral angle
| 21> { D 18  17  16  20   C } # D for Dihedral angle
| 22> { D 17  16  20  19   C } # D for Dihedral angle
| 23> { D 15  12  16  20   C } # D for Dihedral angle
| 24> end
| 25> end
| 26>
| 27>
| 28> #%pal
| 29> #nprocs 8
| 30> #end
| 31>
| 32> * xyz 0 1
| 33> C  -21.048   26.222   46.251
| 34> C  -20.361   27.558   45.944
| 35> C  -20.329   28.222   47.341
| 36> C  -20.110   27.022   48.296
| 37> O  -20.473   25.807   47.535
| 38> H  -20.833   25.428   45.533
| 39> H  -19.344   27.382   45.576
| 40> H  -20.898   28.157   45.201
| 41> H  -19.543   28.978   47.434
| 42> H  -21.289   28.710   47.548
| 43> H  -20.733   27.082   49.195
| 44> H  -19.064   26.913   48.597
| 45> C  -23.309   26.834   45.072
| 46> H  -24.019   27.637   45.305
| 47> H  -22.584   27.217   44.342
| 48> O  -22.586   26.394   46.375
| 49> C  -24.090   25.672   44.397
| 50> C  -25.240   25.185   45.286
| 51> C  -26.316   26.265   45.025
| 52> C  -26.102   26.622   43.533
| 53> O  -24.751   26.141   43.175
| 54> H  -23.385   24.892   44.101
| 55> O  -25.732   23.793   44.804
| 56> H  -24.964   25.105   46.343
| 57> H  -27.331   25.910   45.228
| 58> H  -26.134   27.139   45.662
| 59> H  -26.161   27.700   43.347
| 60> H  -26.811   26.112   42.876
| 61> H  -26.015   23.848   43.746
| 62> *
| 63>
| 64>                          ****END OF INPUT****
 Total Charge           Charge          ....    0
 Multiplicity           Mult            ....    1
 Number of Electrons    NEL             ....  102
FINAL SINGLE POINT ENERGY      -652.834611664469
FINAL SINGLE POINT ENERGY      -652.856748765829
FINAL SINGLE POINT ENERGY      -652.860059934432
FINAL SINGLE POINT ENERGY      -652.860611077747
FINAL SINGLE POINT ENERGY      -652.860706586759
FINAL SINGLE POINT ENERGY      -652.860719071360
FINAL SINGLE POINT ENERGY      -652.860721438679
                    ***********************HURRAY********************

CARTESIAN COORDINATES (ANGSTROEM)
---------------------------------
  C    -21.114756   26.225259   46.145069
  C    -20.336189   27.516875   45.903421
  C    -20.385264   28.189480   47.298533
  C    -20.313606   26.984986   48.258836
  O    -20.682901   25.798979   47.441449
  H    -20.907638   25.412402   45.442377
  H    -19.305898   27.262765   45.627931
  H    -20.751501   28.146814   45.112433
  H    -19.563779   28.895741   47.451012
  H    -21.330978   28.725930   47.419858
  H    -21.009500   27.058064   49.097899
  H    -19.304190   26.799526   48.637016
  C    -23.247076   26.903159   45.029831
  H    -23.905919   27.726397   45.326313
  H    -22.553210   27.283251   44.270989
  O    -22.557479   26.456135   46.234319
  C    -24.049896   25.747494   44.428004
  C    -25.172151   25.205141   45.325134
  C    -26.292523   26.247861   45.086964
  C    -26.111792   26.632378   43.596924
  O    -24.740543   26.205924   43.215699
  H    -23.373240   24.941991   44.126510
  O    -25.575001   23.873003   44.901721
  H    -24.870465   25.107962   46.366515
  H    -27.273599   25.816026   45.300087
  H    -26.150598   27.114324   45.741848
  H    -26.210884   27.707647   43.419195
  H    -26.807213   26.104567   42.937539
  H    -25.657211   23.856918   43.924572

 Multiplicity           Mult            ....    1
 Number of Electrons    NEL             ....  102
 Basis Dimension        Dim             ....  149

ORBITAL ENERGIES
----------------

  NO   OCC          E(Eh)            E(eV)
   0   2.0000     -19.145262      -520.9691
   1   2.0000     -19.143712      -520.9269
   2   2.0000     -19.142638      -520.8977
   3   2.0000     -19.133038      -520.6364
   4   2.0000     -10.282989      -279.8144
   5   2.0000     -10.233537      -278.4687
   6   2.0000     -10.233273      -278.4615
   7   2.0000     -10.232058      -278.4284
   8   2.0000     -10.231919      -278.4247
   9   2.0000     -10.226850      -278.2867
  10   2.0000     -10.190870      -277.3077
  11   2.0000     -10.189646      -277.2744
  12   2.0000     -10.186939      -277.2007
  13   2.0000      -1.055304       -28.7163
  14   2.0000      -1.035085       -28.1661
  15   2.0000      -1.002955       -27.2918
  16   2.0000      -0.995620       -27.0922
  17   2.0000      -0.789643       -21.4873
  18   2.0000      -0.778939       -21.1960
  19   2.0000      -0.767360       -20.8809
  20   2.0000      -0.733514       -19.9599
  21   2.0000      -0.677600       -18.4384
  22   2.0000      -0.604412       -16.4469
  23   2.0000      -0.602362       -16.3911
  24   2.0000      -0.598596       -16.2886
  25   2.0000      -0.574570       -15.6348
  26   2.0000      -0.522421       -14.2158
  27   2.0000      -0.517805       -14.0902
  28   2.0000      -0.497021       -13.5246
  29   2.0000      -0.493642       -13.4327
  30   2.0000      -0.471019       -12.8171
  31   2.0000      -0.459347       -12.4995
  32   2.0000      -0.454955       -12.3800
  33   2.0000      -0.438741       -11.9387
  34   2.0000      -0.425392       -11.5755
  35   2.0000      -0.410559       -11.1719
  36   2.0000      -0.406262       -11.0549
  37   2.0000      -0.391410       -10.6508
  38   2.0000      -0.378560       -10.3011
  39   2.0000      -0.367533       -10.0011
  40   2.0000      -0.361444        -9.8354
  41   2.0000      -0.358321        -9.7504
  42   2.0000      -0.355545        -9.6749
  43   2.0000      -0.330922        -9.0048
  44   2.0000      -0.316614        -8.6155
  45   2.0000      -0.308811        -8.4032
  46   2.0000      -0.301113        -8.1937
  47   2.0000      -0.275630        -7.5003
  48   2.0000      -0.260913        -7.0998
  49   2.0000      -0.259852        -7.0709
  50   2.0000      -0.240101        -6.5335
  51   0.0000       0.064873         1.7653
  52   0.0000       0.073316         1.9950
  53   0.0000       0.095556         2.6002
  54   0.0000       0.099428         2.7056
  55   0.0000       0.102057         2.7771

MULLIKEN ATOMIC CHARGES
-----------------------
   0 C :    0.302599
   1 C :   -0.280068
   2 C :   -0.297548
   3 C :   -0.000963
   4 O :   -0.499704
   5 H :    0.146233
   6 H :    0.149718
   7 H :    0.145931
   8 H :    0.143529
   9 H :    0.157600
  10 H :    0.155442
  11 H :    0.143427
  12 C :   -0.033115
  13 H :    0.143759
  14 H :    0.143000
  15 O :   -0.512729
  16 C :    0.062384
  17 C :    0.091552
  18 C :   -0.301042
  19 C :   -0.033352
  20 O :   -0.528007
  21 H :    0.157813
  22 O :   -0.601679
  23 H :    0.182779
  24 H :    0.160688
  25 H :    0.148236
  26 H :    0.144503
  27 H :    0.148572
  28 H :    0.360442
Sum of atomic charges:    0.0000000

LOEWDIN ATOMIC CHARGES
----------------------
   0 C :    0.182355
   1 C :   -0.232487
   2 C :   -0.216426
   3 C :   -0.024579
   4 O :   -0.300556
   5 H :    0.098748
   6 H :    0.116906
   7 H :    0.114533
   8 H :    0.115076
   9 H :    0.116521
  10 H :    0.110186
  11 H :    0.103474
  12 C :   -0.046483
  13 H :    0.105367
  14 H :    0.103906
  15 O :   -0.337969
  16 C :    0.009436
  17 C :    0.038260
  18 C :   -0.241931
  19 C :   -0.039342
  20 O :   -0.334111
  21 H :    0.113530
  22 O :   -0.413648
  23 H :    0.131070
  24 H :    0.126457
  25 H :    0.114930
  26 H :    0.103037
  27 H :    0.103480
  28 H :    0.280258

  Mayer bond orders larger than 0.100000
B(  0-C ,  1-C ) :   0.9301 B(  0-C ,  4-O ) :   0.9437 B(  0-C ,  5-H ) :   0.9210
B(  0-C , 15-O ) :   0.8257 B(  1-C ,  2-C ) :   0.9497 B(  1-C ,  6-H ) :   0.9335
B(  1-C ,  7-H ) :   0.9305 B(  2-C ,  3-C ) :   0.9562 B(  2-C ,  8-H ) :   0.9449
B(  2-C ,  9-H ) :   0.9454 B(  3-C ,  4-O ) :   0.8334 B(  3-C , 10-H ) :   0.9345
B(  3-C , 11-H ) :   0.9397 B( 12-C , 13-H ) :   0.9362 B( 12-C , 14-H ) :   0.9154
B( 12-C , 15-O ) :   0.8413 B( 12-C , 16-C ) :   0.8798 B( 16-C , 17-C ) :   0.9140
B( 16-C , 20-O ) :   0.8407 B( 16-C , 21-H ) :   0.9287 B( 17-C , 18-C ) :   0.9122
B( 17-C , 22-O ) :   0.8900 B( 17-C , 23-H ) :   0.9220 B( 18-C , 19-C ) :   0.9425
B( 18-C , 24-H ) :   0.9382 B( 18-C , 25-H ) :   0.9337 B( 19-C , 20-O ) :   0.8437
B( 19-C , 26-H ) :   0.9358 B( 19-C , 27-H ) :   0.9375 B( 22-O , 28-H ) :   0.7971

FINAL SINGLE POINT ENERGY      -652.860721612123

DIPOLE MOMENT
-------------
                                X             Y             Z
Electronic contribution:     -0.94281      -5.40864      -0.96533
Nuclear contribution   :      1.15568       6.92913       0.63768
                        -----------------------------------------
Total Dipole Moment    :      0.21286       1.52049      -0.32765
                        -----------------------------------------
Magnitude (a.u.)       :      1.56989
Magnitude (Debye)      :      3.99035

Rotational constants in cm-1:     0.061060     0.011899     0.011152
Rotational constants in MHz :  1830.534834   356.728563   334.322555

                             ****ORCA TERMINATED NORMALLY****
TOTAL RUN TIME: 0 days 1 hours 46 minutes 16 seconds 310 msec
