                         Program Version 4.2.0 -  RELEASE  -
|  1> # Test redundant internal optimization
|  2> #
|  3> ! RKS B3LYP  Opt TightSCF SmallPrint
|  4>
|  5> %basis
|  6>         Basis "6-31G"
|  7> end
|  8>
|  9> %geom
| 10> Constraints
| 11> { D 4  0  15  12  180.0   C } # D for Dihedral angle
| 12> { D 0  15  12  16  120.0   C } # D for Dihedral angle
| 13> { D 0  4  3  2   C } # D for Dihedral angle
| 14> { D 4  3  2  1   C } # D for Dihedral angle
| 15> { D 3  2  1  0   C } # D for Dihedral angle
| 16> { D 2  1  0  4   C } # D for Dihedral angle
| 17> { D 1  0  4  3   C } # D for Dihedral angle
| 18> { D 16  20  19  18   C } # D for Dihedral angle
| 19> { D 20  19  18  17   C } # D for Dihedral angle
| 20> { D 19  18  17  16   C } # D for Dihedral angle
| 21> { D 18  17  16  20   C } # D for Dihedral angle
| 22> { D 17  16  20  19   C } # D for Dihedral angle
| 23> { D 15  12  16  20   C } # D for Dihedral angle
| 24> end
| 25> end
| 26>
| 27>
| 28> #%pal
| 29> #nprocs 8
| 30> #end
| 31>
| 32> * xyz 0 1
| 33> C  -21.048   26.222   46.251
| 34> C  -20.361   27.558   45.944
| 35> C  -20.329   28.222   47.341
| 36> C  -20.110   27.022   48.296
| 37> O  -20.473   25.807   47.535
| 38> H  -20.833   25.428   45.533
| 39> H  -19.344   27.382   45.576
| 40> H  -20.898   28.157   45.201
| 41> H  -19.543   28.978   47.434
| 42> H  -21.289   28.710   47.548
| 43> H  -20.733   27.082   49.195
| 44> H  -19.064   26.913   48.597
| 45> C  -23.309   26.834   45.072
| 46> H  -23.809   27.795   45.242
| 47> H  -22.585   26.963   44.257
| 48> O  -22.586   26.394   46.375
| 49> C  -24.374   25.806   44.600
| 50> C  -23.763   24.410   44.427
| 51> C  -23.706   23.910   45.891
| 52> C  -24.978   24.526   46.524
| 53> O  -25.403   25.625   45.629
| 54> H  -24.875   26.193   43.711
| 55> H  -24.430   23.780   43.830
| 56> O  -22.369   24.434   43.744
| 57> H  -23.689   22.818   45.966
| 58> H  -22.805   24.294   46.385
| 59> H  -24.797   24.929   47.526
| 60> H  -25.807   23.813   46.573
| 61> H  -21.684   25.061   44.327
| 62> *
| 63>
| 64>                          ****END OF INPUT****
 Total Charge           Charge          ....    0
 Multiplicity           Mult            ....    1
 Number of Electrons    NEL             ....  102
FINAL SINGLE POINT ENERGY      -652.821477473359
FINAL SINGLE POINT ENERGY      -652.846366508008
FINAL SINGLE POINT ENERGY      -652.852597262931
FINAL SINGLE POINT ENERGY      -652.855135310163
FINAL SINGLE POINT ENERGY      -652.855709131042
FINAL SINGLE POINT ENERGY      -652.855975911962
FINAL SINGLE POINT ENERGY      -652.856182405164
FINAL SINGLE POINT ENERGY      -652.856406359037
FINAL SINGLE POINT ENERGY      -652.856682349070
FINAL SINGLE POINT ENERGY      -652.856993893989
FINAL SINGLE POINT ENERGY      -652.857823516233
FINAL SINGLE POINT ENERGY      -652.858505693761
FINAL SINGLE POINT ENERGY      -652.859088024985
FINAL SINGLE POINT ENERGY      -652.859531504423
FINAL SINGLE POINT ENERGY      -652.859791947503
FINAL SINGLE POINT ENERGY      -652.859878526521
FINAL SINGLE POINT ENERGY      -652.859927401022
FINAL SINGLE POINT ENERGY      -652.859937304352
FINAL SINGLE POINT ENERGY      -652.859938074071
                    ***********************HURRAY********************

CARTESIAN COORDINATES (ANGSTROEM)
---------------------------------
  C    -21.030434   26.315625   46.240001
  C    -20.318156   27.638769   45.963923
  C    -20.364935   28.326618   47.351939
  C    -20.214663   27.138178   48.324330
  O    -20.547538   25.926363   47.532294
  H    -20.822290   25.509181   45.533701
  H    -19.283855   27.431452   45.664306
  H    -20.786984   28.234075   45.176303
  H    -19.574243   29.072522   47.477525
  H    -21.332186   28.818590   47.489842
  H    -20.892545   27.192432   49.179655
  H    -19.188655   27.006107   48.680707
  C    -23.190159   26.893711   45.158398
  H    -23.693341   27.842728   45.375193
  H    -22.499955   27.037684   44.318959
  O    -22.478770   26.492128   46.367808
  C    -24.252918   25.877738   44.740569
  C    -23.741807   24.459725   44.441742
  C    -23.704110   23.824939   45.863886
  C    -24.924245   24.474778   46.554984
  O    -25.272491   25.673591   45.757257
  H    -24.771210   26.301616   43.870778
  H    -24.466253   23.938319   43.801854
  O    -22.451060   24.538189   43.775192
  H    -23.778792   22.731577   45.835226
  H    -22.778565   24.115032   46.360848
  H    -24.699045   24.786610   47.577871
  H    -25.806797   23.826047   46.556489
  H    -22.127997   23.641676   43.558422

 Multiplicity           Mult            ....    1
 Number of Electrons    NEL             ....  102
 Basis Dimension        Dim             ....  149

ORBITAL ENERGIES
----------------

  NO   OCC          E(Eh)            E(eV)
   0   2.0000     -19.150317      -521.1066
   1   2.0000     -19.135413      -520.7011
   2   2.0000     -19.130864      -520.5773
   3   2.0000     -19.127039      -520.4732
   4   2.0000     -10.269312      -279.4422
   5   2.0000     -10.240332      -278.6536
   6   2.0000     -10.227103      -278.2936
   7   2.0000     -10.220512      -278.1143
   8   2.0000     -10.219127      -278.0766
   9   2.0000     -10.215491      -277.9777
  10   2.0000     -10.182072      -277.0683
  11   2.0000     -10.181751      -277.0595
  12   2.0000     -10.174504      -276.8623
  13   2.0000      -1.045980       -28.4626
  14   2.0000      -1.029155       -28.0047
  15   2.0000      -1.009645       -27.4738
  16   2.0000      -0.983344       -26.7582
  17   2.0000      -0.780895       -21.2492
  18   2.0000      -0.770500       -20.9664
  19   2.0000      -0.758912       -20.6510
  20   2.0000      -0.725824       -19.7507
  21   2.0000      -0.670813       -18.2537
  22   2.0000      -0.597616       -16.2620
  23   2.0000      -0.595911       -16.2156
  24   2.0000      -0.586517       -15.9599
  25   2.0000      -0.554463       -15.0877
  26   2.0000      -0.525512       -14.2999
  27   2.0000      -0.508768       -13.8443
  28   2.0000      -0.491131       -13.3644
  29   2.0000      -0.488472       -13.2920
  30   2.0000      -0.461472       -12.5573
  31   2.0000      -0.451115       -12.2755
  32   2.0000      -0.437835       -11.9141
  33   2.0000      -0.429955       -11.6997
  34   2.0000      -0.418477       -11.3873
  35   2.0000      -0.405208       -11.0263
  36   2.0000      -0.399981       -10.8840
  37   2.0000      -0.390543       -10.6272
  38   2.0000      -0.371950       -10.1213
  39   2.0000      -0.359164        -9.7734
  40   2.0000      -0.352901        -9.6029
  41   2.0000      -0.351003        -9.5513
  42   2.0000      -0.345829        -9.4105
  43   2.0000      -0.331338        -9.0162
  44   2.0000      -0.308018        -8.3816
  45   2.0000      -0.295682        -8.0459
  46   2.0000      -0.293467        -7.9856
  47   2.0000      -0.272360        -7.4113
  48   2.0000      -0.254065        -6.9135
  49   2.0000      -0.250453        -6.8152
  50   2.0000      -0.227976        -6.2035
  51   0.0000       0.053973         1.4687
  52   0.0000       0.085297         2.3210
  53   0.0000       0.098929         2.6920
  54   0.0000       0.112721         3.0673
  55   0.0000       0.119075         3.2402

MULLIKEN ATOMIC CHARGES
-----------------------
   0 C :    0.300272
   1 C :   -0.277282
   2 C :   -0.298160
   3 C :    0.001447
   4 O :   -0.513657
   5 H :    0.157105
   6 H :    0.144498
   7 H :    0.144531
   8 H :    0.139684
   9 H :    0.159879
  10 H :    0.152324
  11 H :    0.138931
  12 C :   -0.003996
  13 H :    0.148318
  14 H :    0.144458
  15 O :   -0.522207
  16 C :    0.098460
  17 C :    0.078469
  18 C :   -0.320266
  19 C :   -0.003820
  20 O :   -0.521433
  21 H :    0.139867
  22 H :    0.138297
  23 O :   -0.613248
  24 H :    0.128672
  25 H :    0.199058
  26 H :    0.160901
  27 H :    0.134751
  28 H :    0.364146
Sum of atomic charges:   -0.0000000

LOEWDIN ATOMIC CHARGES
----------------------
   0 C :    0.175520
   1 C :   -0.230386
   2 C :   -0.217037
   3 C :   -0.024697
   4 O :   -0.308589
   5 H :    0.103488
   6 H :    0.114041
   7 H :    0.114393
   8 H :    0.113070
   9 H :    0.117783
  10 H :    0.108508
  11 H :    0.100867
  12 C :   -0.042356
  13 H :    0.109255
  14 H :    0.108322
  15 O :   -0.337738
  16 C :    0.030007
  17 C :    0.033285
  18 C :   -0.246971
  19 C :   -0.022992
  20 O :   -0.321965
  21 H :    0.109488
  22 H :    0.097444
  23 O :   -0.421115
  24 H :    0.105737
  25 H :    0.137062
  26 H :    0.112512
  27 H :    0.097072
  28 H :    0.285991

  Mayer bond orders larger than 0.100000
B(  0-C ,  1-C ) :   0.9337 B(  0-C ,  4-O ) :   0.9170 B(  0-C ,  5-H ) :   0.9042
B(  0-C , 15-O ) :   0.8220 B(  1-C ,  2-C ) :   0.9497 B(  1-C ,  6-H ) :   0.9352
B(  1-C ,  7-H ) :   0.9323 B(  2-C ,  3-C ) :   0.9571 B(  2-C ,  8-H ) :   0.9454
B(  2-C ,  9-H ) :   0.9447 B(  3-C ,  4-O ) :   0.8363 B(  3-C , 10-H ) :   0.9349
B(  3-C , 11-H ) :   0.9403 B( 12-C , 13-H ) :   0.9292 B( 12-C , 14-H ) :   0.9034
B( 12-C , 15-O ) :   0.8543 B( 12-C , 16-C ) :   0.9068 B( 16-C , 17-C ) :   0.9259
B( 16-C , 20-O ) :   0.8869 B( 16-C , 21-H ) :   0.9259 B( 17-C , 18-C ) :   0.9268
B( 17-C , 22-H ) :   0.9245 B( 17-C , 23-O ) :   0.8693 B( 18-C , 19-C ) :   0.9482
B( 18-C , 24-H ) :   0.9413 B( 18-C , 25-H ) :   0.9184 B( 19-C , 20-O ) :   0.8373
B( 19-C , 26-H ) :   0.9304 B( 19-C , 27-H ) :   0.9373 B( 23-O , 28-H ) :   0.8012

FINAL SINGLE POINT ENERGY      -652.859937946824

DIPOLE MOMENT
-------------
                                X             Y             Z
Electronic contribution:     -2.56367      -2.29158      -1.15511
Nuclear contribution   :      3.21878       2.09455       0.49569
                        -----------------------------------------
Total Dipole Moment    :      0.65511      -0.19703      -0.65942
                        -----------------------------------------
Magnitude (a.u.)       :      0.95017
Magnitude (Debye)      :      2.41515

Rotational constants in cm-1:     0.048767     0.015886     0.015324
Rotational constants in MHz :  1462.007798   476.249706   459.412739

                             ****ORCA TERMINATED NORMALLY****
TOTAL RUN TIME: 0 days 1 hours 1 minutes 45 seconds 516 msec
