                         Program Version 4.2.0 -  RELEASE  -
|  1> # Test redundant internal optimization
|  2> #
|  3> ! RKS B3LYP  Opt TightSCF SmallPrint
|  4>
|  5> %basis
|  6>         Basis "6-31G"
|  7> end
|  8>
|  9> %geom
| 10> Constraints
| 11> { D 4  0  15  12  330.0   C } # D for Dihedral angle
| 12> { D 0  15  12  16  330.0   C } # D for Dihedral angle
| 13> { D 0  4  3  2   C } # D for Dihedral angle
| 14> { D 4  3  2  1   C } # D for Dihedral angle
| 15> { D 3  2  1  0   C } # D for Dihedral angle
| 16> { D 2  1  0  4   C } # D for Dihedral angle
| 17> { D 1  0  4  3   C } # D for Dihedral angle
| 18> { D 16  20  19  18   C } # D for Dihedral angle
| 19> { D 20  19  18  17   C } # D for Dihedral angle
| 20> { D 19  18  17  16   C } # D for Dihedral angle
| 21> { D 18  17  16  20   C } # D for Dihedral angle
| 22> { D 17  16  20  19   C } # D for Dihedral angle
| 23> { D 15  12  16  20   C } # D for Dihedral angle
| 24> end
| 25> end
| 26>
| 27>
| 28> #%pal
| 29> #nprocs 8
| 30> #end
| 31>
| 32> * xyz 0 1
| 33> C  -21.048   26.222   46.251
| 34> C  -20.361   27.558   45.944
| 35> C  -20.329   28.222   47.341
| 36> C  -20.110   27.022   48.296
| 37> O  -20.473   25.807   47.535
| 38> H  -20.833   25.428   45.533
| 39> H  -19.344   27.382   45.576
| 40> H  -20.898   28.157   45.201
| 41> H  -19.543   28.978   47.434
| 42> H  -21.289   28.710   47.548
| 43> H  -20.733   27.082   49.195
| 44> H  -19.064   26.913   48.597
| 45> C  -23.271   25.476   47.424
| 46> H  -23.299   25.990   48.392
| 47> H  -24.303   25.253   47.124
| 48> O  -22.586   26.394   46.375
| 49> C  -22.531   24.122   47.611
| 50> C  -23.296   23.197   48.564
| 51> C  -24.403   22.640   47.639
| 52> C  -23.691   22.524   46.268
| 53> O  -22.489   23.382   46.346
| 54> H  -21.497   24.317   47.903
| 55> H  -22.641   22.390   48.913
| 56> O  -23.865   23.936   49.806
| 57> H  -24.802   21.680   47.984
| 58> H  -25.238   23.348   47.582
| 59> H  -24.321   22.865   45.438
| 60> H  -23.349   21.507   46.060
| 61> H  -24.525   24.748   49.483
| 62> *
| 63>
| 64>                          ****END OF INPUT****
 Total Charge           Charge          ....    0
 Multiplicity           Mult            ....    1
 Number of Electrons    NEL             ....  102
FINAL SINGLE POINT ENERGY      -652.823424260343
FINAL SINGLE POINT ENERGY      -652.847030291334
FINAL SINGLE POINT ENERGY      -652.853141179257
FINAL SINGLE POINT ENERGY      -652.855343966247
FINAL SINGLE POINT ENERGY      -652.855667361552
FINAL SINGLE POINT ENERGY      -652.855759864325
FINAL SINGLE POINT ENERGY      -652.855766679283
FINAL SINGLE POINT ENERGY      -652.855768904431
                    ***********************HURRAY********************

CARTESIAN COORDINATES (ANGSTROEM)
---------------------------------
  C    -20.973782   26.235513   46.260708
  C    -20.467652   27.647537   45.961221
  C    -20.367745   28.252932   47.379704
  C    -19.929866   27.052493   48.248843
  O    -20.243569   25.835899   47.447562
  H    -20.746986   25.473567   45.511500
  H    -19.482758   27.583388   45.484625
  H    -21.148704   28.194031   45.305892
  H    -19.657683   29.083823   47.435173
  H    -21.350464   28.618777   47.691961
  H    -20.460927   26.993076   49.202905
  H    -18.852237   27.031904   48.435767
  C    -23.136072   25.460596   47.367797
  H    -23.218451   25.993954   48.326078
  H    -24.135789   25.380254   46.926961
  O    -22.412161   26.308720   46.428294
  C    -22.548851   24.073379   47.655803
  C    -23.433901   23.232230   48.595147
  C    -24.507029   22.672816   47.609959
  C    -23.693282   22.455474   46.313676
  O    -22.455297   23.262041   46.441917
  H    -21.531671   24.179889   48.026361
  H    -22.838841   22.417002   49.012050
  O    -23.964578   23.924207   49.752122
  H    -24.969656   21.754574   47.980758
  H    -25.300917   23.417906   47.467412
  H    -24.233721   22.768946   45.414571
  H    -23.384825   21.412728   46.191273
  H    -24.684585   24.532345   49.486958

 Multiplicity           Mult            ....    1
 Number of Electrons    NEL             ....  102
 Basis Dimension        Dim             ....  149

ORBITAL ENERGIES
----------------

  NO   OCC          E(Eh)            E(eV)
   0   2.0000     -19.147172      -521.0210
   1   2.0000     -19.143296      -520.9156
   2   2.0000     -19.132804      -520.6301
   3   2.0000     -19.132679      -520.6267
   4   2.0000     -10.272099      -279.5180
   5   2.0000     -10.241305      -278.6801
   6   2.0000     -10.227058      -278.2924
   7   2.0000     -10.227029      -278.2916
   8   2.0000     -10.226209      -278.2693
   9   2.0000     -10.219036      -278.0741
  10   2.0000     -10.192327      -277.3473
  11   2.0000     -10.184698      -277.1397
  12   2.0000     -10.181129      -277.0426
  13   2.0000      -1.047781       -28.5116
  14   2.0000      -1.029599       -28.0168
  15   2.0000      -1.011170       -27.5153
  16   2.0000      -0.985882       -26.8272
  17   2.0000      -0.787298       -21.4235
  18   2.0000      -0.778165       -21.1750
  19   2.0000      -0.760361       -20.6905
  20   2.0000      -0.730625       -19.8813
  21   2.0000      -0.675821       -18.3900
  22   2.0000      -0.608163       -16.5490
  23   2.0000      -0.597969       -16.2716
  24   2.0000      -0.596983       -16.2447
  25   2.0000      -0.560020       -15.2389
  26   2.0000      -0.522425       -14.2159
  27   2.0000      -0.508200       -13.8288
  28   2.0000      -0.497205       -13.5296
  29   2.0000      -0.484230       -13.1766
  30   2.0000      -0.463615       -12.6156
  31   2.0000      -0.455578       -12.3969
  32   2.0000      -0.439037       -11.9468
  33   2.0000      -0.427371       -11.6293
  34   2.0000      -0.424430       -11.5493
  35   2.0000      -0.410720       -11.1763
  36   2.0000      -0.404790       -11.0149
  37   2.0000      -0.396934       -10.8011
  38   2.0000      -0.378503       -10.2996
  39   2.0000      -0.367056        -9.9881
  40   2.0000      -0.356731        -9.7071
  41   2.0000      -0.355317        -9.6687
  42   2.0000      -0.345006        -9.3881
  43   2.0000      -0.329792        -8.9741
  44   2.0000      -0.320480        -8.7207
  45   2.0000      -0.311562        -8.4780
  46   2.0000      -0.297811        -8.1038
  47   2.0000      -0.268348        -7.3021
  48   2.0000      -0.260462        -7.0875
  49   2.0000      -0.247192        -6.7264
  50   2.0000      -0.231141        -6.2897
  51   0.0000       0.053270         1.4496
  52   0.0000       0.077309         2.1037
  53   0.0000       0.089407         2.4329
  54   0.0000       0.095804         2.6070
  55   0.0000       0.109662         2.9840

MULLIKEN ATOMIC CHARGES
-----------------------
   0 C :    0.306632
   1 C :   -0.261156
   2 C :   -0.301514
   3 C :   -0.013683
   4 O :   -0.517630
   5 H :    0.169339
   6 H :    0.144564
   7 H :    0.161046
   8 H :    0.142810
   9 H :    0.156468
  10 H :    0.145897
  11 H :    0.148550
  12 C :    0.009191
  13 H :    0.125798
  14 H :    0.136254
  15 O :   -0.547256
  16 C :    0.049444
  17 C :    0.083372
  18 C :   -0.323823
  19 C :   -0.006033
  20 O :   -0.518280
  21 H :    0.208207
  22 H :    0.168039
  23 O :   -0.599975
  24 H :    0.154497
  25 H :    0.133536
  26 H :    0.142375
  27 H :    0.148146
  28 H :    0.355185
Sum of atomic charges:   -0.0000000

LOEWDIN ATOMIC CHARGES
----------------------
   0 C :    0.182435
   1 C :   -0.214702
   2 C :   -0.217165
   3 C :   -0.032275
   4 O :   -0.323290
   5 H :    0.109216
   6 H :    0.113635
   7 H :    0.126415
   8 H :    0.114675
   9 H :    0.116214
  10 H :    0.103681
  11 H :    0.105482
  12 C :   -0.042840
  13 H :    0.094537
  14 H :    0.103690
  15 O :   -0.335305
  16 C :   -0.003734
  17 C :    0.037046
  18 C :   -0.242216
  19 C :   -0.029762
  20 O :   -0.323273
  21 H :    0.136892
  22 H :    0.119411
  23 O :   -0.407854
  24 H :    0.121197
  25 H :    0.103507
  26 H :    0.102048
  27 H :    0.105189
  28 H :    0.277145

  Mayer bond orders larger than 0.100000
B(  0-C ,  1-C ) :   0.9402 B(  0-C ,  4-O ) :   0.8830 B(  0-C ,  5-H ) :   0.9201
B(  0-C , 15-O ) :   0.8458 B(  1-C ,  2-C ) :   0.9536 B(  1-C ,  6-H ) :   0.9381
B(  1-C ,  7-H ) :   0.9361 B(  2-C ,  3-C ) :   0.9557 B(  2-C ,  8-H ) :   0.9449
B(  2-C ,  9-H ) :   0.9455 B(  3-C ,  4-O ) :   0.8310 B(  3-C , 10-H ) :   0.9347
B(  3-C , 11-H ) :   0.9402 B( 12-C , 13-H ) :   0.9071 B( 12-C , 14-H ) :   0.9359
B( 12-C , 15-O ) :   0.8441 B( 12-C , 16-C ) :   0.9005 B( 16-C , 17-C ) :   0.8666
B( 16-C , 20-O ) :   0.8434 B( 16-C , 21-H ) :   0.8962 B( 17-C , 18-C ) :   0.9208
B( 17-C , 22-H ) :   0.9337 B( 17-C , 23-O ) :   0.8979 B( 18-C , 19-C ) :   0.9388
B( 18-C , 24-H ) :   0.9427 B( 18-C , 25-H ) :   0.9409 B( 19-C , 20-O ) :   0.8485
B( 19-C , 26-H ) :   0.9324 B( 19-C , 27-H ) :   0.9384 B( 23-O , 28-H ) :   0.7983

FINAL SINGLE POINT ENERGY      -652.855769091634

DIPOLE MOMENT
-------------
                                X             Y             Z
Electronic contribution:      0.48898      -2.52501      -0.13328
Nuclear contribution   :     -1.04886       2.99101       0.13736
                        -----------------------------------------
Total Dipole Moment    :     -0.55988       0.46600       0.00409
                        -----------------------------------------
Magnitude (a.u.)       :      0.72845
Magnitude (Debye)      :      1.85156

Rotational constants in cm-1:     0.054080     0.014750     0.013328
Rotational constants in MHz :  1621.278661   442.194444   399.568097

                             ****ORCA TERMINATED NORMALLY****
TOTAL RUN TIME: 0 days 0 hours 26 minutes 23 seconds 236 msec
