                         Program Version 4.2.0 -  RELEASE  -
|  1> # Test redundant internal optimization
|  2> #
|  3> ! RKS B3LYP  Opt TightSCF SmallPrint
|  4>
|  5> %basis
|  6>         Basis "6-31G"
|  7> end
|  8>
|  9> %geom
| 10> Constraints
| 11> { D 4  0  15  12  300.0   C } # D for Dihedral angle
| 12> { D 0  15  12  16  270.0   C } # D for Dihedral angle
| 13> { D 0  4  3  2   C } # D for Dihedral angle
| 14> { D 4  3  2  1   C } # D for Dihedral angle
| 15> { D 3  2  1  0   C } # D for Dihedral angle
| 16> { D 2  1  0  4   C } # D for Dihedral angle
| 17> { D 1  0  4  3   C } # D for Dihedral angle
| 18> { D 16  20  19  18   C } # D for Dihedral angle
| 19> { D 20  19  18  17   C } # D for Dihedral angle
| 20> { D 19  18  17  16   C } # D for Dihedral angle
| 21> { D 18  17  16  20   C } # D for Dihedral angle
| 22> { D 17  16  20  19   C } # D for Dihedral angle
| 23> { D 15  12  16  20   C } # D for Dihedral angle
| 24> end
| 25> end
| 26>
| 27>
| 28> #%pal
| 29> #nprocs 8
| 30> #end
| 31>
| 32> * xyz 0 1
| 33> C  -21.048   26.222   46.251
| 34> C  -20.361   27.558   45.944
| 35> C  -20.329   28.222   47.341
| 36> C  -20.110   27.022   48.296
| 37> O  -20.473   25.807   47.535
| 38> H  -20.833   25.428   45.533
| 39> H  -19.344   27.382   45.576
| 40> H  -20.898   28.157   45.201
| 41> H  -19.543   28.978   47.434
| 42> H  -21.289   28.710   47.548
| 43> H  -20.733   27.082   49.195
| 44> H  -19.064   26.913   48.597
| 45> C  -23.362   25.116   46.798
| 46> H  -22.719   24.498   47.437
| 47> H  -24.259   25.384   47.370
| 48> O  -22.586   26.394   46.375
| 49> C  -23.813   24.258   45.583
| 50> C  -22.608   23.698   44.820
| 51> C  -22.202   22.500   45.711
| 52> C  -23.562   21.976   46.237
| 53> O  -24.538   23.068   46.039
| 54> H  -24.505   24.840   44.972
| 55> O  -23.050   23.210   43.413
| 56> H  -21.801   24.427   44.693
| 57> H  -21.643   21.734   45.164
| 58> H  -21.573   22.845   46.540
| 59> H  -23.527   21.713   47.299
| 60> H  -23.923   21.113   45.671
| 61> H  -23.859   22.476   43.514
| 62> *
| 63>
| 64>                          ****END OF INPUT****
 Total Charge           Charge          ....    0
 Multiplicity           Mult            ....    1
 Number of Electrons    NEL             ....  102
FINAL SINGLE POINT ENERGY      -652.835421817104
FINAL SINGLE POINT ENERGY      -652.859891878570
FINAL SINGLE POINT ENERGY      -652.864754959180
FINAL SINGLE POINT ENERGY      -652.866134671468
FINAL SINGLE POINT ENERGY      -652.866297081575
FINAL SINGLE POINT ENERGY      -652.866320467546
                    ***********************HURRAY********************

CARTESIAN COORDINATES (ANGSTROEM)
---------------------------------
  C    -20.992790   26.187605   46.254054
  C    -20.406249   27.575002   45.991474
  C    -20.454709   28.209067   47.399868
  C    -20.165133   27.014507   48.335556
  O    -20.423019   25.792857   47.526218
  H    -20.704216   25.410953   45.544407
  H    -19.374102   27.470158   45.638655
  H    -20.983526   28.129303   45.248883
  H    -19.726577   29.016598   47.522756
  H    -21.454624   28.610701   47.585468
  H    -20.807674   26.994436   49.219395
  H    -19.118373   26.962302   48.648915
  C    -23.215215   25.181163   46.714776
  H    -22.652781   24.593264   47.450040
  H    -24.104040   25.580449   47.207009
  O    -22.426067   26.348492   46.327334
  C    -23.679927   24.286927   45.553426
  C    -22.606687   23.580931   44.710139
  C    -22.203881   22.400483   45.635850
  C    -23.540499   22.028010   46.326465
  O    -24.445110   23.188107   46.156226
  H    -24.363778   24.842217   44.904858
  O    -23.182489   23.106489   43.459142
  H    -21.774550   24.212338   44.410452
  H    -21.781131   21.578365   45.053545
  H    -21.456607   22.729101   46.366997
  H    -23.422506   21.823484   47.394894
  H    -24.028088   21.167302   45.858419
  H    -24.060651   22.710389   43.641779

 Multiplicity           Mult            ....    1
 Number of Electrons    NEL             ....  102
 Basis Dimension        Dim             ....  149

ORBITAL ENERGIES
----------------

  NO   OCC          E(Eh)            E(eV)
   0   2.0000     -19.146121      -520.9924
   1   2.0000     -19.145801      -520.9837
   2   2.0000     -19.144826      -520.9572
   3   2.0000     -19.137180      -520.7491
   4   2.0000     -10.280926      -279.7582
   5   2.0000     -10.241381      -278.6821
   6   2.0000     -10.233101      -278.4568
   7   2.0000     -10.232023      -278.4275
   8   2.0000     -10.228016      -278.3185
   9   2.0000     -10.225466      -278.2491
  10   2.0000     -10.188551      -277.2446
  11   2.0000     -10.186467      -277.1879
  12   2.0000     -10.186249      -277.1819
  13   2.0000      -1.056249       -28.7420
  14   2.0000      -1.038002       -28.2455
  15   2.0000      -1.006114       -27.3778
  16   2.0000      -0.994580       -27.0639
  17   2.0000      -0.790747       -21.5173
  18   2.0000      -0.778229       -21.1767
  19   2.0000      -0.765696       -20.8356
  20   2.0000      -0.734725       -19.9929
  21   2.0000      -0.674409       -18.3516
  22   2.0000      -0.603838       -16.4313
  23   2.0000      -0.601878       -16.3779
  24   2.0000      -0.595510       -16.2046
  25   2.0000      -0.580939       -15.8081
  26   2.0000      -0.521603       -14.1935
  27   2.0000      -0.520623       -14.1669
  28   2.0000      -0.500335       -13.6148
  29   2.0000      -0.485486       -13.2108
  30   2.0000      -0.470876       -12.8132
  31   2.0000      -0.459532       -12.5045
  32   2.0000      -0.450746       -12.2654
  33   2.0000      -0.432251       -11.7621
  34   2.0000      -0.421370       -11.4660
  35   2.0000      -0.419124       -11.4049
  36   2.0000      -0.403522       -10.9804
  37   2.0000      -0.393213       -10.6999
  38   2.0000      -0.377026       -10.2594
  39   2.0000      -0.369444       -10.0531
  40   2.0000      -0.359528        -9.7832
  41   2.0000      -0.354558        -9.6480
  42   2.0000      -0.349077        -9.4989
  43   2.0000      -0.331823        -9.0294
  44   2.0000      -0.330888        -9.0039
  45   2.0000      -0.308566        -8.3965
  46   2.0000      -0.298004        -8.1091
  47   2.0000      -0.279245        -7.5986
  48   2.0000      -0.269640        -7.3373
  49   2.0000      -0.259359        -7.0575
  50   2.0000      -0.241652        -6.5757
  51   0.0000       0.066918         1.8209
  52   0.0000       0.075932         2.0662
  53   0.0000       0.091684         2.4949
  54   0.0000       0.102543         2.7903
  55   0.0000       0.103904         2.8274

MULLIKEN ATOMIC CHARGES
-----------------------
   0 C :    0.281093
   1 C :   -0.259649
   2 C :   -0.296974
   3 C :   -0.005779
   4 O :   -0.517697
   5 H :    0.144007
   6 H :    0.144892
   7 H :    0.160845
   8 H :    0.141746
   9 H :    0.164885
  10 H :    0.148522
  11 H :    0.143995
  12 C :   -0.023645
  13 H :    0.153936
  14 H :    0.163895
  15 O :   -0.522668
  16 C :    0.053490
  17 C :    0.083286
  18 C :   -0.306059
  19 C :   -0.030851
  20 O :   -0.524627
  21 H :    0.163667
  22 O :   -0.605348
  23 H :    0.157993
  24 H :    0.163129
  25 H :    0.161621
  26 H :    0.151130
  27 H :    0.146385
  28 H :    0.364781
Sum of atomic charges:   -0.0000000

LOEWDIN ATOMIC CHARGES
----------------------
   0 C :    0.169402
   1 C :   -0.213549
   2 C :   -0.215392
   3 C :   -0.027728
   4 O :   -0.332353
   5 H :    0.092500
   6 H :    0.113910
   7 H :    0.126343
   8 H :    0.113992
   9 H :    0.120547
  10 H :    0.105995
  11 H :    0.103519
  12 C :   -0.047299
  13 H :    0.107642
  14 H :    0.121462
  15 O :   -0.327667
  16 C :    0.009260
  17 C :    0.034693
  18 C :   -0.243169
  19 C :   -0.038319
  20 O :   -0.329576
  21 H :    0.116178
  22 O :   -0.415835
  23 H :    0.116102
  24 H :    0.127004
  25 H :    0.121026
  26 H :    0.106069
  27 H :    0.102477
  28 H :    0.282765

  Mayer bond orders larger than 0.100000
B(  0-C ,  1-C ) :   0.9503 B(  0-C ,  4-O ) :   0.8988 B(  0-C ,  5-H ) :   0.9021
B(  0-C , 15-O ) :   0.8653 B(  1-C ,  2-C ) :   0.9560 B(  1-C ,  6-H ) :   0.9401
B(  1-C ,  7-H ) :   0.9351 B(  2-C ,  3-C ) :   0.9560 B(  2-C ,  8-H ) :   0.9450
B(  2-C ,  9-H ) :   0.9436 B(  3-C ,  4-O ) :   0.8321 B(  3-C , 10-H ) :   0.9358
B(  3-C , 11-H ) :   0.9405 B( 12-C , 13-H ) :   0.9187 B( 12-C , 14-H ) :   0.9353
B( 12-C , 15-O ) :   0.8350 B( 12-C , 16-C ) :   0.8815 B( 16-C , 17-C ) :   0.9131
B( 16-C , 20-O ) :   0.8329 B( 16-C , 21-H ) :   0.9262 B( 17-C , 18-C ) :   0.9152
B( 17-C , 22-O ) :   0.8848 B( 17-C , 23-H ) :   0.9207 B( 18-C , 19-C ) :   0.9416
B( 18-C , 24-H ) :   0.9378 B( 18-C , 25-H ) :   0.9296 B( 19-C , 20-O ) :   0.8396
B( 19-C , 26-H ) :   0.9344 B( 19-C , 27-H ) :   0.9386 B( 22-O , 28-H ) :   0.7937

FINAL SINGLE POINT ENERGY      -652.866323366638

DIPOLE MOMENT
-------------
                                X             Y             Z
Electronic contribution:     -3.69666      -1.94793      -2.22038
Nuclear contribution   :      4.30425       2.14312       2.74742
                        -----------------------------------------
Total Dipole Moment    :      0.60759       0.19519       0.52704
                        -----------------------------------------
Magnitude (a.u.)       :      0.82767
Magnitude (Debye)      :      2.10376

Rotational constants in cm-1:     0.056688     0.013367     0.012854
Rotational constants in MHz :  1699.463914   400.745395   385.364464

                             ****ORCA TERMINATED NORMALLY****
TOTAL RUN TIME: 0 days 0 hours 25 minutes 44 seconds 431 msec
