                         Program Version 4.2.0 -  RELEASE  -
|  1> # Test redundant internal optimization
|  2> #
|  3> ! RKS B3LYP  Opt TightSCF SmallPrint
|  4>
|  5> %basis
|  6>         Basis "6-31G"
|  7> end
|  8>
|  9> %geom
| 10> Constraints
| 11> { D 4  0  15  12  135.0   C } # D for Dihedral angle
| 12> { D 0  15  12  16  90.0   C } # D for Dihedral angle
| 13> { D 0  4  3  2   C } # D for Dihedral angle
| 14> { D 4  3  2  1   C } # D for Dihedral angle
| 15> { D 3  2  1  0   C } # D for Dihedral angle
| 16> { D 2  1  0  4   C } # D for Dihedral angle
| 17> { D 1  0  4  3   C } # D for Dihedral angle
| 18> { D 16  20  19  18   C } # D for Dihedral angle
| 19> { D 20  19  18  17   C } # D for Dihedral angle
| 20> { D 19  18  17  16   C } # D for Dihedral angle
| 21> { D 18  17  16  20   C } # D for Dihedral angle
| 22> { D 17  16  20  19   C } # D for Dihedral angle
| 23> { D 15  12  16  20   C } # D for Dihedral angle
| 24> end
| 25> end
| 26>
| 27>
| 28> #%pal
| 29> #nprocs 8
| 30> #end
| 31>
| 32> * xyz 0 1
| 33> C  -21.048   26.222   46.251
| 34> C  -20.361   27.558   45.944
| 35> C  -20.329   28.222   47.341
| 36> C  -20.110   27.022   48.296
| 37> O  -20.473   25.807   47.535
| 38> H  -20.833   25.428   45.533
| 39> H  -19.344   27.382   45.576
| 40> H  -20.898   28.157   45.201
| 41> H  -19.543   28.978   47.434
| 42> H  -21.289   28.710   47.548
| 43> H  -20.733   27.082   49.195
| 44> H  -19.064   26.913   48.597
| 45> C  -23.162   27.680   45.721
| 46> H  -24.052   28.001   46.276
| 47> H  -22.424   28.492   45.755
| 48> O  -22.586   26.394   46.375
| 49> C  -23.563   27.469   44.234
| 50> C  -24.017   28.783   43.589
| 51> C  -22.663   29.468   43.287
| 52> C  -21.741   28.279   42.920
| 53> O  -22.398   27.061   43.442
| 54> H  -24.292   26.659   44.172
| 55> H  -24.562   28.578   42.660
| 56> O  -24.929   29.634   44.514
| 57> H  -22.731   30.207   42.482
| 58> H  -22.293   29.982   44.182
| 59> H  -20.744   28.368   43.366
| 60> H  -21.635   28.150   41.839
| 61> H  -24.404   29.853   45.450
| 62> *
| 63>
| 64>                          ****END OF INPUT****
 Total Charge           Charge          ....    0
 Multiplicity           Mult            ....    1
 Number of Electrons    NEL             ....  102
FINAL SINGLE POINT ENERGY      -652.813645849345
FINAL SINGLE POINT ENERGY      -652.839206071519
FINAL SINGLE POINT ENERGY      -652.848192747893
FINAL SINGLE POINT ENERGY      -652.849937520024
FINAL SINGLE POINT ENERGY      -652.850230366750
FINAL SINGLE POINT ENERGY      -652.850310614306
FINAL SINGLE POINT ENERGY      -652.850319074613
FINAL SINGLE POINT ENERGY      -652.850320514919
                    ***********************HURRAY********************

CARTESIAN COORDINATES (ANGSTROEM)
---------------------------------
  C    -21.054402   26.271617   46.284067
  C    -20.133589   27.471098   46.048626
  C    -20.111921   28.144971   47.447696
  C    -20.179491   26.930015   48.401942
  O    -20.672786   25.798656   47.587874
  H    -20.908508   25.442019   45.592701
  H    -19.139349   27.087042   45.795477
  H    -20.449815   28.130813   45.241138
  H    -19.213613   28.749472   47.606507
  H    -20.984018   28.794708   47.580394
  H    -20.859110   27.084197   49.244585
  H    -19.195205   26.641221   48.782576
  C    -23.089416   27.743772   45.758545
  H    -24.002171   27.904688   46.341087
  H    -22.443272   28.624256   45.880435
  O    -22.487502   26.551117   46.313170
  C    -23.469430   27.524926   44.291135
  C    -24.112388   28.730728   43.582790
  C    -22.859930   29.542838   43.137031
  C    -21.836311   28.437634   42.796099
  O    -22.317800   27.191912   43.451720
  H    -24.114896   26.642159   44.255635
  H    -24.673812   28.384571   42.712750
  O    -25.077793   29.471605   44.366720
  H    -23.072845   30.201595   42.290965
  H    -22.514322   30.167700   43.971683
  H    -20.826739   28.666294   43.151852
  H    -21.790198   28.231944   41.722593
  H    -24.630369   29.975431   45.077207

 Multiplicity           Mult            ....    1
 Number of Electrons    NEL             ....  102
 Basis Dimension        Dim             ....  149

ORBITAL ENERGIES
----------------

  NO   OCC          E(Eh)            E(eV)
   0   2.0000     -19.154362      -521.2167
   1   2.0000     -19.147467      -521.0291
   2   2.0000     -19.133816      -520.6576
   3   2.0000     -19.133732      -520.6553
   4   2.0000     -10.273651      -279.5603
   5   2.0000     -10.250060      -278.9183
   6   2.0000     -10.238731      -278.6100
   7   2.0000     -10.234732      -278.5012
   8   2.0000     -10.232188      -278.4320
   9   2.0000     -10.223960      -278.2081
  10   2.0000     -10.201965      -277.6096
  11   2.0000     -10.191914      -277.3361
  12   2.0000     -10.189327      -277.2657
  13   2.0000      -1.047581       -28.5061
  14   2.0000      -1.038007       -28.2456
  15   2.0000      -1.021870       -27.8065
  16   2.0000      -0.987850       -26.8808
  17   2.0000      -0.788681       -21.4611
  18   2.0000      -0.787244       -21.4220
  19   2.0000      -0.771933       -21.0054
  20   2.0000      -0.732613       -19.9354
  21   2.0000      -0.687558       -18.7094
  22   2.0000      -0.617805       -16.8113
  23   2.0000      -0.603342       -16.4178
  24   2.0000      -0.597828       -16.2677
  25   2.0000      -0.568540       -15.4708
  26   2.0000      -0.532980       -14.5031
  27   2.0000      -0.514925       -14.0118
  28   2.0000      -0.505123       -13.7451
  29   2.0000      -0.490511       -13.3475
  30   2.0000      -0.470321       -12.7981
  31   2.0000      -0.461322       -12.5532
  32   2.0000      -0.450524       -12.2594
  33   2.0000      -0.438840       -11.9415
  34   2.0000      -0.429572       -11.6892
  35   2.0000      -0.423946       -11.5361
  36   2.0000      -0.408258       -11.1093
  37   2.0000      -0.401589       -10.9278
  38   2.0000      -0.385251       -10.4832
  39   2.0000      -0.378461       -10.2984
  40   2.0000      -0.360426        -9.8077
  41   2.0000      -0.358201        -9.7471
  42   2.0000      -0.352256        -9.5854
  43   2.0000      -0.338306        -9.2058
  44   2.0000      -0.320980        -8.7343
  45   2.0000      -0.309585        -8.4242
  46   2.0000      -0.288123        -7.8402
  47   2.0000      -0.275233        -7.4895
  48   2.0000      -0.271411        -7.3855
  49   2.0000      -0.252858        -6.8806
  50   2.0000      -0.236797        -6.4436
  51   0.0000       0.042490         1.1562
  52   0.0000       0.060396         1.6435
  53   0.0000       0.083735         2.2785
  54   0.0000       0.093270         2.5380
  55   0.0000       0.099130         2.6975

MULLIKEN ATOMIC CHARGES
-----------------------
   0 C :    0.327861
   1 C :   -0.304781
   2 C :   -0.307511
   3 C :    0.002158
   4 O :   -0.495861
   5 H :    0.166593
   6 H :    0.154278
   7 H :    0.150704
   8 H :    0.142809
   9 H :    0.144854
  10 H :    0.148902
  11 H :    0.142159
  12 C :   -0.024480
  13 H :    0.158991
  14 H :    0.106308
  15 O :   -0.520801
  16 C :    0.090873
  17 C :    0.080703
  18 C :   -0.321370
  19 C :   -0.016059
  20 O :   -0.515823
  21 H :    0.170809
  22 H :    0.171683
  23 O :   -0.595826
  24 H :    0.162004
  25 H :    0.131077
  26 H :    0.138528
  27 H :    0.156047
  28 H :    0.355170
Sum of atomic charges:   -0.0000000

LOEWDIN ATOMIC CHARGES
----------------------
   0 C :    0.189342
   1 C :   -0.231824
   2 C :   -0.221584
   3 C :   -0.027876
   4 O :   -0.308657
   5 H :    0.111556
   6 H :    0.122477
   7 H :    0.114725
   8 H :    0.114360
   9 H :    0.106431
  10 H :    0.105951
  11 H :    0.102582
  12 C :   -0.049013
  13 H :    0.117765
  14 H :    0.082462
  15 O :   -0.324941
  16 C :    0.007939
  17 C :    0.034350
  18 C :   -0.241659
  19 C :   -0.033103
  20 O :   -0.321692
  21 H :    0.122086
  22 H :    0.121627
  23 O :   -0.404682
  24 H :    0.124742
  25 H :    0.102730
  26 H :    0.097493
  27 H :    0.108867
  28 H :    0.277546

  Mayer bond orders larger than 0.100000
B(  0-C ,  1-C ) :   0.9345 B(  0-C ,  4-O ) :   0.9168 B(  0-C ,  5-H ) :   0.9267
B(  0-C , 15-O ) :   0.8418 B(  1-C ,  2-C ) :   0.9469 B(  1-C ,  6-H ) :   0.9355
B(  1-C ,  7-H ) :   0.9198 B(  2-C ,  3-C ) :   0.9507 B(  2-C ,  8-H ) :   0.9457
B(  2-C ,  9-H ) :   0.9428 B(  3-C ,  4-O ) :   0.8461 B(  3-C , 10-H ) :   0.9344
B(  3-C , 11-H ) :   0.9396 B( 12-C , 13-H ) :   0.9206 B( 12-C , 14-H ) :   0.9095
B( 12-C , 15-O ) :   0.8760 B( 12-C , 16-C ) :   0.8878 B( 16-C , 17-C ) :   0.8674
B( 16-C , 20-O ) :   0.8602 B( 16-C , 21-H ) :   0.9283 B( 17-C , 18-C ) :   0.9207
B( 17-C , 22-H ) :   0.9314 B( 17-C , 23-O ) :   0.9014 B( 18-C , 19-C ) :   0.9402
B( 18-C , 24-H ) :   0.9408 B( 18-C , 25-H ) :   0.9417 B( 19-C , 20-O ) :   0.8464
B( 19-C , 26-H ) :   0.9236 B( 19-C , 27-H ) :   0.9374 B( 23-O , 28-H ) :   0.7986

FINAL SINGLE POINT ENERGY      -652.850319811487

DIPOLE MOMENT
-------------
                                X             Y             Z
Electronic contribution:     -3.94691      -5.39466      -0.03920
Nuclear contribution   :      4.85552       7.27723      -0.32005
                        -----------------------------------------
Total Dipole Moment    :      0.90861       1.88257      -0.35926
                        -----------------------------------------
Magnitude (a.u.)       :      2.12102
Magnitude (Debye)      :      5.39120

Rotational constants in cm-1:     0.052106     0.014536     0.013824
Rotational constants in MHz :  1562.093060   435.783699   414.443363

                             ****ORCA TERMINATED NORMALLY****
TOTAL RUN TIME: 0 days 2 hours 57 minutes 47 seconds 904 msec
