                         Program Version 4.2.0 -  RELEASE  -
|  1> # Test redundant internal optimization
|  2> #
|  3> ! RKS B3LYP  Opt TightSCF SmallPrint
|  4>
|  5> %basis
|  6>         Basis "6-31G"
|  7> end
|  8>
|  9> %geom
| 10> Constraints
| 11> { D 4  0  15  12  225.0   C } # D for Dihedral angle
| 12> { D 0  15  12  16  180.0   C } # D for Dihedral angle
| 13> { D 0  4  3  2   C } # D for Dihedral angle
| 14> { D 4  3  2  1   C } # D for Dihedral angle
| 15> { D 3  2  1  0   C } # D for Dihedral angle
| 16> { D 2  1  0  4   C } # D for Dihedral angle
| 17> { D 1  0  4  3   C } # D for Dihedral angle
| 18> { D 16  20  19  18   C } # D for Dihedral angle
| 19> { D 20  19  18  17   C } # D for Dihedral angle
| 20> { D 19  18  17  16   C } # D for Dihedral angle
| 21> { D 18  17  16  20   C } # D for Dihedral angle
| 22> { D 17  16  20  19   C } # D for Dihedral angle
| 23> { D 15  12  16  20   C } # D for Dihedral angle
| 24> end
| 25> end
| 26>
| 27>
| 28> #%pal
| 29> #nprocs 8
| 30> #end
| 31>
| 32> * xyz 0 1
| 33> C  -21.048   26.222   46.251
| 34> C  -20.361   27.558   45.944
| 35> C  -20.329   28.222   47.341
| 36> C  -20.110   27.022   48.296
| 37> O  -20.473   25.807   47.535
| 38> H  -20.833   25.428   45.533
| 39> H  -19.344   27.382   45.576
| 40> H  -20.898   28.157   45.201
| 41> H  -19.543   28.978   47.434
| 42> H  -21.289   28.710   47.548
| 43> H  -20.733   27.082   49.195
| 44> H  -19.064   26.913   48.597
| 45> C  -23.415   25.773   45.218
| 46> H  -23.115   26.235   44.269
| 47> H  -23.229   24.693   45.148
| 48> O  -22.586   26.394   46.375
| 49> C  -24.945   25.977   45.398
| 50> C  -25.319   27.463   45.336
| 51> C  -25.308   27.725   43.812
| 52> C  -25.834   26.393   43.221
| 53> O  -25.678   25.373   44.281
| 54> H  -25.269   25.467   46.307
| 55> O  -26.742   27.678   45.920
| 56> H  -24.622   28.106   45.884
| 57> H  -25.926   28.582   43.524
| 58> H  -24.284   27.922   43.472
| 59> H  -25.274   26.077   42.335
| 60> H  -26.897   26.438   42.971
| 61> H  -27.460   27.043   45.386
| 62> *
| 63>
| 64>                          ****END OF INPUT****
 Total Charge           Charge          ....    0
 Multiplicity           Mult            ....    1
 Number of Electrons    NEL             ....  102
FINAL SINGLE POINT ENERGY      -652.835879118977
FINAL SINGLE POINT ENERGY      -652.859203550379
FINAL SINGLE POINT ENERGY      -652.862649155987
FINAL SINGLE POINT ENERGY      -652.863290340695
FINAL SINGLE POINT ENERGY      -652.863390355004
FINAL SINGLE POINT ENERGY      -652.863400983730
                    ***********************HURRAY********************

CARTESIAN COORDINATES (ANGSTROEM)
---------------------------------
  C    -21.115063   26.173209   46.192033
  C    -20.446471   27.515047   45.899190
  C    -20.529261   28.220325   47.273739
  C    -20.346865   27.056040   48.270994
  O    -20.630380   25.817789   47.498099
  H    -20.852160   25.354095   45.515708
  H    -19.402666   27.348163   45.607598
  H    -20.948823   28.067627   45.100726
  H    -19.769296   28.997934   47.394839
  H    -21.515751   28.677958   47.393780
  H    -21.034619   27.102687   49.118749
  H    -19.320551   26.966351   48.639020
  C    -23.304172   25.716953   45.148416
  H    -22.986578   26.122523   44.176190
  H    -23.145159   24.630616   45.134549
  O    -22.560419   26.334651   46.234249
  C    -24.782234   26.009716   45.393364
  C    -25.164378   27.497283   45.362484
  C    -25.253494   27.766103   43.839147
  C    -25.813071   26.435169   43.276778
  O    -25.584797   25.407418   44.323395
  H    -25.092229   25.547856   46.334419
  O    -26.442378   27.716351   46.021182
  H    -24.448625   28.130535   45.882994
  H    -25.903141   28.620713   43.635279
  H    -24.260811   27.985618   43.430571
  H    -25.316686   26.119599   42.354394
  H    -26.891649   26.475414   43.096060
  H    -27.066273   27.006255   45.760053

 Multiplicity           Mult            ....    1
 Number of Electrons    NEL             ....  102
 Basis Dimension        Dim             ....  149

ORBITAL ENERGIES
----------------

  NO   OCC          E(Eh)            E(eV)
   0   2.0000     -19.146173      -520.9939
   1   2.0000     -19.145240      -520.9685
   2   2.0000     -19.140541      -520.8406
   3   2.0000     -19.135185      -520.6948
   4   2.0000     -10.282115      -279.7906
   5   2.0000     -10.236392      -278.5464
   6   2.0000     -10.234597      -278.4975
   7   2.0000     -10.233988      -278.4810
   8   2.0000     -10.233190      -278.4593
   9   2.0000     -10.225231      -278.2427
  10   2.0000     -10.189176      -277.2616
  11   2.0000     -10.188503      -277.2433
  12   2.0000     -10.187213      -277.2082
  13   2.0000      -1.054818       -28.7031
  14   2.0000      -1.036938       -28.2165
  15   2.0000      -1.004864       -27.3438
  16   2.0000      -0.997777       -27.1509
  17   2.0000      -0.789854       -21.4930
  18   2.0000      -0.780181       -21.2298
  19   2.0000      -0.769208       -20.9312
  20   2.0000      -0.730807       -19.8863
  21   2.0000      -0.675906       -18.3923
  22   2.0000      -0.605299       -16.4710
  23   2.0000      -0.600769       -16.3477
  24   2.0000      -0.590006       -16.0549
  25   2.0000      -0.586350       -15.9554
  26   2.0000      -0.524026       -14.2595
  27   2.0000      -0.519795       -14.1443
  28   2.0000      -0.498321       -13.5600
  29   2.0000      -0.489539       -13.3210
  30   2.0000      -0.471522       -12.8308
  31   2.0000      -0.456228       -12.4146
  32   2.0000      -0.452743       -12.3198
  33   2.0000      -0.443150       -12.0587
  34   2.0000      -0.426332       -11.6011
  35   2.0000      -0.415492       -11.3061
  36   2.0000      -0.402511       -10.9529
  37   2.0000      -0.393290       -10.7020
  38   2.0000      -0.375341       -10.2135
  39   2.0000      -0.368067       -10.0156
  40   2.0000      -0.362463        -9.8631
  41   2.0000      -0.357285        -9.7222
  42   2.0000      -0.354013        -9.6332
  43   2.0000      -0.331487        -9.0202
  44   2.0000      -0.316233        -8.6051
  45   2.0000      -0.313769        -8.5381
  46   2.0000      -0.304731        -8.2922
  47   2.0000      -0.272689        -7.4202
  48   2.0000      -0.264279        -7.1914
  49   2.0000      -0.252142        -6.8611
  50   2.0000      -0.247044        -6.7224
  51   0.0000       0.063481         1.7274
  52   0.0000       0.067750         1.8436
  53   0.0000       0.091293         2.4842
  54   0.0000       0.096799         2.6340
  55   0.0000       0.104078         2.8321

MULLIKEN ATOMIC CHARGES
-----------------------
   0 C :    0.292764
   1 C :   -0.256053
   2 C :   -0.301820
   3 C :   -0.002362
   4 O :   -0.500984
   5 H :    0.141954
   6 H :    0.144514
   7 H :    0.140160
   8 H :    0.142816
   9 H :    0.163534
  10 H :    0.155790
  11 H :    0.141953
  12 C :   -0.003875
  13 H :    0.120371
  14 H :    0.154691
  15 O :   -0.523300
  16 C :    0.055632
  17 C :    0.092109
  18 C :   -0.295901
  19 C :   -0.032754
  20 O :   -0.528060
  21 H :    0.172001
  22 O :   -0.603801
  23 H :    0.170943
  24 H :    0.162670
  25 H :    0.138752
  26 H :    0.145110
  27 H :    0.149795
  28 H :    0.363353
Sum of atomic charges:    0.0000000

LOEWDIN ATOMIC CHARGES
----------------------
   0 C :    0.178380
   1 C :   -0.223875
   2 C :   -0.216887
   3 C :   -0.025828
   4 O :   -0.309677
   5 H :    0.099887
   6 H :    0.113322
   7 H :    0.114504
   8 H :    0.114783
   9 H :    0.119157
  10 H :    0.110052
  11 H :    0.102575
  12 C :   -0.038306
  13 H :    0.086448
  14 H :    0.107420
  15 O :   -0.338470
  16 C :    0.019247
  17 C :    0.038688
  18 C :   -0.241196
  19 C :   -0.038925
  20 O :   -0.330377
  21 H :    0.121852
  22 O :   -0.414712
  23 H :    0.124869
  24 H :    0.126846
  25 H :    0.110754
  26 H :    0.103435
  27 H :    0.104006
  28 H :    0.282029

  Mayer bond orders larger than 0.100000
B(  0-C ,  1-C ) :   0.9384 B(  0-C ,  4-O ) :   0.9363 B(  0-C ,  5-H ) :   0.9200
B(  0-C , 15-O ) :   0.8278 B(  1-C ,  2-C ) :   0.9555 B(  1-C ,  6-H ) :   0.9351
B(  1-C ,  7-H ) :   0.9390 B(  2-C ,  3-C ) :   0.9544 B(  2-C ,  8-H ) :   0.9449
B(  2-C ,  9-H ) :   0.9431 B(  3-C ,  4-O ) :   0.8361 B(  3-C , 10-H ) :   0.9341
B(  3-C , 11-H ) :   0.9397 B( 12-C , 13-H ) :   0.9173 B( 12-C , 14-H ) :   0.9140
B( 12-C , 15-O ) :   0.8288 B( 12-C , 16-C ) :   0.9099 B( 16-C , 17-C ) :   0.9126
B( 16-C , 20-O ) :   0.8419 B( 16-C , 21-H ) :   0.9239 B( 17-C , 18-C ) :   0.9112
B( 17-C , 22-O ) :   0.8904 B( 17-C , 23-H ) :   0.9241 B( 18-C , 19-C ) :   0.9432
B( 18-C , 24-H ) :   0.9379 B( 18-C , 25-H ) :   0.9353 B( 19-C , 20-O ) :   0.8440
B( 19-C , 26-H ) :   0.9356 B( 19-C , 27-H ) :   0.9373 B( 22-O , 28-H ) :   0.7951

FINAL SINGLE POINT ENERGY      -652.863403466416

DIPOLE MOMENT
-------------
                                X             Y             Z
Electronic contribution:     -3.20074      -4.30988       2.19053
Nuclear contribution   :      3.87745       5.02500      -3.24855
                        -----------------------------------------
Total Dipole Moment    :      0.67671       0.71512      -1.05802
                        -----------------------------------------
Magnitude (a.u.)       :      1.44525
Magnitude (Debye)      :      3.67353

Rotational constants in cm-1:     0.056071     0.012259     0.011759
Rotational constants in MHz :  1680.970778   367.504668   352.534677

                             ****ORCA TERMINATED NORMALLY****
TOTAL RUN TIME: 0 days 0 hours 51 minutes 5 seconds 226 msec
