                         Program Version 4.2.0 -  RELEASE  -
|  1> # Test redundant internal optimization
|  2> #
|  3> ! RKS B3LYP  Opt TightSCF SmallPrint
|  4>
|  5> %basis
|  6>         Basis "6-31G"
|  7> end
|  8>
|  9> %geom
| 10> Constraints
| 11> { D 4  0  15  12  75.0   C } # D for Dihedral angle
| 12> { D 0  15  12  16  240.0   C } # D for Dihedral angle
| 13> { D 0  4  3  2   C } # D for Dihedral angle
| 14> { D 4  3  2  1   C } # D for Dihedral angle
| 15> { D 3  2  1  0   C } # D for Dihedral angle
| 16> { D 2  1  0  4   C } # D for Dihedral angle
| 17> { D 1  0  4  3   C } # D for Dihedral angle
| 18> { D 16  20  19  18   C } # D for Dihedral angle
| 19> { D 20  19  18  17   C } # D for Dihedral angle
| 20> { D 19  18  17  16   C } # D for Dihedral angle
| 21> { D 18  17  16  20   C } # D for Dihedral angle
| 22> { D 17  16  20  19   C } # D for Dihedral angle
| 23> { D 15  12  16  20   C } # D for Dihedral angle
| 24> end
| 25> end
| 26>
| 27>
| 28> #%pal
| 29> #nprocs 8
| 30> #end
| 31>
| 32> * xyz 0 1
| 33> C  -21.048   26.222   46.251
| 34> C  -20.361   27.558   45.944
| 35> C  -20.329   28.222   47.341
| 36> C  -20.110   27.022   48.296
| 37> O  -20.473   25.807   47.535
| 38> H  -20.833   25.428   45.533
| 39> H  -19.344   27.382   45.576
| 40> H  -20.898   28.157   45.201
| 41> H  -19.543   28.978   47.434
| 42> H  -21.289   28.710   47.548
| 43> H  -20.733   27.082   49.195
| 44> H  -19.064   26.913   48.597
| 45> C  -23.049   27.675   47.122
| 46> H  -22.169   28.252   47.431
| 47> H  -23.658   28.305   46.462
| 48> O  -22.586   26.394   46.375
| 49> C  -23.895   27.360   48.387
| 50> C  -24.431   28.642   49.032
| 51> C  -25.636   28.972   48.119
| 52> C  -26.184   27.574   47.741
| 53> O  -25.101   26.608   48.023
| 54> H  -23.312   26.725   49.058
| 55> H  -24.765   28.439   50.055
| 56> O  -23.381   29.786   49.079
| 57> H  -26.387   29.594   48.617
| 58> H  -25.296   29.509   47.225
| 59> H  -26.461   27.504   46.683
| 60> H  -27.043   27.282   48.353
| 61> H  -23.032   30.009   48.065
| 62> *
| 63>
| 64>                          ****END OF INPUT****
 Total Charge           Charge          ....    0
 Multiplicity           Mult            ....    1
 Number of Electrons    NEL             ....  102
FINAL SINGLE POINT ENERGY      -652.770787764420
FINAL SINGLE POINT ENERGY      -652.818984864644
FINAL SINGLE POINT ENERGY      -652.840482041598
FINAL SINGLE POINT ENERGY      -652.845646497132
FINAL SINGLE POINT ENERGY      -652.846532209576
FINAL SINGLE POINT ENERGY      -652.846851869506
FINAL SINGLE POINT ENERGY      -652.846926012217
FINAL SINGLE POINT ENERGY      -652.846947615244
FINAL SINGLE POINT ENERGY      -652.846950632882
                    ***********************HURRAY********************

CARTESIAN COORDINATES (ANGSTROEM)
---------------------------------
  C    -21.169006   26.350659   46.418028
  C    -20.194311   27.419286   45.894634
  C    -19.780446   28.155585   47.206427
  C    -19.763720   27.001073   48.242562
  O    -20.550774   25.895704   47.646490
  H    -21.199990   25.469775   45.774507
  H    -19.331736   26.912990   45.450494
  H    -20.643882   28.075633   45.144607
  H    -18.796937   28.629013   47.119333
  H    -20.492671   28.939101   47.473406
  H    -20.206055   27.279925   49.203753
  H    -18.754105   26.616714   48.414070
  C    -23.097009   27.852928   47.155936
  H    -22.313551   28.505305   47.547395
  H    -23.658617   28.399532   46.387240
  O    -22.570585   26.655433   46.518636
  C    -24.004767   27.444529   48.318132
  C    -24.656343   28.631964   49.044585
  C    -25.890663   28.923482   48.139459
  C    -26.305635   27.511812   47.667678
  O    -25.137447   26.626843   47.896332
  H    -23.418358   26.813018   48.991800
  H    -24.976956   28.318389   50.040364
  O    -23.782456   29.768201   49.274916
  H    -26.687356   29.445149   48.676857
  H    -25.583454   29.554597   47.293808
  H    -26.577513   27.479933   46.608108
  H    -27.134581   27.107425   48.255821
  H    -23.732078   30.327001   48.472622

 Multiplicity           Mult            ....    1
 Number of Electrons    NEL             ....  102
 Basis Dimension        Dim             ....  149

ORBITAL ENERGIES
----------------

  NO   OCC          E(Eh)            E(eV)
   0   2.0000     -19.152368      -521.1624
   1   2.0000     -19.138395      -520.7822
   2   2.0000     -19.137054      -520.7457
   3   2.0000     -19.133459      -520.6479
   4   2.0000     -10.274704      -279.5889
   5   2.0000     -10.245224      -278.7867
   6   2.0000     -10.229917      -278.3702
   7   2.0000     -10.228688      -278.3368
   8   2.0000     -10.226517      -278.2777
   9   2.0000     -10.226414      -278.2749
  10   2.0000     -10.197581      -277.4903
  11   2.0000     -10.193232      -277.3719
  12   2.0000     -10.191035      -277.3122
  13   2.0000      -1.047034       -28.4912
  14   2.0000      -1.033810       -28.1314
  15   2.0000      -1.014205       -27.5979
  16   2.0000      -0.991619       -26.9833
  17   2.0000      -0.787076       -21.4174
  18   2.0000      -0.783288       -21.3143
  19   2.0000      -0.770580       -20.9685
  20   2.0000      -0.731074       -19.8935
  21   2.0000      -0.683434       -18.5972
  22   2.0000      -0.612378       -16.6637
  23   2.0000      -0.603964       -16.4347
  24   2.0000      -0.597691       -16.2640
  25   2.0000      -0.567226       -15.4350
  26   2.0000      -0.522366       -14.2143
  27   2.0000      -0.514961       -14.0128
  28   2.0000      -0.502563       -13.6754
  29   2.0000      -0.493417       -13.4265
  30   2.0000      -0.466451       -12.6928
  31   2.0000      -0.457648       -12.4532
  32   2.0000      -0.439074       -11.9478
  33   2.0000      -0.433627       -11.7996
  34   2.0000      -0.426759       -11.6127
  35   2.0000      -0.419610       -11.4182
  36   2.0000      -0.416422       -11.3314
  37   2.0000      -0.401248       -10.9185
  38   2.0000      -0.380975       -10.3669
  39   2.0000      -0.378009       -10.2862
  40   2.0000      -0.360024        -9.7967
  41   2.0000      -0.356086        -9.6896
  42   2.0000      -0.344205        -9.3663
  43   2.0000      -0.328301        -8.9335
  44   2.0000      -0.317620        -8.6429
  45   2.0000      -0.311291        -8.4707
  46   2.0000      -0.293645        -7.9905
  47   2.0000      -0.272273        -7.4089
  48   2.0000      -0.266115        -7.2414
  49   2.0000      -0.251175        -6.8348
  50   2.0000      -0.234032        -6.3683
  51   0.0000       0.045915         1.2494
  52   0.0000       0.072146         1.9632
  53   0.0000       0.083887         2.2827
  54   0.0000       0.091016         2.4767
  55   0.0000       0.098910         2.6915

MULLIKEN ATOMIC CHARGES
-----------------------
   0 C :    0.297981
   1 C :   -0.279022
   2 C :   -0.317534
   3 C :   -0.010854
   4 O :   -0.502224
   5 H :    0.168067
   6 H :    0.157574
   7 H :    0.145416
   8 H :    0.143884
   9 H :    0.151243
  10 H :    0.148736
  11 H :    0.147239
  12 C :   -0.030487
  13 H :    0.130252
  14 H :    0.130311
  15 O :   -0.504816
  16 C :    0.106196
  17 C :    0.082275
  18 C :   -0.335064
  19 C :   -0.005703
  20 O :   -0.501188
  21 H :    0.171744
  22 H :    0.167993
  23 O :   -0.602345
  24 H :    0.158856
  25 H :    0.133004
  26 H :    0.145041
  27 H :    0.149388
  28 H :    0.354042
Sum of atomic charges:    0.0000000

LOEWDIN ATOMIC CHARGES
----------------------
   0 C :    0.173518
   1 C :   -0.229668
   2 C :   -0.224547
   3 C :   -0.034437
   4 O :   -0.322327
   5 H :    0.113992
   6 H :    0.123195
   7 H :    0.116779
   8 H :    0.114864
   9 H :    0.107040
  10 H :    0.104543
  11 H :    0.104685
  12 C :   -0.053521
  13 H :    0.100554
  14 H :    0.097546
  15 O :   -0.304540
  16 C :    0.018343
  17 C :    0.032909
  18 C :   -0.243199
  19 C :   -0.029082
  20 O :   -0.309911
  21 H :    0.123319
  22 H :    0.119735
  23 O :   -0.411308
  24 H :    0.122457
  25 H :    0.102856
  26 H :    0.103660
  27 H :    0.106073
  28 H :    0.276473

  Mayer bond orders larger than 0.100000
B(  0-C ,  1-C ) :   0.9153 B(  0-C ,  4-O ) :   0.8941 B(  0-C ,  5-H ) :   0.9361
B(  0-C , 15-O ) :   0.9192 B(  1-C ,  2-C ) :   0.9545 B(  1-C ,  6-H ) :   0.9353
B(  1-C ,  7-H ) :   0.9380 B(  2-C ,  3-C ) :   0.9453 B(  2-C ,  8-H ) :   0.9445
B(  2-C ,  9-H ) :   0.9360 B(  3-C ,  4-O ) :   0.8505 B(  3-C , 10-H ) :   0.9330
B(  3-C , 11-H ) :   0.9389 B( 12-C , 13-H ) :   0.8878 B( 12-C , 14-H ) :   0.9351
B( 12-C , 15-O ) :   0.8471 B( 12-C , 16-C ) :   0.8973 B( 16-C , 17-C ) :   0.8688
B( 16-C , 20-O ) :   0.8712 B( 16-C , 21-H ) :   0.9280 B( 17-C , 18-C ) :   0.9272
B( 17-C , 22-H ) :   0.9320 B( 17-C , 23-O ) :   0.8869 B( 18-C , 19-C ) :   0.9399
B( 18-C , 24-H ) :   0.9417 B( 18-C , 25-H ) :   0.9396 B( 19-C , 20-O ) :   0.8548
B( 19-C , 26-H ) :   0.9310 B( 19-C , 27-H ) :   0.9372 B( 23-O , 28-H ) :   0.8005

FINAL SINGLE POINT ENERGY      -652.846949690523

DIPOLE MOMENT
-------------
                                X             Y             Z
Electronic contribution:     -1.71844      -4.61397       0.97083
Nuclear contribution   :      1.84803       6.36298      -1.52454
                        -----------------------------------------
Total Dipole Moment    :      0.12959       1.74901      -0.55371
                        -----------------------------------------
Magnitude (a.u.)       :      1.83914
Magnitude (Debye)      :      4.67472

Rotational constants in cm-1:     0.049820     0.014556     0.012964
Rotational constants in MHz :  1493.568204   436.366663   388.662022

                             ****ORCA TERMINATED NORMALLY****
TOTAL RUN TIME: 0 days 0 hours 29 minutes 7 seconds 864 msec
