                         Program Version 4.2.0 -  RELEASE  -
|  1> # Test redundant internal optimization
|  2> #
|  3> ! RKS B3LYP  Opt TightSCF SmallPrint
|  4>
|  5> %basis
|  6>         Basis "6-31G"
|  7> end
|  8>
|  9> %geom
| 10> Constraints
| 11> { D 4  0  15  12  255.0   C } # D for Dihedral angle
| 12> { D 0  15  12  16  330.0   C } # D for Dihedral angle
| 13> { D 0  4  3  2   C } # D for Dihedral angle
| 14> { D 4  3  2  1   C } # D for Dihedral angle
| 15> { D 3  2  1  0   C } # D for Dihedral angle
| 16> { D 2  1  0  4   C } # D for Dihedral angle
| 17> { D 1  0  4  3   C } # D for Dihedral angle
| 18> { D 16  20  19  18   C } # D for Dihedral angle
| 19> { D 20  19  18  17   C } # D for Dihedral angle
| 20> { D 19  18  17  16   C } # D for Dihedral angle
| 21> { D 18  17  16  20   C } # D for Dihedral angle
| 22> { D 17  16  20  19   C } # D for Dihedral angle
| 23> { D 15  12  16  20   C } # D for Dihedral angle
| 24> end
| 25> end
| 26>
| 27>
| 28> #%pal
| 29> #nprocs 8
| 30> #end
| 31>
| 32> * xyz 0 1
| 33> C  -21.048   26.222   46.251
| 34> C  -20.361   27.558   45.944
| 35> C  -20.329   28.222   47.341
| 36> C  -20.110   27.022   48.296
| 37> O  -20.473   25.807   47.535
| 38> H  -20.833   25.428   45.533
| 39> H  -19.344   27.382   45.576
| 40> H  -20.898   28.157   45.201
| 41> H  -19.543   28.978   47.434
| 42> H  -21.289   28.710   47.548
| 43> H  -20.733   27.082   49.195
| 44> H  -19.064   26.913   48.597
| 45> C  -23.431   25.260   45.734
| 46> H  -23.621   24.482   46.483
| 47> H  -24.399   25.649   45.390
| 48> O  -22.586   26.394   46.375
| 49> C  -22.727   24.602   44.515
| 50> C  -23.635   23.569   43.838
| 51> C  -24.572   24.475   43.003
| 52> C  -23.642   25.634   42.565
| 53> O  -22.473   25.599   43.470
| 54> H  -21.756   24.213   44.829
| 55> O  -22.796   22.647   42.912
| 56> H  -24.178   22.940   44.552
| 57> H  -25.018   23.953   42.150
| 58> H  -25.389   24.851   43.630
| 59> H  -24.127   26.613   42.644
| 60> H  -23.265   25.505   41.547
| 61> H  -22.244   23.256   42.188
| 62> *
| 63>
| 64>                          ****END OF INPUT****
 Total Charge           Charge          ....    0
 Multiplicity           Mult            ....    1
 Number of Electrons    NEL             ....  102
FINAL SINGLE POINT ENERGY      -652.828029929858
FINAL SINGLE POINT ENERGY      -652.851795204395
FINAL SINGLE POINT ENERGY      -652.855929748087
FINAL SINGLE POINT ENERGY      -652.858241636533
FINAL SINGLE POINT ENERGY      -652.858448641807
FINAL SINGLE POINT ENERGY      -652.858487201850
                    ***********************HURRAY********************

CARTESIAN COORDINATES (ANGSTROEM)
---------------------------------
  C    -20.905145   26.211616   46.193211
  C    -20.372958   27.630998   45.990422
  C    -20.474946   28.216385   47.419256
  C    -20.152015   26.999138   48.315306
  O    -20.342457   25.801886   47.461847
  H    -20.577290   25.487484   45.450346
  H    -19.328109   27.582920   45.661467
  H    -20.955706   28.178917   45.248432
  H    -19.785842   29.049913   47.584910
  H    -21.495382   28.567023   47.599350
  H    -20.810488   26.921224   49.184535
  H    -19.110064   26.983657   48.650091
  C    -23.216064   25.294889   45.678851
  H    -23.451860   24.532937   46.437024
  H    -24.134460   25.842008   45.445751
  O    -22.345290   26.299622   46.272287
  C    -22.692397   24.574901   44.435011
  C    -23.715389   23.590138   43.847135
  C    -24.625745   24.537540   43.017885
  C    -23.629517   25.599444   42.486002
  O    -22.418531   25.505486   43.335411
  H    -21.757713   24.048733   44.646556
  O    -23.059120   22.600863   43.009794
  H    -24.258916   23.014395   44.597041
  H    -25.130267   23.987689   42.220068
  H    -25.388191   24.991179   43.659991
  H    -24.025577   26.617710   42.542339
  H    -23.316396   25.403804   41.455349
  H    -22.408167   23.050501   42.430330

 Multiplicity           Mult            ....    1
 Number of Electrons    NEL             ....  102
 Basis Dimension        Dim             ....  149

ORBITAL ENERGIES
----------------

  NO   OCC          E(Eh)            E(eV)
   0   2.0000     -19.149322      -521.0795
   1   2.0000     -19.144865      -520.9583
   2   2.0000     -19.135936      -520.7153
   3   2.0000     -19.129112      -520.5296
   4   2.0000     -10.270512      -279.4748
   5   2.0000     -10.249817      -278.9117
   6   2.0000     -10.241715      -278.6912
   7   2.0000     -10.237843      -278.5859
   8   2.0000     -10.234230      -278.4876
   9   2.0000     -10.216614      -278.0082
  10   2.0000     -10.196053      -277.4487
  11   2.0000     -10.176596      -276.9193
  12   2.0000     -10.174453      -276.8610
  13   2.0000      -1.047715       -28.5098
  14   2.0000      -1.039515       -28.2867
  15   2.0000      -1.012806       -27.5598
  16   2.0000      -0.985641       -26.8207
  17   2.0000      -0.791970       -21.5506
  18   2.0000      -0.778347       -21.1799
  19   2.0000      -0.768251       -20.9052
  20   2.0000      -0.730186       -19.8694
  21   2.0000      -0.674872       -18.3642
  22   2.0000      -0.611242       -16.6327
  23   2.0000      -0.609861       -16.5952
  24   2.0000      -0.589154       -16.0317
  25   2.0000      -0.566468       -15.4144
  26   2.0000      -0.533476       -14.5166
  27   2.0000      -0.512929       -13.9575
  28   2.0000      -0.492602       -13.4044
  29   2.0000      -0.484855       -13.1936
  30   2.0000      -0.474982       -12.9249
  31   2.0000      -0.456861       -12.4318
  32   2.0000      -0.451529       -12.2867
  33   2.0000      -0.436214       -11.8700
  34   2.0000      -0.430262       -11.7080
  35   2.0000      -0.409299       -11.1376
  36   2.0000      -0.400709       -10.9038
  37   2.0000      -0.394325       -10.7301
  38   2.0000      -0.379713       -10.3325
  39   2.0000      -0.369314       -10.0495
  40   2.0000      -0.361366        -9.8333
  41   2.0000      -0.347919        -9.4674
  42   2.0000      -0.343448        -9.3457
  43   2.0000      -0.336415        -9.1543
  44   2.0000      -0.317764        -8.6468
  45   2.0000      -0.310125        -8.4389
  46   2.0000      -0.299248        -8.1430
  47   2.0000      -0.278493        -7.5782
  48   2.0000      -0.262774        -7.1504
  49   2.0000      -0.248003        -6.7485
  50   2.0000      -0.238145        -6.4803
  51   0.0000       0.059827         1.6280
  52   0.0000       0.083799         2.2803
  53   0.0000       0.088563         2.4099
  54   0.0000       0.092918         2.5284
  55   0.0000       0.099977         2.7205

MULLIKEN ATOMIC CHARGES
-----------------------
   0 C :    0.281176
   1 C :   -0.247349
   2 C :   -0.298656
   3 C :    0.000293
   4 O :   -0.510393
   5 H :    0.154734
   6 H :    0.139150
   7 H :    0.156148
   8 H :    0.135958
   9 H :    0.160264
  10 H :    0.145824
  11 H :    0.137685
  12 C :    0.034337
  13 H :    0.136522
  14 H :    0.145532
  15 O :   -0.529271
  16 C :    0.016396
  17 C :    0.079520
  18 C :   -0.294984
  19 C :   -0.029582
  20 O :   -0.523021
  21 H :    0.174021
  22 O :   -0.598899
  23 H :    0.157246
  24 H :    0.164166
  25 H :    0.147827
  26 H :    0.152259
  27 H :    0.148061
  28 H :    0.365038
Sum of atomic charges:   -0.0000000

LOEWDIN ATOMIC CHARGES
----------------------
   0 C :    0.175596
   1 C :   -0.214684
   2 C :   -0.217080
   3 C :   -0.027168
   4 O :   -0.327009
   5 H :    0.103492
   6 H :    0.110767
   7 H :    0.123665
   8 H :    0.111088
   9 H :    0.118182
  10 H :    0.104450
  11 H :    0.099977
  12 C :   -0.033510
  13 H :    0.100900
  14 H :    0.109715
  15 O :   -0.326067
  16 C :   -0.002924
  17 C :    0.039026
  18 C :   -0.239842
  19 C :   -0.036866
  20 O :   -0.332525
  21 H :    0.117603
  22 O :   -0.411637
  23 H :    0.118254
  24 H :    0.127696
  25 H :    0.114660
  26 H :    0.107296
  27 H :    0.103355
  28 H :    0.283592

  Mayer bond orders larger than 0.100000
B(  0-C ,  1-C ) :   0.9464 B(  0-C ,  4-O ) :   0.9112 B(  0-C ,  5-H ) :   0.9090
B(  0-C , 15-O ) :   0.8482 B(  1-C ,  2-C ) :   0.9570 B(  1-C ,  6-H ) :   0.9402
B(  1-C ,  7-H ) :   0.9371 B(  2-C ,  3-C ) :   0.9542 B(  2-C ,  8-H ) :   0.9459
B(  2-C ,  9-H ) :   0.9442 B(  3-C ,  4-O ) :   0.8417 B(  3-C , 10-H ) :   0.9357
B(  3-C , 11-H ) :   0.9403 B( 12-C , 13-H ) :   0.9100 B( 12-C , 14-H ) :   0.9340
B( 12-C , 15-O ) :   0.8550 B( 12-C , 16-C ) :   0.8952 B( 16-C , 17-C ) :   0.8944
B( 16-C , 20-O ) :   0.8445 B( 16-C , 21-H ) :   0.9146 B( 17-C , 18-C ) :   0.9119
B( 17-C , 22-O ) :   0.8955 B( 17-C , 23-H ) :   0.9319 B( 18-C , 19-C ) :   0.9405
B( 18-C , 24-H ) :   0.9373 B( 18-C , 25-H ) :   0.9332 B( 19-C , 20-O ) :   0.8434
B( 19-C , 26-H ) :   0.9341 B( 19-C , 27-H ) :   0.9376 B( 22-O , 28-H ) :   0.7944

FINAL SINGLE POINT ENERGY      -652.858490019320

DIPOLE MOMENT
-------------
                                X             Y             Z
Electronic contribution:      0.89548      -3.91699      -0.53795
Nuclear contribution   :     -1.44848       4.60293       0.02041
                        -----------------------------------------
Total Dipole Moment    :     -0.55300       0.68593      -0.51754
                        -----------------------------------------
Magnitude (a.u.)       :      1.02184
Magnitude (Debye)      :      2.59731

Rotational constants in cm-1:     0.065814     0.012204     0.011563
Rotational constants in MHz :  1973.050020   365.871580   346.649661

                             ****ORCA TERMINATED NORMALLY****
TOTAL RUN TIME: 0 days 0 hours 20 minutes 7 seconds 719 msec
