                         Program Version 4.2.0 -  RELEASE  -
|  1> # Test redundant internal optimization
|  2> #
|  3> ! RKS B3LYP  Opt TightSCF SmallPrint
|  4>
|  5> %basis
|  6>         Basis "6-31G"
|  7> end
|  8>
|  9> %geom
| 10> Constraints
| 11> { D 4  0  15  12  90.0   C } # D for Dihedral angle
| 12> { D 0  15  12  16  225.0   C } # D for Dihedral angle
| 13> { D 0  4  3  2   C } # D for Dihedral angle
| 14> { D 4  3  2  1   C } # D for Dihedral angle
| 15> { D 3  2  1  0   C } # D for Dihedral angle
| 16> { D 2  1  0  4   C } # D for Dihedral angle
| 17> { D 1  0  4  3   C } # D for Dihedral angle
| 18> { D 16  20  19  18   C } # D for Dihedral angle
| 19> { D 20  19  18  17   C } # D for Dihedral angle
| 20> { D 19  18  17  16   C } # D for Dihedral angle
| 21> { D 18  17  16  20   C } # D for Dihedral angle
| 22> { D 17  16  20  19   C } # D for Dihedral angle
| 23> { D 15  12  16  20   C } # D for Dihedral angle
| 24> end
| 25> end
| 26>
| 27>
| 28> #%pal
| 29> #nprocs 8
| 30> #end
| 31>
| 32> * xyz 0 1
| 33> C  -21.048   26.222   46.251
| 34> C  -20.361   27.558   45.944
| 35> C  -20.329   28.222   47.341
| 36> C  -20.110   27.022   48.296
| 37> O  -20.473   25.807   47.535
| 38> H  -20.833   25.428   45.533
| 39> H  -19.344   27.382   45.576
| 40> H  -20.898   28.157   45.201
| 41> H  -19.543   28.978   47.434
| 42> H  -21.289   28.710   47.548
| 43> H  -20.733   27.082   49.195
| 44> H  -19.064   26.913   48.597
| 45> C  -23.061   27.816   46.783
| 46> H  -22.205   28.387   47.164
| 47> H  -23.470   28.348   45.915
| 48> O  -22.586   26.394   46.375
| 49> C  -24.159   27.789   47.882
| 50> C  -23.618   27.213   49.196
| 51> C  -22.848   28.423   49.776
| 52> C  -23.709   29.633   49.332
| 53> O  -24.569   29.154   48.229
| 54> H  -25.042   27.279   47.494
| 55> O  -24.795   26.814   50.127
| 56> H  -22.981   26.334   49.050
| 57> H  -22.732   28.370   50.863
| 58> H  -21.846   28.478   49.334
| 59> H  -23.101   30.471   48.976
| 60> H  -24.370   29.988   50.127
| 61> H  -25.448   27.680   50.288
| 62> *
| 63>
| 64>                          ****END OF INPUT****
 Total Charge           Charge          ....    0
 Multiplicity           Mult            ....    1
 Number of Electrons    NEL             ....  102
FINAL SINGLE POINT ENERGY      -652.780774975214
FINAL SINGLE POINT ENERGY      -652.829112944959
FINAL SINGLE POINT ENERGY      -652.849916430103
FINAL SINGLE POINT ENERGY      -652.854186060608
FINAL SINGLE POINT ENERGY      -652.854837939858
FINAL SINGLE POINT ENERGY      -652.855010159241
FINAL SINGLE POINT ENERGY      -652.855041961088
FINAL SINGLE POINT ENERGY      -652.855051069203
FINAL SINGLE POINT ENERGY      -652.855051233383
                    ***********************HURRAY********************

CARTESIAN COORDINATES (ANGSTROEM)
---------------------------------
  C    -21.201928   26.354347   46.405307
  C    -20.224584   27.391054   45.827557
  C    -19.774122   28.162799   47.104995
  C    -19.750880   27.043461   48.178495
  O    -20.564758   25.930276   47.635561
  H    -21.256117   25.448519   45.799179
  H    -19.378793   26.857721   45.383291
  H    -20.676314   28.031473   45.065159
  H    -18.788722   28.623358   46.982467
  H    -20.475139   28.961242   47.360307
  H    -20.165206   27.357144   49.140753
  H    -18.743544   26.649148   48.339951
  C    -23.128841   28.007452   46.857439
  H    -22.364598   28.697736   47.224168
  H    -23.574156   28.438497   45.954876
  O    -22.593876   26.688091   46.541340
  C    -24.211498   27.815045   47.923435
  C    -23.716831   27.239438   49.259239
  C    -23.121841   28.497896   49.942206
  C    -24.064338   29.633920   49.472271
  O    -24.786387   29.117550   48.281588
  H    -25.020565   27.203126   47.516097
  O    -24.827750   26.695717   50.025897
  H    -23.006803   26.423171   49.135362
  H    -23.109693   28.375206   51.028376
  H    -22.093675   28.668085   49.605188
  H    -23.529416   30.547616   49.194485
  H    -24.821254   29.888100   50.220521
  H    -25.593371   27.304811   49.956489

 Multiplicity           Mult            ....    1
 Number of Electrons    NEL             ....  102
 Basis Dimension        Dim             ....  149

ORBITAL ENERGIES
----------------

  NO   OCC          E(Eh)            E(eV)
   0   2.0000     -19.147740      -521.0365
   1   2.0000     -19.146394      -520.9999
   2   2.0000     -19.145561      -520.9772
   3   2.0000     -19.132215      -520.6140
   4   2.0000     -10.284429      -279.8535
   5   2.0000     -10.235335      -278.5176
   6   2.0000     -10.234731      -278.5012
   7   2.0000     -10.233011      -278.4544
   8   2.0000     -10.232412      -278.4381
   9   2.0000     -10.231447      -278.4118
  10   2.0000     -10.201168      -277.5879
  11   2.0000     -10.199297      -277.5370
  12   2.0000     -10.188680      -277.2481
  13   2.0000      -1.054972       -28.7072
  14   2.0000      -1.035154       -28.1680
  15   2.0000      -1.003044       -27.2942
  16   2.0000      -1.000031       -27.2122
  17   2.0000      -0.795415       -21.6443
  18   2.0000      -0.782449       -21.2915
  19   2.0000      -0.771799       -21.0017
  20   2.0000      -0.735506       -20.0141
  21   2.0000      -0.682639       -18.5755
  22   2.0000      -0.611641       -16.6436
  23   2.0000      -0.603837       -16.4312
  24   2.0000      -0.598507       -16.2862
  25   2.0000      -0.577313       -15.7095
  26   2.0000      -0.526757       -14.3338
  27   2.0000      -0.511996       -13.9321
  28   2.0000      -0.508281       -13.8310
  29   2.0000      -0.495478       -13.4826
  30   2.0000      -0.476594       -12.9688
  31   2.0000      -0.457002       -12.4357
  32   2.0000      -0.451773       -12.2934
  33   2.0000      -0.439070       -11.9477
  34   2.0000      -0.429827       -11.6962
  35   2.0000      -0.420035       -11.4297
  36   2.0000      -0.411758       -11.2045
  37   2.0000      -0.391572       -10.6552
  38   2.0000      -0.389625       -10.6022
  39   2.0000      -0.369757       -10.0616
  40   2.0000      -0.366026        -9.9601
  41   2.0000      -0.362649        -9.8682
  42   2.0000      -0.351394        -9.5619
  43   2.0000      -0.332587        -9.0502
  44   2.0000      -0.320528        -8.7220
  45   2.0000      -0.304610        -8.2889
  46   2.0000      -0.298092        -8.1115
  47   2.0000      -0.280060        -7.6208
  48   2.0000      -0.264499        -7.1974
  49   2.0000      -0.259556        -7.0629
  50   2.0000      -0.244574        -6.6552
  51   0.0000       0.049172         1.3380
  52   0.0000       0.065116         1.7719
  53   0.0000       0.086436         2.3521
  54   0.0000       0.094299         2.5660
  55   0.0000       0.102788         2.7970

MULLIKEN ATOMIC CHARGES
-----------------------
   0 C :    0.308013
   1 C :   -0.287700
   2 C :   -0.314925
   3 C :   -0.013231
   4 O :   -0.500152
   5 H :    0.169736
   6 H :    0.161579
   7 H :    0.151775
   8 H :    0.148173
   9 H :    0.147249
  10 H :    0.146339
  11 H :    0.150945
  12 C :   -0.011791
  13 H :    0.122837
  14 H :    0.155340
  15 O :   -0.527981
  16 C :    0.064094
  17 C :    0.076991
  18 C :   -0.309940
  19 C :   -0.030476
  20 O :   -0.529054
  21 H :    0.171544
  22 O :   -0.600149
  23 H :    0.191716
  24 H :    0.166207
  25 H :    0.140582
  26 H :    0.141850
  27 H :    0.149074
  28 H :    0.361355
Sum of atomic charges:   -0.0000000

LOEWDIN ATOMIC CHARGES
----------------------
   0 C :    0.176170
   1 C :   -0.228569
   2 C :   -0.223040
   3 C :   -0.034854
   4 O :   -0.320882
   5 H :    0.113726
   6 H :    0.125537
   7 H :    0.119594
   8 H :    0.117295
   9 H :    0.105257
  10 H :    0.100921
  11 H :    0.106570
  12 C :   -0.038904
  13 H :    0.092936
  14 H :    0.110889
  15 O :   -0.322088
  16 C :    0.016342
  17 C :    0.035202
  18 C :   -0.245109
  19 C :   -0.039175
  20 O :   -0.332597
  21 H :    0.120655
  22 O :   -0.412586
  23 H :    0.134118
  24 H :    0.128409
  25 H :    0.108279
  26 H :    0.101496
  27 H :    0.104002
  28 H :    0.280406

  Mayer bond orders larger than 0.100000
B(  0-C ,  1-C ) :   0.9217 B(  0-C ,  4-O ) :   0.8934 B(  0-C ,  5-H ) :   0.9353
B(  0-C , 15-O ) :   0.9035 B(  1-C ,  2-C ) :   0.9535 B(  1-C ,  6-H ) :   0.9347
B(  1-C ,  7-H ) :   0.9361 B(  2-C ,  3-C ) :   0.9466 B(  2-C ,  8-H ) :   0.9442
B(  2-C ,  9-H ) :   0.9351 B(  3-C ,  4-O ) :   0.8489 B(  3-C , 10-H ) :   0.9269
B(  3-C , 11-H ) :   0.9378 B( 12-C , 13-H ) :   0.9073 B( 12-C , 14-H ) :   0.9277
B( 12-C , 15-O ) :   0.8212 B( 12-C , 16-C ) :   0.8992 B( 16-C , 17-C ) :   0.9106
B( 16-C , 20-O ) :   0.8394 B( 16-C , 21-H ) :   0.9249 B( 17-C , 18-C ) :   0.9126
B( 17-C , 22-O ) :   0.8890 B( 17-C , 23-H ) :   0.9131 B( 18-C , 19-C ) :   0.9392
B( 18-C , 24-H ) :   0.9371 B( 18-C , 25-H ) :   0.9289 B( 19-C , 20-O ) :   0.8451
B( 19-C , 26-H ) :   0.9359 B( 19-C , 27-H ) :   0.9377 B( 22-O , 28-H ) :   0.7960

FINAL SINGLE POINT ENERGY      -652.855049913986

DIPOLE MOMENT
-------------
                                X             Y             Z
Electronic contribution:     -5.44637      -4.43452      -0.58895
Nuclear contribution   :      6.67993       5.85139       0.29626
                        -----------------------------------------
Total Dipole Moment    :      1.23356       1.41687      -0.29270
                        -----------------------------------------
Magnitude (a.u.)       :      1.90128
Magnitude (Debye)      :      4.83267

Rotational constants in cm-1:     0.045664     0.015975     0.015782
Rotational constants in MHz :  1368.980162   478.928209   473.141159

                             ****ORCA TERMINATED NORMALLY****
TOTAL RUN TIME: 0 days 0 hours 33 minutes 29 seconds 697 msec
