                         Program Version 4.2.0 -  RELEASE  -
|  1> # Test redundant internal optimization
|  2> #
|  3> ! RKS B3LYP  Opt TightSCF SmallPrint
|  4>
|  5> %basis
|  6>         Basis "6-31G"
|  7> end
|  8>
|  9> %geom
| 10> Constraints
| 11> { D 4  0  15  12  315.0   C } # D for Dihedral angle
| 12> { D 0  15  12  16  315.0   C } # D for Dihedral angle
| 13> { D 0  4  3  2   C } # D for Dihedral angle
| 14> { D 4  3  2  1   C } # D for Dihedral angle
| 15> { D 3  2  1  0   C } # D for Dihedral angle
| 16> { D 2  1  0  4   C } # D for Dihedral angle
| 17> { D 1  0  4  3   C } # D for Dihedral angle
| 18> { D 16  20  19  18   C } # D for Dihedral angle
| 19> { D 20  19  18  17   C } # D for Dihedral angle
| 20> { D 19  18  17  16   C } # D for Dihedral angle
| 21> { D 18  17  16  20   C } # D for Dihedral angle
| 22> { D 17  16  20  19   C } # D for Dihedral angle
| 23> { D 15  12  16  20   C } # D for Dihedral angle
| 24> end
| 25> end
| 26>
| 27>
| 28> #%pal
| 29> #nprocs 8
| 30> #end
| 31>
| 32> * xyz 0 1
| 33> C  -21.048   26.222   46.251
| 34> C  -20.361   27.558   45.944
| 35> C  -20.329   28.222   47.341
| 36> C  -20.110   27.022   48.296
| 37> O  -20.473   25.807   47.535
| 38> H  -20.833   25.428   45.533
| 39> H  -19.344   27.382   45.576
| 40> H  -20.898   28.157   45.201
| 41> H  -19.543   28.978   47.434
| 42> H  -21.289   28.710   47.548
| 43> H  -20.733   27.082   49.195
| 44> H  -19.064   26.913   48.597
| 45> C  -23.319   25.255   47.135
| 46> H  -23.138   25.363   48.212
| 47> H  -24.401   25.311   46.961
| 48> O  -22.586   26.394   46.375
| 49> C  -22.844   23.840   46.700
| 50> C  -21.373   23.611   47.064
| 51> C  -21.470   23.283   48.573
| 52> C  -22.804   22.502   48.678
| 53> O  -23.566   22.805   47.447
| 54> H  -23.077   23.694   45.644
| 55> O  -20.812   22.397   46.274
| 56> H  -20.737   24.479   46.858
| 57> H  -20.617   22.703   48.937
| 58> H  -21.518   24.210   49.157
| 59> H  -23.397   22.800   49.549
| 60> H  -22.653   21.420   48.705
| 61> H  -21.433   21.514   46.466
| 62> *
| 63>
| 64>                          ****END OF INPUT****
 Total Charge           Charge          ....    0
 Multiplicity           Mult            ....    1
 Number of Electrons    NEL             ....  102
FINAL SINGLE POINT ENERGY      -652.798458321050
FINAL SINGLE POINT ENERGY      -652.838475543015
FINAL SINGLE POINT ENERGY      -652.858521405829
FINAL SINGLE POINT ENERGY      -652.861595233410
FINAL SINGLE POINT ENERGY      -652.862115410390
FINAL SINGLE POINT ENERGY      -652.862203346343
FINAL SINGLE POINT ENERGY      -652.862225724243
                    ***********************HURRAY********************

CARTESIAN COORDINATES (ANGSTROEM)
---------------------------------
  C    -20.918071   26.336933   46.221586
  C    -20.481351   27.782056   45.971917
  C    -20.504531   28.368419   47.401890
  C    -20.047823   27.181644   48.280305
  O    -20.236800   25.961615   47.447893
  H    -20.595626   25.615338   45.465663
  H    -19.467777   27.784563   45.555547
  H    -21.154046   28.297090   45.283589
  H    -19.850071   29.238225   47.511118
  H    -21.524629   28.667469   47.658112
  H    -20.632334   27.076234   49.198035
  H    -18.984444   27.222838   48.532821
  C    -23.068502   25.247762   47.009052
  H    -22.998707   25.397330   48.094502
  H    -24.107103   25.402094   46.712513
  O    -22.346896   26.335682   46.348429
  C    -22.710112   23.775183   46.707022
  C    -21.319240   23.219679   47.057704
  C    -21.436363   23.019389   48.595144
  C    -22.914471   22.591441   48.776893
  O    -23.630853   22.990098   47.542849
  H    -22.947150   23.539020   45.664695
  O    -21.119247   21.954926   46.359185
  H    -20.475147   23.843005   46.789230
  H    -20.728277   22.262625   48.941478
  H    -21.217666   23.964433   49.099152
  H    -23.395308   23.070414   49.635182
  H    -23.027865   21.506788   48.876878
  H    -21.929592   21.409709   46.447613

 Multiplicity           Mult            ....    1
 Number of Electrons    NEL             ....  102
 Basis Dimension        Dim             ....  149

ORBITAL ENERGIES
----------------

  NO   OCC          E(Eh)            E(eV)
   0   2.0000     -19.151958      -521.1513
   1   2.0000     -19.143222      -520.9136
   2   2.0000     -19.142944      -520.9060
   3   2.0000     -19.129658      -520.5445
   4   2.0000     -10.283150      -279.8187
   5   2.0000     -10.233545      -278.4689
   6   2.0000     -10.231563      -278.4150
   7   2.0000     -10.229093      -278.3478
   8   2.0000     -10.228678      -278.3365
   9   2.0000     -10.227651      -278.3085
  10   2.0000     -10.189850      -277.2799
  11   2.0000     -10.188528      -277.2440
  12   2.0000     -10.179189      -276.9898
  13   2.0000      -1.058325       -28.7985
  14   2.0000      -1.033231       -28.1156
  15   2.0000      -0.999652       -27.2019
  16   2.0000      -0.995228       -27.0815
  17   2.0000      -0.793636       -21.5959
  18   2.0000      -0.769300       -20.9337
  19   2.0000      -0.764283       -20.7972
  20   2.0000      -0.737082       -20.0570
  21   2.0000      -0.673543       -18.3280
  22   2.0000      -0.606306       -16.4984
  23   2.0000      -0.600852       -16.3500
  24   2.0000      -0.594523       -16.1778
  25   2.0000      -0.572062       -15.5666
  26   2.0000      -0.522783       -14.2256
  27   2.0000      -0.513610       -13.9760
  28   2.0000      -0.503772       -13.7083
  29   2.0000      -0.478839       -13.0299
  30   2.0000      -0.468673       -12.7532
  31   2.0000      -0.456003       -12.4085
  32   2.0000      -0.454162       -12.3584
  33   2.0000      -0.429769       -11.6946
  34   2.0000      -0.417975       -11.3737
  35   2.0000      -0.414304       -11.2738
  36   2.0000      -0.406469       -11.0606
  37   2.0000      -0.386560       -10.5188
  38   2.0000      -0.376449       -10.2437
  39   2.0000      -0.363404        -9.8887
  40   2.0000      -0.361101        -9.8261
  41   2.0000      -0.355015        -9.6604
  42   2.0000      -0.351175        -9.5559
  43   2.0000      -0.336159        -9.1473
  44   2.0000      -0.323544        -8.8041
  45   2.0000      -0.307085        -8.3562
  46   2.0000      -0.299795        -8.1578
  47   2.0000      -0.273772        -7.4497
  48   2.0000      -0.264602        -7.2002
  49   2.0000      -0.257580        -7.0091
  50   2.0000      -0.239710        -6.5228
  51   0.0000       0.068177         1.8552
  52   0.0000       0.071632         1.9492
  53   0.0000       0.093900         2.5551
  54   0.0000       0.099865         2.7175
  55   0.0000       0.108977         2.9654

MULLIKEN ATOMIC CHARGES
-----------------------
   0 C :    0.289637
   1 C :   -0.257738
   2 C :   -0.298551
   3 C :   -0.007199
   4 O :   -0.528064
   5 H :    0.153618
   6 H :    0.146087
   7 H :    0.164192
   8 H :    0.143121
   9 H :    0.163055
  10 H :    0.145716
  11 H :    0.149152
  12 C :    0.012310
  13 H :    0.132014
  14 H :    0.167739
  15 O :   -0.534325
  16 C :    0.028586
  17 C :    0.080820
  18 C :   -0.295024
  19 C :   -0.036261
  20 O :   -0.527509
  21 H :    0.158202
  22 O :   -0.608086
  23 H :    0.192210
  24 H :    0.157093
  25 H :    0.160483
  26 H :    0.143500
  27 H :    0.144840
  28 H :    0.360379
Sum of atomic charges:   -0.0000000

LOEWDIN ATOMIC CHARGES
----------------------
   0 C :    0.172157
   1 C :   -0.212049
   2 C :   -0.215208
   3 C :   -0.028921
   4 O :   -0.335399
   5 H :    0.098202
   6 H :    0.114367
   7 H :    0.128164
   8 H :    0.115011
   9 H :    0.119733
  10 H :    0.103623
  11 H :    0.105838
  12 C :   -0.038447
  13 H :    0.096072
  14 H :    0.124296
  15 O :   -0.331263
  16 C :    0.005803
  17 C :    0.032637
  18 C :   -0.238324
  19 C :   -0.041764
  20 O :   -0.329705
  21 H :    0.112302
  22 O :   -0.419291
  23 H :    0.133008
  24 H :    0.124438
  25 H :    0.121581
  26 H :    0.102512
  27 H :    0.101241
  28 H :    0.279386

  Mayer bond orders larger than 0.100000
B(  0-C ,  1-C ) :   0.9482 B(  0-C ,  4-O ) :   0.8692 B(  0-C ,  5-H ) :   0.9171
B(  0-C , 15-O ) :   0.8672 B(  1-C ,  2-C ) :   0.9542 B(  1-C ,  6-H ) :   0.9393
B(  1-C ,  7-H ) :   0.9356 B(  2-C ,  3-C ) :   0.9560 B(  2-C ,  8-H ) :   0.9449
B(  2-C ,  9-H ) :   0.9436 B(  3-C ,  4-O ) :   0.8253 B(  3-C , 10-H ) :   0.9356
B(  3-C , 11-H ) :   0.9403 B( 12-C , 13-H ) :   0.9268 B( 12-C , 14-H ) :   0.9328
B( 12-C , 15-O ) :   0.8298 B( 12-C , 16-C ) :   0.8841 B( 16-C , 17-C ) :   0.9119
B( 16-C , 20-O ) :   0.8222 B( 16-C , 21-H ) :   0.9256 B( 17-C , 18-C ) :   0.9149
B( 17-C , 22-O ) :   0.8698 B( 17-C , 23-H ) :   0.9073 B( 18-C , 19-C ) :   0.9422
B( 18-C , 24-H ) :   0.9384 B( 18-C , 25-H ) :   0.9280 B( 19-C , 20-O ) :   0.8387
B( 19-C , 26-H ) :   0.9364 B( 19-C , 27-H ) :   0.9376 B( 22-O , 28-H ) :   0.7961

FINAL SINGLE POINT ENERGY      -652.862232919220

DIPOLE MOMENT
-------------
                                X             Y             Z
Electronic contribution:     -2.10724      -3.86733      -3.17420
Nuclear contribution   :      2.41991       4.75060       3.87827
                        -----------------------------------------
Total Dipole Moment    :      0.31267       0.88326       0.70407
                        -----------------------------------------
Magnitude (a.u.)       :      1.17202
Magnitude (Debye)      :      2.97903

Rotational constants in cm-1:     0.051514     0.015472     0.014996
Rotational constants in MHz :  1544.337288   463.828099   449.579172

                             ****ORCA TERMINATED NORMALLY****
TOTAL RUN TIME: 0 days 0 hours 53 minutes 39 seconds 789 msec
