                         Program Version 4.2.0 -  RELEASE  -
|  1> # Test redundant internal optimization
|  2> #
|  3> ! RKS B3LYP  Opt TightSCF SmallPrint
|  4>
|  5> %basis
|  6>         Basis "6-31G"
|  7> end
|  8>
|  9> %geom
| 10> Constraints
| 11> { D 4  0  15  12  285.0   C } # D for Dihedral angle
| 12> { D 0  15  12  16  120.0   C } # D for Dihedral angle
| 13> { D 0  4  3  2   C } # D for Dihedral angle
| 14> { D 4  3  2  1   C } # D for Dihedral angle
| 15> { D 3  2  1  0   C } # D for Dihedral angle
| 16> { D 2  1  0  4   C } # D for Dihedral angle
| 17> { D 1  0  4  3   C } # D for Dihedral angle
| 18> { D 16  20  19  18   C } # D for Dihedral angle
| 19> { D 20  19  18  17   C } # D for Dihedral angle
| 20> { D 19  18  17  16   C } # D for Dihedral angle
| 21> { D 18  17  16  20   C } # D for Dihedral angle
| 22> { D 17  16  20  19   C } # D for Dihedral angle
| 23> { D 15  12  16  20   C } # D for Dihedral angle
| 24> end
| 25> end
| 26>
| 27>
| 28> #%pal
| 29> #nprocs 8
| 30> #end
| 31>
| 32> * xyz 0 1
| 33> C  -21.048   26.222   46.251
| 34> C  -20.361   27.558   45.944
| 35> C  -20.329   28.222   47.341
| 36> C  -20.110   27.022   48.296
| 37> O  -20.473   25.807   47.535
| 38> H  -20.833   25.428   45.533
| 39> H  -19.344   27.382   45.576
| 40> H  -20.898   28.157   45.201
| 41> H  -19.543   28.978   47.434
| 42> H  -21.289   28.710   47.548
| 43> H  -20.733   27.082   49.195
| 44> H  -19.064   26.913   48.597
| 45> C  -23.396   25.070   46.435
| 46> H  -24.090   25.031   45.586
| 47> H  -22.723   24.205   46.368
| 48> O  -22.586   26.394   46.375
| 49> C  -24.219   24.928   47.746
| 50> C  -24.911   23.563   47.823
| 51> C  -23.749   22.646   48.272
| 52> C  -22.924   23.559   49.213
| 53> O  -23.331   24.949   48.913
| 54> H  -24.892   25.783   47.840
| 55> O  -26.032   23.594   48.899
| 56> H  -25.355   23.252   46.871
| 57> H  -24.095   21.736   48.771
| 58> H  -23.150   22.345   47.404
| 59> H  -21.844   23.459   49.054
| 60> H  -23.145   23.379   50.269
| 61> H  -25.609   23.904   49.861
| 62> *
| 63>
| 64>                          ****END OF INPUT****
 Total Charge           Charge          ....    0
 Multiplicity           Mult            ....    1
 Number of Electrons    NEL             ....  102
FINAL SINGLE POINT ENERGY      -652.836929141502
FINAL SINGLE POINT ENERGY      -652.861189582112
FINAL SINGLE POINT ENERGY      -652.865398930783
FINAL SINGLE POINT ENERGY      -652.866128779879
FINAL SINGLE POINT ENERGY      -652.866217743786
FINAL SINGLE POINT ENERGY      -652.866231305783
FINAL SINGLE POINT ENERGY      -652.866233702379
                    ***********************HURRAY********************

CARTESIAN COORDINATES (ANGSTROEM)
---------------------------------
  C    -21.066045   26.143357   46.213420
  C    -20.522073   27.554532   45.995067
  C    -20.527812   28.123578   47.432656
  C    -20.173845   26.891554   48.295712
  O    -20.437934   25.708402   47.438342
  H    -20.820112   25.396613   45.452255
  H    -19.501044   27.493142   45.600482
  H    -21.138768   28.128133   45.300321
  H    -19.814323   28.943023   47.562887
  H    -21.528929   28.488083   47.678025
  H    -20.792960   26.804566   49.190262
  H    -19.114618   26.850724   48.567497
  C    -23.271864   25.057793   46.381815
  H    -23.984647   25.082331   45.546639
  H    -22.611052   24.190450   46.258157
  O    -22.499208   26.287017   46.347142
  C    -24.040720   24.969677   47.703657
  C    -24.834170   23.663738   47.850286
  C    -23.738706   22.678641   48.338638
  C    -22.840528   23.573480   49.230464
  O    -23.147032   24.976047   48.861652
  H    -24.683432   25.849102   47.801335
  O    -25.901118   23.809462   48.828521
  H    -25.329256   23.339028   46.933602
  H    -24.187815   21.843785   48.882041
  H    -23.179960   22.275144   47.487352
  H    -21.772798   23.402733   49.068426
  H    -23.063438   23.462242   50.296703
  H    -25.551789   24.291621   49.607645

 Multiplicity           Mult            ....    1
 Number of Electrons    NEL             ....  102
 Basis Dimension        Dim             ....  149

ORBITAL ENERGIES
----------------

  NO   OCC          E(Eh)            E(eV)
   0   2.0000     -19.139844      -520.8216
   1   2.0000     -19.137713      -520.7637
   2   2.0000     -19.136579      -520.7328
   3   2.0000     -19.132127      -520.6116
   4   2.0000     -10.274764      -279.5905
   5   2.0000     -10.240792      -278.6661
   6   2.0000     -10.230620      -278.3893
   7   2.0000     -10.230485      -278.3856
   8   2.0000     -10.224948      -278.2350
   9   2.0000     -10.214966      -277.9633
  10   2.0000     -10.187167      -277.2069
  11   2.0000     -10.179313      -276.9932
  12   2.0000     -10.177335      -276.9394
  13   2.0000      -1.049615       -28.5615
  14   2.0000      -1.032567       -28.0976
  15   2.0000      -1.003223       -27.2991
  16   2.0000      -0.988495       -26.8983
  17   2.0000      -0.786641       -21.4056
  18   2.0000      -0.777290       -21.1511
  19   2.0000      -0.762124       -20.7385
  20   2.0000      -0.725188       -19.7334
  21   2.0000      -0.669783       -18.2257
  22   2.0000      -0.601286       -16.3618
  23   2.0000      -0.591568       -16.0974
  24   2.0000      -0.588157       -16.0046
  25   2.0000      -0.581417       -15.8212
  26   2.0000      -0.523054       -14.2330
  27   2.0000      -0.509611       -13.8672
  28   2.0000      -0.488480       -13.2922
  29   2.0000      -0.481250       -13.0955
  30   2.0000      -0.474885       -12.9223
  31   2.0000      -0.454044       -12.3552
  32   2.0000      -0.449120       -12.2212
  33   2.0000      -0.431314       -11.7366
  34   2.0000      -0.423241       -11.5170
  35   2.0000      -0.402729       -10.9588
  36   2.0000      -0.395803       -10.7704
  37   2.0000      -0.390435       -10.6243
  38   2.0000      -0.372576       -10.1383
  39   2.0000      -0.369577       -10.0567
  40   2.0000      -0.352165        -9.5829
  41   2.0000      -0.348313        -9.4781
  42   2.0000      -0.341581        -9.2949
  43   2.0000      -0.329623        -8.9695
  44   2.0000      -0.321807        -8.7568
  45   2.0000      -0.304029        -8.2731
  46   2.0000      -0.295564        -8.0427
  47   2.0000      -0.270019        -7.3476
  48   2.0000      -0.266429        -7.2499
  49   2.0000      -0.248609        -6.7650
  50   2.0000      -0.234404        -6.3785
  51   0.0000       0.069249         1.8844
  52   0.0000       0.089030         2.4226
  53   0.0000       0.090848         2.4721
  54   0.0000       0.102544         2.7904
  55   0.0000       0.110515         3.0073

MULLIKEN ATOMIC CHARGES
-----------------------
   0 C :    0.283394
   1 C :   -0.260957
   2 C :   -0.297785
   3 C :   -0.001320
   4 O :   -0.509688
   5 H :    0.138207
   6 H :    0.140912
   7 H :    0.154092
   8 H :    0.136266
   9 H :    0.165616
  10 H :    0.165090
  11 H :    0.134304
  12 C :   -0.004817
  13 H :    0.138375
  14 H :    0.132902
  15 O :   -0.512786
  16 C :    0.076082
  17 C :    0.075779
  18 C :   -0.294739
  19 C :   -0.033955
  20 O :   -0.511036
  21 H :    0.166032
  22 O :   -0.603196
  23 H :    0.148259
  24 H :    0.160578
  25 H :    0.141681
  26 H :    0.166049
  27 H :    0.142037
  28 H :    0.364624
Sum of atomic charges:   -0.0000000

LOEWDIN ATOMIC CHARGES
----------------------
   0 C :    0.172752
   1 C :   -0.215853
   2 C :   -0.215068
   3 C :   -0.027218
   4 O :   -0.326828
   5 H :    0.094388
   6 H :    0.111602
   7 H :    0.122433
   8 H :    0.110999
   9 H :    0.120928
  10 H :    0.114950
  11 H :    0.098688
  12 C :   -0.042253
  13 H :    0.104024
  14 H :    0.099998
  15 O :   -0.322166
  16 C :    0.014455
  17 C :    0.033495
  18 C :   -0.240306
  19 C :   -0.040274
  20 O :   -0.320941
  21 H :    0.118961
  22 O :   -0.415332
  23 H :    0.113548
  24 H :    0.125824
  25 H :    0.111769
  26 H :    0.114041
  27 H :    0.100272
  28 H :    0.283111

  Mayer bond orders larger than 0.100000
B(  0-C ,  1-C ) :   0.9514 B(  0-C ,  4-O ) :   0.9141 B(  0-C ,  5-H ) :   0.9201
B(  0-C , 15-O ) :   0.8611 B(  1-C ,  2-C ) :   0.9579 B(  1-C ,  6-H ) :   0.9410
B(  1-C ,  7-H ) :   0.9368 B(  2-C ,  3-C ) :   0.9573 B(  2-C ,  8-H ) :   0.9455
B(  2-C ,  9-H ) :   0.9433 B(  3-C ,  4-O ) :   0.8304 B(  3-C , 10-H ) :   0.9291
B(  3-C , 11-H ) :   0.9404 B( 12-C , 13-H ) :   0.9235 B( 12-C , 14-H ) :   0.9195
B( 12-C , 15-O ) :   0.8459 B( 12-C , 16-C ) :   0.8915 B( 16-C , 17-C ) :   0.8959
B( 16-C , 20-O ) :   0.8708 B( 16-C , 21-H ) :   0.9261 B( 17-C , 18-C ) :   0.9114
B( 17-C , 22-O ) :   0.8919 B( 17-C , 23-H ) :   0.9339 B( 18-C , 19-C ) :   0.9406
B( 18-C , 24-H ) :   0.9378 B( 18-C , 25-H ) :   0.9340 B( 19-C , 20-O ) :   0.8455
B( 19-C , 26-H ) :   0.9278 B( 19-C , 27-H ) :   0.9376 B( 22-O , 28-H ) :   0.7941

FINAL SINGLE POINT ENERGY      -652.866233784498

DIPOLE MOMENT
-------------
                                X             Y             Z
Electronic contribution:     -2.98425      -0.62835       0.42353
Nuclear contribution   :      3.59454       0.50332      -0.75457
                        -----------------------------------------
Total Dipole Moment    :      0.61028      -0.12504      -0.33104
                        -----------------------------------------
Magnitude (a.u.)       :      0.70545
Magnitude (Debye)      :      1.79312

Rotational constants in cm-1:     0.059165     0.014595     0.013596
Rotational constants in MHz :  1773.708171   437.543362   407.589018

                             ****ORCA TERMINATED NORMALLY****
TOTAL RUN TIME: 0 days 0 hours 26 minutes 37 seconds 589 msec
