                         Program Version 4.2.0 -  RELEASE  -
|  1> # Test redundant internal optimization
|  2> #
|  3> ! RKS B3LYP  Opt TightSCF SmallPrint
|  4>
|  5> %basis
|  6>         Basis "6-31G"
|  7> end
|  8>
|  9> %geom
| 10> Constraints
| 11> { D 4  0  15  12  210.0   C } # D for Dihedral angle
| 12> { D 0  15  12  16  195.0   C } # D for Dihedral angle
| 13> { D 0  4  3  2   C } # D for Dihedral angle
| 14> { D 4  3  2  1   C } # D for Dihedral angle
| 15> { D 3  2  1  0   C } # D for Dihedral angle
| 16> { D 2  1  0  4   C } # D for Dihedral angle
| 17> { D 1  0  4  3   C } # D for Dihedral angle
| 18> { D 16  20  19  18   C } # D for Dihedral angle
| 19> { D 20  19  18  17   C } # D for Dihedral angle
| 20> { D 19  18  17  16   C } # D for Dihedral angle
| 21> { D 18  17  16  20   C } # D for Dihedral angle
| 22> { D 17  16  20  19   C } # D for Dihedral angle
| 23> { D 15  12  16  20   C } # D for Dihedral angle
| 24> end
| 25> end
| 26>
| 27>
| 28> #%pal
| 29> #nprocs 8
| 30> #end
| 31>
| 32> * xyz 0 1
| 33> C  -21.048   26.222   46.251
| 34> C  -20.361   27.558   45.944
| 35> C  -20.329   28.222   47.341
| 36> C  -20.110   27.022   48.296
| 37> O  -20.473   25.807   47.535
| 38> H  -20.833   25.428   45.533
| 39> H  -19.344   27.382   45.576
| 40> H  -20.898   28.157   45.201
| 41> H  -19.543   28.978   47.434
| 42> H  -21.289   28.710   47.548
| 43> H  -20.733   27.082   49.195
| 44> H  -19.064   26.913   48.597
| 45> C  -23.389   26.110   45.076
| 46> H  -22.885   26.588   44.227
| 47> H  -23.438   25.031   44.883
| 48> O  -22.586   26.394   46.375
| 49> C  -24.847   26.645   45.142
| 50> C  -25.642   26.248   43.894
| 51> C  -26.004   24.776   44.209
| 52> C  -26.223   24.788   45.742
| 53> O  -25.574   26.016   46.250
| 54> H  -24.825   27.719   45.342
| 55> H  -26.548   26.860   43.814
| 56> O  -24.831   26.400   42.579
| 57> H  -26.889   24.431   43.664
| 58> H  -25.169   24.118   43.943
| 59> H  -25.778   23.917   46.236
| 60> H  -27.281   24.847   46.013
| 61> H  -23.919   25.795   42.635
| 62> *
| 63>
| 64>                          ****END OF INPUT****
 Total Charge           Charge          ....    0
 Multiplicity           Mult            ....    1
 Number of Electrons    NEL             ....  102
FINAL SINGLE POINT ENERGY      -652.824690766945
FINAL SINGLE POINT ENERGY      -652.848892616725
FINAL SINGLE POINT ENERGY      -652.853233751878
FINAL SINGLE POINT ENERGY      -652.854034758067
FINAL SINGLE POINT ENERGY      -652.854224888327
FINAL SINGLE POINT ENERGY      -652.854262187766
FINAL SINGLE POINT ENERGY      -652.854269296090
FINAL SINGLE POINT ENERGY      -652.854270436643
                    ***********************HURRAY********************

CARTESIAN COORDINATES (ANGSTROEM)
---------------------------------
  C    -21.055938   26.198646   46.195457
  C    -20.407788   27.554640   45.925492
  C    -20.479208   28.226140   47.317307
  C    -20.268897   27.041678   48.283696
  O    -20.549275   25.818660   47.483938
  H    -20.793560   25.399766   45.493490
  H    -19.366421   27.407635   45.614225
  H    -20.924493   28.124887   45.148183
  H    -19.727618   29.010759   47.445152
  H    -21.470619   28.665600   47.460746
  H    -20.946044   27.058421   49.140701
  H    -19.236366   26.954583   48.634867
  C    -23.215036   26.035143   45.053737
  H    -22.743495   26.534142   44.192985
  H    -23.204085   24.948096   44.875466
  O    -22.503503   26.330979   46.281412
  C    -24.638777   26.569394   45.184614
  C    -25.518390   26.282197   43.957160
  C    -26.004958   24.828554   44.244938
  C    -26.158337   24.821201   45.781504
  O    -25.376002   25.975014   46.293112
  H    -24.575446   27.637853   45.408977
  H    -26.364458   26.972648   43.948162
  O    -24.875459   26.472719   42.672237
  H    -26.934619   24.592023   43.720843
  H    -25.238840   24.113146   43.916054
  H    -25.782928   23.903478   46.244007
  H    -27.195372   24.974648   46.094434
  H    -24.297067   25.711350   42.462101

 Multiplicity           Mult            ....    1
 Number of Electrons    NEL             ....  102
 Basis Dimension        Dim             ....  149

ORBITAL ENERGIES
----------------

  NO   OCC          E(Eh)            E(eV)
   0   2.0000     -19.152335      -521.1615
   1   2.0000     -19.137253      -520.7511
   2   2.0000     -19.136028      -520.7178
   3   2.0000     -19.135642      -520.7073
   4   2.0000     -10.276396      -279.6350
   5   2.0000     -10.246681      -278.8264
   6   2.0000     -10.232302      -278.4351
   7   2.0000     -10.231443      -278.4117
   8   2.0000     -10.229118      -278.3485
   9   2.0000     -10.220505      -278.1141
  10   2.0000     -10.197098      -277.4771
  11   2.0000     -10.183748      -277.1139
  12   2.0000     -10.182207      -277.0719
  13   2.0000      -1.050197       -28.5773
  14   2.0000      -1.034859       -28.1599
  15   2.0000      -1.015906       -27.6442
  16   2.0000      -0.991590       -26.9825
  17   2.0000      -0.785060       -21.3626
  18   2.0000      -0.782066       -21.2811
  19   2.0000      -0.767603       -20.8875
  20   2.0000      -0.728306       -19.8182
  21   2.0000      -0.680347       -18.5132
  22   2.0000      -0.612760       -16.6740
  23   2.0000      -0.596146       -16.2219
  24   2.0000      -0.587114       -15.9762
  25   2.0000      -0.579726       -15.7752
  26   2.0000      -0.528176       -14.3724
  27   2.0000      -0.511191       -13.9102
  28   2.0000      -0.500330       -13.6147
  29   2.0000      -0.487510       -13.2658
  30   2.0000      -0.466236       -12.6869
  31   2.0000      -0.458320       -12.4715
  32   2.0000      -0.449286       -12.2257
  33   2.0000      -0.432844       -11.7783
  34   2.0000      -0.426205       -11.5976
  35   2.0000      -0.421474       -11.4689
  36   2.0000      -0.402157       -10.9432
  37   2.0000      -0.399584       -10.8732
  38   2.0000      -0.377716       -10.2782
  39   2.0000      -0.372049       -10.1240
  40   2.0000      -0.354735        -9.6528
  41   2.0000      -0.352584        -9.5943
  42   2.0000      -0.350418        -9.5353
  43   2.0000      -0.330947        -9.0055
  44   2.0000      -0.317049        -8.6273
  45   2.0000      -0.308165        -8.3856
  46   2.0000      -0.304121        -8.2755
  47   2.0000      -0.272949        -7.4273
  48   2.0000      -0.257565        -7.0087
  49   2.0000      -0.248403        -6.7594
  50   2.0000      -0.239227        -6.5097
  51   0.0000       0.048071         1.3081
  52   0.0000       0.077372         2.1054
  53   0.0000       0.087629         2.3845
  54   0.0000       0.091163         2.4807
  55   0.0000       0.105211         2.8629

MULLIKEN ATOMIC CHARGES
-----------------------
   0 C :    0.293300
   1 C :   -0.262849
   2 C :   -0.299025
   3 C :   -0.001174
   4 O :   -0.502562
   5 H :    0.133109
   6 H :    0.141769
   7 H :    0.143776
   8 H :    0.140348
   9 H :    0.164596
  10 H :    0.157490
  11 H :    0.139287
  12 C :   -0.014788
  13 H :    0.127033
  14 H :    0.120910
  15 O :   -0.497927
  16 C :    0.094947
  17 C :    0.077318
  18 C :   -0.327029
  19 C :   -0.004869
  20 O :   -0.500603
  21 H :    0.162581
  22 H :    0.171610
  23 O :   -0.599823
  24 H :    0.157631
  25 H :    0.133345
  26 H :    0.147968
  27 H :    0.148294
  28 H :    0.355337
Sum of atomic charges:   -0.0000000

LOEWDIN ATOMIC CHARGES
----------------------
   0 C :    0.177052
   1 C :   -0.227699
   2 C :   -0.216659
   3 C :   -0.024940
   4 O :   -0.306487
   5 H :    0.094632
   6 H :    0.111918
   7 H :    0.115102
   8 H :    0.113676
   9 H :    0.120516
  10 H :    0.111118
  11 H :    0.101152
  12 C :   -0.052079
  13 H :    0.093228
  14 H :    0.088031
  15 O :   -0.321000
  16 C :    0.023049
  17 C :    0.033076
  18 C :   -0.241941
  19 C :   -0.028218
  20 O :   -0.309624
  21 H :    0.119225
  22 H :    0.120845
  23 O :   -0.408494
  24 H :    0.122552
  25 H :    0.103507
  26 H :    0.105371
  27 H :    0.105585
  28 H :    0.277507

  Mayer bond orders larger than 0.100000
B(  0-C ,  1-C ) :   0.9332 B(  0-C ,  4-O ) :   0.9370 B(  0-C ,  5-H ) :   0.9193
B(  0-C , 15-O ) :   0.8351 B(  1-C ,  2-C ) :   0.9544 B(  1-C ,  6-H ) :   0.9344
B(  1-C ,  7-H ) :   0.9368 B(  2-C ,  3-C ) :   0.9555 B(  2-C ,  8-H ) :   0.9450
B(  2-C ,  9-H ) :   0.9429 B(  3-C ,  4-O ) :   0.8358 B(  3-C , 10-H ) :   0.9339
B(  3-C , 11-H ) :   0.9398 B( 12-C , 13-H ) :   0.8986 B( 12-C , 14-H ) :   0.9145
B( 12-C , 15-O ) :   0.8523 B( 12-C , 16-C ) :   0.9070 B( 16-C , 17-C ) :   0.8727
B( 16-C , 20-O ) :   0.8784 B( 16-C , 21-H ) :   0.9294 B( 17-C , 18-C ) :   0.9270
B( 17-C , 22-H ) :   0.9321 B( 17-C , 23-O ) :   0.8942 B( 18-C , 19-C ) :   0.9373
B( 18-C , 24-H ) :   0.9417 B( 18-C , 25-H ) :   0.9401 B( 19-C , 20-O ) :   0.8507
B( 19-C , 26-H ) :   0.9313 B( 19-C , 27-H ) :   0.9381 B( 23-O , 28-H ) :   0.7989

FINAL SINGLE POINT ENERGY      -652.854270489637

DIPOLE MOMENT
-------------
                                X             Y             Z
Electronic contribution:     -1.49255      -1.12813       0.80837
Nuclear contribution   :      1.68285       0.97503      -1.73159
                        -----------------------------------------
Total Dipole Moment    :      0.19030      -0.15310      -0.92322
                        -----------------------------------------
Magnitude (a.u.)       :      0.95498
Magnitude (Debye)      :      2.42738

Rotational constants in cm-1:     0.057028     0.012151     0.011086
Rotational constants in MHz :  1709.664122   364.277281   332.361577

                             ****ORCA TERMINATED NORMALLY****
TOTAL RUN TIME: 0 days 0 hours 23 minutes 11 seconds 73 msec
