                         Program Version 4.2.0 -  RELEASE  -
|  1> # Test redundant internal optimization
|  2> #
|  3> ! RKS B3LYP  Opt TightSCF SmallPrint
|  4>
|  5> %basis
|  6>         Basis "6-31G"
|  7> end
|  8>
|  9> %geom
| 10> Constraints
| 11> { D 4  0  15  12  285.0   C } # D for Dihedral angle
| 12> { D 0  15  12  16  105.0   C } # D for Dihedral angle
| 13> { D 0  4  3  2   C } # D for Dihedral angle
| 14> { D 4  3  2  1   C } # D for Dihedral angle
| 15> { D 3  2  1  0   C } # D for Dihedral angle
| 16> { D 2  1  0  4   C } # D for Dihedral angle
| 17> { D 1  0  4  3   C } # D for Dihedral angle
| 18> { D 16  20  19  18   C } # D for Dihedral angle
| 19> { D 20  19  18  17   C } # D for Dihedral angle
| 20> { D 19  18  17  16   C } # D for Dihedral angle
| 21> { D 18  17  16  20   C } # D for Dihedral angle
| 22> { D 17  16  20  19   C } # D for Dihedral angle
| 23> { D 15  12  16  20   C } # D for Dihedral angle
| 24> end
| 25> end
| 26>
| 27>
| 28> #%pal
| 29> #nprocs 8
| 30> #end
| 31>
| 32> * xyz 0 1
| 33> C  -21.048   26.222   46.251
| 34> C  -20.361   27.558   45.944
| 35> C  -20.329   28.222   47.341
| 36> C  -20.110   27.022   48.296
| 37> O  -20.473   25.807   47.535
| 38> H  -20.833   25.428   45.533
| 39> H  -19.344   27.382   45.576
| 40> H  -20.898   28.157   45.201
| 41> H  -19.543   28.978   47.434
| 42> H  -21.289   28.710   47.548
| 43> H  -20.733   27.082   49.195
| 44> H  -19.064   26.913   48.597
| 45> C  -23.396   25.070   46.435
| 46> H  -24.260   25.144   45.764
| 47> H  -22.777   24.226   46.106
| 48> O  -22.586   26.394   46.375
| 49> C  -23.913   24.747   47.864
| 50> C  -24.606   23.381   47.910
| 51> C  -23.397   22.417   47.963
| 52> C  -22.363   23.198   48.812
| 53> O  -22.790   24.613   48.798
| 54> H  -24.527   25.577   48.219
| 55> O  -25.462   23.259   49.201
| 56> H  -25.256   23.199   47.047
| 57> H  -23.647   21.445   48.400
| 58> H  -23.012   22.240   46.952
| 59> H  -21.347   23.126   48.406
| 60> H  -22.351   22.875   49.857
| 61> H  -24.830   23.437   50.078
| 62> *
| 63>
| 64>                          ****END OF INPUT****
 Total Charge           Charge          ....    0
 Multiplicity           Mult            ....    1
 Number of Electrons    NEL             ....  102
FINAL SINGLE POINT ENERGY      -652.835213509918
FINAL SINGLE POINT ENERGY      -652.858975569924
FINAL SINGLE POINT ENERGY      -652.863538372729
FINAL SINGLE POINT ENERGY      -652.864280451013
FINAL SINGLE POINT ENERGY      -652.864380752202
FINAL SINGLE POINT ENERGY      -652.864394403099
                    ***********************HURRAY********************

CARTESIAN COORDINATES (ANGSTROEM)
---------------------------------
  C    -21.042903   26.165491   46.224439
  C    -20.518585   27.577943   45.972433
  C    -20.474186   28.163537   47.403698
  C    -20.078185   26.941058   48.263068
  O    -20.366936   25.750967   47.425534
  H    -20.813461   25.412010   45.463610
  H    -19.511817   27.519806   45.541970
  H    -21.163508   28.140371   45.294536
  H    -19.762084   28.988977   47.498708
  H    -21.467821   28.524787   47.682618
  H    -20.657254   26.854392   49.184277
  H    -19.008674   26.909860   48.493045
  C    -23.266778   25.084555   46.422844
  H    -24.139912   25.247774   45.779490
  H    -22.685273   24.245552   46.014278
  O    -22.480333   26.303652   46.366092
  C    -23.758182   24.770547   47.842609
  C    -24.541311   23.452286   47.905474
  C    -23.399084   22.407168   48.024783
  C    -22.343662   23.149360   48.885327
  O    -22.682149   24.588919   48.811302
  H    -24.357201   25.613324   48.200699
  O    -25.418001   23.419835   49.066021
  H    -25.195521   23.281072   47.048895
  H    -23.765421   21.489533   48.490359
  H    -23.002534   22.156801   47.034638
  H    -21.321682   23.017725   48.520118
  H    -22.383686   22.860370   49.940387
  H    -24.938857   23.791327   49.836748

 Multiplicity           Mult            ....    1
 Number of Electrons    NEL             ....  102
 Basis Dimension        Dim             ....  149

ORBITAL ENERGIES
----------------

  NO   OCC          E(Eh)            E(eV)
   0   2.0000     -19.140626      -520.8429
   1   2.0000     -19.136544      -520.7318
   2   2.0000     -19.136509      -520.7309
   3   2.0000     -19.131533      -520.5955
   4   2.0000     -10.274394      -279.5805
   5   2.0000     -10.240215      -278.6504
   6   2.0000     -10.231142      -278.4035
   7   2.0000     -10.230073      -278.3744
   8   2.0000     -10.224348      -278.2186
   9   2.0000     -10.215404      -277.9753
  10   2.0000     -10.186656      -277.1930
  11   2.0000     -10.178862      -276.9809
  12   2.0000     -10.177928      -276.9555
  13   2.0000      -1.048231       -28.5238
  14   2.0000      -1.032565       -28.0975
  15   2.0000      -1.002841       -27.2887
  16   2.0000      -0.989819       -26.9343
  17   2.0000      -0.786198       -21.3935
  18   2.0000      -0.776993       -21.1431
  19   2.0000      -0.761717       -20.7274
  20   2.0000      -0.726002       -19.7555
  21   2.0000      -0.669578       -18.2201
  22   2.0000      -0.600847       -16.3499
  23   2.0000      -0.591816       -16.1041
  24   2.0000      -0.589706       -16.0467
  25   2.0000      -0.579517       -15.7695
  26   2.0000      -0.521682       -14.1957
  27   2.0000      -0.509926       -13.8758
  28   2.0000      -0.489800       -13.3281
  29   2.0000      -0.479973       -13.0607
  30   2.0000      -0.473151       -12.8751
  31   2.0000      -0.453856       -12.3500
  32   2.0000      -0.449040       -12.2190
  33   2.0000      -0.431854       -11.7513
  34   2.0000      -0.421842       -11.4789
  35   2.0000      -0.404939       -11.0190
  36   2.0000      -0.394906       -10.7459
  37   2.0000      -0.389488       -10.5985
  38   2.0000      -0.372151       -10.1267
  39   2.0000      -0.368905       -10.0384
  40   2.0000      -0.351305        -9.5595
  41   2.0000      -0.348497        -9.4831
  42   2.0000      -0.341634        -9.2963
  43   2.0000      -0.331263        -9.0141
  44   2.0000      -0.319956        -8.7065
  45   2.0000      -0.302220        -8.2238
  46   2.0000      -0.294604        -8.0166
  47   2.0000      -0.269803        -7.3417
  48   2.0000      -0.267570        -7.2809
  49   2.0000      -0.250993        -6.8299
  50   2.0000      -0.230203        -6.2641
  51   0.0000       0.069203         1.8831
  52   0.0000       0.088874         2.4184
  53   0.0000       0.090695         2.4679
  54   0.0000       0.101941         2.7739
  55   0.0000       0.111136         3.0242

MULLIKEN ATOMIC CHARGES
-----------------------
   0 C :    0.291097
   1 C :   -0.263532
   2 C :   -0.298316
   3 C :   -0.001214
   4 O :   -0.501140
   5 H :    0.136208
   6 H :    0.141161
   7 H :    0.154274
   8 H :    0.137001
   9 H :    0.162654
  10 H :    0.161943
  11 H :    0.135904
  12 C :   -0.011068
  13 H :    0.144925
  14 H :    0.124307
  15 O :   -0.515255
  16 C :    0.082056
  17 C :    0.076126
  18 C :   -0.295186
  19 C :   -0.025900
  20 O :   -0.507469
  21 H :    0.160772
  22 O :   -0.605852
  23 H :    0.148118
  24 H :    0.160678
  25 H :    0.140065
  26 H :    0.161279
  27 H :    0.140762
  28 H :    0.365603
Sum of atomic charges:    0.0000000

LOEWDIN ATOMIC CHARGES
----------------------
   0 C :    0.173660
   1 C :   -0.216408
   2 C :   -0.215752
   3 C :   -0.026784
   4 O :   -0.318707
   5 H :    0.093108
   6 H :    0.111577
   7 H :    0.122267
   8 H :    0.111337
   9 H :    0.119403
  10 H :    0.113478
  11 H :    0.099420
  12 C :   -0.042822
  13 H :    0.109423
  14 H :    0.094667
  15 O :   -0.323760
  16 C :    0.011661
  17 C :    0.033457
  18 C :   -0.241046
  19 C :   -0.036793
  20 O :   -0.317314
  21 H :    0.116505
  22 O :   -0.416515
  23 H :    0.113280
  24 H :    0.126123
  25 H :    0.110713
  26 H :    0.112308
  27 H :    0.100003
  28 H :    0.283509

  Mayer bond orders larger than 0.100000
B(  0-C ,  1-C ) :   0.9491 B(  0-C ,  4-O ) :   0.9245 B(  0-C ,  5-H ) :   0.9202
B(  0-C , 15-O ) :   0.8538 B(  1-C ,  2-C ) :   0.9590 B(  1-C ,  6-H ) :   0.9410
B(  1-C ,  7-H ) :   0.9368 B(  2-C ,  3-C ) :   0.9560 B(  2-C ,  8-H ) :   0.9454
B(  2-C ,  9-H ) :   0.9441 B(  3-C ,  4-O ) :   0.8320 B(  3-C , 10-H ) :   0.9302
B(  3-C , 11-H ) :   0.9406 B( 12-C , 13-H ) :   0.9262 B( 12-C , 14-H ) :   0.9212
B( 12-C , 15-O ) :   0.8563 B( 12-C , 16-C ) :   0.8824 B( 16-C , 17-C ) :   0.8949
B( 16-C , 20-O ) :   0.8746 B( 16-C , 21-H ) :   0.9272 B( 17-C , 18-C ) :   0.9110
B( 17-C , 22-O ) :   0.8908 B( 17-C , 23-H ) :   0.9331 B( 18-C , 19-C ) :   0.9401
B( 18-C , 24-H ) :   0.9378 B( 18-C , 25-H ) :   0.9336 B( 19-C , 20-O ) :   0.8444
B( 19-C , 26-H ) :   0.9291 B( 19-C , 27-H ) :   0.9384 B( 22-O , 28-H ) :   0.7934

FINAL SINGLE POINT ENERGY      -652.864397398714

DIPOLE MOMENT
-------------
                                X             Y             Z
Electronic contribution:     -2.67103      -0.85172       1.10639
Nuclear contribution   :      3.23548       0.78772      -1.55823
                        -----------------------------------------
Total Dipole Moment    :      0.56445      -0.06400      -0.45184
                        -----------------------------------------
Magnitude (a.u.)       :      0.72585
Magnitude (Debye)      :      1.84497

Rotational constants in cm-1:     0.059105     0.014625     0.013657
Rotational constants in MHz :  1771.933127   438.458066   409.427843

                             ****ORCA TERMINATED NORMALLY****
TOTAL RUN TIME: 0 days 0 hours 22 minutes 26 seconds 722 msec
