                         Program Version 4.2.1 -  RELEASE  -
|  1> # Test redundant internal optimization
|  2> #
|  3> ! RKS B3LYP  Opt TightSCF SmallPrint
|  4>
|  5> %basis
|  6>         Basis "6-31G"
|  7> end
|  8>
|  9> %geom
| 10> Constraints
| 11> { D 4  0  19  14  315.0   C } # D for Dihedral angle
| 12> { D 0  19  14  12  150.0   C } # D for Dihedral angle
| 13> { D 0  4  3  2   C } # D for Dihedral angle
| 14> { D 4  3  2  1   C } # D for Dihedral angle
| 15> { D 3  2  1  0   C } # D for Dihedral angle
| 16> { D 2  1  0  4   C } # D for Dihedral angle
| 17> { D 1  0  4  3   C } # D for Dihedral angle
| 18> { D 14  15  16  17   C } # D for Dihedral angle
| 19> { D 15  16  17  12   C } # D for Dihedral angle
| 20> { D 16  17  12  14   C } # D for Dihedral angle
| 21> { D 17  12  14  15   C } # D for Dihedral angle
| 22> { D 12  14  15  16   C } # D for Dihedral angle
| 23> end
| 24> end
| 25>
| 26>
| 27> #%pal
| 28> #nprocs 8
| 29> #end
| 30>
| 31> * xyz 0 1
| 32> C  -21.048   26.222   46.251
| 33> C  -20.361   27.558   45.944
| 34> C  -20.329   28.222   47.341
| 35> C  -20.110   27.022   48.296
| 36> O  -20.473   25.807   47.535
| 37> H  -20.833   25.428   45.533
| 38> H  -19.344   27.382   45.576
| 39> H  -20.898   28.157   45.201
| 40> H  -19.543   28.978   47.434
| 41> H  -21.289   28.710   47.548
| 42> H  -20.733   27.082   49.195
| 43> H  -19.064   26.913   48.597
| 44> C  -24.380   25.853   47.782
| 45> H  -24.737   25.150   48.551
| 46> C  -23.132   25.318   47.072
| 47> C  -23.745   24.302   46.080
| 48> C  -25.086   24.968   45.679
| 49> O  -25.375   25.987   46.711
| 50> H  -24.258   26.841   48.229
| 51> O  -22.472   26.381   46.366
| 52> H  -22.411   24.859   47.758
| 53> H  -23.101   24.108   45.217
| 54> H  -23.926   23.344   46.584
| 55> H  -25.915   24.253   45.638
| 56> H  -25.022   25.491   44.719
| 57> *
| 58>
| 59>                          ****END OF INPUT****
 Total Charge           Charge          ....    0
 Multiplicity           Mult            ....    1
 Number of Electrons    NEL             ....   86
FINAL SINGLE POINT ENERGY      -538.435244186218
FINAL SINGLE POINT ENERGY      -538.437503045752
FINAL SINGLE POINT ENERGY      -538.437814833919
FINAL SINGLE POINT ENERGY      -538.437848985540
FINAL SINGLE POINT ENERGY      -538.437859421966
                    ***********************HURRAY********************

CARTESIAN COORDINATES (ANGSTROEM)
---------------------------------
  C    -20.996837   26.191640   46.255258
  C    -20.417255   27.574619   45.957876
  C    -20.388711   28.211702   47.364392
  C    -20.057415   27.019870   48.289163
  O    -20.364235   25.795483   47.497307
  H    -20.749205   25.404721   45.535333
  H    -19.406197   27.462402   45.550490
  H    -21.031958   28.129921   45.246591
  H    -19.651363   29.016095   47.447079
  H    -21.375400   28.620683   47.599484
  H    -20.652661   27.006376   49.205762
  H    -18.996292   26.961784   48.547800
  C    -24.369113   25.891240   47.751201
  H    -24.767650   25.222614   48.528938
  C    -23.137450   25.274592   47.090777
  C    -23.776853   24.274387   46.108756
  C    -25.067022   24.998155   45.653817
  O    -25.325257   26.054402   46.655020
  H    -24.176165   26.879328   48.170927
  O    -22.431666   26.337531   46.371401
  H    -22.451886   24.808576   47.803523
  H    -23.109021   24.036324   45.276021
  H    -24.009248   23.341395   46.635839
  H    -25.931763   24.326409   45.606403
  H    -24.944376   25.495751   44.687841

 Multiplicity           Mult            ....    1
 Number of Electrons    NEL             ....   86
 Basis Dimension        Dim             ....  127

ORBITAL ENERGIES
----------------

  NO   OCC          E(Eh)            E(eV)
   0   2.0000     -19.146783      -521.0105
   1   2.0000     -19.140220      -520.8319
   2   2.0000     -19.122882      -520.3601
   3   2.0000     -10.279065      -279.7076
   4   2.0000     -10.231806      -278.4216
   5   2.0000     -10.229309      -278.3537
   6   2.0000     -10.217434      -278.0305
   7   2.0000     -10.216420      -278.0029
   8   2.0000     -10.186714      -277.1946
   9   2.0000     -10.185619      -277.1648
  10   2.0000     -10.182112      -277.0693
  11   2.0000      -1.055740       -28.7282
  12   2.0000      -1.010843       -27.5064
  13   2.0000      -0.987801       -26.8794
  14   2.0000      -0.792932       -21.5768
  15   2.0000      -0.774180       -21.0665
  16   2.0000      -0.739270       -20.1166
  17   2.0000      -0.719181       -19.5699
  18   2.0000      -0.610080       -16.6011
  19   2.0000      -0.598815       -16.2946
  20   2.0000      -0.594067       -16.1654
  21   2.0000      -0.566849       -15.4247
  22   2.0000      -0.522616       -14.2211
  23   2.0000      -0.499985       -13.6053
  24   2.0000      -0.486102       -13.2275
  25   2.0000      -0.477618       -12.9966
  26   2.0000      -0.454175       -12.3587
  27   2.0000      -0.432553       -11.7704
  28   2.0000      -0.428669       -11.6647
  29   2.0000      -0.415021       -11.2933
  30   2.0000      -0.406238       -11.0543
  31   2.0000      -0.380137       -10.3441
  32   2.0000      -0.370947       -10.0940
  33   2.0000      -0.364793        -9.9265
  34   2.0000      -0.358933        -9.7671
  35   2.0000      -0.354601        -9.6492
  36   2.0000      -0.343210        -9.3392
  37   2.0000      -0.333639        -9.0788
  38   2.0000      -0.300492        -8.1768
  39   2.0000      -0.291702        -7.9376
  40   2.0000      -0.264584        -7.1997
  41   2.0000      -0.258826        -7.0430
  42   2.0000      -0.228799        -6.2259
  43   0.0000       0.080739         2.1970
  44   0.0000       0.098835         2.6894
  45   0.0000       0.105498         2.8708
  46   0.0000       0.106222         2.8904
  47   0.0000       0.111936         3.0459

MULLIKEN ATOMIC CHARGES
-----------------------
   0 C :    0.292536
   1 C :   -0.261776
   2 C :   -0.299360
   3 C :   -0.010356
   4 O :   -0.515321
   5 H :    0.143173
   6 H :    0.143947
   7 H :    0.164010
   8 H :    0.143187
   9 H :    0.163308
  10 H :    0.145427
  11 H :    0.146778
  12 C :    0.003893
  13 H :    0.124152
  14 C :    0.052660
  15 C :   -0.294518
  16 C :    0.004846
  17 O :   -0.519940
  18 H :    0.156916
  19 O :   -0.520279
  20 H :    0.162904
  21 H :    0.149372
  22 H :    0.141515
  23 H :    0.133517
  24 H :    0.149412
Sum of atomic charges:   -0.0000000

LOEWDIN ATOMIC CHARGES
----------------------
   0 C :    0.174764
   1 C :   -0.213917
   2 C :   -0.216343
   3 C :   -0.029759
   4 O :   -0.328829
   5 H :    0.094332
   6 H :    0.113591
   7 H :    0.127948
   8 H :    0.114836
   9 H :    0.119446
  10 H :    0.104019
  11 H :    0.104887
  12 C :   -0.035955
  13 H :    0.091084
  14 C :    0.030170
  15 C :   -0.233477
  16 C :   -0.028585
  17 O :   -0.330407
  18 H :    0.117405
  19 O :   -0.325549
  20 H :    0.115277
  21 H :    0.119396
  22 H :    0.112242
  23 H :    0.097120
  24 H :    0.106307

  Mayer bond orders larger than 0.100000
B(  0-C ,  1-C ) :   0.9480 B(  0-C ,  4-O ) :   0.8947 B(  0-C ,  5-H ) :   0.9201
B(  0-C , 19-O ) :   0.8639 B(  1-C ,  2-C ) :   0.9549 B(  1-C ,  6-H ) :   0.9391
B(  1-C ,  7-H ) :   0.9346 B(  2-C ,  3-C ) :   0.9560 B(  2-C ,  8-H ) :   0.9448
B(  2-C ,  9-H ) :   0.9434 B(  3-C ,  4-O ) :   0.8315 B(  3-C , 10-H ) :   0.9358
B(  3-C , 11-H ) :   0.9406 B( 12-C , 13-H ) :   0.9152 B( 12-C , 14-C ) :   0.9361
B( 12-C , 17-O ) :   0.8705 B( 12-C , 18-H ) :   0.9325 B( 14-C , 15-C ) :   0.9351
B( 14-C , 19-O ) :   0.8210 B( 14-C , 20-H ) :   0.9073 B( 15-C , 16-C ) :   0.9464
B( 15-C , 21-H ) :   0.9416 B( 15-C , 22-H ) :   0.9385 B( 16-C , 17-O ) :   0.8574
B( 16-C , 23-H ) :   0.9337 B( 16-C , 24-H ) :   0.9367

FINAL SINGLE POINT ENERGY      -538.437860419907

DIPOLE MOMENT
-------------
                                X             Y             Z
Electronic contribution:     -1.36641      -0.78900      -0.19299
Nuclear contribution   :      2.22884       0.63285       0.31407
                        -----------------------------------------
Total Dipole Moment    :      0.86243      -0.15616       0.12107
                        -----------------------------------------
Magnitude (a.u.)       :      0.88478
Magnitude (Debye)      :      2.24893

Rotational constants in cm-1:     0.082400     0.020474     0.020174
Rotational constants in MHz :  2470.284934   613.800419   604.791851

                             ****ORCA TERMINATED NORMALLY****
TOTAL RUN TIME: 0 days 0 hours 5 minutes 47 seconds 286 msec
