                         Program Version 4.2.1 -  RELEASE  -
|  1> # Test redundant internal optimization
|  2> #
|  3> ! RKS B3LYP  Opt TightSCF SmallPrint
|  4>
|  5> %basis
|  6>         Basis "6-31G"
|  7> end
|  8>
|  9> %geom
| 10> Constraints
| 11> { D 4  0  19  14  15.0   C } # D for Dihedral angle
| 12> { D 0  19  14  12  195.0   C } # D for Dihedral angle
| 13> { D 0  4  3  2   C } # D for Dihedral angle
| 14> { D 4  3  2  1   C } # D for Dihedral angle
| 15> { D 3  2  1  0   C } # D for Dihedral angle
| 16> { D 2  1  0  4   C } # D for Dihedral angle
| 17> { D 1  0  4  3   C } # D for Dihedral angle
| 18> { D 14  15  16  17   C } # D for Dihedral angle
| 19> { D 15  16  17  12   C } # D for Dihedral angle
| 20> { D 16  17  12  14   C } # D for Dihedral angle
| 21> { D 17  12  14  15   C } # D for Dihedral angle
| 22> { D 12  14  15  16   C } # D for Dihedral angle
| 23> end
| 24> end
| 25>
| 26>
| 27> #%pal
| 28> #nprocs 8
| 29> #end
| 30>
| 31> * xyz 0 1
| 32> C  -21.048   26.222   46.251
| 33> C  -20.361   27.558   45.944
| 34> C  -20.329   28.222   47.341
| 35> C  -20.110   27.022   48.296
| 36> O  -20.473   25.807   47.535
| 37> H  -20.833   25.428   45.533
| 38> H  -19.344   27.382   45.576
| 39> H  -20.898   28.157   45.201
| 40> H  -19.543   28.978   47.434
| 41> H  -21.289   28.710   47.548
| 42> H  -20.733   27.082   49.195
| 43> H  -19.064   26.913   48.597
| 44> C  -24.473   26.236   47.744
| 45> H  -24.905   26.560   48.704
| 46> C  -22.954   26.442   47.718
| 47> C  -22.457   25.223   48.530
| 48> C  -23.462   24.109   48.143
| 49> O  -24.644   24.789   47.569
| 50> H  -25.010   26.722   46.928
| 51> O  -22.472   26.381   46.366
| 52> H  -22.642   27.398   48.153
| 53> H  -21.423   24.951   48.299
| 54> H  -22.515   25.438   49.605
| 55> H  -23.776   23.508   49.004
| 56> H  -23.068   23.442   47.370
| 57> *
| 58>
| 59>                          ****END OF INPUT****
 Total Charge           Charge          ....    0
 Multiplicity           Mult            ....    1
 Number of Electrons    NEL             ....   86
FINAL SINGLE POINT ENERGY      -538.380457900059
FINAL SINGLE POINT ENERGY      -538.423875622242
FINAL SINGLE POINT ENERGY      -538.426138172317
FINAL SINGLE POINT ENERGY      -538.426449833044
FINAL SINGLE POINT ENERGY      -538.426483418526
FINAL SINGLE POINT ENERGY      -538.426493732941
                    ***********************HURRAY********************

CARTESIAN COORDINATES (ANGSTROEM)
---------------------------------
  C    -21.001859   26.300062   46.311873
  C    -20.423145   27.666721   45.933626
  C    -20.127737   28.284497   47.324767
  C    -19.694255   27.059408   48.162448
  O    -20.183213   25.865464   47.421278
  H    -20.897602   25.537822   45.537639
  H    -19.496995   27.524660   45.364201
  H    -21.124657   28.252569   45.336613
  H    -19.350273   29.053745   47.288420
  H    -21.034394   28.741371   47.735009
  H    -20.122425   27.048372   49.169098
  H    -18.607545   26.956897   48.233740
  C    -24.561292   26.116863   47.566109
  H    -25.188176   26.435425   48.413028
  C    -23.085172   26.386355   47.861177
  C    -22.725321   25.191023   48.765693
  C    -23.573315   24.036590   48.187693
  O    -24.635073   24.667639   47.368759
  H    -24.900397   26.595374   46.646894
  O    -22.434780   26.390880   46.551667
  H    -22.925510   27.349909   48.365944
  H    -21.658587   24.974570   48.761908
  H    -23.040613   25.430332   49.789287
  H    -24.037051   23.422512   48.967983
  H    -22.996613   23.390938   47.519147

 Multiplicity           Mult            ....    1
 Number of Electrons    NEL             ....   86
 Basis Dimension        Dim             ....  127

ORBITAL ENERGIES
----------------

  NO   OCC          E(Eh)            E(eV)
   0   2.0000     -19.154153      -521.2110
   1   2.0000     -19.134661      -520.6806
   2   2.0000     -19.120718      -520.3012
   3   2.0000     -10.281653      -279.7780
   4   2.0000     -10.240208      -278.6502
   5   2.0000     -10.236841      -278.5586
   6   2.0000     -10.216376      -278.0017
   7   2.0000     -10.213151      -277.9140
   8   2.0000     -10.195460      -277.4326
   9   2.0000     -10.187451      -277.2146
  10   2.0000     -10.174510      -276.8625
  11   2.0000      -1.054769       -28.7017
  12   2.0000      -1.009780       -27.4775
  13   2.0000      -0.985709       -26.8225
  14   2.0000      -0.794687       -21.6245
  15   2.0000      -0.778544       -21.1853
  16   2.0000      -0.740818       -20.1587
  17   2.0000      -0.719714       -19.5844
  18   2.0000      -0.617987       -16.8163
  19   2.0000      -0.606056       -16.4916
  20   2.0000      -0.592267       -16.1164
  21   2.0000      -0.561316       -15.2742
  22   2.0000      -0.522083       -14.2066
  23   2.0000      -0.500177       -13.6105
  24   2.0000      -0.487233       -13.2583
  25   2.0000      -0.482169       -13.1205
  26   2.0000      -0.452126       -12.3030
  27   2.0000      -0.447184       -12.1685
  28   2.0000      -0.422062       -11.4849
  29   2.0000      -0.409349       -11.1389
  30   2.0000      -0.405707       -11.0399
  31   2.0000      -0.385443       -10.4884
  32   2.0000      -0.374779       -10.1983
  33   2.0000      -0.364242        -9.9115
  34   2.0000      -0.362955        -9.8765
  35   2.0000      -0.360699        -9.8151
  36   2.0000      -0.344376        -9.3710
  37   2.0000      -0.327278        -8.9057
  38   2.0000      -0.306966        -8.3530
  39   2.0000      -0.291566        -7.9339
  40   2.0000      -0.263829        -7.1791
  41   2.0000      -0.247869        -6.7449
  42   2.0000      -0.227678        -6.1954
  43   0.0000       0.066285         1.8037
  44   0.0000       0.092058         2.5050
  45   0.0000       0.098126         2.6701
  46   0.0000       0.107929         2.9369
  47   0.0000       0.121812         3.3147

MULLIKEN ATOMIC CHARGES
-----------------------
   0 C :    0.309818
   1 C :   -0.259814
   2 C :   -0.313980
   3 C :   -0.018359
   4 O :   -0.513717
   5 H :    0.165099
   6 H :    0.145931
   7 H :    0.160701
   8 H :    0.149782
   9 H :    0.153805
  10 H :    0.143673
  11 H :    0.154862
  12 C :    0.006213
  13 H :    0.120100
  14 C :    0.087614
  15 C :   -0.325161
  16 C :    0.001223
  17 O :   -0.520107
  18 H :    0.166533
  19 O :   -0.542194
  20 H :    0.115974
  21 H :    0.199048
  22 H :    0.131206
  23 H :    0.132227
  24 H :    0.149524
Sum of atomic charges:    0.0000000

LOEWDIN ATOMIC CHARGES
----------------------
   0 C :    0.185277
   1 C :   -0.222607
   2 C :   -0.220494
   3 C :   -0.034235
   4 O :   -0.317798
   5 H :    0.110688
   6 H :    0.114433
   7 H :    0.125503
   8 H :    0.118344
   9 H :    0.112326
  10 H :    0.101888
  11 H :    0.108516
  12 C :   -0.033087
  13 H :    0.088466
  14 C :    0.046053
  15 C :   -0.249499
  16 C :   -0.027826
  17 O :   -0.330411
  18 H :    0.122306
  19 O :   -0.337260
  20 H :    0.086985
  21 H :    0.140998
  22 H :    0.108804
  23 H :    0.096939
  24 H :    0.105693

  Mayer bond orders larger than 0.100000
B(  0-C ,  1-C ) :   0.9248 B(  0-C ,  4-O ) :   0.8955 B(  0-C ,  5-H ) :   0.9316
B(  0-C , 19-O ) :   0.8576 B(  1-C ,  2-C ) :   0.9545 B(  1-C ,  6-H ) :   0.9347
B(  1-C ,  7-H ) :   0.9368 B(  2-C ,  3-C ) :   0.9532 B(  2-C ,  8-H ) :   0.9441
B(  2-C ,  9-H ) :   0.9438 B(  3-C ,  4-O ) :   0.8293 B(  3-C , 10-H ) :   0.9320
B(  3-C , 11-H ) :   0.9393 B( 12-C , 13-H ) :   0.9151 B( 12-C , 14-C ) :   0.9345
B( 12-C , 17-O ) :   0.8753 B( 12-C , 18-H ) :   0.9301 B( 14-C , 15-C ) :   0.9355
B( 14-C , 19-O ) :   0.8247 B( 14-C , 20-H ) :   0.9177 B( 15-C , 16-C ) :   0.9462
B( 15-C , 21-H ) :   0.9082 B( 15-C , 22-H ) :   0.9354 B( 16-C , 17-O ) :   0.8564
B( 16-C , 23-H ) :   0.9336 B( 16-C , 24-H ) :   0.9372

FINAL SINGLE POINT ENERGY      -538.426494468505

DIPOLE MOMENT
-------------
                                X             Y             Z
Electronic contribution:     -2.09295      -2.95213      -2.52166
Nuclear contribution   :      3.08049       4.11044       3.23174
                        -----------------------------------------
Total Dipole Moment    :      0.98754       1.15831       0.71007
                        -----------------------------------------
Magnitude (a.u.)       :      1.67962
Magnitude (Debye)      :      4.26926

Rotational constants in cm-1:     0.079631     0.023301     0.021570
Rotational constants in MHz :  2387.289805   698.560602   646.640629

                             ****ORCA TERMINATED NORMALLY****
TOTAL RUN TIME: 0 days 0 hours 7 minutes 23 seconds 923 msec
