                         Program Version 4.2.0 -  RELEASE  -
|  1> # Test redundant internal optimization
|  2> #
|  3> ! RKS B3LYP  Opt TightSCF SmallPrint
|  4>
|  5> %basis
|  6>         Basis "6-31G"
|  7> end
|  8>
|  9> %geom
| 10> Constraints
| 11> { D 4  0  15  12  315.0   C } # D for Dihedral angle
| 12> { D 0  15  12  16  120.0   C } # D for Dihedral angle
| 13> { D 0  4  3  2   C } # D for Dihedral angle
| 14> { D 4  3  2  1   C } # D for Dihedral angle
| 15> { D 3  2  1  0   C } # D for Dihedral angle
| 16> { D 2  1  0  4   C } # D for Dihedral angle
| 17> { D 1  0  4  3   C } # D for Dihedral angle
| 18> { D 16  20  19  18   C } # D for Dihedral angle
| 19> { D 20  19  18  17   C } # D for Dihedral angle
| 20> { D 19  18  17  16   C } # D for Dihedral angle
| 21> { D 18  17  16  20   C } # D for Dihedral angle
| 22> { D 17  16  20  19   C } # D for Dihedral angle
| 23> { D 15  12  16  20   C } # D for Dihedral angle
| 24> end
| 25> end
| 26>
| 27>
| 28> #%pal
| 29> #nprocs 8
| 30> #end
| 31>
| 32> * xyz 0 1
| 33> C  -21.048   26.222   46.251
| 34> C  -20.361   27.558   45.944
| 35> C  -20.329   28.222   47.341
| 36> C  -20.110   27.022   48.296
| 37> O  -20.473   25.807   47.535
| 38> H  -20.833   25.428   45.533
| 39> H  -19.344   27.382   45.576
| 40> H  -20.898   28.157   45.201
| 41> H  -19.543   28.978   47.434
| 42> H  -21.289   28.710   47.548
| 43> H  -20.733   27.082   49.195
| 44> H  -19.064   26.913   48.597
| 45> C  -23.319   25.255   47.135
| 46> H  -24.047   24.782   46.464
| 47> H  -22.604   24.488   47.460
| 48> O  -22.586   26.394   46.375
| 49> C  -24.073   25.762   48.395
| 50> C  -24.686   24.598   49.183
| 51> C  -23.456   24.055   49.948
| 52> C  -22.641   25.335   50.258
| 53> O  -23.136   26.382   49.338
| 54> H  -24.787   26.533   48.099
| 55> H  -25.442   24.973   49.882
| 56> O  -25.350   23.529   48.273
| 57> H  -23.729   23.504   50.854
| 58> H  -22.881   23.378   49.305
| 59> H  -21.566   25.197   50.099
| 60> H  -22.805   25.697   51.277
| 61> H  -24.612   23.137   47.564
| 62> *
| 63>
| 64>                          ****END OF INPUT****
 Total Charge           Charge          ....    0
 Multiplicity           Mult            ....    1
 Number of Electrons    NEL             ....  102
FINAL SINGLE POINT ENERGY      -652.834515313786
FINAL SINGLE POINT ENERGY      -652.857978842231
FINAL SINGLE POINT ENERGY      -652.862282516273
FINAL SINGLE POINT ENERGY      -652.863612923837
FINAL SINGLE POINT ENERGY      -652.863773060757
FINAL SINGLE POINT ENERGY      -652.863816476267
FINAL SINGLE POINT ENERGY      -652.863820781557
                    ***********************HURRAY********************

CARTESIAN COORDINATES (ANGSTROEM)
---------------------------------
  C    -21.052183   26.204335   46.250444
  C    -20.499774   27.603401   45.982836
  C    -20.427478   28.188378   47.409237
  C    -20.050126   26.972824   48.279037
  O    -20.373132   25.770125   47.450899
  H    -20.815086   25.448599   45.493206
  H    -19.503631   27.516456   45.534073
  H    -21.145453   28.176477   45.313924
  H    -19.701032   29.002767   47.493914
  H    -21.412441   28.562025   47.701316
  H    -20.628960   26.927201   49.199527
  H    -18.978865   26.913091   48.494012
  C    -23.183443   25.231062   47.062028
  H    -23.922930   24.823249   46.362533
  H    -22.465293   24.448454   47.333940
  O    -22.487565   26.317152   46.389036
  C    -23.911780   25.750891   48.302603
  C    -24.648569   24.656481   49.094641
  C    -23.504404   24.079588   49.979288
  C    -22.648802   25.324337   50.290437
  O    -23.016746   26.358349   49.284587
  H    -24.585511   26.553892   47.989001
  H    -25.418744   25.116300   49.717712
  O    -25.361626   23.679788   48.298656
  H    -23.885519   23.588645   50.878284
  H    -22.933548   23.337587   49.404821
  H    -21.575613   25.126549   50.217053
  H    -22.871228   25.746240   51.275293
  H    -24.735518   23.055755   47.877664

 Multiplicity           Mult            ....    1
 Number of Electrons    NEL             ....  102
 Basis Dimension        Dim             ....  149

ORBITAL ENERGIES
----------------

  NO   OCC          E(Eh)            E(eV)
   0   2.0000     -19.149429      -521.0824
   1   2.0000     -19.140229      -520.8321
   2   2.0000     -19.138516      -520.7855
   3   2.0000     -19.136299      -520.7252
   4   2.0000     -10.272811      -279.5374
   5   2.0000     -10.244548      -278.7683
   6   2.0000     -10.230127      -278.3759
   7   2.0000     -10.228227      -278.3242
   8   2.0000     -10.224920      -278.2342
   9   2.0000     -10.214974      -277.9636
  10   2.0000     -10.194568      -277.4083
  11   2.0000     -10.177943      -276.9559
  12   2.0000     -10.174814      -276.8708
  13   2.0000      -1.048035       -28.5185
  14   2.0000      -1.032763       -28.1029
  15   2.0000      -1.015285       -27.6273
  16   2.0000      -0.986816       -26.8526
  17   2.0000      -0.785058       -21.3625
  18   2.0000      -0.780059       -21.2265
  19   2.0000      -0.762795       -20.7567
  20   2.0000      -0.726438       -19.7674
  21   2.0000      -0.675641       -18.3851
  22   2.0000      -0.611315       -16.6347
  23   2.0000      -0.591838       -16.1047
  24   2.0000      -0.585426       -15.9303
  25   2.0000      -0.572421       -15.5764
  26   2.0000      -0.526088       -14.3156
  27   2.0000      -0.511968       -13.9314
  28   2.0000      -0.491194       -13.3661
  29   2.0000      -0.482561       -13.1311
  30   2.0000      -0.469350       -12.7717
  31   2.0000      -0.456377       -12.4187
  32   2.0000      -0.441534       -12.0147
  33   2.0000      -0.433135       -11.7862
  34   2.0000      -0.421307       -11.4643
  35   2.0000      -0.414001       -11.2656
  36   2.0000      -0.400420       -10.8960
  37   2.0000      -0.392960       -10.6930
  38   2.0000      -0.378845       -10.3089
  39   2.0000      -0.368248       -10.0205
  40   2.0000      -0.350564        -9.5393
  41   2.0000      -0.345924        -9.4131
  42   2.0000      -0.339840        -9.2475
  43   2.0000      -0.331573        -9.0226
  44   2.0000      -0.325058        -8.8453
  45   2.0000      -0.315487        -8.5848
  46   2.0000      -0.292109        -7.9487
  47   2.0000      -0.271285        -7.3821
  48   2.0000      -0.264128        -7.1873
  49   2.0000      -0.252869        -6.8809
  50   2.0000      -0.236672        -6.4402
  51   0.0000       0.051355         1.3975
  52   0.0000       0.077513         2.1092
  53   0.0000       0.092094         2.5060
  54   0.0000       0.102494         2.7890
  55   0.0000       0.104633         2.8472

MULLIKEN ATOMIC CHARGES
-----------------------
   0 C :    0.297257
   1 C :   -0.264283
   2 C :   -0.300192
   3 C :   -0.010646
   4 O :   -0.523160
   5 H :    0.140072
   6 H :    0.140719
   7 H :    0.158311
   8 H :    0.135652
   9 H :    0.174205
  10 H :    0.167008
  11 H :    0.134207
  12 C :   -0.024195
  13 H :    0.143007
  14 H :    0.141290
  15 O :   -0.523405
  16 C :    0.099591
  17 C :    0.085234
  18 C :   -0.323480
  19 C :   -0.013817
  20 O :   -0.515382
  21 H :    0.162954
  22 H :    0.166040
  23 O :   -0.599632
  24 H :    0.157115
  25 H :    0.138347
  26 H :    0.155101
  27 H :    0.146080
  28 H :    0.356003
Sum of atomic charges:   -0.0000000

LOEWDIN ATOMIC CHARGES
----------------------
   0 C :    0.176927
   1 C :   -0.214966
   2 C :   -0.215175
   3 C :   -0.030971
   4 O :   -0.333237
   5 H :    0.092211
   6 H :    0.111850
   7 H :    0.124943
   8 H :    0.111250
   9 H :    0.125352
  10 H :    0.114422
  11 H :    0.097967
  12 C :   -0.053875
  13 H :    0.106465
  14 H :    0.102689
  15 O :   -0.326517
  16 C :    0.017141
  17 C :    0.035462
  18 C :   -0.239516
  19 C :   -0.032425
  20 O :   -0.318741
  21 H :    0.118071
  22 H :    0.118636
  23 O :   -0.406651
  24 H :    0.122577
  25 H :    0.106482
  26 H :    0.107415
  27 H :    0.104206
  28 H :    0.278007

  Mayer bond orders larger than 0.100000
B(  0-C ,  1-C ) :   0.9495 B(  0-C ,  4-O ) :   0.9043 B(  0-C ,  5-H ) :   0.9232
B(  0-C , 15-O ) :   0.8574 B(  1-C ,  2-C ) :   0.9570 B(  1-C ,  6-H ) :   0.9395
B(  1-C ,  7-H ) :   0.9362 B(  2-C ,  3-C ) :   0.9622 B(  2-C ,  8-H ) :   0.9449
B(  2-C ,  9-H ) :   0.9391 B(  3-C ,  4-O ) :   0.8256 B(  3-C , 10-H ) :   0.9185
B(  3-C , 11-H ) :   0.9400 B( 12-C , 13-H ) :   0.9157 B( 12-C , 14-H ) :   0.9161
B( 12-C , 15-O ) :   0.8441 B( 12-C , 16-C ) :   0.9011 B( 16-C , 17-C ) :   0.8703
B( 16-C , 20-O ) :   0.8623 B( 16-C , 21-H ) :   0.9313 B( 17-C , 18-C ) :   0.9211
B( 17-C , 22-H ) :   0.9335 B( 17-C , 23-O ) :   0.8986 B( 18-C , 19-C ) :   0.9420
B( 18-C , 24-H ) :   0.9420 B( 18-C , 25-H ) :   0.9406 B( 19-C , 20-O ) :   0.8399
B( 19-C , 26-H ) :   0.9235 B( 19-C , 27-H ) :   0.9383 B( 23-O , 28-H ) :   0.7979

FINAL SINGLE POINT ENERGY      -652.863810901102

DIPOLE MOMENT
-------------
                                X             Y             Z
Electronic contribution:     -3.13145      -1.30622      -1.70933
Nuclear contribution   :      3.74213       0.94208       2.06516
                        -----------------------------------------
Total Dipole Moment    :      0.61068      -0.36414       0.35583
                        -----------------------------------------
Magnitude (a.u.)       :      0.79507
Magnitude (Debye)      :      2.02091

Rotational constants in cm-1:     0.051957     0.016904     0.014684
Rotational constants in MHz :  1557.619866   506.767041   440.212477

                             ****ORCA TERMINATED NORMALLY****
TOTAL RUN TIME: 0 days 1 hours 52 minutes 9 seconds 316 msec
