                         Program Version 4.2.1 -  RELEASE  -
|  1> # Test redundant internal optimization
|  2> #
|  3> ! RKS B3LYP  Opt TightSCF SmallPrint
|  4>
|  5> %basis
|  6>         Basis "6-31G"
|  7> end
|  8>
|  9> %geom
| 10> Constraints
| 11> { D 4  0  19  14  240.0   C } # D for Dihedral angle
| 12> { D 0  19  14  12  150.0   C } # D for Dihedral angle
| 13> { D 0  4  3  2   C } # D for Dihedral angle
| 14> { D 4  3  2  1   C } # D for Dihedral angle
| 15> { D 3  2  1  0   C } # D for Dihedral angle
| 16> { D 2  1  0  4   C } # D for Dihedral angle
| 17> { D 1  0  4  3   C } # D for Dihedral angle
| 18> { D 14  15  16  17   C } # D for Dihedral angle
| 19> { D 15  16  17  12   C } # D for Dihedral angle
| 20> { D 16  17  12  14   C } # D for Dihedral angle
| 21> { D 17  12  14  15   C } # D for Dihedral angle
| 22> { D 12  14  15  16   C } # D for Dihedral angle
| 23> end
| 24> end
| 25>
| 26>
| 27> #%pal
| 28> #nprocs 8
| 29> #end
| 30>
| 31> * xyz 0 1
| 32> C  -21.048   26.222   46.251
| 33> C  -20.361   27.558   45.944
| 34> C  -20.329   28.222   47.341
| 35> C  -20.110   27.022   48.296
| 36> O  -20.473   25.807   47.535
| 37> H  -20.833   25.428   45.533
| 38> H  -19.344   27.382   45.576
| 39> H  -20.898   28.157   45.201
| 40> H  -19.543   28.978   47.434
| 41> H  -21.289   28.710   47.548
| 42> H  -20.733   27.082   49.195
| 43> H  -19.064   26.913   48.597
| 44> C  -24.586   25.197   46.139
| 45> H  -25.062   24.334   45.647
| 46> C  -23.235   25.530   45.496
| 47> C  -23.672   26.298   44.227
| 48> C  -24.930   27.070   44.698
| 49> O  -25.390   26.407   45.938
| 50> H  -24.544   25.017   47.214
| 51> O  -22.472   26.381   46.366
| 52> H  -22.636   24.641   45.269
| 53> H  -22.893   26.963   43.843
| 54> H  -23.931   25.590   43.428
| 55> H  -25.738   27.048   43.959
| 56> H  -24.710   28.111   44.952
| 57> *
| 58>
| 59>                          ****END OF INPUT****
 Total Charge           Charge          ....    0
 Multiplicity           Mult            ....    1
 Number of Electrons    NEL             ....   86
FINAL SINGLE POINT ENERGY      -538.430089670235
FINAL SINGLE POINT ENERGY      -538.432111161741
FINAL SINGLE POINT ENERGY      -538.432303518587
FINAL SINGLE POINT ENERGY      -538.432330809964
FINAL SINGLE POINT ENERGY      -538.432337585142
                    ***********************HURRAY********************

CARTESIAN COORDINATES (ANGSTROEM)
---------------------------------
  C    -20.974669   26.202377   46.219671
  C    -20.346236   27.570525   45.955146
  C    -20.390298   28.219743   47.359732
  C    -20.144106   27.019957   48.301354
  O    -20.429989   25.807073   47.494392
  H    -20.715497   25.416419   45.503180
  H    -19.310542   27.438419   45.619387
  H    -20.894064   28.139027   45.200245
  H    -19.643031   29.009053   47.483854
  H    -21.382308   28.646972   47.533840
  H    -20.798532   27.020532   49.176351
  H    -19.102383   26.941645   48.626932
  C    -24.563867   25.243188   46.170113
  H    -25.085645   24.385596   45.720234
  C    -23.238515   25.505348   45.453712
  C    -23.707513   26.264137   44.196004
  C    -24.905788   27.097984   44.711430
  O    -25.325860   26.478814   45.985349
  H    -24.436337   25.086947   47.241330
  O    -22.413845   26.345120   46.311367
  H    -22.700398   24.578196   45.213739
  H    -22.911839   26.881058   43.768737
  H    -24.026573   25.542670   43.434165
  H    -25.750254   27.095882   44.012639
  H    -24.625911   28.131317   44.934099

 Multiplicity           Mult            ....    1
 Number of Electrons    NEL             ....   86
 Basis Dimension        Dim             ....  127

ORBITAL ENERGIES
----------------

  NO   OCC          E(Eh)            E(eV)
   0   2.0000     -19.139776      -520.8198
   1   2.0000     -19.136790      -520.7385
   2   2.0000     -19.126592      -520.4610
   3   2.0000     -10.279835      -279.7285
   4   2.0000     -10.242737      -278.7191
   5   2.0000     -10.222227      -278.1609
   6   2.0000     -10.220907      -278.1250
   7   2.0000     -10.219591      -278.0892
   8   2.0000     -10.188139      -277.2334
   9   2.0000     -10.184866      -277.1443
  10   2.0000     -10.183461      -277.1061
  11   2.0000      -1.052117       -28.6296
  12   2.0000      -1.013560       -27.5804
  13   2.0000      -0.989605       -26.9285
  14   2.0000      -0.789688       -21.4885
  15   2.0000      -0.777293       -21.1512
  16   2.0000      -0.741105       -20.1665
  17   2.0000      -0.719818       -19.5872
  18   2.0000      -0.606081       -16.4923
  19   2.0000      -0.600275       -16.3343
  20   2.0000      -0.595346       -16.2002
  21   2.0000      -0.580401       -15.7935
  22   2.0000      -0.520350       -14.1594
  23   2.0000      -0.504129       -13.7180
  24   2.0000      -0.481184       -13.0937
  25   2.0000      -0.477955       -13.0058
  26   2.0000      -0.453068       -12.3286
  27   2.0000      -0.444721       -12.1015
  28   2.0000      -0.425023       -11.5655
  29   2.0000      -0.416198       -11.3253
  30   2.0000      -0.405542       -11.0354
  31   2.0000      -0.386148       -10.5076
  32   2.0000      -0.374924       -10.2022
  33   2.0000      -0.366469        -9.9721
  34   2.0000      -0.356451        -9.6995
  35   2.0000      -0.353048        -9.6069
  36   2.0000      -0.345518        -9.4020
  37   2.0000      -0.314671        -8.5626
  38   2.0000      -0.308777        -8.4023
  39   2.0000      -0.297371        -8.0919
  40   2.0000      -0.265414        -7.2223
  41   2.0000      -0.248468        -6.7612
  42   2.0000      -0.230685        -6.2772
  43   0.0000       0.073797         2.0081
  44   0.0000       0.084955         2.3117
  45   0.0000       0.098496         2.6802
  46   0.0000       0.114921         3.1272
  47   0.0000       0.120986         3.2922

MULLIKEN ATOMIC CHARGES
-----------------------
   0 C :    0.285037
   1 C :   -0.254853
   2 C :   -0.301149
   3 C :   -0.000637
   4 O :   -0.503286
   5 H :    0.136842
   6 H :    0.141609
   7 H :    0.144611
   8 H :    0.140377
   9 H :    0.167520
  10 H :    0.153228
  11 H :    0.139633
  12 C :    0.008064
  13 H :    0.122337
  14 C :    0.058245
  15 C :   -0.290572
  16 C :    0.001399
  17 O :   -0.518003
  18 H :    0.171942
  19 O :   -0.508376
  20 H :    0.131280
  21 H :    0.146103
  22 H :    0.140669
  23 H :    0.137038
  24 H :    0.150944
Sum of atomic charges:   -0.0000000

LOEWDIN ATOMIC CHARGES
----------------------
   0 C :    0.175888
   1 C :   -0.221687
   2 C :   -0.216616
   3 C :   -0.026191
   4 O :   -0.317453
   5 H :    0.096408
   6 H :    0.111745
   7 H :    0.116070
   8 H :    0.113433
   9 H :    0.121816
  10 H :    0.108684
  11 H :    0.101227
  12 C :   -0.034860
  13 H :    0.090748
  14 C :    0.039972
  15 C :   -0.236729
  16 C :   -0.029105
  17 O :   -0.328488
  18 H :    0.125433
  19 O :   -0.324174
  20 H :    0.098740
  21 H :    0.117296
  22 H :    0.112359
  23 H :    0.098704
  24 H :    0.106777

  Mayer bond orders larger than 0.100000
B(  0-C ,  1-C ) :   0.9421 B(  0-C ,  4-O ) :   0.9295 B(  0-C ,  5-H ) :   0.9170
B(  0-C , 19-O ) :   0.8475 B(  1-C ,  2-C ) :   0.9571 B(  1-C ,  6-H ) :   0.9368
B(  1-C ,  7-H ) :   0.9375 B(  2-C ,  3-C ) :   0.9545 B(  2-C ,  8-H ) :   0.9452
B(  2-C ,  9-H ) :   0.9426 B(  3-C ,  4-O ) :   0.8374 B(  3-C , 10-H ) :   0.9345
B(  3-C , 11-H ) :   0.9399 B( 12-C , 13-H ) :   0.9150 B( 12-C , 14-C ) :   0.9352
B( 12-C , 17-O ) :   0.8712 B( 12-C , 18-H ) :   0.9298 B( 14-C , 15-C ) :   0.9344
B( 14-C , 19-O ) :   0.8375 B( 14-C , 20-H ) :   0.9178 B( 15-C , 16-C ) :   0.9466
B( 15-C , 21-H ) :   0.9411 B( 15-C , 22-H ) :   0.9369 B( 16-C , 17-O ) :   0.8593
B( 16-C , 23-H ) :   0.9326 B( 16-C , 24-H ) :   0.9359

FINAL SINGLE POINT ENERGY      -538.432338464975

DIPOLE MOMENT
-------------
                                X             Y             Z
Electronic contribution:     -1.49982      -2.65477       2.17983
Nuclear contribution   :      2.24203       2.85204      -3.18193
                        -----------------------------------------
Total Dipole Moment    :      0.74221       0.19727      -1.00209
                        -----------------------------------------
Magnitude (a.u.)       :      1.26253
Magnitude (Debye)      :      3.20909

Rotational constants in cm-1:     0.078654     0.020130     0.019329
Rotational constants in MHz :  2358.002226   603.473579   579.460975

                             ****ORCA TERMINATED NORMALLY****
TOTAL RUN TIME: 0 days 0 hours 5 minutes 39 seconds 832 msec
