                         Program Version 4.2.0 -  RELEASE  -
|  1> # Test redundant internal optimization
|  2> #
|  3> ! RKS B3LYP  Opt TightSCF SmallPrint
|  4>
|  5> %basis
|  6>         Basis "6-31G"
|  7> end
|  8>
|  9> %geom
| 10> Constraints
| 11> { D 4  0  15  12  135.0   C } # D for Dihedral angle
| 12> { D 0  15  12  16  210.0   C } # D for Dihedral angle
| 13> { D 0  4  3  2   C } # D for Dihedral angle
| 14> { D 4  3  2  1   C } # D for Dihedral angle
| 15> { D 3  2  1  0   C } # D for Dihedral angle
| 16> { D 2  1  0  4   C } # D for Dihedral angle
| 17> { D 1  0  4  3   C } # D for Dihedral angle
| 18> { D 16  20  19  18   C } # D for Dihedral angle
| 19> { D 20  19  18  17   C } # D for Dihedral angle
| 20> { D 19  18  17  16   C } # D for Dihedral angle
| 21> { D 18  17  16  20   C } # D for Dihedral angle
| 22> { D 17  16  20  19   C } # D for Dihedral angle
| 23> { D 15  12  16  20   C } # D for Dihedral angle
| 24> end
| 25> end
| 26>
| 27>
| 28> #%pal
| 29> #nprocs 8
| 30> #end
| 31>
| 32> * xyz 0 1
| 33> C  -21.048   26.222   46.251
| 34> C  -20.361   27.558   45.944
| 35> C  -20.329   28.222   47.341
| 36> C  -20.110   27.022   48.296
| 37> O  -20.473   25.807   47.535
| 38> H  -20.833   25.428   45.533
| 39> H  -19.344   27.382   45.576
| 40> H  -20.898   28.157   45.201
| 41> H  -19.543   28.978   47.434
| 42> H  -21.289   28.710   47.548
| 43> H  -20.733   27.082   49.195
| 44> H  -19.064   26.913   48.597
| 45> C  -23.162   27.680   45.721
| 46> H  -22.403   28.471   45.749
| 47> H  -23.423   27.492   44.671
| 48> O  -22.586   26.394   46.375
| 49> C  -24.437   28.200   46.439
| 50> C  -24.125   28.648   47.871
| 51> C  -23.502   30.045   47.634
| 52> C  -24.300   30.584   46.420
| 53> O  -24.937   29.412   45.782
| 54> H  -25.224   27.447   46.362
| 55> O  -25.440   28.766   48.691
| 56> H  -23.451   27.966   48.400
| 57> H  -23.580   30.698   48.509
| 58> H  -22.439   29.945   47.385
| 59> H  -23.660   31.087   45.688
| 60> H  -25.101   31.266   46.717
| 61> H  -26.132   29.446   48.181
| 62> *
| 63>
| 64>                          ****END OF INPUT****
 Total Charge           Charge          ....    0
 Multiplicity           Mult            ....    1
 Number of Electrons    NEL             ....  102
FINAL SINGLE POINT ENERGY      -652.817856111917
FINAL SINGLE POINT ENERGY      -652.842060969265
FINAL SINGLE POINT ENERGY      -652.851460752810
FINAL SINGLE POINT ENERGY      -652.853510366492
FINAL SINGLE POINT ENERGY      -652.853857030892
FINAL SINGLE POINT ENERGY      -652.853915588392
FINAL SINGLE POINT ENERGY      -652.853923139669
                    ***********************HURRAY********************

CARTESIAN COORDINATES (ANGSTROEM)
---------------------------------
  C    -21.171715   26.295268   46.300080
  C    -20.173347   27.390045   45.917170
  C    -20.050009   28.193276   47.239762
  C    -20.172163   27.090248   48.315841
  O    -20.780408   25.922642   47.632553
  H    -21.082289   25.386100   45.700976
  H    -19.221701   26.905365   45.674683
  H    -20.465730   27.998026   45.057586
  H    -19.104094   28.738626   47.308535
  H    -20.863022   28.919834   47.327364
  H    -20.805415   27.378607   49.159274
  H    -19.199675   26.761789   48.693159
  C    -23.145909   27.808474   45.635815
  H    -22.430662   28.639472   45.591308
  H    -23.444934   27.564153   44.609641
  O    -22.587155   26.642414   46.299890
  C    -24.381922   28.234521   46.435458
  C    -24.127917   28.666279   47.886880
  C    -23.640273   30.127544   47.699768
  C    -24.475718   30.624076   46.492852
  O    -24.991323   29.412685   45.809551
  H    -25.123967   27.431756   46.403632
  O    -25.356134   28.613945   48.662940
  H    -23.422449   28.018549   48.404306
  H    -23.813870   30.711761   48.607183
  H    -22.569016   30.153030   47.476051
  H    -23.888256   31.212220   45.780388
  H    -25.344502   31.215331   46.798727
  H    -26.093426   28.971966   48.124624

 Multiplicity           Mult            ....    1
 Number of Electrons    NEL             ....  102
 Basis Dimension        Dim             ....  149

ORBITAL ENERGIES
----------------

  NO   OCC          E(Eh)            E(eV)
   0   2.0000     -19.147300      -521.0245
   1   2.0000     -19.143381      -520.9179
   2   2.0000     -19.142871      -520.9040
   3   2.0000     -19.135555      -520.7049
   4   2.0000     -10.284770      -279.8628
   5   2.0000     -10.237310      -278.5714
   6   2.0000     -10.236332      -278.5447
   7   2.0000     -10.235011      -278.5088
   8   2.0000     -10.233605      -278.4706
   9   2.0000     -10.231817      -278.4219
  10   2.0000     -10.199503      -277.5426
  11   2.0000     -10.199210      -277.5346
  12   2.0000     -10.191588      -277.3272
  13   2.0000      -1.054243       -28.6874
  14   2.0000      -1.038067       -28.2472
  15   2.0000      -1.005432       -27.3592
  16   2.0000      -0.996790       -27.1240
  17   2.0000      -0.796255       -21.6672
  18   2.0000      -0.782818       -21.3016
  19   2.0000      -0.772432       -21.0189
  20   2.0000      -0.736171       -20.0322
  21   2.0000      -0.682475       -18.5711
  22   2.0000      -0.610988       -16.6258
  23   2.0000      -0.605740       -16.4830
  24   2.0000      -0.597052       -16.2466
  25   2.0000      -0.578511       -15.7421
  26   2.0000      -0.528679       -14.3861
  27   2.0000      -0.514112       -13.9897
  28   2.0000      -0.507348       -13.8056
  29   2.0000      -0.497378       -13.5343
  30   2.0000      -0.478096       -13.0097
  31   2.0000      -0.458720       -12.4824
  32   2.0000      -0.452361       -12.3094
  33   2.0000      -0.444053       -12.0833
  34   2.0000      -0.429217       -11.6796
  35   2.0000      -0.417529       -11.3615
  36   2.0000      -0.409171       -11.1341
  37   2.0000      -0.394692       -10.7401
  38   2.0000      -0.386997       -10.5307
  39   2.0000      -0.374818       -10.1993
  40   2.0000      -0.367811       -10.0086
  41   2.0000      -0.359512        -9.7828
  42   2.0000      -0.356524        -9.7015
  43   2.0000      -0.334225        -9.0947
  44   2.0000      -0.318897        -8.6776
  45   2.0000      -0.307180        -8.3588
  46   2.0000      -0.296971        -8.0810
  47   2.0000      -0.276600        -7.5267
  48   2.0000      -0.265888        -7.2352
  49   2.0000      -0.254936        -6.9372
  50   2.0000      -0.246181        -6.6989
  51   0.0000       0.053272         1.4496
  52   0.0000       0.064406         1.7526
  53   0.0000       0.087789         2.3889
  54   0.0000       0.091461         2.4888
  55   0.0000       0.100512         2.7351

MULLIKEN ATOMIC CHARGES
-----------------------
   0 C :    0.326280
   1 C :   -0.304074
   2 C :   -0.319025
   3 C :   -0.005358
   4 O :   -0.493626
   5 H :    0.156830
   6 H :    0.159034
   7 H :    0.147843
   8 H :    0.147683
   9 H :    0.157072
  10 H :    0.151835
  11 H :    0.148200
  12 C :   -0.004510
  13 H :    0.120937
  14 H :    0.149941
  15 O :   -0.534469
  16 C :    0.062007
  17 C :    0.082413
  18 C :   -0.309275
  19 C :   -0.035554
  20 O :   -0.526474
  21 H :    0.174585
  22 O :   -0.600795
  23 H :    0.178697
  24 H :    0.163805
  25 H :    0.146371
  26 H :    0.145306
  27 H :    0.150842
  28 H :    0.363480
Sum of atomic charges:   -0.0000000

LOEWDIN ATOMIC CHARGES
----------------------
   0 C :    0.185811
   1 C :   -0.232645
   2 C :   -0.222003
   3 C :   -0.029471
   4 O :   -0.306696
   5 H :    0.104405
   6 H :    0.124068
   7 H :    0.115770
   8 H :    0.117671
   9 H :    0.107311
  10 H :    0.106463
  11 H :    0.105810
  12 C :   -0.036176
  13 H :    0.089980
  14 H :    0.105835
  15 O :   -0.337747
  16 C :    0.017043
  17 C :    0.037659
  18 C :   -0.244840
  19 C :   -0.039597
  20 O :   -0.330185
  21 H :    0.121572
  22 O :   -0.412064
  23 H :    0.127320
  24 H :    0.127462
  25 H :    0.108192
  26 H :    0.102844
  27 H :    0.104328
  28 H :    0.281880

  Mayer bond orders larger than 0.100000
B(  0-C ,  1-C ) :   0.9306 B(  0-C ,  4-O ) :   0.9251 B(  0-C ,  5-H ) :   0.9288
B(  0-C , 15-O ) :   0.8500 B(  1-C ,  2-C ) :   0.9503 B(  1-C ,  6-H ) :   0.9331
B(  1-C ,  7-H ) :   0.9294 B(  2-C ,  3-C ) :   0.9506 B(  2-C ,  8-H ) :   0.9460
B(  2-C ,  9-H ) :   0.9279 B(  3-C ,  4-O ) :   0.8430 B(  3-C , 10-H ) :   0.9318
B(  3-C , 11-H ) :   0.9386 B( 12-C , 13-H ) :   0.9112 B( 12-C , 14-H ) :   0.9204
B( 12-C , 15-O ) :   0.8300 B( 12-C , 16-C ) :   0.9001 B( 16-C , 17-C ) :   0.9103
B( 16-C , 20-O ) :   0.8412 B( 16-C , 21-H ) :   0.9235 B( 17-C , 18-C ) :   0.9127
B( 17-C , 22-O ) :   0.8897 B( 17-C , 23-H ) :   0.9204 B( 18-C , 19-C ) :   0.9383
B( 18-C , 24-H ) :   0.9371 B( 18-C , 25-H ) :   0.9211 B( 19-C , 20-O ) :   0.8459
B( 19-C , 26-H ) :   0.9354 B( 19-C , 27-H ) :   0.9371 B( 22-O , 28-H ) :   0.7950

FINAL SINGLE POINT ENERGY      -652.853924627044

DIPOLE MOMENT
-------------
                                X             Y             Z
Electronic contribution:     -5.04649      -4.93856      -0.03556
Nuclear contribution   :      6.26862       6.31201      -0.57738
                        -----------------------------------------
Total Dipole Moment    :      1.22213       1.37345      -0.61293
                        -----------------------------------------
Magnitude (a.u.)       :      1.93795
Magnitude (Debye)      :      4.92587

Rotational constants in cm-1:     0.046180     0.015527     0.015079
Rotational constants in MHz :  1384.454479   465.492853   452.067562

                             ****ORCA TERMINATED NORMALLY****
TOTAL RUN TIME: 0 days 0 hours 27 minutes 38 seconds 599 msec
