                         Program Version 4.2.0 -  RELEASE  -
|  1> # Test redundant internal optimization
|  2> #
|  3> ! RKS B3LYP  Opt TightSCF SmallPrint
|  4>
|  5> %basis
|  6>         Basis "6-31G"
|  7> end
|  8>
|  9> %geom
| 10> Constraints
| 11> { D 4  0  15  12  60.0   C } # D for Dihedral angle
| 12> { D 0  15  12  16  240.0   C } # D for Dihedral angle
| 13> { D 0  4  3  2   C } # D for Dihedral angle
| 14> { D 4  3  2  1   C } # D for Dihedral angle
| 15> { D 3  2  1  0   C } # D for Dihedral angle
| 16> { D 2  1  0  4   C } # D for Dihedral angle
| 17> { D 1  0  4  3   C } # D for Dihedral angle
| 18> { D 16  20  19  18   C } # D for Dihedral angle
| 19> { D 20  19  18  17   C } # D for Dihedral angle
| 20> { D 19  18  17  16   C } # D for Dihedral angle
| 21> { D 18  17  16  20   C } # D for Dihedral angle
| 22> { D 17  16  20  19   C } # D for Dihedral angle
| 23> { D 15  12  16  20   C } # D for Dihedral angle
| 24> end
| 25> end
| 26>
| 27>
| 28> #%pal
| 29> #nprocs 8
| 30> #end
| 31>
| 32> * xyz 0 1
| 33> C  -21.048   26.222   46.251
| 34> C  -20.361   27.558   45.944
| 35> C  -20.329   28.222   47.341
| 36> C  -20.110   27.022   48.296
| 37> O  -20.473   25.807   47.535
| 38> H  -20.833   25.428   45.533
| 39> H  -19.344   27.382   45.576
| 40> H  -20.898   28.157   45.201
| 41> H  -19.543   28.978   47.434
| 42> H  -21.289   28.710   47.548
| 43> H  -20.733   27.082   49.195
| 44> H  -19.064   26.913   48.597
| 45> C  -23.051   27.452   47.413
| 46> H  -22.171   27.909   47.883
| 47> H  -23.628   28.245   46.921
| 48> O  -22.586   26.394   46.375
| 49> C  -23.941   26.844   48.533
| 50> C  -24.475   27.931   49.471
| 51> C  -25.645   28.513   48.643
| 52> C  -26.205   27.272   47.905
| 53> O  -25.147   26.240   47.957
| 54> H  -23.390   26.045   49.033
| 55> H  -24.845   27.480   50.399
| 56> O  -23.408   28.999   49.838
| 57> H  -26.401   29.005   49.264
| 58> H  -25.268   29.252   47.926
| 59> H  -26.449   27.482   46.857
| 60> H  -27.087   26.855   48.398
| 61> H  -23.023   29.466   48.924
| 62> *
| 63>
| 64>                          ****END OF INPUT****
 Total Charge           Charge          ....    0
 Multiplicity           Mult            ....    1
 Number of Electrons    NEL             ....  102
FINAL SINGLE POINT ENERGY      -652.791221660981
FINAL SINGLE POINT ENERGY      -652.825886521853
FINAL SINGLE POINT ENERGY      -652.844319972318
FINAL SINGLE POINT ENERGY      -652.847995265297
FINAL SINGLE POINT ENERGY      -652.848656739656
FINAL SINGLE POINT ENERGY      -652.848852455738
FINAL SINGLE POINT ENERGY      -652.848878943928
FINAL SINGLE POINT ENERGY      -652.848885147318
FINAL SINGLE POINT ENERGY      -652.848874830966
FINAL SINGLE POINT ENERGY      -652.848870369231
                    ***********************HURRAY********************

CARTESIAN COORDINATES (ANGSTROEM)
---------------------------------
  C    -21.167562   26.337440   46.413296
  C    -20.252350   27.452950   45.884331
  C    -19.847029   28.190460   47.196317
  C    -19.758547   27.028575   48.220087
  O    -20.508329   25.894566   47.624509
  H    -21.185056   25.468902   45.752748
  H    -19.377380   26.993411   45.413458
  H    -20.751557   28.096077   45.154924
  H    -18.890261   28.713733   47.099098
  H    -20.596715   28.933482   47.478914
  H    -20.195892   27.274251   49.192595
  H    -18.729870   26.687352   48.367942
  C    -23.089593   27.611681   47.469176
  H    -22.297716   28.110270   48.032146
  H    -23.624065   28.357633   46.867141
  O    -22.573787   26.607673   46.550084
  C    -24.019291   26.934039   48.476752
  C    -24.660598   27.907243   49.478763
  C    -25.878459   28.445153   48.669143
  C    -26.310179   27.210364   47.847194
  O    -25.159673   26.274024   47.849054
  H    -23.449868   26.141170   48.969328
  H    -24.999292   27.354052   50.357334
  O    -23.771701   28.928899   50.002554
  H    -26.672850   28.827936   49.315406
  H    -25.549364   29.264321   48.014295
  H    -26.569822   27.457092   46.813097
  H    -27.152837   26.684477   48.305617
  H    -23.705357   29.677775   49.375699

 Multiplicity           Mult            ....    1
 Number of Electrons    NEL             ....  102
 Basis Dimension        Dim             ....  149

ORBITAL ENERGIES
----------------

  NO   OCC          E(Eh)            E(eV)
   0   2.0000     -19.151812      -521.1473
   1   2.0000     -19.139844      -520.8216
   2   2.0000     -19.138118      -520.7747
   3   2.0000     -19.133067      -520.6372
   4   2.0000     -10.274632      -279.5869
   5   2.0000     -10.244548      -278.7683
   6   2.0000     -10.229025      -278.3459
   7   2.0000     -10.228228      -278.3242
   8   2.0000     -10.228089      -278.3204
   9   2.0000     -10.225141      -278.2402
  10   2.0000     -10.197061      -277.4761
  11   2.0000     -10.193482      -277.3788
  12   2.0000     -10.189114      -277.2599
  13   2.0000      -1.048780       -28.5388
  14   2.0000      -1.033285       -28.1171
  15   2.0000      -1.013710       -27.5844
  16   2.0000      -0.991589       -26.9825
  17   2.0000      -0.787513       -21.4293
  18   2.0000      -0.782801       -21.3011
  19   2.0000      -0.770098       -20.9554
  20   2.0000      -0.731243       -19.8981
  21   2.0000      -0.682102       -18.5609
  22   2.0000      -0.611879       -16.6501
  23   2.0000      -0.603455       -16.4209
  24   2.0000      -0.598089       -16.2748
  25   2.0000      -0.567112       -15.4319
  26   2.0000      -0.522147       -14.2083
  27   2.0000      -0.514684       -14.0053
  28   2.0000      -0.502267       -13.6674
  29   2.0000      -0.492741       -13.4082
  30   2.0000      -0.466655       -12.6983
  31   2.0000      -0.458966       -12.4891
  32   2.0000      -0.438895       -11.9429
  33   2.0000      -0.433410       -11.7937
  34   2.0000      -0.424289       -11.5455
  35   2.0000      -0.418428       -11.3860
  36   2.0000      -0.417326       -11.3560
  37   2.0000      -0.400876       -10.9084
  38   2.0000      -0.380011       -10.3406
  39   2.0000      -0.377014       -10.2591
  40   2.0000      -0.359966        -9.7952
  41   2.0000      -0.354974        -9.6593
  42   2.0000      -0.345226        -9.3941
  43   2.0000      -0.327210        -8.9038
  44   2.0000      -0.317804        -8.6479
  45   2.0000      -0.313884        -8.5412
  46   2.0000      -0.299261        -8.1433
  47   2.0000      -0.271675        -7.3926
  48   2.0000      -0.264308        -7.1922
  49   2.0000      -0.252092        -6.8598
  50   2.0000      -0.233013        -6.3406
  51   0.0000       0.046080         1.2539
  52   0.0000       0.073198         1.9918
  53   0.0000       0.084536         2.3003
  54   0.0000       0.091972         2.5027
  55   0.0000       0.101076         2.7504

MULLIKEN ATOMIC CHARGES
-----------------------
   0 C :    0.294500
   1 C :   -0.269698
   2 C :   -0.317032
   3 C :   -0.016227
   4 O :   -0.505712
   5 H :    0.168237
   6 H :    0.154522
   7 H :    0.148031
   8 H :    0.144884
   9 H :    0.144527
  10 H :    0.152983
  11 H :    0.148012
  12 C :   -0.028006
  13 H :    0.136741
  14 H :    0.127153
  15 O :   -0.505649
  16 C :    0.107570
  17 C :    0.080273
  18 C :   -0.328274
  19 C :   -0.007803
  20 O :   -0.502663
  21 H :    0.171858
  22 H :    0.168496
  23 O :   -0.602010
  24 H :    0.157480
  25 H :    0.129766
  26 H :    0.145717
  27 H :    0.148794
  28 H :    0.353531
Sum of atomic charges:   -0.0000000

LOEWDIN ATOMIC CHARGES
----------------------
   0 C :    0.173900
   1 C :   -0.228703
   2 C :   -0.225094
   3 C :   -0.036517
   4 O :   -0.323129
   5 H :    0.114444
   6 H :    0.121122
   7 H :    0.118496
   8 H :    0.115276
   9 H :    0.105973
  10 H :    0.105507
  11 H :    0.105432
  12 C :   -0.052580
  13 H :    0.103214
  14 H :    0.096397
  15 O :   -0.306010
  16 C :    0.019205
  17 C :    0.032705
  18 C :   -0.241854
  19 C :   -0.029197
  20 O :   -0.310868
  21 H :    0.124260
  22 H :    0.119848
  23 O :   -0.411110
  24 H :    0.121925
  25 H :    0.101865
  26 H :    0.103557
  27 H :    0.105668
  28 H :    0.276266

  Mayer bond orders larger than 0.100000
B(  0-C ,  1-C ) :   0.9133 B(  0-C ,  4-O ) :   0.8938 B(  0-C ,  5-H ) :   0.9357
B(  0-C , 15-O ) :   0.9141 B(  1-C ,  2-C ) :   0.9545 B(  1-C ,  6-H ) :   0.9353
B(  1-C ,  7-H ) :   0.9385 B(  2-C ,  3-C ) :   0.9457 B(  2-C ,  8-H ) :   0.9447
B(  2-C ,  9-H ) :   0.9405 B(  3-C ,  4-O ) :   0.8465 B(  3-C , 10-H ) :   0.9311
B(  3-C , 11-H ) :   0.9384 B( 12-C , 13-H ) :   0.8919 B( 12-C , 14-H ) :   0.9349
B( 12-C , 15-O ) :   0.8468 B( 12-C , 16-C ) :   0.8955 B( 16-C , 17-C ) :   0.8676
B( 16-C , 20-O ) :   0.8699 B( 16-C , 21-H ) :   0.9282 B( 17-C , 18-C ) :   0.9289
B( 17-C , 22-H ) :   0.9323 B( 17-C , 23-O ) :   0.8880 B( 18-C , 19-C ) :   0.9383
B( 18-C , 24-H ) :   0.9418 B( 18-C , 25-H ) :   0.9399 B( 19-C , 20-O ) :   0.8555
B( 19-C , 26-H ) :   0.9307 B( 19-C , 27-H ) :   0.9377 B( 23-O , 28-H ) :   0.8004

FINAL SINGLE POINT ENERGY      -652.848870324559

DIPOLE MOMENT
-------------
                                X             Y             Z
Electronic contribution:     -1.60659      -4.94246       0.50933
Nuclear contribution   :      1.72406       6.73893      -0.77095
                        -----------------------------------------
Total Dipole Moment    :      0.11746       1.79646      -0.26162
                        -----------------------------------------
Magnitude (a.u.)       :      1.81921
Magnitude (Debye)      :      4.62406

Rotational constants in cm-1:     0.050033     0.014658     0.013002
Rotational constants in MHz :  1499.957258   439.440548   389.794371

                             ****ORCA TERMINATED NORMALLY****
TOTAL RUN TIME: 0 days 0 hours 51 minutes 8 seconds 456 msec
