                         Program Version 4.2.0 -  RELEASE  -
|  1> # Test redundant internal optimization
|  2> #
|  3> ! RKS B3LYP  Opt TightSCF SmallPrint
|  4>
|  5> %basis
|  6>         Basis "6-31G"
|  7> end
|  8>
|  9> %geom
| 10> Constraints
| 11> { D 4  0  15  12  120.0   C } # D for Dihedral angle
| 12> { D 0  15  12  16  135.0   C } # D for Dihedral angle
| 13> { D 0  4  3  2   C } # D for Dihedral angle
| 14> { D 4  3  2  1   C } # D for Dihedral angle
| 15> { D 3  2  1  0   C } # D for Dihedral angle
| 16> { D 2  1  0  4   C } # D for Dihedral angle
| 17> { D 1  0  4  3   C } # D for Dihedral angle
| 18> { D 16  20  19  18   C } # D for Dihedral angle
| 19> { D 20  19  18  17   C } # D for Dihedral angle
| 20> { D 19  18  17  16   C } # D for Dihedral angle
| 21> { D 18  17  16  20   C } # D for Dihedral angle
| 22> { D 17  16  20  19   C } # D for Dihedral angle
| 23> { D 15  12  16  20   C } # D for Dihedral angle
| 24> end
| 25> end
| 26>
| 27>
| 28> #%pal
| 29> #nprocs 8
| 30> #end
| 31>
| 32> * xyz 0 1
| 33> C  -21.048   26.222   46.251
| 34> C  -20.361   27.558   45.944
| 35> C  -20.329   28.222   47.341
| 36> C  -20.110   27.022   48.296
| 37> O  -20.473   25.807   47.535
| 38> H  -20.833   25.428   45.533
| 39> H  -19.344   27.382   45.576
| 40> H  -20.898   28.157   45.201
| 41> H  -19.543   28.978   47.434
| 42> H  -21.289   28.710   47.548
| 43> H  -20.733   27.082   49.195
| 44> H  -19.064   26.913   48.597
| 45> C  -23.119   27.818   46.058
| 46> H  -23.379   28.324   46.996
| 47> H  -22.348   28.412   45.549
| 48> O  -22.586   26.394   46.375
| 49> C  -24.378   27.799   45.147
| 50> C  -24.807   29.219   44.761
| 51> C  -23.805   29.552   43.630
| 52> C  -23.610   28.189   42.920
| 53> O  -24.075   27.152   43.866
| 54> H  -25.159   27.206   45.629
| 55> O  -26.262   29.207   44.218
| 56> H  -24.755   29.926   45.596
| 57> H  -24.174   30.328   42.951
| 58> H  -22.858   29.904   44.057
| 59> H  -22.562   27.996   42.664
| 60> H  -24.219   28.098   42.017
| 61> H  -26.337   28.505   43.380
| 62> *
| 63>
| 64>                          ****END OF INPUT****
 Total Charge           Charge          ....    0
 Multiplicity           Mult            ....    1
 Number of Electrons    NEL             ....  102
FINAL SINGLE POINT ENERGY      -652.814637554927
FINAL SINGLE POINT ENERGY      -652.838917342909
FINAL SINGLE POINT ENERGY      -652.848707959338
FINAL SINGLE POINT ENERGY      -652.850782893920
FINAL SINGLE POINT ENERGY      -652.851158772528
FINAL SINGLE POINT ENERGY      -652.851201248456
FINAL SINGLE POINT ENERGY      -652.851208086529
                    ***********************HURRAY********************

CARTESIAN COORDINATES (ANGSTROEM)
---------------------------------
  C    -21.151801   26.343641   46.280369
  C    -20.160583   27.479870   46.011889
  C    -20.045404   28.146328   47.409681
  C    -20.160821   26.937209   48.368566
  O    -20.757632   25.840065   47.573600
  H    -21.068434   25.498366   45.596280
  H    -19.204494   27.029363   45.724451
  H    -20.453966   28.167708   45.215460
  H    -19.103621   28.688770   47.536219
  H    -20.865014   28.855604   47.569753
  H    -20.798047   27.137068   49.234642
  H    -19.185284   26.584329   48.715579
  C    -23.101527   27.995793   46.034801
  H    -23.445285   28.444459   46.978138
  H    -22.354732   28.663831   45.591126
  O    -22.563208   26.679210   46.292869
  C    -24.290332   27.835568   45.086823
  C    -24.958635   29.154824   44.673423
  C    -24.036905   29.625881   43.517740
  C    -23.621788   28.297448   42.837481
  O    -23.895784   27.218537   43.817288
  H    -25.008137   27.150046   45.547038
  O    -26.319381   28.928676   44.216280
  H    -25.042274   29.883456   45.481956
  H    -24.575214   30.300670   42.847318
  H    -23.167510   30.161034   43.917275
  H    -22.562064   28.273406   42.564747
  H    -24.214671   28.081200   41.943588
  H    -26.345453   28.107641   43.680622

 Multiplicity           Mult            ....    1
 Number of Electrons    NEL             ....  102
 Basis Dimension        Dim             ....  149

ORBITAL ENERGIES
----------------

  NO   OCC          E(Eh)            E(eV)
   0   2.0000     -19.143506      -520.9213
   1   2.0000     -19.140510      -520.8398
   2   2.0000     -19.136428      -520.7287
   3   2.0000     -19.136403      -520.7280
   4   2.0000     -10.278703      -279.6977
   5   2.0000     -10.245845      -278.8036
   6   2.0000     -10.237046      -278.5642
   7   2.0000     -10.234393      -278.4920
   8   2.0000     -10.233682      -278.4727
   9   2.0000     -10.226829      -278.2862
  10   2.0000     -10.195649      -277.4377
  11   2.0000     -10.195347      -277.4295
  12   2.0000     -10.193758      -277.3863
  13   2.0000      -1.049779       -28.5659
  14   2.0000      -1.037759       -28.2389
  15   2.0000      -1.008500       -27.4427
  16   2.0000      -0.991124       -26.9699
  17   2.0000      -0.791637       -21.5415
  18   2.0000      -0.787822       -21.4377
  19   2.0000      -0.772254       -21.0141
  20   2.0000      -0.734152       -19.9773
  21   2.0000      -0.681905       -18.5556
  22   2.0000      -0.608168       -16.5491
  23   2.0000      -0.605023       -16.4635
  24   2.0000      -0.599291       -16.3075
  25   2.0000      -0.577114       -15.7041
  26   2.0000      -0.529891       -14.4191
  27   2.0000      -0.507530       -13.8106
  28   2.0000      -0.504645       -13.7321
  29   2.0000      -0.492956       -13.4140
  30   2.0000      -0.481832       -13.1113
  31   2.0000      -0.462358       -12.5814
  32   2.0000      -0.453550       -12.3417
  33   2.0000      -0.441150       -12.0043
  34   2.0000      -0.430605       -11.7173
  35   2.0000      -0.411210       -11.1896
  36   2.0000      -0.405334       -11.0297
  37   2.0000      -0.396742       -10.7959
  38   2.0000      -0.384170       -10.4538
  39   2.0000      -0.375430       -10.2160
  40   2.0000      -0.366343        -9.9687
  41   2.0000      -0.359736        -9.7889
  42   2.0000      -0.355323        -9.6688
  43   2.0000      -0.333485        -9.0746
  44   2.0000      -0.313928        -8.5424
  45   2.0000      -0.308748        -8.4014
  46   2.0000      -0.291806        -7.9405
  47   2.0000      -0.273422        -7.4402
  48   2.0000      -0.264867        -7.2074
  49   2.0000      -0.255805        -6.9608
  50   2.0000      -0.239701        -6.5226
  51   0.0000       0.054748         1.4898
  52   0.0000       0.076244         2.0747
  53   0.0000       0.081192         2.2093
  54   0.0000       0.097941         2.6651
  55   0.0000       0.102027         2.7763

MULLIKEN ATOMIC CHARGES
-----------------------
   0 C :    0.320144
   1 C :   -0.303998
   2 C :   -0.309115
   3 C :   -0.001761
   4 O :   -0.494240
   5 H :    0.166266
   6 H :    0.158014
   7 H :    0.144905
   8 H :    0.145391
   9 H :    0.148607
  10 H :    0.148279
  11 H :    0.144220
  12 C :    0.003371
  13 H :    0.134352
  14 H :    0.121411
  15 O :   -0.519893
  16 C :    0.070155
  17 C :    0.072977
  18 C :   -0.296210
  19 C :   -0.029353
  20 O :   -0.511778
  21 H :    0.174934
  22 O :   -0.601616
  23 H :    0.151998
  24 H :    0.165890
  25 H :    0.138314
  26 H :    0.141824
  27 H :    0.149306
  28 H :    0.367606
Sum of atomic charges:   -0.0000000

LOEWDIN ATOMIC CHARGES
----------------------
   0 C :    0.185111
   1 C :   -0.232624
   2 C :   -0.221667
   3 C :   -0.029581
   4 O :   -0.313066
   5 H :    0.111847
   6 H :    0.123792
   7 H :    0.113033
   8 H :    0.116022
   9 H :    0.108982
  10 H :    0.105476
  11 H :    0.103495
  12 C :   -0.038575
  13 H :    0.098938
  14 H :    0.091506
  15 O :   -0.320695
  16 C :    0.014553
  17 C :    0.033699
  18 C :   -0.242443
  19 C :   -0.038857
  20 O :   -0.321845
  21 H :    0.123212
  22 O :   -0.413499
  23 H :    0.115121
  24 H :    0.128022
  25 H :    0.109482
  26 H :    0.101598
  27 H :    0.104039
  28 H :    0.284925

  Mayer bond orders larger than 0.100000
B(  0-C ,  1-C ) :   0.9327 B(  0-C ,  4-O ) :   0.9127 B(  0-C ,  5-H ) :   0.9297
B(  0-C , 15-O ) :   0.8694 B(  1-C ,  2-C ) :   0.9491 B(  1-C ,  6-H ) :   0.9337
B(  1-C ,  7-H ) :   0.9273 B(  2-C ,  3-C ) :   0.9498 B(  2-C ,  8-H ) :   0.9458
B(  2-C ,  9-H ) :   0.9433 B(  3-C ,  4-O ) :   0.8486 B(  3-C , 10-H ) :   0.9341
B(  3-C , 11-H ) :   0.9393 B( 12-C , 13-H ) :   0.9148 B( 12-C , 14-H ) :   0.9057
B( 12-C , 15-O ) :   0.8554 B( 12-C , 16-C ) :   0.8917 B( 16-C , 17-C ) :   0.8968
B( 16-C , 20-O ) :   0.8610 B( 16-C , 21-H ) :   0.9230 B( 17-C , 18-C ) :   0.9097
B( 17-C , 22-O ) :   0.8951 B( 17-C , 23-H ) :   0.9322 B( 18-C , 19-C ) :   0.9412
B( 18-C , 24-H ) :   0.9369 B( 18-C , 25-H ) :   0.9339 B( 19-C , 20-O ) :   0.8537
B( 19-C , 26-H ) :   0.9344 B( 19-C , 27-H ) :   0.9376 B( 22-O , 28-H ) :   0.7926

FINAL SINGLE POINT ENERGY      -652.851209120279

DIPOLE MOMENT
-------------
                                X             Y             Z
Electronic contribution:     -4.63548      -5.49754       0.04902
Nuclear contribution   :      5.77663       6.99270      -0.44292
                        -----------------------------------------
Total Dipole Moment    :      1.14115       1.49516      -0.39391
                        -----------------------------------------
Magnitude (a.u.)       :      1.92169
Magnitude (Debye)      :      4.88454

Rotational constants in cm-1:     0.062647     0.012200     0.012025
Rotational constants in MHz :  1878.106147   365.737829   360.494910

                             ****ORCA TERMINATED NORMALLY****
TOTAL RUN TIME: 0 days 0 hours 36 minutes 37 seconds 173 msec
