                         Program Version 4.2.0 -  RELEASE  -
|  1> # Test redundant internal optimization
|  2> #
|  3> ! RKS B3LYP  Opt TightSCF SmallPrint
|  4>
|  5> %basis
|  6>         Basis "6-31G"
|  7> end
|  8>
|  9> %geom
| 10> Constraints
| 11> { D 4  0  15  12  300.0   C } # D for Dihedral angle
| 12> { D 0  15  12  16  150.0   C } # D for Dihedral angle
| 13> { D 0  4  3  2   C } # D for Dihedral angle
| 14> { D 4  3  2  1   C } # D for Dihedral angle
| 15> { D 3  2  1  0   C } # D for Dihedral angle
| 16> { D 2  1  0  4   C } # D for Dihedral angle
| 17> { D 1  0  4  3   C } # D for Dihedral angle
| 18> { D 16  20  19  18   C } # D for Dihedral angle
| 19> { D 20  19  18  17   C } # D for Dihedral angle
| 20> { D 19  18  17  16   C } # D for Dihedral angle
| 21> { D 18  17  16  20   C } # D for Dihedral angle
| 22> { D 17  16  20  19   C } # D for Dihedral angle
| 23> { D 15  12  16  20   C } # D for Dihedral angle
| 24> end
| 25> end
| 26>
| 27>
| 28> #%pal
| 29> #nprocs 8
| 30> #end
| 31>
| 32> * xyz 0 1
| 33> C  -21.048   26.222   46.251
| 34> C  -20.361   27.558   45.944
| 35> C  -20.329   28.222   47.341
| 36> C  -20.110   27.022   48.296
| 37> O  -20.473   25.807   47.535
| 38> H  -20.833   25.428   45.533
| 39> H  -19.344   27.382   45.576
| 40> H  -20.898   28.157   45.201
| 41> H  -19.543   28.978   47.434
| 42> H  -21.289   28.710   47.548
| 43> H  -20.733   27.082   49.195
| 44> H  -19.064   26.913   48.597
| 45> C  -23.362   25.116   46.798
| 46> H  -23.644   24.551   45.901
| 47> H  -22.730   24.473   47.424
| 48> O  -22.586   26.394   46.375
| 49> C  -24.653   25.436   47.601
| 50> C  -25.329   24.154   48.100
| 51> C  -24.464   23.802   49.333
| 52> C  -24.092   25.192   49.909
| 53> O  -24.325   26.171   48.827
| 54> H  -25.296   26.083   47.001
| 55> O  -26.793   24.454   48.524
| 56> H  -25.344   23.355   47.350
| 57> H  -24.994   23.178   50.060
| 58> H  -23.563   23.261   49.020
| 59> H  -23.044   25.248   50.225
| 60> H  -24.731   25.480   50.749
| 61> H  -26.802   25.251   49.276
| 62> *
| 63>
| 64>                          ****END OF INPUT****
 Total Charge           Charge          ....    0
 Multiplicity           Mult            ....    1
 Number of Electrons    NEL             ....  102
FINAL SINGLE POINT ENERGY      -652.837372619300
FINAL SINGLE POINT ENERGY      -652.862208042229
FINAL SINGLE POINT ENERGY      -652.866668790147
FINAL SINGLE POINT ENERGY      -652.867525751140
FINAL SINGLE POINT ENERGY      -652.867634458353
FINAL SINGLE POINT ENERGY      -652.867644899608
FINAL SINGLE POINT ENERGY      -652.867647596755
                    ***********************HURRAY********************

CARTESIAN COORDINATES (ANGSTROEM)
---------------------------------
  C    -21.099860   26.149687   46.228962
  C    -20.570644   27.565265   46.000517
  C    -20.575451   28.137122   47.434882
  C    -20.206112   26.917113   48.305203
  O    -20.460772   25.720645   47.457101
  H    -20.845587   25.400921   45.471968
  H    -19.553681   27.511727   45.595177
  H    -21.201352   28.129503   45.310445
  H    -19.870949   28.965113   47.559844
  H    -21.580544   28.487480   47.683567
  H    -20.817917   26.842088   49.207082
  H    -19.146361   26.885549   48.574975
  C    -23.218700   25.047088   46.767836
  H    -23.529734   24.495745   45.867836
  H    -22.542791   24.419677   47.359679
  O    -22.528711   26.268565   46.386888
  C    -24.442435   25.448173   47.585712
  C    -25.260539   24.260892   48.115170
  C    -24.459166   23.866684   49.383080
  C    -23.954883   25.230303   49.917524
  O    -24.062879   26.191153   48.792481
  H    -25.061128   26.127437   46.991612
  O    -26.617597   24.669590   48.440951
  H    -25.369033   23.442379   47.401583
  H    -25.099967   23.338871   50.094048
  H    -23.623944   23.209533   49.116964
  H    -22.914140   25.191862   50.252454
  H    -24.573016   25.617175   50.733678
  H    -26.589107   25.542660   48.886779

 Multiplicity           Mult            ....    1
 Number of Electrons    NEL             ....  102
 Basis Dimension        Dim             ....  149

ORBITAL ENERGIES
----------------

  NO   OCC          E(Eh)            E(eV)
   0   2.0000     -19.140608      -520.8424
   1   2.0000     -19.139886      -520.8228
   2   2.0000     -19.138677      -520.7899
   3   2.0000     -19.137733      -520.7642
   4   2.0000     -10.275621      -279.6138
   5   2.0000     -10.242331      -278.7080
   6   2.0000     -10.232437      -278.4388
   7   2.0000     -10.229185      -278.3503
   8   2.0000     -10.226612      -278.2803
   9   2.0000     -10.221161      -278.1319
  10   2.0000     -10.188680      -277.2481
  11   2.0000     -10.181031      -277.0399
  12   2.0000     -10.178524      -276.9717
  13   2.0000      -1.053265       -28.6608
  14   2.0000      -1.034398       -28.1474
  15   2.0000      -1.004971       -27.3467
  16   2.0000      -0.989205       -26.9176
  17   2.0000      -0.788719       -21.4621
  18   2.0000      -0.779345       -21.2071
  19   2.0000      -0.764699       -20.8085
  20   2.0000      -0.727202       -19.7882
  21   2.0000      -0.670453       -18.2440
  22   2.0000      -0.603252       -16.4153
  23   2.0000      -0.595464       -16.2034
  24   2.0000      -0.587623       -15.9900
  25   2.0000      -0.580603       -15.7990
  26   2.0000      -0.525722       -14.3056
  27   2.0000      -0.509674       -13.8689
  28   2.0000      -0.487287       -13.2598
  29   2.0000      -0.485796       -13.2192
  30   2.0000      -0.478705       -13.0262
  31   2.0000      -0.456982       -12.4351
  32   2.0000      -0.448902       -12.2152
  33   2.0000      -0.439509       -11.9597
  34   2.0000      -0.419371       -11.4117
  35   2.0000      -0.400571       -10.9001
  36   2.0000      -0.398431       -10.8419
  37   2.0000      -0.393016       -10.6945
  38   2.0000      -0.373813       -10.1720
  39   2.0000      -0.371008       -10.0956
  40   2.0000      -0.357371        -9.7246
  41   2.0000      -0.351316        -9.5598
  42   2.0000      -0.343241        -9.3401
  43   2.0000      -0.330824        -9.0022
  44   2.0000      -0.326601        -8.8873
  45   2.0000      -0.306349        -8.3362
  46   2.0000      -0.294598        -8.0164
  47   2.0000      -0.270435        -7.3589
  48   2.0000      -0.264447        -7.1960
  49   2.0000      -0.250868        -6.8265
  50   2.0000      -0.244391        -6.6502
  51   0.0000       0.064894         1.7659
  52   0.0000       0.090102         2.4518
  53   0.0000       0.090183         2.4540
  54   0.0000       0.102260         2.7826
  55   0.0000       0.107491         2.9250

MULLIKEN ATOMIC CHARGES
-----------------------
   0 C :    0.284478
   1 C :   -0.261038
   2 C :   -0.297851
   3 C :   -0.006270
   4 O :   -0.516692
   5 H :    0.140480
   6 H :    0.141549
   7 H :    0.158259
   8 H :    0.136794
   9 H :    0.176837
  10 H :    0.153474
  11 H :    0.139382
  12 C :   -0.005472
  13 H :    0.126256
  14 H :    0.157785
  15 O :   -0.515201
  16 C :    0.067450
  17 C :    0.074027
  18 C :   -0.301242
  19 C :   -0.029109
  20 O :   -0.515208
  21 H :    0.167709
  22 O :   -0.602725
  23 H :    0.152345
  24 H :    0.163610
  25 H :    0.149173
  26 H :    0.150348
  27 H :    0.145003
  28 H :    0.365850
Sum of atomic charges:   -0.0000000

LOEWDIN ATOMIC CHARGES
----------------------
   0 C :    0.173118
   1 C :   -0.214091
   2 C :   -0.215557
   3 C :   -0.027249
   4 O :   -0.333197
   5 H :    0.095121
   6 H :    0.112124
   7 H :    0.124952
   8 H :    0.111675
   9 H :    0.126648
  10 H :    0.107826
  11 H :    0.101011
  12 C :   -0.047657
  13 H :    0.095679
  14 H :    0.109576
  15 O :   -0.320483
  16 C :    0.018067
  17 C :    0.034687
  18 C :   -0.242386
  19 C :   -0.038439
  20 O :   -0.324674
  21 H :    0.119419
  22 O :   -0.414816
  23 H :    0.115620
  24 H :    0.126896
  25 H :    0.115225
  26 H :    0.105451
  27 H :    0.101705
  28 H :    0.283750

  Mayer bond orders larger than 0.100000
B(  0-C ,  1-C ) :   0.9519 B(  0-C ,  4-O ) :   0.9001 B(  0-C ,  5-H ) :   0.9200
B(  0-C , 15-O ) :   0.8641 B(  1-C ,  2-C ) :   0.9558 B(  1-C ,  6-H ) :   0.9407
B(  1-C ,  7-H ) :   0.9358 B(  2-C ,  3-C ) :   0.9578 B(  2-C ,  8-H ) :   0.9451
B(  2-C ,  9-H ) :   0.9396 B(  3-C ,  4-O ) :   0.8314 B(  3-C , 10-H ) :   0.9326
B(  3-C , 11-H ) :   0.9403 B( 12-C , 13-H ) :   0.9153 B( 12-C , 14-H ) :   0.9086
B( 12-C , 15-O ) :   0.8336 B( 12-C , 16-C ) :   0.9021 B( 16-C , 17-C ) :   0.9029
B( 16-C , 20-O ) :   0.8621 B( 16-C , 21-H ) :   0.9244 B( 17-C , 18-C ) :   0.9110
B( 17-C , 22-O ) :   0.8934 B( 17-C , 23-H ) :   0.9326 B( 18-C , 19-C ) :   0.9427
B( 18-C , 24-H ) :   0.9372 B( 18-C , 25-H ) :   0.9326 B( 19-C , 20-O ) :   0.8509
B( 19-C , 26-H ) :   0.9318 B( 19-C , 27-H ) :   0.9378 B( 22-O , 28-H ) :   0.7935

FINAL SINGLE POINT ENERGY      -652.867647775148

DIPOLE MOMENT
-------------
                                X             Y             Z
Electronic contribution:     -3.23674      -0.76139      -1.53674
Nuclear contribution   :      3.89648       0.72968       1.71994
                        -----------------------------------------
Total Dipole Moment    :      0.65975      -0.03171       0.18320
                        -----------------------------------------
Magnitude (a.u.)       :      0.68544
Magnitude (Debye)      :      1.74226

Rotational constants in cm-1:     0.058188     0.014194     0.013265
Rotational constants in MHz :  1744.437750   425.512605   397.680193

                             ****ORCA TERMINATED NORMALLY****
TOTAL RUN TIME: 0 days 0 hours 25 minutes 25 seconds 494 msec
