                         Program Version 4.2.0 -  RELEASE  -
|  1> # Test redundant internal optimization
|  2> #
|  3> ! RKS B3LYP  Opt TightSCF SmallPrint
|  4>
|  5> %basis
|  6>         Basis "6-31G"
|  7> end
|  8>
|  9> %geom
| 10> Constraints
| 11> { D 4  0  15  12  180.0   C } # D for Dihedral angle
| 12> { D 0  15  12  16  150.0   C } # D for Dihedral angle
| 13> { D 0  4  3  2   C } # D for Dihedral angle
| 14> { D 4  3  2  1   C } # D for Dihedral angle
| 15> { D 3  2  1  0   C } # D for Dihedral angle
| 16> { D 2  1  0  4   C } # D for Dihedral angle
| 17> { D 1  0  4  3   C } # D for Dihedral angle
| 18> { D 16  20  19  18   C } # D for Dihedral angle
| 19> { D 20  19  18  17   C } # D for Dihedral angle
| 20> { D 19  18  17  16   C } # D for Dihedral angle
| 21> { D 18  17  16  20   C } # D for Dihedral angle
| 22> { D 17  16  20  19   C } # D for Dihedral angle
| 23> { D 15  12  16  20   C } # D for Dihedral angle
| 24> end
| 25> end
| 26>
| 27>
| 28> #%pal
| 29> #nprocs 8
| 30> #end
| 31>
| 32> * xyz 0 1
| 33> C  -21.048   26.222   46.251
| 34> C  -20.361   27.558   45.944
| 35> C  -20.329   28.222   47.341
| 36> C  -20.110   27.022   48.296
| 37> O  -20.473   25.807   47.535
| 38> H  -20.833   25.428   45.533
| 39> H  -19.344   27.382   45.576
| 40> H  -20.898   28.157   45.201
| 41> H  -19.543   28.978   47.434
| 42> H  -21.289   28.710   47.548
| 43> H  -20.733   27.082   49.195
| 44> H  -19.064   26.913   48.597
| 45> C  -23.309   26.834   45.072
| 46> H  -23.337   27.929   45.026
| 47> H  -22.767   26.467   44.190
| 48> O  -22.586   26.394   46.375
| 49> C  -24.767   26.303   44.986
| 50> C  -25.409   26.657   43.640
| 51> C  -24.799   25.582   42.709
| 52> C  -24.694   24.340   43.628
| 53> O  -24.781   24.837   45.018
| 54> H  -25.325   26.649   45.858
| 55> H  -26.497   26.544   43.700
| 56> O  -25.093   28.105   43.175
| 57> H  -25.410   25.393   41.821
| 58> H  -23.805   25.897   42.371
| 59> H  -23.748   23.801   43.499
| 60> H  -25.522   23.641   43.483
| 61> H  -24.008   28.243   43.106
| 62> *
| 63>
| 64>                          ****END OF INPUT****
 Total Charge           Charge          ....    0
 Multiplicity           Mult            ....    1
 Number of Electrons    NEL             ....  102
FINAL SINGLE POINT ENERGY      -652.822996398460
FINAL SINGLE POINT ENERGY      -652.847024074907
FINAL SINGLE POINT ENERGY      -652.851432375871
FINAL SINGLE POINT ENERGY      -652.852212860787
FINAL SINGLE POINT ENERGY      -652.852360442974
FINAL SINGLE POINT ENERGY      -652.852390440054
FINAL SINGLE POINT ENERGY      -652.852397467234
FINAL SINGLE POINT ENERGY      -652.852398569471
                    ***********************HURRAY********************

CARTESIAN COORDINATES (ANGSTROEM)
---------------------------------
  C    -21.052225   26.250081   46.177787
  C    -20.308928   27.566693   45.960583
  C    -20.382131   28.214833   47.366270
  C    -20.280682   26.996788   48.307196
  O    -20.613543   25.814805   47.469268
  H    -20.820594   25.455807   45.459574
  H    -19.270010   27.349796   45.685010
  H    -20.744306   28.194222   45.177683
  H    -19.582437   28.942255   47.534399
  H    -21.343785   28.721336   47.492432
  H    -20.981836   27.037198   49.144044
  H    -19.267763   26.834253   48.687033
  C    -23.133147   26.875224   45.021489
  H    -23.170992   27.972417   44.977506
  H    -22.565416   26.511928   44.148629
  O    -22.496376   26.431584   46.246474
  C    -24.555229   26.318104   44.997003
  C    -25.348385   26.674213   43.728686
  C    -24.867070   25.577973   42.731312
  C    -24.676138   24.348290   43.645180
  O    -24.590354   24.860656   45.036344
  H    -25.062039   26.650691   45.907447
  H    -26.416509   26.565570   43.929088
  O    -25.200595   28.037585   43.260315
  H    -25.585466   25.405117   41.925665
  H    -23.917354   25.891060   42.276275
  H    -23.767995   23.781157   43.415698
  H    -25.532514   23.667676   43.607431
  H    -24.348179   28.149688   42.792178

 Multiplicity           Mult            ....    1
 Number of Electrons    NEL             ....  102
 Basis Dimension        Dim             ....  149

ORBITAL ENERGIES
----------------

  NO   OCC          E(Eh)            E(eV)
   0   2.0000     -19.152411      -521.1636
   1   2.0000     -19.138039      -520.7725
   2   2.0000     -19.136756      -520.7376
   3   2.0000     -19.136029      -520.7178
   4   2.0000     -10.277670      -279.6696
   5   2.0000     -10.246721      -278.8274
   6   2.0000     -10.232611      -278.4435
   7   2.0000     -10.230876      -278.3963
   8   2.0000     -10.230004      -278.3726
   9   2.0000     -10.223197      -278.1873
  10   2.0000     -10.198014      -277.5021
  11   2.0000     -10.187915      -277.2273
  12   2.0000     -10.186740      -277.1953
  13   2.0000      -1.052059       -28.6280
  14   2.0000      -1.034932       -28.1619
  15   2.0000      -1.016272       -27.6542
  16   2.0000      -0.991725       -26.9862
  17   2.0000      -0.786399       -21.3990
  18   2.0000      -0.783871       -21.3302
  19   2.0000      -0.768439       -20.9103
  20   2.0000      -0.730383       -19.8747
  21   2.0000      -0.682570       -18.5737
  22   2.0000      -0.613186       -16.6856
  23   2.0000      -0.601278       -16.3616
  24   2.0000      -0.589466       -16.0402
  25   2.0000      -0.576176       -15.6786
  26   2.0000      -0.529195       -14.4001
  27   2.0000      -0.508958       -13.8495
  28   2.0000      -0.502406       -13.6712
  29   2.0000      -0.491770       -13.3817
  30   2.0000      -0.469327       -12.7710
  31   2.0000      -0.460558       -12.5324
  32   2.0000      -0.448607       -12.2072
  33   2.0000      -0.436811       -11.8862
  34   2.0000      -0.430843       -11.7238
  35   2.0000      -0.414770       -11.2865
  36   2.0000      -0.409510       -11.1433
  37   2.0000      -0.396170       -10.7803
  38   2.0000      -0.380403       -10.3513
  39   2.0000      -0.373079       -10.1520
  40   2.0000      -0.361531        -9.8378
  41   2.0000      -0.355198        -9.6654
  42   2.0000      -0.350721        -9.5436
  43   2.0000      -0.331471        -9.0198
  44   2.0000      -0.316068        -8.6007
  45   2.0000      -0.311238        -8.4692
  46   2.0000      -0.301022        -8.1912
  47   2.0000      -0.272587        -7.4175
  48   2.0000      -0.256850        -6.9892
  49   2.0000      -0.252181        -6.8622
  50   2.0000      -0.238752        -6.4968
  51   0.0000       0.047610         1.2955
  52   0.0000       0.071042         1.9332
  53   0.0000       0.085390         2.3236
  54   0.0000       0.091489         2.4895
  55   0.0000       0.107387         2.9222

MULLIKEN ATOMIC CHARGES
-----------------------
   0 C :    0.306722
   1 C :   -0.281072
   2 C :   -0.298346
   3 C :   -0.000335
   4 O :   -0.499893
   5 H :    0.141375
   6 H :    0.146325
   7 H :    0.137775
   8 H :    0.142148
   9 H :    0.159635
  10 H :    0.157044
  11 H :    0.141150
  12 C :   -0.018892
  13 H :    0.136472
  14 H :    0.107434
  15 O :   -0.497549
  16 C :    0.102213
  17 C :    0.076224
  18 C :   -0.322940
  19 C :   -0.014206
  20 O :   -0.500320
  21 H :    0.167771
  22 H :    0.172450
  23 O :   -0.600649
  24 H :    0.159703
  25 H :    0.127932
  26 H :    0.144394
  27 H :    0.152513
  28 H :    0.354920
Sum of atomic charges:   -0.0000000

LOEWDIN ATOMIC CHARGES
----------------------
   0 C :    0.181842
   1 C :   -0.234330
   2 C :   -0.216911
   3 C :   -0.024469
   4 O :   -0.299545
   5 H :    0.096924
   6 H :    0.114998
   7 H :    0.110861
   8 H :    0.114301
   9 H :    0.117498
  10 H :    0.110947
  11 H :    0.102240
  12 C :   -0.053138
  13 H :    0.097538
  14 H :    0.083052
  15 O :   -0.322055
  16 C :    0.022888
  17 C :    0.033339
  18 C :   -0.241728
  19 C :   -0.031473
  20 O :   -0.309094
  21 H :    0.122101
  22 H :    0.121203
  23 O :   -0.408538
  24 H :    0.123289
  25 H :    0.101166
  26 H :    0.102809
  27 H :    0.107193
  28 H :    0.277089

  Mayer bond orders larger than 0.100000
B(  0-C ,  1-C ) :   0.9243 B(  0-C ,  4-O ) :   0.9418 B(  0-C ,  5-H ) :   0.9189
B(  0-C , 15-O ) :   0.8370 B(  1-C ,  2-C ) :   0.9521 B(  1-C ,  6-H ) :   0.9342
B(  1-C ,  7-H ) :   0.9332 B(  2-C ,  3-C ) :   0.9559 B(  2-C ,  8-H ) :   0.9451
B(  2-C ,  9-H ) :   0.9446 B(  3-C ,  4-O ) :   0.8356 B(  3-C , 10-H ) :   0.9340
B(  3-C , 11-H ) :   0.9398 B( 12-C , 13-H ) :   0.9027 B( 12-C , 14-H ) :   0.9145
B( 12-C , 15-O ) :   0.8535 B( 12-C , 16-C ) :   0.8993 B( 16-C , 17-C ) :   0.8722
B( 16-C , 20-O ) :   0.8734 B( 16-C , 21-H ) :   0.9293 B( 17-C , 18-C ) :   0.9263
B( 17-C , 22-H ) :   0.9316 B( 17-C , 23-O ) :   0.8936 B( 18-C , 19-C ) :   0.9377
B( 18-C , 24-H ) :   0.9413 B( 18-C , 25-H ) :   0.9408 B( 19-C , 20-O ) :   0.8526
B( 19-C , 26-H ) :   0.9314 B( 19-C , 27-H ) :   0.9375 B( 23-O , 28-H ) :   0.7994

FINAL SINGLE POINT ENERGY      -652.852398635174

DIPOLE MOMENT
-------------
                                X             Y             Z
Electronic contribution:     -2.92031      -2.69691       2.16289
Nuclear contribution   :      3.65785       3.45722      -3.51875
                        -----------------------------------------
Total Dipole Moment    :      0.73754       0.76032      -1.35586
                        -----------------------------------------
Magnitude (a.u.)       :      1.72058
Magnitude (Debye)      :      4.37338

Rotational constants in cm-1:     0.056743     0.012501     0.011268
Rotational constants in MHz :  1701.099807   374.766892   337.812108

                             ****ORCA TERMINATED NORMALLY****
TOTAL RUN TIME: 0 days 1 hours 31 minutes 8 seconds 719 msec
