                         Program Version 4.2.0 -  RELEASE  -
|  1> # Test redundant internal optimization
|  2> #
|  3> ! RKS B3LYP  Opt TightSCF SmallPrint
|  4>
|  5> %basis
|  6>         Basis "6-31G"
|  7> end
|  8>
|  9> %geom
| 10> Constraints
| 11> { D 4  0  15  12  255.0   C } # D for Dihedral angle
| 12> { D 0  15  12  16  180.0   C } # D for Dihedral angle
| 13> { D 0  4  3  2   C } # D for Dihedral angle
| 14> { D 4  3  2  1   C } # D for Dihedral angle
| 15> { D 3  2  1  0   C } # D for Dihedral angle
| 16> { D 2  1  0  4   C } # D for Dihedral angle
| 17> { D 1  0  4  3   C } # D for Dihedral angle
| 18> { D 16  20  19  18   C } # D for Dihedral angle
| 19> { D 20  19  18  17   C } # D for Dihedral angle
| 20> { D 19  18  17  16   C } # D for Dihedral angle
| 21> { D 18  17  16  20   C } # D for Dihedral angle
| 22> { D 17  16  20  19   C } # D for Dihedral angle
| 23> { D 15  12  16  20   C } # D for Dihedral angle
| 24> end
| 25> end
| 26>
| 27>
| 28> #%pal
| 29> #nprocs 8
| 30> #end
| 31>
| 32> * xyz 0 1
| 33> C  -21.048   26.222   46.251
| 34> C  -20.361   27.558   45.944
| 35> C  -20.329   28.222   47.341
| 36> C  -20.110   27.022   48.296
| 37> O  -20.473   25.807   47.535
| 38> H  -20.833   25.428   45.533
| 39> H  -19.344   27.382   45.576
| 40> H  -20.898   28.157   45.201
| 41> H  -19.543   28.978   47.434
| 42> H  -21.289   28.710   47.548
| 43> H  -20.733   27.082   49.195
| 44> H  -19.064   26.913   48.597
| 45> C  -23.431   25.260   45.734
| 46> H  -23.200   25.197   44.663
| 47> H  -23.189   24.293   46.194
| 48> O  -22.586   26.394   46.375
| 49> C  -24.960   25.488   45.890
| 50> C  -25.347   25.676   47.362
| 51> C  -24.947   27.151   47.605
| 52> C  -25.261   27.830   46.249
| 53> O  -25.359   26.745   45.248
| 54> H  -25.496   24.685   45.381
| 55> O  -26.879   25.489   47.537
| 56> H  -24.835   24.980   48.034
| 57> H  -25.492   27.608   48.437
| 58> H  -23.875   27.217   47.831
| 59> H  -24.481   28.534   45.940
| 60> H  -26.224   28.349   46.255
| 61> H  -27.413   26.177   46.873
| 62> *
| 63>
| 64>                          ****END OF INPUT****
 Total Charge           Charge          ....    0
 Multiplicity           Mult            ....    1
 Number of Electrons    NEL             ....  102
FINAL SINGLE POINT ENERGY      -652.837869447818
FINAL SINGLE POINT ENERGY      -652.860695677148
FINAL SINGLE POINT ENERGY      -652.864622011750
FINAL SINGLE POINT ENERGY      -652.865628834296
FINAL SINGLE POINT ENERGY      -652.865747704490
FINAL SINGLE POINT ENERGY      -652.865763091193
                    ***********************HURRAY********************

CARTESIAN COORDINATES (ANGSTROEM)
---------------------------------
  C    -21.086507   26.156614   46.220846
  C    -20.444941   27.509039   45.910343
  C    -20.431342   28.182484   47.303240
  C    -20.173346   26.996035   48.259023
  O    -20.505310   25.772947   47.485886
  H    -20.862198   25.355298   45.511461
  H    -19.423997   27.350389   45.544071
  H    -21.008669   28.069806   45.162069
  H    -19.665417   28.959339   47.388435
  H    -21.406131   28.637908   47.503319
  H    -20.795452   27.024184   49.157143
  H    -19.122688   26.906408   48.550415
  C    -23.336114   25.276386   45.762521
  H    -23.125431   25.194766   44.687656
  H    -23.101183   24.315061   46.242951
  O    -22.519051   26.339725   46.332810
  C    -24.819307   25.580601   45.940688
  C    -25.327007   25.738564   47.381791
  C    -24.992921   27.225191   47.673938
  C    -25.221271   27.910140   46.304041
  O    -25.205764   26.831993   45.286763
  H    -25.375163   24.779678   45.438661
  O    -26.755666   25.466197   47.450706
  H    -24.868112   25.045408   48.087458
  H    -25.639922   27.620344   48.462056
  H    -23.948179   27.307458   47.976442
  H    -24.434096   28.629091   46.062379
  H    -26.195170   28.406178   46.231592
  H    -27.209645   25.966768   46.740295

 Multiplicity           Mult            ....    1
 Number of Electrons    NEL             ....  102
 Basis Dimension        Dim             ....  149

ORBITAL ENERGIES
----------------

  NO   OCC          E(Eh)            E(eV)
   0   2.0000     -19.148543      -521.0583
   1   2.0000     -19.141748      -520.8734
   2   2.0000     -19.137441      -520.7562
   3   2.0000     -19.133236      -520.6418
   4   2.0000     -10.282843      -279.8104
   5   2.0000     -10.235090      -278.5110
   6   2.0000     -10.234947      -278.5071
   7   2.0000     -10.234082      -278.4835
   8   2.0000     -10.227743      -278.3110
   9   2.0000     -10.222541      -278.1695
  10   2.0000     -10.189010      -277.2571
  11   2.0000     -10.187687      -277.2210
  12   2.0000     -10.175238      -276.8823
  13   2.0000      -1.056949       -28.7610
  14   2.0000      -1.031411       -28.0661
  15   2.0000      -1.003291       -27.3009
  16   2.0000      -0.995455       -27.0877
  17   2.0000      -0.791261       -21.5313
  18   2.0000      -0.775882       -21.1128
  19   2.0000      -0.763723       -20.7820
  20   2.0000      -0.732483       -19.9319
  21   2.0000      -0.673915       -18.3382
  22   2.0000      -0.601571       -16.3696
  23   2.0000      -0.597247       -16.2519
  24   2.0000      -0.594860       -16.1870
  25   2.0000      -0.581355       -15.8195
  26   2.0000      -0.526791       -14.3347
  27   2.0000      -0.504802       -13.7364
  28   2.0000      -0.498140       -13.5551
  29   2.0000      -0.484761       -13.1910
  30   2.0000      -0.475691       -12.9442
  31   2.0000      -0.459830       -12.5126
  32   2.0000      -0.446833       -12.1589
  33   2.0000      -0.436925       -11.8893
  34   2.0000      -0.423235       -11.5168
  35   2.0000      -0.410350       -11.1662
  36   2.0000      -0.404310       -11.0018
  37   2.0000      -0.386305       -10.5119
  38   2.0000      -0.376700       -10.2505
  39   2.0000      -0.367169        -9.9912
  40   2.0000      -0.359236        -9.7753
  41   2.0000      -0.356305        -9.6955
  42   2.0000      -0.350253        -9.5309
  43   2.0000      -0.328621        -8.9422
  44   2.0000      -0.321743        -8.7551
  45   2.0000      -0.309976        -8.4349
  46   2.0000      -0.300358        -8.1732
  47   2.0000      -0.271716        -7.3938
  48   2.0000      -0.265148        -7.2150
  49   2.0000      -0.251200        -6.8355
  50   2.0000      -0.242559        -6.6004
  51   0.0000       0.063253         1.7212
  52   0.0000       0.083755         2.2791
  53   0.0000       0.087979         2.3940
  54   0.0000       0.102513         2.7895
  55   0.0000       0.104721         2.8496

MULLIKEN ATOMIC CHARGES
-----------------------
   0 C :    0.288029
   1 C :   -0.254233
   2 C :   -0.304183
   3 C :   -0.001397
   4 O :   -0.505454
   5 H :    0.143786
   6 H :    0.145373
   7 H :    0.155232
   8 H :    0.143918
   9 H :    0.158662
  10 H :    0.148144
  11 H :    0.143471
  12 C :    0.003954
  13 H :    0.144114
  14 H :    0.138338
  15 O :   -0.525785
  16 C :    0.061185
  17 C :    0.076336
  18 C :   -0.289512
  19 C :   -0.017570
  20 O :   -0.528424
  21 H :    0.156610
  22 O :   -0.602907
  23 H :    0.156176
  24 H :    0.147380
  25 H :    0.173721
  26 H :    0.148335
  27 H :    0.134908
  28 H :    0.361793
Sum of atomic charges:   -0.0000000

LOEWDIN ATOMIC CHARGES
----------------------
   0 C :    0.175468
   1 C :   -0.217557
   2 C :   -0.216841
   3 C :   -0.027332
   4 O :   -0.322506
   5 H :    0.100837
   6 H :    0.114137
   7 H :    0.122962
   8 H :    0.114943
   9 H :    0.115824
  10 H :    0.105778
  11 H :    0.103329
  12 C :   -0.036775
  13 H :    0.102512
  14 H :    0.101261
  15 O :   -0.332849
  16 C :    0.015093
  17 C :    0.040091
  18 C :   -0.242132
  19 C :   -0.032737
  20 O :   -0.331299
  21 H :    0.116900
  22 O :   -0.417048
  23 H :    0.118227
  24 H :    0.117897
  25 H :    0.128811
  26 H :    0.106002
  27 H :    0.095732
  28 H :    0.281272

  Mayer bond orders larger than 0.100000
B(  0-C ,  1-C ) :   0.9444 B(  0-C ,  4-O ) :   0.9247 B(  0-C ,  5-H ) :   0.9190
B(  0-C , 15-O ) :   0.8425 B(  1-C ,  2-C ) :   0.9567 B(  1-C ,  6-H ) :   0.9380
B(  1-C ,  7-H ) :   0.9367 B(  2-C ,  3-C ) :   0.9540 B(  2-C ,  8-H ) :   0.9450
B(  2-C ,  9-H ) :   0.9438 B(  3-C ,  4-O ) :   0.8384 B(  3-C , 10-H ) :   0.9349
B(  3-C , 11-H ) :   0.9397 B( 12-C , 13-H ) :   0.9174 B( 12-C , 14-H ) :   0.9084
B( 12-C , 15-O ) :   0.8396 B( 12-C , 16-C ) :   0.9137 B( 16-C , 17-C ) :   0.9085
B( 16-C , 20-O ) :   0.8728 B( 16-C , 21-H ) :   0.9220 B( 17-C , 18-C ) :   0.9249
B( 17-C , 22-O ) :   0.8906 B( 17-C , 23-H ) :   0.9345 B( 18-C , 19-C ) :   0.9462
B( 18-C , 24-H ) :   0.9373 B( 18-C , 25-H ) :   0.9182 B( 19-C , 20-O ) :   0.8392
B( 19-C , 26-H ) :   0.9341 B( 19-C , 27-H ) :   0.9371 B( 22-O , 28-H ) :   0.7963

FINAL SINGLE POINT ENERGY      -652.865762945333

DIPOLE MOMENT
-------------
                                X             Y             Z
Electronic contribution:     -3.38999      -4.05795      -1.40058
Nuclear contribution   :      4.21736       4.79109       1.19580
                        -----------------------------------------
Total Dipole Moment    :      0.82737       0.73314      -0.20478
                        -----------------------------------------
Magnitude (a.u.)       :      1.12426
Magnitude (Debye)      :      2.85765

Rotational constants in cm-1:     0.052317     0.014134     0.014030
Rotational constants in MHz :  1568.414697   423.719365   420.622908

                             ****ORCA TERMINATED NORMALLY****
TOTAL RUN TIME: 0 days 0 hours 18 minutes 45 seconds 804 msec
