                         Program Version 4.2.0 -  RELEASE  -
|  1> # Test redundant internal optimization
|  2> #
|  3> ! RKS B3LYP  Opt TightSCF SmallPrint
|  4>
|  5> %basis
|  6>         Basis "6-31G"
|  7> end
|  8>
|  9> %geom
| 10> Constraints
| 11> { D 4  0  15  12  225.0   C } # D for Dihedral angle
| 12> { D 0  15  12  16  120.0   C } # D for Dihedral angle
| 13> { D 0  4  3  2   C } # D for Dihedral angle
| 14> { D 4  3  2  1   C } # D for Dihedral angle
| 15> { D 3  2  1  0   C } # D for Dihedral angle
| 16> { D 2  1  0  4   C } # D for Dihedral angle
| 17> { D 1  0  4  3   C } # D for Dihedral angle
| 18> { D 16  20  19  18   C } # D for Dihedral angle
| 19> { D 20  19  18  17   C } # D for Dihedral angle
| 20> { D 19  18  17  16   C } # D for Dihedral angle
| 21> { D 18  17  16  20   C } # D for Dihedral angle
| 22> { D 17  16  20  19   C } # D for Dihedral angle
| 23> { D 15  12  16  20   C } # D for Dihedral angle
| 24> end
| 25> end
| 26>
| 27>
| 28> #%pal
| 29> #nprocs 8
| 30> #end
| 31>
| 32> * xyz 0 1
| 33> C  -21.048   26.222   46.251
| 34> C  -20.361   27.558   45.944
| 35> C  -20.329   28.222   47.341
| 36> C  -20.110   27.022   48.296
| 37> O  -20.473   25.807   47.535
| 38> H  -20.833   25.428   45.533
| 39> H  -19.344   27.382   45.576
| 40> H  -20.898   28.157   45.201
| 41> H  -19.543   28.978   47.434
| 42> H  -21.289   28.710   47.548
| 43> H  -20.733   27.082   49.195
| 44> H  -19.064   26.913   48.597
| 45> C  -23.415   25.773   45.218
| 46> H  -23.989   26.564   44.718
| 47> H  -22.752   25.309   44.476
| 48> O  -22.586   26.394   46.375
| 49> C  -24.410   24.685   45.709
| 50> C  -25.484   25.284   46.624
| 51> C  -26.449   25.923   45.597
| 52> C  -26.392   24.940   44.401
| 53> O  -25.165   24.133   44.579
| 54> H  -23.848   23.860   46.151
| 55> O  -26.196   24.156   47.419
| 56> H  -25.084   26.010   47.340
| 57> H  -27.464   26.045   45.988
| 58> H  -26.083   26.913   45.302
| 59> H  -26.346   25.455   43.436
| 60> H  -27.236   24.245   44.391
| 61> H  -26.607   23.416   46.721
| 62> *
| 63>
| 64>                          ****END OF INPUT****
 Total Charge           Charge          ....    0
 Multiplicity           Mult            ....    1
 Number of Electrons    NEL             ....  102
FINAL SINGLE POINT ENERGY      -652.836775750046
FINAL SINGLE POINT ENERGY      -652.859107231902
FINAL SINGLE POINT ENERGY      -652.862409219773
FINAL SINGLE POINT ENERGY      -652.863007644063
FINAL SINGLE POINT ENERGY      -652.863088504099
FINAL SINGLE POINT ENERGY      -652.863098717607
FINAL SINGLE POINT ENERGY      -652.863100831854
                    ***********************HURRAY********************

CARTESIAN COORDINATES (ANGSTROEM)
---------------------------------
  C    -21.103849   26.158768   46.177542
  C    -20.410367   27.498019   45.935119
  C    -20.499012   28.162069   47.330217
  C    -20.347610   26.963844   48.291900
  O    -20.641302   25.755968   47.476639
  H    -20.845987   25.360056   45.474502
  H    -19.365440   27.321886   45.652539
  H    -20.893490   28.082351   45.148024
  H    -19.728211   28.922710   47.485281
  H    -21.479949   28.631396   47.451328
  H    -21.044693   26.993816   49.132832
  H    -19.327443   26.845922   48.668957
  C    -23.329775   25.782927   45.116153
  H    -23.846681   26.603811   44.605251
  H    -22.686827   25.279447   44.381938
  O    -22.546599   26.338855   46.208950
  C    -24.324168   24.767089   45.679720
  C    -25.365773   25.349083   46.645614
  C    -26.390847   25.969140   45.662622
  C    -26.374189   24.986670   44.465562
  O    -25.120944   24.198362   44.585662
  H    -23.777325   23.943304   46.147023
  O    -25.966389   24.299055   47.452990
  H    -24.939483   26.061345   47.350331
  H    -27.374074   26.050549   46.132203
  H    -26.071322   26.972333   45.360256
  H    -26.382765   25.494559   43.496440
  H    -27.205076   24.274759   44.493597
  H    -26.141409   23.517903   46.886809

 Multiplicity           Mult            ....    1
 Number of Electrons    NEL             ....  102
 Basis Dimension        Dim             ....  149

ORBITAL ENERGIES
----------------

  NO   OCC          E(Eh)            E(eV)
   0   2.0000     -19.144368      -520.9447
   1   2.0000     -19.144043      -520.9359
   2   2.0000     -19.140319      -520.8346
   3   2.0000     -19.131950      -520.6068
   4   2.0000     -10.282454      -279.7998
   5   2.0000     -10.234270      -278.4886
   6   2.0000     -10.233154      -278.4583
   7   2.0000     -10.230757      -278.3931
   8   2.0000     -10.230191      -278.3776
   9   2.0000     -10.224888      -278.2333
  10   2.0000     -10.186545      -277.1900
  11   2.0000     -10.186388      -277.1857
  12   2.0000     -10.185638      -277.1653
  13   2.0000      -1.054019       -28.6813
  14   2.0000      -1.034090       -28.1390
  15   2.0000      -1.001975       -27.2651
  16   2.0000      -0.996592       -27.1186
  17   2.0000      -0.788609       -21.4592
  18   2.0000      -0.777441       -21.1552
  19   2.0000      -0.766477       -20.8569
  20   2.0000      -0.730696       -19.8832
  21   2.0000      -0.675093       -18.3702
  22   2.0000      -0.602154       -16.3854
  23   2.0000      -0.600501       -16.3405
  24   2.0000      -0.594385       -16.1740
  25   2.0000      -0.580420       -15.7940
  26   2.0000      -0.520815       -14.1721
  27   2.0000      -0.519143       -14.1266
  28   2.0000      -0.496240       -13.5034
  29   2.0000      -0.488714       -13.2986
  30   2.0000      -0.468445       -12.7470
  31   2.0000      -0.456730       -12.4282
  32   2.0000      -0.451974       -12.2988
  33   2.0000      -0.441337       -12.0094
  34   2.0000      -0.425410       -11.5760
  35   2.0000      -0.413028       -11.2391
  36   2.0000      -0.399276       -10.8648
  37   2.0000      -0.390285       -10.6202
  38   2.0000      -0.374078       -10.1792
  39   2.0000      -0.365692        -9.9510
  40   2.0000      -0.358886        -9.7658
  41   2.0000      -0.353896        -9.6300
  42   2.0000      -0.353543        -9.6204
  43   2.0000      -0.330761        -9.0005
  44   2.0000      -0.315677        -8.5900
  45   2.0000      -0.313199        -8.5226
  46   2.0000      -0.300648        -8.1810
  47   2.0000      -0.276789        -7.5318
  48   2.0000      -0.262280        -7.1370
  49   2.0000      -0.253623        -6.9014
  50   2.0000      -0.240080        -6.5329
  51   0.0000       0.065616         1.7855
  52   0.0000       0.074255         2.0206
  53   0.0000       0.096028         2.6131
  54   0.0000       0.099048         2.6952
  55   0.0000       0.105961         2.8833

MULLIKEN ATOMIC CHARGES
-----------------------
   0 C :    0.289370
   1 C :   -0.254901
   2 C :   -0.300935
   3 C :   -0.002532
   4 O :   -0.500345
   5 H :    0.141356
   6 H :    0.143650
   7 H :    0.143957
   8 H :    0.142236
   9 H :    0.161644
  10 H :    0.155298
  11 H :    0.142067
  12 C :   -0.019675
  13 H :    0.137560
  14 H :    0.142978
  15 O :   -0.521518
  16 C :    0.062723
  17 C :    0.096970
  18 C :   -0.302792
  19 C :   -0.026715
  20 O :   -0.529705
  21 H :    0.168039
  22 O :   -0.605116
  23 H :    0.177501
  24 H :    0.162253
  25 H :    0.145104
  26 H :    0.142520
  27 H :    0.146897
  28 H :    0.362112
Sum of atomic charges:   -0.0000000

LOEWDIN ATOMIC CHARGES
----------------------
   0 C :    0.178643
   1 C :   -0.224492
   2 C :   -0.216897
   3 C :   -0.025837
   4 O :   -0.309820
   5 H :    0.098245
   6 H :    0.113061
   7 H :    0.116418
   8 H :    0.114418
   9 H :    0.118869
  10 H :    0.109693
  11 H :    0.102616
  12 C :   -0.037993
  13 H :    0.099281
  14 H :    0.104559
  15 O :   -0.337438
  16 C :    0.011399
  17 C :    0.039500
  18 C :   -0.242270
  19 C :   -0.037532
  20 O :   -0.333908
  21 H :    0.119385
  22 O :   -0.414769
  23 H :    0.128393
  24 H :    0.126679
  25 H :    0.113375
  26 H :    0.102356
  27 H :    0.102901
  28 H :    0.281166

  Mayer bond orders larger than 0.100000
B(  0-C ,  1-C ) :   0.9376 B(  0-C ,  4-O ) :   0.9397 B(  0-C ,  5-H ) :   0.9174
B(  0-C , 15-O ) :   0.8303 B(  1-C ,  2-C ) :   0.9561 B(  1-C ,  6-H ) :   0.9350
B(  1-C ,  7-H ) :   0.9392 B(  2-C ,  3-C ) :   0.9545 B(  2-C ,  8-H ) :   0.9451
B(  2-C ,  9-H ) :   0.9438 B(  3-C ,  4-O ) :   0.8354 B(  3-C , 10-H ) :   0.9343
B(  3-C , 11-H ) :   0.9397 B( 12-C , 13-H ) :   0.9313 B( 12-C , 14-H ) :   0.9181
B( 12-C , 15-O ) :   0.8351 B( 12-C , 16-C ) :   0.8896 B( 16-C , 17-C ) :   0.9156
B( 16-C , 20-O ) :   0.8384 B( 16-C , 21-H ) :   0.9260 B( 17-C , 18-C ) :   0.9114
B( 17-C , 22-O ) :   0.8884 B( 17-C , 23-H ) :   0.9238 B( 18-C , 19-C ) :   0.9404
B( 18-C , 24-H ) :   0.9381 B( 18-C , 25-H ) :   0.9347 B( 19-C , 20-O ) :   0.8444
B( 19-C , 26-H ) :   0.9366 B( 19-C , 27-H ) :   0.9382 B( 22-O , 28-H ) :   0.7960

FINAL SINGLE POINT ENERGY      -652.863101189482

DIPOLE MOMENT
-------------
                                X             Y             Z
Electronic contribution:     -1.08906      -5.33703       0.97423
Nuclear contribution   :      1.31559       6.47523      -1.83643
                        -----------------------------------------
Total Dipole Moment    :      0.22653       1.13820      -0.86220
                        -----------------------------------------
Magnitude (a.u.)       :      1.44576
Magnitude (Debye)      :      3.67482

Rotational constants in cm-1:     0.058303     0.012007     0.011339
Rotational constants in MHz :  1747.869115   359.969326   339.945885

                             ****ORCA TERMINATED NORMALLY****
TOTAL RUN TIME: 0 days 1 hours 21 minutes 9 seconds 564 msec
