                         Program Version 4.2.0 -  RELEASE  -
|  1> # Test redundant internal optimization
|  2> #
|  3> ! RKS B3LYP  Opt TightSCF SmallPrint
|  4>
|  5> %basis
|  6>         Basis "6-31G"
|  7> end
|  8>
|  9> %geom
| 10> Constraints
| 11> { D 4  0  15  12  285.0   C } # D for Dihedral angle
| 12> { D 0  15  12  16  60.0   C } # D for Dihedral angle
| 13> { D 0  4  3  2   C } # D for Dihedral angle
| 14> { D 4  3  2  1   C } # D for Dihedral angle
| 15> { D 3  2  1  0   C } # D for Dihedral angle
| 16> { D 2  1  0  4   C } # D for Dihedral angle
| 17> { D 1  0  4  3   C } # D for Dihedral angle
| 18> { D 16  20  19  18   C } # D for Dihedral angle
| 19> { D 20  19  18  17   C } # D for Dihedral angle
| 20> { D 19  18  17  16   C } # D for Dihedral angle
| 21> { D 18  17  16  20   C } # D for Dihedral angle
| 22> { D 17  16  20  19   C } # D for Dihedral angle
| 23> { D 15  12  16  20   C } # D for Dihedral angle
| 24> end
| 25> end
| 26>
| 27>
| 28> #%pal
| 29> #nprocs 8
| 30> #end
| 31>
| 32> * xyz 0 1
| 33> C  -21.048   26.222   46.251
| 34> C  -20.361   27.558   45.944
| 35> C  -20.329   28.222   47.341
| 36> C  -20.110   27.022   48.296
| 37> O  -20.473   25.807   47.535
| 38> H  -20.833   25.428   45.533
| 39> H  -19.344   27.382   45.576
| 40> H  -20.898   28.157   45.201
| 41> H  -19.543   28.978   47.434
| 42> H  -21.289   28.710   47.548
| 43> H  -20.733   27.082   49.195
| 44> H  -19.064   26.913   48.597
| 45> C  -23.396   25.070   46.435
| 46> H  -24.465   25.303   46.513
| 47> H  -23.238   24.482   45.522
| 48> O  -22.586   26.394   46.375
| 49> C  -23.001   24.179   47.646
| 50> C  -23.734   22.834   47.609
| 51> C  -22.903   22.051   46.565
| 52> C  -21.460   22.554   46.816
| 53> O  -21.581   23.818   47.575
| 54> H  -23.142   24.746   48.568
| 55> H  -23.680   22.348   48.590
| 56> O  -25.230   22.965   47.211
| 57> H  -22.992   20.966   46.678
| 58> H  -23.231   22.311   45.551
| 59> H  -20.914   22.746   45.885
| 60> H  -20.878   21.863   47.432
| 61> H  -25.311   23.448   46.232
| 62> *
| 63>
| 64>                          ****END OF INPUT****
 Total Charge           Charge          ....    0
 Multiplicity           Mult            ....    1
 Number of Electrons    NEL             ....  102
FINAL SINGLE POINT ENERGY      -652.812015644894
FINAL SINGLE POINT ENERGY      -652.837073174275
FINAL SINGLE POINT ENERGY      -652.850313109933
FINAL SINGLE POINT ENERGY      -652.852127877809
FINAL SINGLE POINT ENERGY      -652.852529862872
FINAL SINGLE POINT ENERGY      -652.852608028381
FINAL SINGLE POINT ENERGY      -652.852620853587
FINAL SINGLE POINT ENERGY      -652.852623078412
                    ***********************HURRAY********************

CARTESIAN COORDINATES (ANGSTROEM)
---------------------------------
  C    -20.903309   26.278936   46.244496
  C    -20.479973   27.719353   45.957313
  C    -20.461340   28.334353   47.376703
  C    -19.973974   27.163036   48.256368
  O    -20.186463   25.933741   47.448990
  H    -20.610290   25.532897   45.498085
  H    -19.476196   27.716411   45.516689
  H    -21.168128   28.224120   45.276376
  H    -19.809190   29.210292   47.447930
  H    -21.475278   28.632949   47.657708
  H    -20.528106   27.070363   49.193938
  H    -18.902835   27.212033   48.475470
  C    -23.148243   25.098252   46.466611
  H    -24.170037   25.477621   46.559382
  H    -23.065212   24.569404   45.499189
  O    -22.340273   26.300663   46.384556
  C    -22.911902   24.098507   47.603254
  C    -23.837527   22.872465   47.517918
  C    -23.051582   21.942082   46.542615
  C    -21.580627   22.233164   46.910003
  O    -21.572375   23.524365   47.648956
  H    -23.028698   24.627234   48.554635
  H    -23.909819   22.411322   48.504978
  O    -25.209611   23.142257   47.140458
  H    -23.324516   20.890893   46.667229
  H    -23.271700   22.228427   45.505486
  H    -20.929205   22.318447   46.034782
  H    -21.165111   21.478539   47.584464
  H    -25.275481   23.316873   46.179420

 Multiplicity           Mult            ....    1
 Number of Electrons    NEL             ....  102
 Basis Dimension        Dim             ....  149

ORBITAL ENERGIES
----------------

  NO   OCC          E(Eh)            E(eV)
   0   2.0000     -19.149911      -521.0956
   1   2.0000     -19.137380      -520.7546
   2   2.0000     -19.133060      -520.6370
   3   2.0000     -19.125666      -520.4358
   4   2.0000     -10.270085      -279.4632
   5   2.0000     -10.244646      -278.7710
   6   2.0000     -10.230168      -278.3770
   7   2.0000     -10.227468      -278.3036
   8   2.0000     -10.227141      -278.2946
   9   2.0000     -10.213944      -277.9356
  10   2.0000     -10.194740      -277.4130
  11   2.0000     -10.176871      -276.9267
  12   2.0000     -10.176357      -276.9128
  13   2.0000      -1.042756       -28.3748
  14   2.0000      -1.031642       -28.0724
  15   2.0000      -1.012117       -27.5411
  16   2.0000      -0.985605       -26.8197
  17   2.0000      -0.783318       -21.3152
  18   2.0000      -0.778777       -21.1916
  19   2.0000      -0.762132       -20.7387
  20   2.0000      -0.726119       -19.7587
  21   2.0000      -0.676733       -18.4148
  22   2.0000      -0.610526       -16.6133
  23   2.0000      -0.594338       -16.1728
  24   2.0000      -0.588444       -16.0124
  25   2.0000      -0.565771       -15.3954
  26   2.0000      -0.524329       -14.2677
  27   2.0000      -0.510271       -13.8852
  28   2.0000      -0.493375       -13.4254
  29   2.0000      -0.477924       -13.0050
  30   2.0000      -0.460763       -12.5380
  31   2.0000      -0.453169       -12.3314
  32   2.0000      -0.444940       -12.1074
  33   2.0000      -0.427700       -11.6383
  34   2.0000      -0.422057       -11.4848
  35   2.0000      -0.413804       -11.2602
  36   2.0000      -0.404715       -11.0129
  37   2.0000      -0.390284       -10.6202
  38   2.0000      -0.380229       -10.3466
  39   2.0000      -0.362513        -9.8645
  40   2.0000      -0.352323        -9.5872
  41   2.0000      -0.347611        -9.4590
  42   2.0000      -0.338370        -9.2075
  43   2.0000      -0.329278        -8.9601
  44   2.0000      -0.318749        -8.6736
  45   2.0000      -0.310903        -8.4601
  46   2.0000      -0.281282        -7.6541
  47   2.0000      -0.270070        -7.3490
  48   2.0000      -0.261454        -7.1145
  49   2.0000      -0.249915        -6.8005
  50   2.0000      -0.227405        -6.1880
  51   0.0000       0.051539         1.4024
  52   0.0000       0.074352         2.0232
  53   0.0000       0.091401         2.4872
  54   0.0000       0.098785         2.6881
  55   0.0000       0.110076         2.9953

MULLIKEN ATOMIC CHARGES
-----------------------
   0 C :    0.305931
   1 C :   -0.261857
   2 C :   -0.296649
   3 C :   -0.006942
   4 O :   -0.483108
   5 H :    0.131854
   6 H :    0.142139
   7 H :    0.152034
   8 H :    0.135756
   9 H :    0.159238
  10 H :    0.144413
  11 H :    0.139515
  12 C :   -0.002627
  13 H :    0.158709
  14 H :    0.102343
  15 O :   -0.533797
  16 C :    0.090145
  17 C :    0.081587
  18 C :   -0.319315
  19 C :   -0.018785
  20 O :   -0.486354
  21 H :    0.157619
  22 H :    0.168104
  23 O :   -0.599881
  24 H :    0.157339
  25 H :    0.130078
  26 H :    0.144820
  27 H :    0.151125
  28 H :    0.356566
Sum of atomic charges:   -0.0000000

LOEWDIN ATOMIC CHARGES
----------------------
   0 C :    0.178774
   1 C :   -0.216116
   2 C :   -0.216851
   3 C :   -0.030662
   4 O :   -0.307592
   5 H :    0.092573
   6 H :    0.112159
   7 H :    0.121239
   8 H :    0.110852
   9 H :    0.117599
  10 H :    0.103790
  11 H :    0.100896
  12 C :   -0.045047
  13 H :    0.119806
  14 H :    0.078508
  15 O :   -0.328189
  16 C :    0.009100
  17 C :    0.035328
  18 C :   -0.241687
  19 C :   -0.033409
  20 O :   -0.301966
  21 H :    0.116049
  22 H :    0.119919
  23 O :   -0.407464
  24 H :    0.122291
  25 H :    0.102269
  26 H :    0.102596
  27 H :    0.106765
  28 H :    0.278468

  Mayer bond orders larger than 0.100000
B(  0-C ,  1-C ) :   0.9451 B(  0-C ,  4-O ) :   0.9234 B(  0-C ,  5-H ) :   0.9239
B(  0-C , 15-O ) :   0.8412 B(  1-C ,  2-C ) :   0.9590 B(  1-C ,  6-H ) :   0.9413
B(  1-C ,  7-H ) :   0.9369 B(  2-C ,  3-C ) :   0.9525 B(  2-C ,  8-H ) :   0.9456
B(  2-C ,  9-H ) :   0.9448 B(  3-C ,  4-O ) :   0.8471 B(  3-C , 10-H ) :   0.9353
B(  3-C , 11-H ) :   0.9401 B( 12-C , 13-H ) :   0.9216 B( 12-C , 14-H ) :   0.9233
B( 12-C , 15-O ) :   0.8666 B( 12-C , 16-C ) :   0.8861 B( 16-C , 17-C ) :   0.8652
B( 16-C , 20-O ) :   0.8704 B( 16-C , 21-H ) :   0.9302 B( 17-C , 18-C ) :   0.9230
B( 17-C , 22-H ) :   0.9334 B( 17-C , 23-O ) :   0.8975 B( 18-C , 19-C ) :   0.9381
B( 18-C , 24-H ) :   0.9419 B( 18-C , 25-H ) :   0.9397 B( 19-C , 20-O ) :   0.8545
B( 19-C , 26-H ) :   0.9304 B( 19-C , 27-H ) :   0.9370 B( 23-O , 28-H ) :   0.7983

FINAL SINGLE POINT ENERGY      -652.852623166487

DIPOLE MOMENT
-------------
                                X             Y             Z
Electronic contribution:     -1.63228      -1.63210       1.40144
Nuclear contribution   :      1.68965       1.46672      -2.25021
                        -----------------------------------------
Total Dipole Moment    :      0.05737      -0.16538      -0.84878
                        -----------------------------------------
Magnitude (a.u.)       :      0.86664
Magnitude (Debye)      :      2.20282

Rotational constants in cm-1:     0.056815     0.014317     0.013021
Rotational constants in MHz :  1703.269156   429.200193   390.374746

                             ****ORCA TERMINATED NORMALLY****
TOTAL RUN TIME: 0 days 0 hours 30 minutes 30 seconds 935 msec
