                         Program Version 4.2.0 -  RELEASE  -
|  1> # Test redundant internal optimization
|  2> #
|  3> ! RKS B3LYP  Opt TightSCF SmallPrint
|  4>
|  5> %basis
|  6>         Basis "6-31G"
|  7> end
|  8>
|  9> %geom
| 10> Constraints
| 11> { D 4  0  15  12  285.0   C } # D for Dihedral angle
| 12> { D 0  15  12  16  195.0   C } # D for Dihedral angle
| 13> { D 0  4  3  2   C } # D for Dihedral angle
| 14> { D 4  3  2  1   C } # D for Dihedral angle
| 15> { D 3  2  1  0   C } # D for Dihedral angle
| 16> { D 2  1  0  4   C } # D for Dihedral angle
| 17> { D 1  0  4  3   C } # D for Dihedral angle
| 18> { D 16  20  19  18   C } # D for Dihedral angle
| 19> { D 20  19  18  17   C } # D for Dihedral angle
| 20> { D 19  18  17  16   C } # D for Dihedral angle
| 21> { D 18  17  16  20   C } # D for Dihedral angle
| 22> { D 17  16  20  19   C } # D for Dihedral angle
| 23> { D 15  12  16  20   C } # D for Dihedral angle
| 24> end
| 25> end
| 26>
| 27>
| 28> #%pal
| 29> #nprocs 8
| 30> #end
| 31>
| 32> * xyz 0 1
| 33> C  -21.048   26.222   46.251
| 34> C  -20.361   27.558   45.944
| 35> C  -20.329   28.222   47.341
| 36> C  -20.110   27.022   48.296
| 37> O  -20.473   25.807   47.535
| 38> H  -20.833   25.428   45.533
| 39> H  -19.344   27.382   45.576
| 40> H  -20.898   28.157   45.201
| 41> H  -19.543   28.978   47.434
| 42> H  -21.289   28.710   47.548
| 43> H  -20.733   27.082   49.195
| 44> H  -19.064   26.913   48.597
| 45> C  -23.396   25.070   46.435
| 46> H  -23.015   24.378   45.674
| 47> H  -23.282   24.595   47.418
| 48> O  -22.586   26.394   46.375
| 49> C  -24.915   25.283   46.186
| 50> C  -25.500   26.312   47.160
| 51> C  -25.050   27.645   46.515
| 52> C  -25.123   27.344   44.997
| 53> O  -25.139   25.871   44.861
| 54> H  -25.418   24.315   46.196
| 55> O  -27.049   26.208   47.178
| 56> H  -25.134   26.192   48.185
| 57> H  -25.683   28.491   46.803
| 58> H  -24.021   27.879   46.813
| 59> H  -24.265   27.746   44.448
| 60> H  -26.043   27.719   44.540
| 61> H  -27.438   26.326   46.160
| 62> *
| 63>
| 64>                          ****END OF INPUT****
 Total Charge           Charge          ....    0
 Multiplicity           Mult            ....    1
 Number of Electrons    NEL             ....  102
FINAL SINGLE POINT ENERGY      -652.840494952793
FINAL SINGLE POINT ENERGY      -652.864336423277
FINAL SINGLE POINT ENERGY      -652.868642191689
FINAL SINGLE POINT ENERGY      -652.869697610633
FINAL SINGLE POINT ENERGY      -652.869813561190
FINAL SINGLE POINT ENERGY      -652.869827364161
                    ***********************HURRAY********************

CARTESIAN COORDINATES (ANGSTROEM)
---------------------------------
  C    -21.093956   26.140777   46.257830
  C    -20.451430   27.490482   45.936194
  C    -20.417904   28.164951   47.327305
  C    -20.151985   26.980257   48.283587
  O    -20.497356   25.754956   47.518890
  H    -20.882058   25.328616   45.554643
  H    -19.437714   27.323403   45.555519
  H    -21.021745   28.052215   45.193659
  H    -19.646760   28.937997   47.401944
  H    -21.387384   28.625291   47.540074
  H    -20.761547   27.014813   49.190103
  H    -19.097996   26.887897   48.561629
  C    -23.300858   25.115972   46.460301
  H    -22.943797   24.405084   45.701454
  H    -23.168998   24.660530   47.450798
  O    -22.516892   26.341854   46.365729
  C    -24.777019   25.394481   46.200366
  C    -25.475403   26.382224   47.146036
  C    -25.107835   27.747453   46.505925
  C    -25.104517   27.430791   44.990104
  O    -25.000319   25.957700   44.867591
  H    -25.296258   24.428726   46.224401
  O    -26.912474   26.148019   47.158754
  H    -25.160934   26.292600   48.186332
  H    -25.838692   28.512927   46.780841
  H    -24.113282   28.048439   46.837766
  H    -24.255941   27.885557   44.472377
  H    -26.031953   27.730517   44.490294
  H    -27.228996   26.064470   46.234556

 Multiplicity           Mult            ....    1
 Number of Electrons    NEL             ....  102
 Basis Dimension        Dim             ....  149

ORBITAL ENERGIES
----------------

  NO   OCC          E(Eh)            E(eV)
   0   2.0000     -19.151277      -521.1327
   1   2.0000     -19.143007      -520.9077
   2   2.0000     -19.137143      -520.7481
   3   2.0000     -19.133719      -520.6550
   4   2.0000     -10.282412      -279.7986
   5   2.0000     -10.235774      -278.5296
   6   2.0000     -10.233609      -278.4707
   7   2.0000     -10.231694      -278.4185
   8   2.0000     -10.228489      -278.3313
   9   2.0000     -10.222465      -278.1674
  10   2.0000     -10.189513      -277.2707
  11   2.0000     -10.189118      -277.2600
  12   2.0000     -10.175793      -276.8974
  13   2.0000      -1.059637       -28.8342
  14   2.0000      -1.031566       -28.0703
  15   2.0000      -1.003463       -27.3056
  16   2.0000      -0.995705       -27.0945
  17   2.0000      -0.792928       -21.5767
  18   2.0000      -0.775693       -21.1077
  19   2.0000      -0.763702       -20.7814
  20   2.0000      -0.732475       -19.9317
  21   2.0000      -0.673122       -18.3166
  22   2.0000      -0.602937       -16.4067
  23   2.0000      -0.596925       -16.2431
  24   2.0000      -0.595766       -16.2116
  25   2.0000      -0.579096       -15.7580
  26   2.0000      -0.526337       -14.3224
  27   2.0000      -0.507008       -13.7964
  28   2.0000      -0.497531       -13.5385
  29   2.0000      -0.486850       -13.2479
  30   2.0000      -0.471860       -12.8400
  31   2.0000      -0.463255       -12.6058
  32   2.0000      -0.447932       -12.1888
  33   2.0000      -0.430515       -11.7149
  34   2.0000      -0.427053       -11.6207
  35   2.0000      -0.408651       -11.1200
  36   2.0000      -0.402802       -10.9608
  37   2.0000      -0.386197       -10.5090
  38   2.0000      -0.380751       -10.3607
  39   2.0000      -0.364900        -9.9294
  40   2.0000      -0.360563        -9.8114
  41   2.0000      -0.355949        -9.6859
  42   2.0000      -0.349060        -9.4984
  43   2.0000      -0.336529        -9.1574
  44   2.0000      -0.321646        -8.7524
  45   2.0000      -0.306665        -8.3448
  46   2.0000      -0.299748        -8.1566
  47   2.0000      -0.274659        -7.4738
  48   2.0000      -0.264477        -7.1968
  49   2.0000      -0.256068        -6.9680
  50   2.0000      -0.242414        -6.5964
  51   0.0000       0.065197         1.7741
  52   0.0000       0.083995         2.2856
  53   0.0000       0.089757         2.4424
  54   0.0000       0.103949         2.8286
  55   0.0000       0.108578         2.9546

MULLIKEN ATOMIC CHARGES
-----------------------
   0 C :    0.294746
   1 C :   -0.262971
   2 C :   -0.303092
   3 C :   -0.002796
   4 O :   -0.512796
   5 H :    0.146388
   6 H :    0.148392
   7 H :    0.155060
   8 H :    0.143759
   9 H :    0.159850
  10 H :    0.147066
  11 H :    0.144559
  12 C :    0.008798
  13 H :    0.142156
  14 H :    0.146788
  15 O :   -0.528352
  16 C :    0.058503
  17 C :    0.077790
  18 C :   -0.289527
  19 C :   -0.016655
  20 O :   -0.527841
  21 H :    0.157087
  22 O :   -0.604012
  23 H :    0.151804
  24 H :    0.147959
  25 H :    0.172087
  26 H :    0.147909
  27 H :    0.134712
  28 H :    0.362628
Sum of atomic charges:   -0.0000000

LOEWDIN ATOMIC CHARGES
----------------------
   0 C :    0.173467
   1 C :   -0.214614
   2 C :   -0.216718
   3 C :   -0.027610
   4 O :   -0.329453
   5 H :    0.098708
   6 H :    0.116128
   7 H :    0.122795
   8 H :    0.114600
   9 H :    0.115928
  10 H :    0.105412
  11 H :    0.103708
  12 C :   -0.037037
  13 H :    0.103818
  14 H :    0.105501
  15 O :   -0.326615
  16 C :    0.013742
  17 C :    0.039882
  18 C :   -0.241990
  19 C :   -0.032526
  20 O :   -0.331349
  21 H :    0.117039
  22 O :   -0.417685
  23 H :    0.116240
  24 H :    0.118150
  25 H :    0.127249
  26 H :    0.105838
  27 H :    0.095640
  28 H :    0.281752

  Mayer bond orders larger than 0.100000
B(  0-C ,  1-C ) :   0.9499 B(  0-C ,  4-O ) :   0.9063 B(  0-C ,  5-H ) :   0.9170
B(  0-C , 15-O ) :   0.8554 B(  1-C ,  2-C ) :   0.9561 B(  1-C ,  6-H ) :   0.9396
B(  1-C ,  7-H ) :   0.9362 B(  2-C ,  3-C ) :   0.9546 B(  2-C ,  8-H ) :   0.9449
B(  2-C ,  9-H ) :   0.9437 B(  3-C ,  4-O ) :   0.8379 B(  3-C , 10-H ) :   0.9358
B(  3-C , 11-H ) :   0.9402 B( 12-C , 13-H ) :   0.9165 B( 12-C , 14-H ) :   0.9100
B( 12-C , 15-O ) :   0.8326 B( 12-C , 16-C ) :   0.9083 B( 16-C , 17-C ) :   0.9107
B( 16-C , 20-O ) :   0.8710 B( 16-C , 21-H ) :   0.9217 B( 17-C , 18-C ) :   0.9242
B( 17-C , 22-O ) :   0.8907 B( 17-C , 23-H ) :   0.9356 B( 18-C , 19-C ) :   0.9456
B( 18-C , 24-H ) :   0.9375 B( 18-C , 25-H ) :   0.9183 B( 19-C , 20-O ) :   0.8392
B( 19-C , 26-H ) :   0.9345 B( 19-C , 27-H ) :   0.9372 B( 22-O , 28-H ) :   0.7960

FINAL SINGLE POINT ENERGY      -652.869827539309

DIPOLE MOMENT
-------------
                                X             Y             Z
Electronic contribution:     -3.28783      -4.57929      -0.84771
Nuclear contribution   :      4.10988       5.33405       0.70860
                        -----------------------------------------
Total Dipole Moment    :      0.82205       0.75477      -0.13911
                        -----------------------------------------
Magnitude (a.u.)       :      1.12463
Magnitude (Debye)      :      2.85858

Rotational constants in cm-1:     0.053762     0.013883     0.013673
Rotational constants in MHz :  1611.758592   416.210637   409.893451

                             ****ORCA TERMINATED NORMALLY****
TOTAL RUN TIME: 0 days 0 hours 33 minutes 21 seconds 445 msec
