                         Program Version 4.2.0 -  RELEASE  -
|  1> # Test redundant internal optimization
|  2> #
|  3> ! RKS B3LYP  Opt TightSCF SmallPrint
|  4>
|  5> %basis
|  6>         Basis "6-31G"
|  7> end
|  8>
|  9> %geom
| 10> Constraints
| 11> { D 4  0  15  12  195.0   C } # D for Dihedral angle
| 12> { D 0  15  12  16  0.0   C } # D for Dihedral angle
| 13> { D 0  4  3  2   C } # D for Dihedral angle
| 14> { D 4  3  2  1   C } # D for Dihedral angle
| 15> { D 3  2  1  0   C } # D for Dihedral angle
| 16> { D 2  1  0  4   C } # D for Dihedral angle
| 17> { D 1  0  4  3   C } # D for Dihedral angle
| 18> { D 16  20  19  18   C } # D for Dihedral angle
| 19> { D 20  19  18  17   C } # D for Dihedral angle
| 20> { D 19  18  17  16   C } # D for Dihedral angle
| 21> { D 18  17  16  20   C } # D for Dihedral angle
| 22> { D 17  16  20  19   C } # D for Dihedral angle
| 23> { D 15  12  16  20   C } # D for Dihedral angle
| 24> end
| 25> end
| 26>
| 27>
| 28> #%pal
| 29> #nprocs 8
| 30> #end
| 31>
| 32> * xyz 0 1
| 33> C  -21.048   26.222   46.251
| 34> C  -20.361   27.558   45.944
| 35> C  -20.329   28.222   47.341
| 36> C  -20.110   27.022   48.296
| 37> O  -20.473   25.807   47.535
| 38> H  -20.833   25.428   45.533
| 39> H  -19.344   27.382   45.576
| 40> H  -20.898   28.157   45.201
| 41> H  -19.543   28.978   47.434
| 42> H  -21.289   28.710   47.548
| 43> H  -20.733   27.082   49.195
| 44> H  -19.064   26.913   48.597
| 45> C  -23.353   26.472   45.026
| 46> H  -24.084   25.655   44.978
| 47> H  -23.895   27.423   44.948
| 48> O  -22.586   26.394   46.375
| 49> C  -22.413   26.361   43.794
| 50> C  -23.186   26.557   42.485
| 51> C  -23.327   28.097   42.432
| 52> C  -21.998   28.593   43.055
| 53> O  -21.429   27.449   43.799
| 54> H  -21.855   25.424   43.853
| 55> H  -22.592   26.194   41.639
| 56> O  -24.556   25.827   42.470
| 57> H  -23.478   28.475   41.416
| 58> H  -24.181   28.418   43.040
| 59> H  -22.145   29.432   43.745
| 60> H  -21.264   28.882   42.298
| 61> H  -25.170   26.175   43.309
| 62> *
| 63>
| 64>                          ****END OF INPUT****
 Total Charge           Charge          ....    0
 Multiplicity           Mult            ....    1
 Number of Electrons    NEL             ....  102
FINAL SINGLE POINT ENERGY      -652.793803336047
FINAL SINGLE POINT ENERGY      -652.825018905513
FINAL SINGLE POINT ENERGY      -652.843664008204
FINAL SINGLE POINT ENERGY      -652.846958800814
FINAL SINGLE POINT ENERGY      -652.847562910183
FINAL SINGLE POINT ENERGY      -652.847699472726
FINAL SINGLE POINT ENERGY      -652.847710578059
FINAL SINGLE POINT ENERGY      -652.847714576190
                    ***********************HURRAY********************

CARTESIAN COORDINATES (ANGSTROEM)
---------------------------------
  C    -20.826930   26.209727   46.278231
  C    -20.090613   27.539882   46.127468
  C    -20.334925   28.203055   47.506728
  C    -20.315065   26.996488   48.468645
  O    -20.526345   25.799773   47.620225
  H    -20.504107   25.411991   45.605421
  H    -19.022058   27.335162   45.982054
  H    -20.448353   28.119904   45.280032
  H    -19.573553   28.948570   47.755398
  H    -21.315143   28.689074   47.518115
  H    -21.105188   27.031121   49.223839
  H    -19.347476   26.862881   48.963069
  C    -23.078961   26.475082   45.023331
  H    -23.800329   25.647651   45.055808
  H    -23.640109   27.416574   45.115654
  O    -22.280827   26.371723   46.238023
  C    -22.409146   26.417354   43.644765
  C    -23.417297   26.575890   42.490548
  C    -23.530076   28.129981   42.373841
  C    -22.096263   28.598724   42.705029
  O    -21.423705   27.464467   43.397510
  H    -21.860276   25.474488   43.552578
  H    -22.982536   26.160682   41.579126
  O    -24.672526   25.878021   42.643078
  H    -23.860268   28.443341   41.380495
  H    -24.255884   28.502907   43.107741
  H    -22.072141   29.476278   43.358243
  H    -21.509962   28.810435   41.806657
  H    -25.236938   26.317774   43.311350

 Multiplicity           Mult            ....    1
 Number of Electrons    NEL             ....  102
 Basis Dimension        Dim             ....  149

ORBITAL ENERGIES
----------------

  NO   OCC          E(Eh)            E(eV)
   0   2.0000     -19.157895      -521.3128
   1   2.0000     -19.153634      -521.1969
   2   2.0000     -19.128582      -520.5152
   3   2.0000     -19.128027      -520.5001
   4   2.0000     -10.269612      -279.4504
   5   2.0000     -10.255364      -279.0627
   6   2.0000     -10.243075      -278.7282
   7   2.0000     -10.242686      -278.7176
   8   2.0000     -10.233650      -278.4718
   9   2.0000     -10.214429      -277.9487
  10   2.0000     -10.204721      -277.6846
  11   2.0000     -10.174307      -276.8570
  12   2.0000     -10.165228      -276.6099
  13   2.0000      -1.046622       -28.4800
  14   2.0000      -1.038612       -28.2621
  15   2.0000      -1.027672       -27.9644
  16   2.0000      -0.979297       -26.6480
  17   2.0000      -0.793073       -21.5806
  18   2.0000      -0.775420       -21.1002
  19   2.0000      -0.769300       -20.9337
  20   2.0000      -0.728907       -19.8346
  21   2.0000      -0.682732       -18.5781
  22   2.0000      -0.622326       -16.9344
  23   2.0000      -0.604992       -16.4627
  24   2.0000      -0.587111       -15.9761
  25   2.0000      -0.559740       -15.2313
  26   2.0000      -0.536441       -14.5973
  27   2.0000      -0.517441       -14.0803
  28   2.0000      -0.492711       -13.4073
  29   2.0000      -0.480199       -13.0669
  30   2.0000      -0.470899       -12.8138
  31   2.0000      -0.454761       -12.3747
  32   2.0000      -0.444594       -12.0980
  33   2.0000      -0.438135       -11.9223
  34   2.0000      -0.434083       -11.8120
  35   2.0000      -0.422434       -11.4950
  36   2.0000      -0.408882       -11.1262
  37   2.0000      -0.393609       -10.7106
  38   2.0000      -0.389395       -10.5960
  39   2.0000      -0.365997        -9.9593
  40   2.0000      -0.358219        -9.7476
  41   2.0000      -0.353569        -9.6211
  42   2.0000      -0.341410        -9.2903
  43   2.0000      -0.334915        -9.1135
  44   2.0000      -0.322516        -8.7761
  45   2.0000      -0.304491        -8.2856
  46   2.0000      -0.295013        -8.0277
  47   2.0000      -0.281891        -7.6706
  48   2.0000      -0.252424        -6.8688
  49   2.0000      -0.247580        -6.7370
  50   2.0000      -0.237006        -6.4493
  51   0.0000       0.045763         1.2453
  52   0.0000       0.065762         1.7895
  53   0.0000       0.080791         2.1984
  54   0.0000       0.095837         2.6079
  55   0.0000       0.101296         2.7564

MULLIKEN ATOMIC CHARGES
-----------------------
   0 C :    0.305763
   1 C :   -0.269591
   2 C :   -0.302612
   3 C :    0.001764
   4 O :   -0.503704
   5 H :    0.140610
   6 H :    0.135500
   7 H :    0.178302
   8 H :    0.135069
   9 H :    0.150483
  10 H :    0.148784
  11 H :    0.137452
  12 C :    0.008654
  13 H :    0.148745
  14 H :    0.121151
  15 O :   -0.537010
  16 C :    0.066452
  17 C :    0.086777
  18 C :   -0.316713
  19 C :   -0.020331
  20 O :   -0.517975
  21 H :    0.161204
  22 H :    0.170277
  23 O :   -0.595851
  24 H :    0.159287
  25 H :    0.140234
  26 H :    0.148511
  27 H :    0.158090
  28 H :    0.360678
Sum of atomic charges:   -0.0000000

LOEWDIN ATOMIC CHARGES
----------------------
   0 C :    0.190508
   1 C :   -0.234058
   2 C :   -0.219890
   3 C :   -0.026139
   4 O :   -0.304769
   5 H :    0.097015
   6 H :    0.110661
   7 H :    0.129989
   8 H :    0.110832
   9 H :    0.112842
  10 H :    0.105966
  11 H :    0.099754
  12 C :   -0.046763
  13 H :    0.110332
  14 H :    0.091663
  15 O :   -0.342673
  16 C :    0.004735
  17 C :    0.039361
  18 C :   -0.239045
  19 C :   -0.031330
  20 O :   -0.319813
  21 H :    0.114376
  22 H :    0.120681
  23 O :   -0.401736
  24 H :    0.124373
  25 H :    0.107156
  26 H :    0.104825
  27 H :    0.109951
  28 H :    0.281198

  Mayer bond orders larger than 0.100000
B(  0-C ,  1-C ) :   0.9360 B(  0-C ,  4-O ) :   0.9315 B(  0-C ,  5-H ) :   0.9228
B(  0-C , 15-O ) :   0.8138 B(  1-C ,  2-C ) :   0.9471 B(  1-C ,  6-H ) :   0.9357
B(  1-C ,  7-H ) :   0.9134 B(  2-C ,  3-C ) :   0.9537 B(  2-C ,  8-H ) :   0.9456
B(  2-C ,  9-H ) :   0.9464 B(  3-C ,  4-O ) :   0.8368 B(  3-C , 10-H ) :   0.9359
B(  3-C , 11-H ) :   0.9401 B( 12-C , 13-H ) :   0.9058 B( 12-C , 14-H ) :   0.9270
B( 12-C , 15-O ) :   0.8595 B( 12-C , 16-C ) :   0.9021 B( 16-C , 17-C ) :   0.8668
B( 16-C , 20-O ) :   0.8439 B( 16-C , 21-H ) :   0.9279 B( 17-C , 18-C ) :   0.9211
B( 17-C , 22-H ) :   0.9330 B( 17-C , 23-O ) :   0.9061 B( 18-C , 19-C ) :   0.9419
B( 18-C , 24-H ) :   0.9421 B( 18-C , 25-H ) :   0.9399 B( 19-C , 20-O ) :   0.8354
B( 19-C , 26-H ) :   0.9310 B( 19-C , 27-H ) :   0.9371 B( 23-O , 28-H ) :   0.7954

FINAL SINGLE POINT ENERGY      -652.847715081276

DIPOLE MOMENT
-------------
                                X             Y             Z
Electronic contribution:     -0.91116      -5.28213      -0.12948
Nuclear contribution   :      0.57279       6.78500      -0.70937
                        -----------------------------------------
Total Dipole Moment    :     -0.33837       1.50287      -0.83885
                        -----------------------------------------
Magnitude (a.u.)       :      1.75407
Magnitude (Debye)      :      4.45850

Rotational constants in cm-1:     0.057647     0.013984     0.012363
Rotational constants in MHz :  1728.217104   419.244492   370.620824

                             ****ORCA TERMINATED NORMALLY****
TOTAL RUN TIME: 0 days 1 hours 56 minutes 22 seconds 716 msec
