                         Program Version 4.2.0 -  RELEASE  -
|  1> # Test redundant internal optimization
|  2> #
|  3> ! RKS B3LYP  Opt TightSCF SmallPrint
|  4>
|  5> %basis
|  6>         Basis "6-31G"
|  7> end
|  8>
|  9> %geom
| 10> Constraints
| 11> { D 4  0  15  12  210.0   C } # D for Dihedral angle
| 12> { D 0  15  12  16  45.0   C } # D for Dihedral angle
| 13> { D 0  4  3  2   C } # D for Dihedral angle
| 14> { D 4  3  2  1   C } # D for Dihedral angle
| 15> { D 3  2  1  0   C } # D for Dihedral angle
| 16> { D 2  1  0  4   C } # D for Dihedral angle
| 17> { D 1  0  4  3   C } # D for Dihedral angle
| 18> { D 16  20  19  18   C } # D for Dihedral angle
| 19> { D 20  19  18  17   C } # D for Dihedral angle
| 20> { D 19  18  17  16   C } # D for Dihedral angle
| 21> { D 18  17  16  20   C } # D for Dihedral angle
| 22> { D 17  16  20  19   C } # D for Dihedral angle
| 23> { D 15  12  16  20   C } # D for Dihedral angle
| 24> end
| 25> end
| 26>
| 27>
| 28> #%pal
| 29> #nprocs 8
| 30> #end
| 31>
| 32> * xyz 0 1
| 33> C  -21.048   26.222   46.251
| 34> C  -20.361   27.558   45.944
| 35> C  -20.329   28.222   47.341
| 36> C  -20.110   27.022   48.296
| 37> O  -20.473   25.807   47.535
| 38> H  -20.833   25.428   45.533
| 39> H  -19.344   27.382   45.576
| 40> H  -20.898   28.157   45.201
| 41> H  -19.543   28.978   47.434
| 42> H  -21.289   28.710   47.548
| 43> H  -20.733   27.082   49.195
| 44> H  -19.064   26.913   48.597
| 45> C  -23.389   26.110   45.076
| 46> H  -24.453   26.004   45.324
| 47> H  -23.284   26.944   44.370
| 48> O  -22.586   26.394   46.375
| 49> C  -22.924   24.816   44.353
| 50> C  -23.195   23.573   45.208
| 51> C  -24.707   23.349   44.966
| 52> C  -24.894   23.779   43.489
| 53> O  -23.714   24.597   43.137
| 54> H  -21.884   24.934   44.043
| 55> H  -22.613   22.724   44.831
| 56> O  -22.848   23.777   46.708
| 57> H  -25.016   22.314   45.142
| 58> H  -25.293   23.992   45.633
| 59> H  -25.801   24.373   43.337
| 60> H  -24.911   22.926   42.806
| 61> H  -23.419   24.623   47.106
| 62> *
| 63>
| 64>                          ****END OF INPUT****
 Total Charge           Charge          ....    0
 Multiplicity           Mult            ....    1
 Number of Electrons    NEL             ....  102
FINAL SINGLE POINT ENERGY      -652.825907612773
FINAL SINGLE POINT ENERGY      -652.851228167281
FINAL SINGLE POINT ENERGY      -652.857465532050
FINAL SINGLE POINT ENERGY      -652.859682642816
FINAL SINGLE POINT ENERGY      -652.860073362865
FINAL SINGLE POINT ENERGY      -652.860218062931
FINAL SINGLE POINT ENERGY      -652.860233173063
FINAL SINGLE POINT ENERGY      -652.860238039429
                    ***********************HURRAY********************

CARTESIAN COORDINATES (ANGSTROEM)
---------------------------------
  C    -20.985938   26.197546   46.231827
  C    -20.279147   27.522331   45.955898
  C    -20.435518   28.255035   47.308575
  C    -20.334582   27.110916   48.337783
  O    -20.590466   25.859997   47.569512
  H    -20.703946   25.361161   45.594080
  H    -19.223384   27.330085   45.730888
  H    -20.718732   28.071438   45.118145
  H    -19.670541   29.022217   47.461046
  H    -21.419050   28.730798   47.357120
  H    -21.073142   27.182614   49.139889
  H    -19.335000   27.009191   48.769778
  C    -23.244190   26.094046   45.059248
  H    -24.271796   26.089691   45.430340
  H    -23.152785   26.913237   44.332852
  O    -22.438672   26.384585   46.249947
  C    -22.920950   24.779747   44.331653
  C    -23.194441   23.508772   45.154677
  C    -24.741187   23.382320   45.033607
  C    -25.025709   23.891241   43.605673
  O    -23.819329   24.666783   43.182314
  H    -21.910598   24.795946   43.915720
  H    -22.719217   22.654710   44.663507
  O    -22.685097   23.507596   46.501946
  H    -25.074947   22.353595   45.191564
  H    -25.217843   24.008175   45.796386
  H    -25.901376   24.544341   43.542318
  H    -25.138699   23.077284   42.883983
  H    -22.729717   24.404604   46.904722

 Multiplicity           Mult            ....    1
 Number of Electrons    NEL             ....  102
 Basis Dimension        Dim             ....  149

ORBITAL ENERGIES
----------------

  NO   OCC          E(Eh)            E(eV)
   0   2.0000     -19.153791      -521.2012
   1   2.0000     -19.145954      -520.9879
   2   2.0000     -19.144912      -520.9595
   3   2.0000     -19.124618      -520.4073
   4   2.0000     -10.285484      -279.8823
   5   2.0000     -10.238192      -278.5954
   6   2.0000     -10.237973      -278.5894
   7   2.0000     -10.236272      -278.5431
   8   2.0000     -10.230939      -278.3980
   9   2.0000     -10.228272      -278.3254
  10   2.0000     -10.190876      -277.3078
  11   2.0000     -10.189016      -277.2572
  12   2.0000     -10.184685      -277.1394
  13   2.0000      -1.059723       -28.8365
  14   2.0000      -1.028947       -27.9991
  15   2.0000      -1.004082       -27.3225
  16   2.0000      -0.996925       -27.1277
  17   2.0000      -0.790822       -21.5194
  18   2.0000      -0.776461       -21.1286
  19   2.0000      -0.768191       -20.9035
  20   2.0000      -0.738323       -20.0908
  21   2.0000      -0.681562       -18.5462
  22   2.0000      -0.610916       -16.6239
  23   2.0000      -0.603601       -16.4248
  24   2.0000      -0.600429       -16.3385
  25   2.0000      -0.569073       -15.4853
  26   2.0000      -0.529953       -14.4208
  27   2.0000      -0.524401       -14.2697
  28   2.0000      -0.495974       -13.4961
  29   2.0000      -0.488152       -13.2833
  30   2.0000      -0.467411       -12.7189
  31   2.0000      -0.460856       -12.5405
  32   2.0000      -0.451393       -12.2830
  33   2.0000      -0.429265       -11.6809
  34   2.0000      -0.424371       -11.5477
  35   2.0000      -0.418961       -11.4005
  36   2.0000      -0.404489       -11.0067
  37   2.0000      -0.399362       -10.8672
  38   2.0000      -0.378856       -10.3092
  39   2.0000      -0.373778       -10.1710
  40   2.0000      -0.361771        -9.8443
  41   2.0000      -0.359235        -9.7753
  42   2.0000      -0.352683        -9.5970
  43   2.0000      -0.336851        -9.1662
  44   2.0000      -0.319082        -8.6826
  45   2.0000      -0.316926        -8.6240
  46   2.0000      -0.299325        -8.1450
  47   2.0000      -0.270955        -7.3731
  48   2.0000      -0.263176        -7.1614
  49   2.0000      -0.253381        -6.8949
  50   2.0000      -0.241955        -6.5839
  51   0.0000       0.057286         1.5588
  52   0.0000       0.076433         2.0798
  53   0.0000       0.089655         2.4396
  54   0.0000       0.094970         2.5843
  55   0.0000       0.107585         2.9275

MULLIKEN ATOMIC CHARGES
-----------------------
   0 C :    0.273424
   1 C :   -0.259116
   2 C :   -0.298827
   3 C :   -0.005283
   4 O :   -0.501161
   5 H :    0.162062
   6 H :    0.148868
   7 H :    0.145964
   8 H :    0.143811
   9 H :    0.163536
  10 H :    0.155683
  11 H :    0.146331
  12 C :   -0.026811
  13 H :    0.159854
  14 H :    0.152567
  15 O :   -0.537902
  16 C :    0.038443
  17 C :    0.120631
  18 C :   -0.308189
  19 C :   -0.024837
  20 O :   -0.521858
  21 H :    0.154654
  22 H :    0.155042
  23 O :   -0.622616
  24 H :    0.152957
  25 H :    0.146121
  26 H :    0.144095
  27 H :    0.154064
  28 H :    0.388494
Sum of atomic charges:   -0.0000000

LOEWDIN ATOMIC CHARGES
----------------------
   0 C :    0.169657
   1 C :   -0.223263
   2 C :   -0.216070
   3 C :   -0.025685
   4 O :   -0.304399
   5 H :    0.106206
   6 H :    0.115704
   7 H :    0.116995
   8 H :    0.115295
   9 H :    0.119844
  10 H :    0.110121
  11 H :    0.104880
  12 C :   -0.051700
  13 H :    0.115299
  14 H :    0.105259
  15 O :   -0.342575
  16 C :    0.001778
  17 C :    0.039917
  18 C :   -0.239099
  19 C :   -0.032970
  20 O :   -0.322404
  21 H :    0.109810
  22 H :    0.111590
  23 O :   -0.417996
  24 H :    0.122659
  25 H :    0.111190
  26 H :    0.103054
  27 H :    0.108272
  28 H :    0.288630

  Mayer bond orders larger than 0.100000
B(  0-C ,  1-C ) :   0.9385 B(  0-C ,  4-O ) :   0.9269 B(  0-C ,  5-H ) :   0.9094
B(  0-C , 15-O ) :   0.7975 B(  1-C ,  2-C ) :   0.9522 B(  1-C ,  6-H ) :   0.9349
B(  1-C ,  7-H ) :   0.9378 B(  2-C ,  3-C ) :   0.9545 B(  2-C ,  8-H ) :   0.9448
B(  2-C ,  9-H ) :   0.9436 B(  3-C ,  4-O ) :   0.8308 B(  3-C , 10-H ) :   0.9349
B(  3-C , 11-H ) :   0.9396 B( 12-C , 13-H ) :   0.9367 B( 12-C , 14-H ) :   0.9226
B( 12-C , 15-O ) :   0.8174 B( 12-C , 16-C ) :   0.8861 B( 16-C , 17-C ) :   0.8980
B( 16-C , 20-O ) :   0.8425 B( 16-C , 21-H ) :   0.9280 B( 17-C , 18-C ) :   0.9017
B( 17-C , 22-H ) :   0.9335 B( 17-C , 23-O ) :   0.9330 B( 18-C , 19-C ) :   0.9406
B( 18-C , 24-H ) :   0.9443 B( 18-C , 25-H ) :   0.9430 B( 19-C , 20-O ) :   0.8317
B( 19-C , 26-H ) :   0.9336 B( 19-C , 27-H ) :   0.9376 B( 23-O , 28-H ) :   0.7372

FINAL SINGLE POINT ENERGY      -652.860238266915

DIPOLE MOMENT
-------------
                                X             Y             Z
Electronic contribution:      0.28146      -2.87169      -0.21080
Nuclear contribution   :     -0.38626       3.85076      -0.07853
                        -----------------------------------------
Total Dipole Moment    :     -0.10480       0.97907      -0.28933
                        -----------------------------------------
Magnitude (a.u.)       :      1.02629
Magnitude (Debye)      :      2.60862

Rotational constants in cm-1:     0.063785     0.013929     0.012495
Rotational constants in MHz :  1912.218364   417.581772   374.600694

                             ****ORCA TERMINATED NORMALLY****
TOTAL RUN TIME: 0 days 0 hours 48 minutes 7 seconds 935 msec
