                         Program Version 4.2.1 -  RELEASE  -
|  1> # Test redundant internal optimization
|  2> #
|  3> ! RKS B3LYP  Opt TightSCF SmallPrint
|  4>
|  5> %basis
|  6>         Basis "6-31G"
|  7> end
|  8>
|  9> %geom
| 10> Constraints
| 11> { D 4  0  19  14  15.0   C } # D for Dihedral angle
| 12> { D 0  19  14  12  150.0   C } # D for Dihedral angle
| 13> { D 0  4  3  2   C } # D for Dihedral angle
| 14> { D 4  3  2  1   C } # D for Dihedral angle
| 15> { D 3  2  1  0   C } # D for Dihedral angle
| 16> { D 2  1  0  4   C } # D for Dihedral angle
| 17> { D 1  0  4  3   C } # D for Dihedral angle
| 18> { D 14  15  16  17   C } # D for Dihedral angle
| 19> { D 15  16  17  12   C } # D for Dihedral angle
| 20> { D 16  17  12  14   C } # D for Dihedral angle
| 21> { D 17  12  14  15   C } # D for Dihedral angle
| 22> { D 12  14  15  16   C } # D for Dihedral angle
| 23> end
| 24> end
| 25>
| 26>
| 27> #%pal
| 28> #nprocs 8
| 29> #end
| 30>
| 31> * xyz 0 1
| 32> C  -21.048   26.222   46.251
| 33> C  -20.361   27.558   45.944
| 34> C  -20.329   28.222   47.341
| 35> C  -20.110   27.022   48.296
| 36> O  -20.473   25.807   47.535
| 37> H  -20.833   25.428   45.533
| 38> H  -19.344   27.382   45.576
| 39> H  -20.898   28.157   45.201
| 40> H  -19.543   28.978   47.434
| 41> H  -21.289   28.710   47.548
| 42> H  -20.733   27.082   49.195
| 43> H  -19.064   26.913   48.597
| 44> C  -24.217   27.307   47.787
| 45> H  -24.440   27.610   48.823
| 46> C  -22.954   26.442   47.718
| 47> C  -23.492   25.064   48.169
| 48> C  -24.924   25.035   47.580
| 49> O  -25.279   26.437   47.269
| 50> H  -24.194   28.195   47.153
| 51> O  -22.472   26.381   46.366
| 52> H  -22.144   26.812   48.357
| 53> H  -22.878   24.231   47.813
| 54> H  -23.524   25.011   49.265
| 55> H  -25.660   24.627   48.282
| 56> H  -24.980   24.473   46.643
| 57> *
| 58>
| 59>                          ****END OF INPUT****
 Total Charge           Charge          ....    0
 Multiplicity           Mult            ....    1
 Number of Electrons    NEL             ....   86
FINAL SINGLE POINT ENERGY      -538.416332775632
FINAL SINGLE POINT ENERGY      -538.426994110877
FINAL SINGLE POINT ENERGY      -538.428412158705
FINAL SINGLE POINT ENERGY      -538.428694789411
FINAL SINGLE POINT ENERGY      -538.428719515275
FINAL SINGLE POINT ENERGY      -538.428727281465
                    ***********************HURRAY********************

CARTESIAN COORDINATES (ANGSTROEM)
---------------------------------
  C    -21.037884   26.265446   46.349710
  C    -20.386570   27.592159   45.948674
  C    -20.158958   28.264997   47.326365
  C    -19.825046   27.067346   48.246712
  O    -20.308723   25.856491   47.529751
  H    -20.902561   25.469740   45.614181
  H    -19.432151   27.388089   45.449989
  H    -21.023631   28.174574   45.280063
  H    -19.354154   29.006120   47.307125
  H    -21.073045   28.772004   47.654588
  H    -20.309664   27.119792   49.226343
  H    -18.748764   26.934413   48.390985
  C    -24.354412   27.261649   47.755483
  H    -24.691015   27.564153   48.758676
  C    -23.078813   26.424439   47.847876
  C    -23.639993   25.042123   48.237797
  C    -24.986534   24.977988   47.480234
  O    -25.326105   26.372569   47.119184
  H    -24.243539   28.139735   47.117961
  O    -22.476080   26.383880   46.520245
  H    -22.376146   26.805781   48.591734
  H    -22.947801   24.242988   47.963406
  H    -23.795679   25.004673   49.323249
  H    -25.794417   24.558145   48.090335
  H    -24.911315   24.416706   46.545336

 Multiplicity           Mult            ....    1
 Number of Electrons    NEL             ....   86
 Basis Dimension        Dim             ....  127

ORBITAL ENERGIES
----------------

  NO   OCC          E(Eh)            E(eV)
   0   2.0000     -19.152625      -521.1694
   1   2.0000     -19.136017      -520.7175
   2   2.0000     -19.122302      -520.3443
   3   2.0000     -10.280510      -279.7469
   4   2.0000     -10.238222      -278.5962
   5   2.0000     -10.236539      -278.5504
   6   2.0000     -10.218202      -278.0514
   7   2.0000     -10.214335      -277.9462
   8   2.0000     -10.195588      -277.4361
   9   2.0000     -10.187669      -277.2206
  10   2.0000     -10.178319      -276.9661
  11   2.0000      -1.055976       -28.7346
  12   2.0000      -1.011430       -27.5224
  13   2.0000      -0.987694       -26.8765
  14   2.0000      -0.793971       -21.6051
  15   2.0000      -0.779439       -21.2096
  16   2.0000      -0.740257       -20.1434
  17   2.0000      -0.721292       -19.6273
  18   2.0000      -0.616345       -16.7716
  19   2.0000      -0.605231       -16.4692
  20   2.0000      -0.593269       -16.1437
  21   2.0000      -0.564646       -15.3648
  22   2.0000      -0.527071       -14.3423
  23   2.0000      -0.502032       -13.6610
  24   2.0000      -0.487114       -13.2550
  25   2.0000      -0.480347       -13.0709
  26   2.0000      -0.452114       -12.3027
  27   2.0000      -0.441601       -12.0166
  28   2.0000      -0.424995       -11.5647
  29   2.0000      -0.415268       -11.3000
  30   2.0000      -0.410727       -11.1764
  31   2.0000      -0.384386       -10.4597
  32   2.0000      -0.371571       -10.1110
  33   2.0000      -0.364447        -9.9171
  34   2.0000      -0.362615        -9.8673
  35   2.0000      -0.357960        -9.7406
  36   2.0000      -0.345191        -9.3931
  37   2.0000      -0.329288        -8.9604
  38   2.0000      -0.310635        -8.4528
  39   2.0000      -0.293436        -7.9848
  40   2.0000      -0.266282        -7.2459
  41   2.0000      -0.250288        -6.8107
  42   2.0000      -0.226392        -6.1605
  43   0.0000       0.066631         1.8131
  44   0.0000       0.094000         2.5579
  45   0.0000       0.097735         2.6595
  46   0.0000       0.105627         2.8742
  47   0.0000       0.116620         3.1734

MULLIKEN ATOMIC CHARGES
-----------------------
   0 C :    0.301122
   1 C :   -0.256780
   2 C :   -0.311693
   3 C :   -0.022084
   4 O :   -0.512585
   5 H :    0.159946
   6 H :    0.145996
   7 H :    0.161544
   8 H :    0.150332
   9 H :    0.150826
  10 H :    0.144381
  11 H :    0.152916
  12 C :    0.009770
  13 H :    0.118318
  14 C :    0.067597
  15 C :   -0.287726
  16 C :    0.001932
  17 O :   -0.520016
  18 H :    0.158119
  19 O :   -0.531159
  20 H :    0.134299
  21 H :    0.164782
  22 H :    0.135556
  23 H :    0.131621
  24 H :    0.152987
Sum of atomic charges:    0.0000000

LOEWDIN ATOMIC CHARGES
----------------------
   0 C :    0.182847
   1 C :   -0.222718
   2 C :   -0.221909
   3 C :   -0.035959
   4 O :   -0.321133
   5 H :    0.107463
   6 H :    0.114938
   7 H :    0.125945
   8 H :    0.118872
   9 H :    0.111451
  10 H :    0.099712
  11 H :    0.107722
  12 C :   -0.036715
  13 H :    0.088544
  14 C :    0.040560
  15 C :   -0.232249
  16 C :   -0.028789
  17 O :   -0.330045
  18 H :    0.117861
  19 O :   -0.330291
  20 H :    0.101267
  21 H :    0.127998
  22 H :    0.109893
  23 H :    0.096632
  24 H :    0.108103

  Mayer bond orders larger than 0.100000
B(  0-C ,  1-C ) :   0.9242 B(  0-C ,  4-O ) :   0.9033 B(  0-C ,  5-H ) :   0.9325
B(  0-C , 19-O ) :   0.8613 B(  1-C ,  2-C ) :   0.9527 B(  1-C ,  6-H ) :   0.9346
B(  1-C ,  7-H ) :   0.9361 B(  2-C ,  3-C ) :   0.9510 B(  2-C ,  8-H ) :   0.9446
B(  2-C ,  9-H ) :   0.9449 B(  3-C ,  4-O ) :   0.8341 B(  3-C , 10-H ) :   0.9282
B(  3-C , 11-H ) :   0.9390 B( 12-C , 13-H ) :   0.9147 B( 12-C , 14-C ) :   0.9340
B( 12-C , 17-O ) :   0.8760 B( 12-C , 18-H ) :   0.9315 B( 14-C , 15-C ) :   0.9366
B( 14-C , 19-O ) :   0.8209 B( 14-C , 20-H ) :   0.9126 B( 15-C , 16-C ) :   0.9484
B( 15-C , 21-H ) :   0.9390 B( 15-C , 22-H ) :   0.9381 B( 16-C , 17-O ) :   0.8534
B( 16-C , 23-H ) :   0.9338 B( 16-C , 24-H ) :   0.9361

FINAL SINGLE POINT ENERGY      -538.428727897118

DIPOLE MOMENT
-------------
                                X             Y             Z
Electronic contribution:     -1.80170      -1.95671      -2.12572
Nuclear contribution   :      2.88128       2.49079       2.82989
                        -----------------------------------------
Total Dipole Moment    :      1.07959       0.53408       0.70416
                        -----------------------------------------
Magnitude (a.u.)       :      1.39520
Magnitude (Debye)      :      3.54632

Rotational constants in cm-1:     0.080718     0.021834     0.020814
Rotational constants in MHz :  2419.873096   654.569325   623.993147

                             ****ORCA TERMINATED NORMALLY****
TOTAL RUN TIME: 0 days 0 hours 7 minutes 8 seconds 15 msec
