                         Program Version 4.2.1 -  RELEASE  -
|  1> # Test redundant internal optimization
|  2> #
|  3> ! RKS B3LYP  Opt TightSCF SmallPrint
|  4>
|  5> %basis
|  6>         Basis "6-31G"
|  7> end
|  8>
|  9> %geom
| 10> Constraints
| 11> { D 4  0  19  14  0.0   C } # D for Dihedral angle
| 12> { D 0  19  14  12  165.0   C } # D for Dihedral angle
| 13> { D 0  4  3  2   C } # D for Dihedral angle
| 14> { D 4  3  2  1   C } # D for Dihedral angle
| 15> { D 3  2  1  0   C } # D for Dihedral angle
| 16> { D 2  1  0  4   C } # D for Dihedral angle
| 17> { D 1  0  4  3   C } # D for Dihedral angle
| 18> { D 14  15  16  17   C } # D for Dihedral angle
| 19> { D 15  16  17  12   C } # D for Dihedral angle
| 20> { D 16  17  12  14   C } # D for Dihedral angle
| 21> { D 17  12  14  15   C } # D for Dihedral angle
| 22> { D 12  14  15  16   C } # D for Dihedral angle
| 23> end
| 24> end
| 25>
| 26>
| 27> #%pal
| 28> #nprocs 8
| 29> #end
| 30>
| 31> * xyz 0 1
| 32> C  -21.048   26.222   46.251
| 33> C  -20.361   27.558   45.944
| 34> C  -20.329   28.222   47.341
| 35> C  -20.110   27.022   48.296
| 36> O  -20.473   25.807   47.535
| 37> H  -20.833   25.428   45.533
| 38> H  -19.344   27.382   45.576
| 39> H  -20.898   28.157   45.201
| 40> H  -19.543   28.978   47.434
| 41> H  -21.289   28.710   47.548
| 42> H  -20.733   27.082   49.195
| 43> H  -19.064   26.913   48.597
| 44> C  -24.422   26.652   47.797
| 45> H  -24.737   26.718   48.850
| 46> C  -22.995   26.105   47.675
| 47> C  -23.222   24.587   47.864
| 48> C  -24.594   24.349   47.185
| 49> O  -25.246   25.673   47.077
| 50> H  -24.580   27.617   47.315
| 51> O  -22.472   26.381   46.366
| 52> H  -22.309   26.528   48.417
| 53> H  -22.426   23.980   47.423
| 54> H  -23.274   24.344   48.933
| 55> H  -25.239   23.678   47.762
| 56> H  -24.494   23.957   46.168
| 57> *
| 58>
| 59>                          ****END OF INPUT****
 Total Charge           Charge          ....    0
 Multiplicity           Mult            ....    1
 Number of Electrons    NEL             ....   86
FINAL SINGLE POINT ENERGY      -538.422771049613
FINAL SINGLE POINT ENERGY      -538.429248417897
FINAL SINGLE POINT ENERGY      -538.430408301236
FINAL SINGLE POINT ENERGY      -538.430677855330
FINAL SINGLE POINT ENERGY      -538.430692941147
FINAL SINGLE POINT ENERGY      -538.430699497902
                    ***********************HURRAY********************

CARTESIAN COORDINATES (ANGSTROEM)
---------------------------------
  C    -21.018062   26.247424   46.311489
  C    -20.414218   27.607641   45.956481
  C    -20.247589   28.254198   47.352476
  C    -19.885564   27.053066   48.255257
  O    -20.301326   25.838708   47.499323
  H    -20.841605   25.467507   45.566873
  H    -19.442186   27.456380   45.473051
  H    -21.062041   28.179609   45.289221
  H    -19.476252   29.030191   47.369082
  H    -21.192339   28.709538   47.667570
  H    -20.399661   27.063260   49.220876
  H    -18.809152   26.958842   48.425449
  C    -24.496029   26.621185   47.716458
  H    -24.908887   26.711852   48.732483
  C    -23.075106   26.060530   47.765288
  C    -23.339238   24.554250   47.951611
  C    -24.626170   24.313396   47.128678
  O    -25.244690   25.642698   46.927274
  H    -24.557099   27.579476   47.199659
  O    -22.460823   26.355574   46.475672
  H    -22.484472   26.480627   48.583948
  H    -22.490447   23.952430   47.620117
  H    -23.506344   24.346347   49.015629
  H    -25.339330   23.659136   47.643157
  H    -24.416372   23.906133   46.135878

 Multiplicity           Mult            ....    1
 Number of Electrons    NEL             ....   86
 Basis Dimension        Dim             ....  127

ORBITAL ENERGIES
----------------

  NO   OCC          E(Eh)            E(eV)
   0   2.0000     -19.152813      -521.1745
   1   2.0000     -19.136284      -520.7248
   2   2.0000     -19.121530      -520.3233
   3   2.0000     -10.280195      -279.7383
   4   2.0000     -10.236860      -278.5591
   5   2.0000     -10.235720      -278.5281
   6   2.0000     -10.217358      -278.0284
   7   2.0000     -10.214157      -277.9414
   8   2.0000     -10.193761      -277.3863
   9   2.0000     -10.187187      -277.2074
  10   2.0000     -10.177424      -276.9418
  11   2.0000      -1.056242       -28.7418
  12   2.0000      -1.010711       -27.5029
  13   2.0000      -0.986819       -26.8527
  14   2.0000      -0.794346       -21.6152
  15   2.0000      -0.777205       -21.1488
  16   2.0000      -0.740580       -20.1522
  17   2.0000      -0.720308       -19.6006
  18   2.0000      -0.614863       -16.7313
  19   2.0000      -0.604172       -16.4404
  20   2.0000      -0.592474       -16.1220
  21   2.0000      -0.563043       -15.3212
  22   2.0000      -0.526961       -14.3393
  23   2.0000      -0.500180       -13.6106
  24   2.0000      -0.487716       -13.2714
  25   2.0000      -0.479945       -13.0600
  26   2.0000      -0.452148       -12.3036
  27   2.0000      -0.441457       -12.0127
  28   2.0000      -0.422878       -11.5071
  29   2.0000      -0.412903       -11.2357
  30   2.0000      -0.409894       -11.1538
  31   2.0000      -0.384427       -10.4608
  32   2.0000      -0.371114       -10.0985
  33   2.0000      -0.363082        -9.8800
  34   2.0000      -0.361739        -9.8434
  35   2.0000      -0.357652        -9.7322
  36   2.0000      -0.345394        -9.3987
  37   2.0000      -0.330993        -9.0068
  38   2.0000      -0.309462        -8.4209
  39   2.0000      -0.291731        -7.9384
  40   2.0000      -0.265761        -7.2317
  41   2.0000      -0.250955        -6.8288
  42   2.0000      -0.226589        -6.1658
  43   0.0000       0.067705         1.8423
  44   0.0000       0.094269         2.5652
  45   0.0000       0.101486         2.7616
  46   0.0000       0.105499         2.8708
  47   0.0000       0.117523         3.1980

MULLIKEN ATOMIC CHARGES
-----------------------
   0 C :    0.302158
   1 C :   -0.255859
   2 C :   -0.307110
   3 C :   -0.021649
   4 O :   -0.514426
   5 H :    0.155891
   6 H :    0.144621
   7 H :    0.163386
   8 H :    0.149018
   9 H :    0.153561
  10 H :    0.144614
  11 H :    0.152471
  12 C :    0.007606
  13 H :    0.120498
  14 C :    0.076450
  15 C :   -0.289332
  16 C :   -0.000668
  17 O :   -0.520925
  18 H :    0.158909
  19 O :   -0.534136
  20 H :    0.131370
  21 H :    0.165532
  22 H :    0.134578
  23 H :    0.133217
  24 H :    0.150228
Sum of atomic charges:    0.0000000

LOEWDIN ATOMIC CHARGES
----------------------
   0 C :    0.182287
   1 C :   -0.219307
   2 C :   -0.219944
   3 C :   -0.034490
   4 O :   -0.322024
   5 H :    0.103883
   6 H :    0.113950
   7 H :    0.127175
   8 H :    0.118241
   9 H :    0.113671
  10 H :    0.100343
  11 H :    0.107621
  12 C :   -0.034098
  13 H :    0.089142
  14 C :    0.041848
  15 C :   -0.233167
  16 C :   -0.029863
  17 O :   -0.330375
  18 H :    0.118914
  19 O :   -0.333456
  20 H :    0.098338
  21 H :    0.127410
  22 H :    0.110313
  23 H :    0.097063
  24 H :    0.106525

  Mayer bond orders larger than 0.100000
B(  0-C ,  1-C ) :   0.9326 B(  0-C ,  4-O ) :   0.9012 B(  0-C ,  5-H ) :   0.9295
B(  0-C , 19-O ) :   0.8480 B(  1-C ,  2-C ) :   0.9524 B(  1-C ,  6-H ) :   0.9352
B(  1-C ,  7-H ) :   0.9356 B(  2-C ,  3-C ) :   0.9525 B(  2-C ,  8-H ) :   0.9445
B(  2-C ,  9-H ) :   0.9455 B(  3-C ,  4-O ) :   0.8318 B(  3-C , 10-H ) :   0.9294
B(  3-C , 11-H ) :   0.9397 B( 12-C , 13-H ) :   0.9158 B( 12-C , 14-C ) :   0.9350
B( 12-C , 17-O ) :   0.8727 B( 12-C , 18-H ) :   0.9315 B( 14-C , 15-C ) :   0.9307
B( 14-C , 19-O ) :   0.8254 B( 14-C , 20-H ) :   0.9158 B( 15-C , 16-C ) :   0.9458
B( 15-C , 21-H ) :   0.9380 B( 15-C , 22-H ) :   0.9383 B( 16-C , 17-O ) :   0.8549
B( 16-C , 23-H ) :   0.9335 B( 16-C , 24-H ) :   0.9366

FINAL SINGLE POINT ENERGY      -538.430699787717

DIPOLE MOMENT
-------------
                                X             Y             Z
Electronic contribution:     -1.88219      -1.68323      -2.04914
Nuclear contribution   :      2.95656       2.20082       2.76615
                        -----------------------------------------
Total Dipole Moment    :      1.07437       0.51759       0.71701
                        -----------------------------------------
Magnitude (a.u.)       :      1.39150
Magnitude (Debye)      :      3.53691

Rotational constants in cm-1:     0.082341     0.021703     0.020728
Rotational constants in MHz :  2468.521119   650.627465   621.404336

                             ****ORCA TERMINATED NORMALLY****
TOTAL RUN TIME: 0 days 0 hours 15 minutes 6 seconds 861 msec
