                         Program Version 4.2.0 -  RELEASE  -
|  1> # Test redundant internal optimization
|  2> #
|  3> ! RKS B3LYP  Opt TightSCF SmallPrint
|  4>
|  5> %basis
|  6>         Basis "6-31G"
|  7> end
|  8>
|  9> %geom
| 10> Constraints
| 11> { D 4  0  15  12  75.0   C } # D for Dihedral angle
| 12> { D 0  15  12  16  195.0   C } # D for Dihedral angle
| 13> { D 0  4  3  2   C } # D for Dihedral angle
| 14> { D 4  3  2  1   C } # D for Dihedral angle
| 15> { D 3  2  1  0   C } # D for Dihedral angle
| 16> { D 2  1  0  4   C } # D for Dihedral angle
| 17> { D 1  0  4  3   C } # D for Dihedral angle
| 18> { D 16  20  19  18   C } # D for Dihedral angle
| 19> { D 20  19  18  17   C } # D for Dihedral angle
| 20> { D 19  18  17  16   C } # D for Dihedral angle
| 21> { D 18  17  16  20   C } # D for Dihedral angle
| 22> { D 17  16  20  19   C } # D for Dihedral angle
| 23> { D 15  12  16  20   C } # D for Dihedral angle
| 24> end
| 25> end
| 26>
| 27>
| 28> #%pal
| 29> #nprocs 8
| 30> #end
| 31>
| 32> * xyz 0 1
| 33> C  -21.048   26.222   46.251
| 34> C  -20.361   27.558   45.944
| 35> C  -20.329   28.222   47.341
| 36> C  -20.110   27.022   48.296
| 37> O  -20.473   25.807   47.535
| 38> H  -20.833   25.428   45.533
| 39> H  -19.344   27.382   45.576
| 40> H  -20.898   28.157   45.201
| 41> H  -19.543   28.978   47.434
| 42> H  -21.289   28.710   47.548
| 43> H  -20.733   27.082   49.195
| 44> H  -19.064   26.913   48.597
| 45> C  -23.049   27.675   47.122
| 46> H  -22.442   27.806   48.026
| 47> H  -22.914   28.560   46.487
| 48> O  -22.586   26.394   46.375
| 49> C  -24.544   27.618   47.541
| 50> C  -24.997   28.940   48.171
| 51> C  -25.222   29.822   46.920
| 52> C  -25.762   28.816   45.873
| 53> O  -25.402   27.468   46.361
| 54> H  -24.707   26.739   48.169
| 55> O  -26.328   28.735   48.944
| 56> H  -24.258   29.362   48.861
| 57> H  -25.917   30.648   47.102
| 58> H  -24.270   30.253   46.586
| 59> H  -25.322   28.967   44.880
| 60> H  -26.852   28.848   45.787
| 61> H  -27.083   28.312   48.271
| 62> *
| 63>
| 64>                          ****END OF INPUT****
 Total Charge           Charge          ....    0
 Multiplicity           Mult            ....    1
 Number of Electrons    NEL             ....  102
FINAL SINGLE POINT ENERGY      -652.807329528761
FINAL SINGLE POINT ENERGY      -652.836344982460
FINAL SINGLE POINT ENERGY      -652.851496750930
FINAL SINGLE POINT ENERGY      -652.854086577671
FINAL SINGLE POINT ENERGY      -652.854508645413
FINAL SINGLE POINT ENERGY      -652.854562396026
FINAL SINGLE POINT ENERGY      -652.854569585140
FINAL SINGLE POINT ENERGY      -652.854569385257
                    ***********************HURRAY********************

CARTESIAN COORDINATES (ANGSTROEM)
---------------------------------
  C    -21.228599   26.357438   46.418588
  C    -20.268335   27.461729   45.951583
  C    -19.893697   28.156171   47.293734
  C    -19.870509   26.968266   48.290627
  O    -20.624541   25.869282   47.641016
  H    -21.253344   25.499949   45.745006
  H    -19.388483   26.991886   45.500922
  H    -20.719026   28.137051   45.219141
  H    -18.923140   28.659631   47.242410
  H    -20.638372   28.905568   47.572675
  H    -20.337304   27.202528   49.252452
  H    -18.856890   26.597810   48.469537
  C    -23.080686   27.876590   47.202547
  H    -22.580429   27.998650   48.173245
  H    -22.881845   28.762607   46.583446
  O    -22.627591   26.675341   46.527300
  C    -24.577033   27.707290   47.460122
  C    -25.234545   28.918694   48.138111
  C    -25.504526   29.850780   46.926608
  C    -25.849377   28.855312   45.791387
  O    -25.341082   27.530968   46.223991
  H    -24.720249   26.792775   48.042383
  O    -26.467867   28.531855   48.802705
  H    -24.622351   29.383377   48.912765
  H    -26.318024   30.545224   47.151252
  H    -24.608075   30.434801   46.688602
  H    -25.383750   29.121450   44.837944
  H    -26.927791   28.752165   45.635424
  H    -26.952540   27.898811   48.231480

 Multiplicity           Mult            ....    1
 Number of Electrons    NEL             ....  102
 Basis Dimension        Dim             ....  149

ORBITAL ENERGIES
----------------

  NO   OCC          E(Eh)            E(eV)
   0   2.0000     -19.143864      -520.9310
   1   2.0000     -19.140854      -520.8491
   2   2.0000     -19.140821      -520.8482
   3   2.0000     -19.139705      -520.8179
   4   2.0000     -10.277288      -279.6592
   5   2.0000     -10.244900      -278.7779
   6   2.0000     -10.236913      -278.5606
   7   2.0000     -10.235001      -278.5085
   8   2.0000     -10.230636      -278.3898
   9   2.0000     -10.230550      -278.3874
  10   2.0000     -10.195626      -277.4371
  11   2.0000     -10.192896      -277.3628
  12   2.0000     -10.191698      -277.3302
  13   2.0000      -1.053013       -28.6539
  14   2.0000      -1.036735       -28.2110
  15   2.0000      -1.007427       -27.4135
  16   2.0000      -0.995940       -27.1009
  17   2.0000      -0.790789       -21.5185
  18   2.0000      -0.787454       -21.4277
  19   2.0000      -0.772518       -21.0213
  20   2.0000      -0.733845       -19.9689
  21   2.0000      -0.680347       -18.5132
  22   2.0000      -0.607478       -16.5303
  23   2.0000      -0.605201       -16.4684
  24   2.0000      -0.599502       -16.3133
  25   2.0000      -0.578439       -15.7401
  26   2.0000      -0.525863       -14.3095
  27   2.0000      -0.511602       -13.9214
  28   2.0000      -0.501632       -13.6501
  29   2.0000      -0.491156       -13.3650
  30   2.0000      -0.481383       -13.0991
  31   2.0000      -0.462806       -12.5936
  32   2.0000      -0.452391       -12.3102
  33   2.0000      -0.437192       -11.8966
  34   2.0000      -0.429977       -11.7003
  35   2.0000      -0.417218       -11.3531
  36   2.0000      -0.405114       -11.0237
  37   2.0000      -0.394650       -10.7390
  38   2.0000      -0.384620       -10.4660
  39   2.0000      -0.373610       -10.1664
  40   2.0000      -0.363679        -9.8962
  41   2.0000      -0.361057        -9.8249
  42   2.0000      -0.352560        -9.5937
  43   2.0000      -0.331175        -9.0117
  44   2.0000      -0.316115        -8.6019
  45   2.0000      -0.310727        -8.4553
  46   2.0000      -0.299789        -8.1577
  47   2.0000      -0.272349        -7.4110
  48   2.0000      -0.268562        -7.3079
  49   2.0000      -0.252822        -6.8796
  50   2.0000      -0.244554        -6.6546
  51   0.0000       0.060826         1.6552
  52   0.0000       0.073784         2.0078
  53   0.0000       0.078817         2.1447
  54   0.0000       0.097268         2.6468
  55   0.0000       0.102489         2.7889

MULLIKEN ATOMIC CHARGES
-----------------------
   0 C :    0.299170
   1 C :   -0.282563
   2 C :   -0.314301
   3 C :   -0.010080
   4 O :   -0.502158
   5 H :    0.169655
   6 H :    0.157317
   7 H :    0.149596
   8 H :    0.145757
   9 H :    0.143015
  10 H :    0.143373
  11 H :    0.147693
  12 C :   -0.001038
  13 H :    0.133435
  14 H :    0.124673
  15 O :   -0.503207
  16 C :    0.065922
  17 C :    0.075435
  18 C :   -0.294499
  19 C :   -0.030447
  20 O :   -0.506584
  21 H :    0.176445
  22 O :   -0.601385
  23 H :    0.148916
  24 H :    0.164378
  25 H :    0.139282
  26 H :    0.146732
  27 H :    0.148328
  28 H :    0.367142
Sum of atomic charges:    0.0000000

LOEWDIN ATOMIC CHARGES
----------------------
   0 C :    0.173134
   1 C :   -0.229667
   2 C :   -0.224692
   3 C :   -0.034245
   4 O :   -0.321584
   5 H :    0.115374
   6 H :    0.122951
   7 H :    0.118199
   8 H :    0.115853
   9 H :    0.106999
  10 H :    0.101008
  11 H :    0.104798
  12 C :   -0.044161
  13 H :    0.098170
  14 H :    0.090617
  15 O :   -0.303726
  16 C :    0.018975
  17 C :    0.034675
  18 C :   -0.241869
  19 C :   -0.038937
  20 O :   -0.317613
  21 H :    0.124909
  22 O :   -0.413550
  23 H :    0.113577
  24 H :    0.127389
  25 H :    0.110294
  26 H :    0.104772
  27 H :    0.103588
  28 H :    0.284764

  Mayer bond orders larger than 0.100000
B(  0-C ,  1-C ) :   0.9180 B(  0-C ,  4-O ) :   0.8976 B(  0-C ,  5-H ) :   0.9355
B(  0-C , 15-O ) :   0.9082 B(  1-C ,  2-C ) :   0.9541 B(  1-C ,  6-H ) :   0.9358
B(  1-C ,  7-H ) :   0.9364 B(  2-C ,  3-C ) :   0.9469 B(  2-C ,  8-H ) :   0.9455
B(  2-C ,  9-H ) :   0.9417 B(  3-C ,  4-O ) :   0.8494 B(  3-C , 10-H ) :   0.9330
B(  3-C , 11-H ) :   0.9384 B( 12-C , 13-H ) :   0.9033 B( 12-C , 14-H ) :   0.9133
B( 12-C , 15-O ) :   0.8466 B( 12-C , 16-C ) :   0.8989 B( 16-C , 17-C ) :   0.8998
B( 16-C , 20-O ) :   0.8680 B( 16-C , 21-H ) :   0.9216 B( 17-C , 18-C ) :   0.9112
B( 17-C , 22-O ) :   0.8959 B( 17-C , 23-H ) :   0.9329 B( 18-C , 19-C ) :   0.9402
B( 18-C , 24-H ) :   0.9367 B( 18-C , 25-H ) :   0.9342 B( 19-C , 20-O ) :   0.8542
B( 19-C , 26-H ) :   0.9343 B( 19-C , 27-H ) :   0.9372 B( 22-O , 28-H ) :   0.7923

FINAL SINGLE POINT ENERGY      -652.854567607923

DIPOLE MOMENT
-------------
                                X             Y             Z
Electronic contribution:     -4.05055      -5.76643       0.50596
Nuclear contribution   :      4.91708       7.30826      -0.88895
                        -----------------------------------------
Total Dipole Moment    :      0.86653       1.54183      -0.38299
                        -----------------------------------------
Magnitude (a.u.)       :      1.80964
Magnitude (Debye)      :      4.59975

Rotational constants in cm-1:     0.056284     0.012461     0.012065
Rotational constants in MHz :  1687.365661   373.558695   361.709108

                             ****ORCA TERMINATED NORMALLY****
TOTAL RUN TIME: 0 days 0 hours 22 minutes 10 seconds 543 msec
