                         Program Version 4.2.0 -  RELEASE  -
|  1> # Test redundant internal optimization
|  2> #
|  3> ! RKS B3LYP  Opt TightSCF SmallPrint
|  4>
|  5> %basis
|  6>         Basis "6-31G"
|  7> end
|  8>
|  9> %geom
| 10> Constraints
| 11> { D 4  0  15  12  150.0   C } # D for Dihedral angle
| 12> { D 0  15  12  16  75.0   C } # D for Dihedral angle
| 13> { D 0  4  3  2   C } # D for Dihedral angle
| 14> { D 4  3  2  1   C } # D for Dihedral angle
| 15> { D 3  2  1  0   C } # D for Dihedral angle
| 16> { D 2  1  0  4   C } # D for Dihedral angle
| 17> { D 1  0  4  3   C } # D for Dihedral angle
| 18> { D 16  20  19  18   C } # D for Dihedral angle
| 19> { D 20  19  18  17   C } # D for Dihedral angle
| 20> { D 19  18  17  16   C } # D for Dihedral angle
| 21> { D 18  17  16  20   C } # D for Dihedral angle
| 22> { D 17  16  20  19   C } # D for Dihedral angle
| 23> { D 15  12  16  20   C } # D for Dihedral angle
| 24> end
| 25> end
| 26>
| 27>
| 28> #%pal
| 29> #nprocs 8
| 30> #end
| 31>
| 32> * xyz 0 1
| 33> C  -21.048   26.222   46.251
| 34> C  -20.361   27.558   45.944
| 35> C  -20.329   28.222   47.341
| 36> C  -20.110   27.022   48.296
| 37> O  -20.473   25.807   47.535
| 38> H  -20.833   25.428   45.533
| 39> H  -19.344   27.382   45.576
| 40> H  -20.898   28.157   45.201
| 41> H  -19.543   28.978   47.434
| 42> H  -21.289   28.710   47.548
| 43> H  -20.733   27.082   49.195
| 44> H  -19.064   26.913   48.597
| 45> C  -23.210   27.459   45.431
| 46> H  -24.222   27.701   45.779
| 47> H  -22.613   28.380   45.444
| 48> O  -22.586   26.394   46.375
| 49> C  -23.301   26.975   43.958
| 50> C  -23.812   28.089   43.037
| 51> C  -22.537   28.942   42.840
| 52> C  -21.405   27.885   42.827
| 53> O  -21.967   26.661   43.437
| 54> H  -23.885   26.053   43.919
| 55> H  -24.146   27.666   42.083
| 56> O  -24.988   28.897   43.652
| 57> H  -22.562   29.537   41.921
| 58> H  -22.411   29.632   43.682
| 59> H  -20.528   28.202   43.403
| 60> H  -21.088   27.624   41.813
| 61> H  -24.677   29.331   44.608
| 62> *
| 63>
| 64>                          ****END OF INPUT****
 Total Charge           Charge          ....    0
 Multiplicity           Mult            ....    1
 Number of Electrons    NEL             ....  102
FINAL SINGLE POINT ENERGY      -652.817942984035
FINAL SINGLE POINT ENERGY      -652.843127201493
FINAL SINGLE POINT ENERGY      -652.849986591678
FINAL SINGLE POINT ENERGY      -652.852092018408
FINAL SINGLE POINT ENERGY      -652.852383396623
FINAL SINGLE POINT ENERGY      -652.852464058498
FINAL SINGLE POINT ENERGY      -652.852471597376
FINAL SINGLE POINT ENERGY      -652.852471687412
                    ***********************HURRAY********************

CARTESIAN COORDINATES (ANGSTROEM)
---------------------------------
  C    -21.001114   26.251106   46.260217
  C    -20.150998   27.505565   46.055762
  C    -20.218779   28.176624   47.453834
  C    -20.241752   26.959623   48.404977
  O    -20.635552   25.801410   47.573356
  H    -20.805106   25.437654   45.563189
  H    -19.126293   27.188413   45.830805
  H    -20.481949   28.152575   45.244399
  H    -19.368343   28.838707   47.643176
  H    -21.138072   28.764461   47.551710
  H    -20.959368   27.067080   49.222768
  H    -19.255095   26.730105   48.818866
  C    -23.093999   27.493278   45.481132
  H    -24.099399   27.589439   45.901858
  H    -22.589327   28.468004   45.566815
  O    -22.447757   26.493612   46.303260
  C    -23.213982   27.052233   44.018722
  C    -23.891571   28.062450   43.074480
  C    -22.697166   28.981905   42.682830
  C    -21.508147   27.998003   42.628916
  O    -21.922743   26.784953   43.383942
  H    -23.735515   26.090292   44.017337
  H    -24.274260   27.538024   42.196830
  O    -25.042992   28.747888   43.620540
  H    -22.864369   29.498671   41.734208
  H    -22.552495   29.743732   43.460881
  H    -20.595178   28.405957   43.073025
  H    -21.284950   27.673368   41.608881
  H    -24.766728   29.413867   44.283283

 Multiplicity           Mult            ....    1
 Number of Electrons    NEL             ....  102
 Basis Dimension        Dim             ....  149

ORBITAL ENERGIES
----------------

  NO   OCC          E(Eh)            E(eV)
   0   2.0000     -19.154953      -521.2328
   1   2.0000     -19.149681      -521.0893
   2   2.0000     -19.132831      -520.6308
   3   2.0000     -19.132655      -520.6260
   4   2.0000     -10.271006      -279.4883
   5   2.0000     -10.250977      -278.9433
   6   2.0000     -10.239560      -278.6326
   7   2.0000     -10.233807      -278.4761
   8   2.0000     -10.233406      -278.4651
   9   2.0000     -10.221667      -278.1457
  10   2.0000     -10.202804      -277.6324
  11   2.0000     -10.188215      -277.2354
  12   2.0000     -10.185844      -277.1709
  13   2.0000      -1.047330       -28.4993
  14   2.0000      -1.038799       -28.2672
  15   2.0000      -1.023303       -27.8455
  16   2.0000      -0.985951       -26.8291
  17   2.0000      -0.789784       -21.4911
  18   2.0000      -0.784336       -21.3429
  19   2.0000      -0.771041       -20.9811
  20   2.0000      -0.731380       -19.9019
  21   2.0000      -0.686404       -18.6780
  22   2.0000      -0.619218       -16.8498
  23   2.0000      -0.602114       -16.3843
  24   2.0000      -0.595793       -16.2124
  25   2.0000      -0.566378       -15.4119
  26   2.0000      -0.533709       -14.5230
  27   2.0000      -0.515356       -14.0236
  28   2.0000      -0.502762       -13.6808
  29   2.0000      -0.488147       -13.2832
  30   2.0000      -0.470432       -12.8011
  31   2.0000      -0.460155       -12.5214
  32   2.0000      -0.450271       -12.2525
  33   2.0000      -0.438999       -11.9458
  34   2.0000      -0.429423       -11.6852
  35   2.0000      -0.425095       -11.5674
  36   2.0000      -0.405977       -11.0472
  37   2.0000      -0.401187       -10.9169
  38   2.0000      -0.386503       -10.5173
  39   2.0000      -0.374833       -10.1997
  40   2.0000      -0.359906        -9.7935
  41   2.0000      -0.355658        -9.6779
  42   2.0000      -0.350804        -9.5459
  43   2.0000      -0.338216        -9.2033
  44   2.0000      -0.322811        -8.7841
  45   2.0000      -0.307444        -8.3660
  46   2.0000      -0.290583        -7.9072
  47   2.0000      -0.276822        -7.5327
  48   2.0000      -0.270067        -7.3489
  49   2.0000      -0.250596        -6.8191
  50   2.0000      -0.237401        -6.4600
  51   0.0000       0.043225         1.1762
  52   0.0000       0.060327         1.6416
  53   0.0000       0.083718         2.2781
  54   0.0000       0.095573         2.6007
  55   0.0000       0.097638         2.6569

MULLIKEN ATOMIC CHARGES
-----------------------
   0 C :    0.323855
   1 C :   -0.293674
   2 C :   -0.305076
   3 C :    0.003548
   4 O :   -0.498238
   5 H :    0.167641
   6 H :    0.151576
   7 H :    0.141711
   8 H :    0.140966
   9 H :    0.147113
  10 H :    0.150350
  11 H :    0.140686
  12 C :   -0.027106
  13 H :    0.163246
  14 H :    0.104252
  15 O :   -0.517965
  16 C :    0.088220
  17 C :    0.085892
  18 C :   -0.321111
  19 C :   -0.011579
  20 O :   -0.519555
  21 H :    0.169264
  22 H :    0.170953
  23 O :   -0.597839
  24 H :    0.160578
  25 H :    0.132902
  26 H :    0.138504
  27 H :    0.154437
  28 H :    0.356449
Sum of atomic charges:    0.0000000

LOEWDIN ATOMIC CHARGES
----------------------
   0 C :    0.188631
   1 C :   -0.230344
   2 C :   -0.220582
   3 C :   -0.026392
   4 O :   -0.304993
   5 H :    0.111721
   6 H :    0.120356
   7 H :    0.111235
   8 H :    0.113403
   9 H :    0.108881
  10 H :    0.106983
  11 H :    0.101836
  12 C :   -0.050807
  13 H :    0.121230
  14 H :    0.079536
  15 O :   -0.328688
  16 C :    0.006406
  17 C :    0.035997
  18 C :   -0.240844
  19 C :   -0.031362
  20 O :   -0.322543
  21 H :    0.121223
  22 H :    0.121240
  23 O :   -0.405099
  24 H :    0.124359
  25 H :    0.103508
  26 H :    0.097954
  27 H :    0.108642
  28 H :    0.278514

  Mayer bond orders larger than 0.100000
B(  0-C ,  1-C ) :   0.9347 B(  0-C ,  4-O ) :   0.9203 B(  0-C ,  5-H ) :   0.9223
B(  0-C , 15-O ) :   0.8255 B(  1-C ,  2-C ) :   0.9457 B(  1-C ,  6-H ) :   0.9360
B(  1-C ,  7-H ) :   0.9218 B(  2-C ,  3-C ) :   0.9531 B(  2-C ,  8-H ) :   0.9455
B(  2-C ,  9-H ) :   0.9451 B(  3-C ,  4-O ) :   0.8425 B(  3-C , 10-H ) :   0.9347
B(  3-C , 11-H ) :   0.9399 B( 12-C , 13-H ) :   0.9207 B( 12-C , 14-H ) :   0.9120
B( 12-C , 15-O ) :   0.8803 B( 12-C , 16-C ) :   0.8888 B( 16-C , 17-C ) :   0.8683
B( 16-C , 20-O ) :   0.8544 B( 16-C , 21-H ) :   0.9278 B( 17-C , 18-C ) :   0.9221
B( 17-C , 22-H ) :   0.9316 B( 17-C , 23-O ) :   0.9022 B( 18-C , 19-C ) :   0.9395
B( 18-C , 24-H ) :   0.9414 B( 18-C , 25-H ) :   0.9415 B( 19-C , 20-O ) :   0.8433
B( 19-C , 26-H ) :   0.9237 B( 19-C , 27-H ) :   0.9382 B( 23-O , 28-H ) :   0.7982

FINAL SINGLE POINT ENERGY      -652.852470560492

DIPOLE MOMENT
-------------
                                X             Y             Z
Electronic contribution:     -3.49072      -5.57291       0.10690
Nuclear contribution   :      4.20663       7.46671      -0.66264
                        -----------------------------------------
Total Dipole Moment    :      0.71591       1.89380      -0.55574
                        -----------------------------------------
Magnitude (a.u.)       :      2.09949
Magnitude (Debye)      :      5.33649

Rotational constants in cm-1:     0.053796     0.014550     0.013698
Rotational constants in MHz :  1612.768979   436.191311   410.651390

                             ****ORCA TERMINATED NORMALLY****
TOTAL RUN TIME: 0 days 1 hours 57 minutes 30 seconds 664 msec
