                         Program Version 4.2.0 -  RELEASE  -
|  1> # Test redundant internal optimization
|  2> #
|  3> ! RKS B3LYP  Opt TightSCF SmallPrint
|  4>
|  5> %basis
|  6>         Basis "6-31G"
|  7> end
|  8>
|  9> %geom
| 10> Constraints
| 11> { D 4  0  15  12  105.0   C } # D for Dihedral angle
| 12> { D 0  15  12  16  135.0   C } # D for Dihedral angle
| 13> { D 0  4  3  2   C } # D for Dihedral angle
| 14> { D 4  3  2  1   C } # D for Dihedral angle
| 15> { D 3  2  1  0   C } # D for Dihedral angle
| 16> { D 2  1  0  4   C } # D for Dihedral angle
| 17> { D 1  0  4  3   C } # D for Dihedral angle
| 18> { D 16  20  19  18   C } # D for Dihedral angle
| 19> { D 20  19  18  17   C } # D for Dihedral angle
| 20> { D 19  18  17  16   C } # D for Dihedral angle
| 21> { D 18  17  16  20   C } # D for Dihedral angle
| 22> { D 17  16  20  19   C } # D for Dihedral angle
| 23> { D 15  12  16  20   C } # D for Dihedral angle
| 24> end
| 25> end
| 26>
| 27>
| 28> #%pal
| 29> #nprocs 8
| 30> #end
| 31>
| 32> * xyz 0 1
| 33> C  -21.048   26.222   46.251
| 34> C  -20.361   27.558   45.944
| 35> C  -20.329   28.222   47.341
| 36> C  -20.110   27.022   48.296
| 37> O  -20.473   25.807   47.535
| 38> H  -20.833   25.428   45.533
| 39> H  -19.344   27.382   45.576
| 40> H  -20.898   28.157   45.201
| 41> H  -19.543   28.978   47.434
| 42> H  -21.289   28.710   47.548
| 43> H  -20.733   27.082   49.195
| 44> H  -19.064   26.913   48.597
| 45> C  -23.085   27.864   46.420
| 46> H  -23.365   28.120   47.450
| 47> H  -22.289   28.550   46.102
| 48> O  -22.586   26.394   46.375
| 49> C  -24.315   28.110   45.503
| 50> C  -24.025   27.688   44.058
| 51> C  -24.198   26.153   44.139
| 52> C  -25.344   25.982   45.167
| 53> O  -25.436   27.257   45.910
| 54> H  -24.643   29.145   45.614
| 55> H  -24.768   28.126   43.383
| 56> O  -22.612   28.110   43.571
| 57> H  -24.435   25.700   43.171
| 58> H  -23.275   25.689   44.508
| 59> H  -25.155   25.167   45.874
| 60> H  -26.314   25.817   44.688
| 61> H  -21.851   27.682   44.233
| 62> *
| 63>
| 64>                          ****END OF INPUT****
 Total Charge           Charge          ....    0
 Multiplicity           Mult            ....    1
 Number of Electrons    NEL             ....  102
FINAL SINGLE POINT ENERGY      -652.804394831980
FINAL SINGLE POINT ENERGY      -652.834984785229
FINAL SINGLE POINT ENERGY      -652.847625771814
FINAL SINGLE POINT ENERGY      -652.850554037674
FINAL SINGLE POINT ENERGY      -652.851429143680
FINAL SINGLE POINT ENERGY      -652.851652281883
FINAL SINGLE POINT ENERGY      -652.851699319574
FINAL SINGLE POINT ENERGY      -652.851705325882
FINAL SINGLE POINT ENERGY      -652.851718239488
FINAL SINGLE POINT ENERGY      -652.851726049490
FINAL SINGLE POINT ENERGY      -652.851727899121
FINAL SINGLE POINT ENERGY      -652.851849853858
FINAL SINGLE POINT ENERGY      -652.851859914549
FINAL SINGLE POINT ENERGY      -652.851883466856
FINAL SINGLE POINT ENERGY      -652.851888225452
                    ***********************HURRAY********************

CARTESIAN COORDINATES (ANGSTROEM)
---------------------------------
  C    -21.169731   26.338497   46.445682
  C    -20.264750   27.503204   46.026202
  C    -20.046096   28.247438   47.374884
  C    -20.008739   27.083009   48.396484
  O    -20.626015   25.920516   47.717457
  H    -21.085743   25.459064   45.803902
  H    -19.318731   27.087786   45.664163
  H    -20.695835   28.130141   45.241412
  H    -19.118306   28.827642   47.379936
  H    -20.869821   28.934103   47.587585
  H    -20.566536   27.298154   49.312483
  H    -18.987897   26.791443   48.660216
  C    -23.192163   27.910492   46.515247
  H    -23.547193   28.117225   47.531776
  H    -22.475716   28.680639   46.219767
  O    -22.596952   26.578870   46.504552
  C    -24.379767   28.000401   45.560101
  C    -24.082823   27.722266   44.078737
  C    -24.187597   26.169737   44.015220
  C    -25.316126   25.867516   45.027834
  O    -25.451728   27.069066   45.882386
  H    -24.803590   29.004291   45.692822
  H    -24.861352   28.185400   43.463126
  O    -22.803441   28.275599   43.653909
  H    -24.422095   25.808841   43.008542
  H    -23.245708   25.733334   44.354285
  H    -25.083862   25.008993   45.662650
  H    -26.283063   25.710333   44.539948
  H    -22.229625   27.570999   43.295694

 Multiplicity           Mult            ....    1
 Number of Electrons    NEL             ....  102
 Basis Dimension        Dim             ....  149

ORBITAL ENERGIES
----------------

  NO   OCC          E(Eh)            E(eV)
   0   2.0000     -19.150006      -521.0982
   1   2.0000     -19.140959      -520.8520
   2   2.0000     -19.136974      -520.7435
   3   2.0000     -19.132282      -520.6159
   4   2.0000     -10.280430      -279.7447
   5   2.0000     -10.242301      -278.7072
   6   2.0000     -10.229840      -278.3681
   7   2.0000     -10.226191      -278.2688
   8   2.0000     -10.225738      -278.2565
   9   2.0000     -10.222381      -278.1651
  10   2.0000     -10.192542      -277.3532
  11   2.0000     -10.191995      -277.3383
  12   2.0000     -10.187572      -277.2179
  13   2.0000      -1.048678       -28.5360
  14   2.0000      -1.030584       -28.0436
  15   2.0000      -1.013071       -27.5671
  16   2.0000      -0.991564       -26.9818
  17   2.0000      -0.788652       -21.4603
  18   2.0000      -0.777549       -21.1582
  19   2.0000      -0.769043       -20.9267
  20   2.0000      -0.732892       -19.9430
  21   2.0000      -0.680700       -18.5228
  22   2.0000      -0.608486       -16.5578
  23   2.0000      -0.603982       -16.4352
  24   2.0000      -0.598476       -16.2854
  25   2.0000      -0.556339       -15.1388
  26   2.0000      -0.521558       -14.1923
  27   2.0000      -0.509215       -13.8565
  28   2.0000      -0.506170       -13.7736
  29   2.0000      -0.498851       -13.5744
  30   2.0000      -0.465327       -12.6622
  31   2.0000      -0.452091       -12.3020
  32   2.0000      -0.441664       -12.0183
  33   2.0000      -0.437437       -11.9033
  34   2.0000      -0.429079       -11.6758
  35   2.0000      -0.415652       -11.3105
  36   2.0000      -0.409398       -11.1403
  37   2.0000      -0.397034       -10.8038
  38   2.0000      -0.381759       -10.3882
  39   2.0000      -0.367763       -10.0073
  40   2.0000      -0.363309        -9.8861
  41   2.0000      -0.358953        -9.7676
  42   2.0000      -0.346859        -9.4385
  43   2.0000      -0.326195        -8.8762
  44   2.0000      -0.314685        -8.5630
  45   2.0000      -0.306098        -8.3293
  46   2.0000      -0.294206        -8.0058
  47   2.0000      -0.273344        -7.4381
  48   2.0000      -0.264657        -7.2017
  49   2.0000      -0.254097        -6.9143
  50   2.0000      -0.234744        -6.3877
  51   0.0000       0.051785         1.4092
  52   0.0000       0.074741         2.0338
  53   0.0000       0.090385         2.4595
  54   0.0000       0.095826         2.6076
  55   0.0000       0.107012         2.9119

MULLIKEN ATOMIC CHARGES
-----------------------
   0 C :    0.320985
   1 C :   -0.322325
   2 C :   -0.308444
   3 C :   -0.006282
   4 O :   -0.499156
   5 H :    0.147686
   6 H :    0.153270
   7 H :    0.166121
   8 H :    0.145752
   9 H :    0.152967
  10 H :    0.148320
  11 H :    0.144164
  12 C :    0.003279
  13 H :    0.150388
  14 H :    0.149380
  15 O :   -0.535661
  16 C :    0.093071
  17 C :    0.094733
  18 C :   -0.329670
  19 C :    0.007196
  20 O :   -0.519078
  21 H :    0.144990
  22 H :    0.153066
  23 O :   -0.618950
  24 H :    0.138404
  25 H :    0.163857
  26 H :    0.158136
  27 H :    0.137597
  28 H :    0.366203
Sum of atomic charges:    0.0000000

LOEWDIN ATOMIC CHARGES
----------------------
   0 C :    0.176624
   1 C :   -0.241101
   2 C :   -0.221570
   3 C :   -0.030957
   4 O :   -0.317541
   5 H :    0.101273
   6 H :    0.121689
   7 H :    0.122683
   8 H :    0.116185
   9 H :    0.111060
  10 H :    0.105202
  11 H :    0.103252
  12 C :   -0.039259
  13 H :    0.108600
  14 H :    0.109069
  15 O :   -0.327275
  16 C :    0.024157
  17 C :    0.036834
  18 C :   -0.243932
  19 C :   -0.019547
  20 O :   -0.319265
  21 H :    0.112066
  22 H :    0.107441
  23 O :   -0.421258
  24 H :    0.110534
  25 H :    0.120038
  26 H :    0.111788
  27 H :    0.099405
  28 H :    0.283802

  Mayer bond orders larger than 0.100000
B(  0-C ,  1-C ) :   0.9285 B(  0-C ,  4-O ) :   0.9109 B(  0-C ,  5-H ) :   0.9348
B(  0-C , 15-O ) :   0.8790 B(  1-C ,  2-C ) :   0.9530 B(  1-C ,  6-H ) :   0.9341
B(  1-C ,  7-H ) :   0.9133 B(  2-C ,  3-C ) :   0.9475 B(  2-C ,  8-H ) :   0.9458
B(  2-C ,  9-H ) :   0.9392 B(  3-C ,  4-O ) :   0.8477 B(  3-C , 10-H ) :   0.9343
B(  3-C , 11-H ) :   0.9394 B( 12-C , 13-H ) :   0.9254 B( 12-C , 14-H ) :   0.8929
B( 12-C , 15-O ) :   0.8415 B( 12-C , 16-C ) :   0.9110 B( 16-C , 17-C ) :   0.8964
B( 16-C , 20-O ) :   0.8795 B( 16-C , 21-H ) :   0.9276 B( 17-C , 18-C ) :   0.9448
B( 17-C , 22-H ) :   0.9288 B( 17-C , 23-O ) :   0.8742 B( 18-C , 19-C ) :   0.9462
B( 18-C , 24-H ) :   0.9396 B( 18-C , 25-H ) :   0.9239 B( 19-C , 20-O ) :   0.8454
B( 19-C , 26-H ) :   0.9305 B( 19-C , 27-H ) :   0.9374 B( 23-O , 28-H ) :   0.7964

FINAL SINGLE POINT ENERGY      -652.851890831653

DIPOLE MOMENT
-------------
                                X             Y             Z
Electronic contribution:     -3.21027      -1.75649       0.51047
Nuclear contribution   :      4.07584       2.15417      -1.36955
                        -----------------------------------------
Total Dipole Moment    :      0.86557       0.39767      -0.85908
                        -----------------------------------------
Magnitude (a.u.)       :      1.28272
Magnitude (Debye)      :      3.26042

Rotational constants in cm-1:     0.050752     0.016045     0.014776
Rotational constants in MHz :  1521.517152   481.014028   442.960303

                             ****ORCA TERMINATED NORMALLY****
TOTAL RUN TIME: 0 days 1 hours 10 minutes 8 seconds 555 msec
