                         Program Version 4.2.0 -  RELEASE  -
|  1> # Test redundant internal optimization
|  2> #
|  3> ! RKS B3LYP  Opt TightSCF SmallPrint
|  4>
|  5> %basis
|  6>         Basis "6-31G"
|  7> end
|  8>
|  9> %geom
| 10> Constraints
| 11> { D 4  0  15  12  165.0   C } # D for Dihedral angle
| 12> { D 0  15  12  16  120.0   C } # D for Dihedral angle
| 13> { D 0  4  3  2   C } # D for Dihedral angle
| 14> { D 4  3  2  1   C } # D for Dihedral angle
| 15> { D 3  2  1  0   C } # D for Dihedral angle
| 16> { D 2  1  0  4   C } # D for Dihedral angle
| 17> { D 1  0  4  3   C } # D for Dihedral angle
| 18> { D 16  20  19  18   C } # D for Dihedral angle
| 19> { D 20  19  18  17   C } # D for Dihedral angle
| 20> { D 19  18  17  16   C } # D for Dihedral angle
| 21> { D 18  17  16  20   C } # D for Dihedral angle
| 22> { D 17  16  20  19   C } # D for Dihedral angle
| 23> { D 15  12  16  20   C } # D for Dihedral angle
| 24> end
| 25> end
| 26>
| 27>
| 28> #%pal
| 29> #nprocs 8
| 30> #end
| 31>
| 32> * xyz 0 1
| 33> C  -21.048   26.222   46.251
| 34> C  -20.361   27.558   45.944
| 35> C  -20.329   28.222   47.341
| 36> C  -20.110   27.022   48.296
| 37> O  -20.473   25.807   47.535
| 38> H  -20.833   25.428   45.533
| 39> H  -19.344   27.382   45.576
| 40> H  -20.898   28.157   45.201
| 41> H  -19.543   28.978   47.434
| 42> H  -21.289   28.710   47.548
| 43> H  -20.733   27.082   49.195
| 44> H  -19.064   26.913   48.597
| 45> C  -23.260   27.170   45.210
| 46> H  -23.749   28.068   45.609
| 47> H  -22.509   27.486   44.475
| 48> O  -22.586   26.394   46.375
| 49> C  -24.327   26.324   44.463
| 50> C  -23.735   25.004   43.954
| 51> C  -23.732   24.145   45.241
| 52> C  -25.013   24.609   45.977
| 53> O  -25.391   25.911   45.384
| 54> H  -24.793   26.937   43.690
| 55> O  -24.669   24.381   42.881
| 56> H  -22.737   25.120   43.518
| 57> H  -23.736   23.070   45.034
| 58> H  -22.840   24.367   45.840
| 59> H  -24.856   24.737   47.053
| 60> H  -25.855   23.928   45.821
| 61> H  -25.675   24.255   43.296
| 62> *
| 63>
| 64>                          ****END OF INPUT****
 Total Charge           Charge          ....    0
 Multiplicity           Mult            ....    1
 Number of Electrons    NEL             ....  102
FINAL SINGLE POINT ENERGY      -652.828061552015
FINAL SINGLE POINT ENERGY      -652.850539858696
FINAL SINGLE POINT ENERGY      -652.854702387547
FINAL SINGLE POINT ENERGY      -652.856414946050
FINAL SINGLE POINT ENERGY      -652.856571172692
FINAL SINGLE POINT ENERGY      -652.856599084840
                    ***********************HURRAY********************

CARTESIAN COORDINATES (ANGSTROEM)
---------------------------------
  C    -21.045150   26.267020   46.233831
  C    -20.268644   27.548371   45.933327
  C    -20.320257   28.285842   47.296576
  C    -20.246887   27.125743   48.310463
  O    -20.612614   25.903192   47.549694
  H    -20.825304   25.422434   45.573145
  H    -19.237837   27.277240   45.676970
  H    -20.671288   28.143908   45.111027
  H    -19.498358   28.998055   47.415911
  H    -21.264944   28.829061   47.394266
  H    -20.943570   27.236569   49.144685
  H    -19.237273   26.960790   48.697434
  C    -23.197103   27.156685   45.241727
  H    -23.688521   28.028309   45.687015
  H    -22.507877   27.506742   44.462255
  O    -22.493880   26.467188   46.317772
  C    -24.271567   26.285223   44.587100
  C    -23.806829   24.972531   43.938091
  C    -23.769072   24.011146   45.156373
  C    -24.961918   24.496543   46.017574
  O    -25.288775   25.864727   45.549059
  H    -24.782996   26.907986   43.841945
  O    -24.755628   24.539628   42.923000
  H    -22.852024   25.051751   43.415599
  H    -23.873244   22.972622   44.829560
  H    -22.833297   24.127180   45.704330
  H    -24.711501   24.543041   47.079949
  H    -25.861649   23.886608   45.882675
  H    -25.659991   24.570864   43.300649

 Multiplicity           Mult            ....    1
 Number of Electrons    NEL             ....  102
 Basis Dimension        Dim             ....  149

ORBITAL ENERGIES
----------------

  NO   OCC          E(Eh)            E(eV)
   0   2.0000     -19.145444      -520.9740
   1   2.0000     -19.144291      -520.9426
   2   2.0000     -19.135276      -520.6973
   3   2.0000     -19.135190      -520.6950
   4   2.0000     -10.287284      -279.9312
   5   2.0000     -10.237898      -278.5874
   6   2.0000     -10.235071      -278.5105
   7   2.0000     -10.232348      -278.4363
   8   2.0000     -10.229578      -278.3610
   9   2.0000     -10.219745      -278.0934
  10   2.0000     -10.195696      -277.4390
  11   2.0000     -10.193310      -277.3741
  12   2.0000     -10.176734      -276.9230
  13   2.0000      -1.057695       -28.7813
  14   2.0000      -1.031733       -28.0749
  15   2.0000      -1.003321       -27.3018
  16   2.0000      -0.993383       -27.0313
  17   2.0000      -0.792928       -21.5767
  18   2.0000      -0.776505       -21.1298
  19   2.0000      -0.764814       -20.8117
  20   2.0000      -0.736937       -20.0531
  21   2.0000      -0.678197       -18.4547
  22   2.0000      -0.608367       -16.5545
  23   2.0000      -0.600030       -16.3277
  24   2.0000      -0.596425       -16.2295
  25   2.0000      -0.571215       -15.5435
  26   2.0000      -0.526348       -14.3227
  27   2.0000      -0.509921       -13.8756
  28   2.0000      -0.505878       -13.7656
  29   2.0000      -0.488405       -13.2902
  30   2.0000      -0.473486       -12.8842
  31   2.0000      -0.458892       -12.4871
  32   2.0000      -0.449982       -12.2446
  33   2.0000      -0.434555       -11.8249
  34   2.0000      -0.428057       -11.6480
  35   2.0000      -0.414969       -11.2919
  36   2.0000      -0.405085       -11.0229
  37   2.0000      -0.386770       -10.5245
  38   2.0000      -0.383860       -10.4454
  39   2.0000      -0.364910        -9.9297
  40   2.0000      -0.362382        -9.8609
  41   2.0000      -0.359479        -9.7819
  42   2.0000      -0.354430        -9.6445
  43   2.0000      -0.326646        -8.8885
  44   2.0000      -0.318585        -8.6692
  45   2.0000      -0.303808        -8.2670
  46   2.0000      -0.301875        -8.2144
  47   2.0000      -0.267696        -7.2844
  48   2.0000      -0.264498        -7.1974
  49   2.0000      -0.262271        -7.1368
  50   2.0000      -0.235518        -6.4088
  51   0.0000       0.067465         1.8358
  52   0.0000       0.077532         2.1098
  53   0.0000       0.094616         2.5746
  54   0.0000       0.096370         2.6224
  55   0.0000       0.106424         2.8959

MULLIKEN ATOMIC CHARGES
-----------------------
   0 C :    0.308863
   1 C :   -0.289693
   2 C :   -0.298671
   3 C :   -0.000135
   4 O :   -0.500880
   5 H :    0.141133
   6 H :    0.153107
   7 H :    0.145438
   8 H :    0.145438
   9 H :    0.160162
  10 H :    0.157173
  11 H :    0.144216
  12 C :   -0.010209
  13 H :    0.157719
  14 H :    0.120513
  15 O :   -0.519955
  16 C :    0.076286
  17 C :    0.071029
  18 C :   -0.290656
  19 C :   -0.022731
  20 O :   -0.524498
  21 H :    0.150493
  22 O :   -0.603716
  23 H :    0.140808
  24 H :    0.150298
  25 H :    0.174766
  26 H :    0.165357
  27 H :    0.134544
  28 H :    0.363801
Sum of atomic charges:   -0.0000000

LOEWDIN ATOMIC CHARGES
----------------------
   0 C :    0.180179
   1 C :   -0.233040
   2 C :   -0.215997
   3 C :   -0.024575
   4 O :   -0.302949
   5 H :    0.094375
   6 H :    0.119021
   7 H :    0.113959
   8 H :    0.116038
   9 H :    0.117103
  10 H :    0.111193
  11 H :    0.103883
  12 C :   -0.041449
  13 H :    0.114098
  14 H :    0.094948
  15 O :   -0.336869
  16 C :    0.008905
  17 C :    0.036490
  18 C :   -0.239872
  19 C :   -0.033217
  20 O :   -0.329468
  21 H :    0.113494
  22 O :   -0.416873
  23 H :    0.109852
  24 H :    0.119213
  25 H :    0.128376
  26 H :    0.114940
  27 H :    0.095553
  28 H :    0.282688

  Mayer bond orders larger than 0.100000
B(  0-C ,  1-C ) :   0.9326 B(  0-C ,  4-O ) :   0.9392 B(  0-C ,  5-H ) :   0.9168
B(  0-C , 15-O ) :   0.8281 B(  1-C ,  2-C ) :   0.9489 B(  1-C ,  6-H ) :   0.9333
B(  1-C ,  7-H ) :   0.9282 B(  2-C ,  3-C ) :   0.9556 B(  2-C ,  8-H ) :   0.9448
B(  2-C ,  9-H ) :   0.9452 B(  3-C ,  4-O ) :   0.8322 B(  3-C , 10-H ) :   0.9342
B(  3-C , 11-H ) :   0.9397 B( 12-C , 13-H ) :   0.9273 B( 12-C , 14-H ) :   0.9068
B( 12-C , 15-O ) :   0.8558 B( 12-C , 16-C ) :   0.8924 B( 16-C , 17-C ) :   0.9074
B( 16-C , 20-O ) :   0.8749 B( 16-C , 21-H ) :   0.9191 B( 17-C , 18-C ) :   0.9233
B( 17-C , 22-O ) :   0.8907 B( 17-C , 23-H ) :   0.9365 B( 18-C , 19-C ) :   0.9454
B( 18-C , 24-H ) :   0.9366 B( 18-C , 25-H ) :   0.9189 B( 19-C , 20-O ) :   0.8383
B( 19-C , 26-H ) :   0.9314 B( 19-C , 27-H ) :   0.9369 B( 22-O , 28-H ) :   0.7954

FINAL SINGLE POINT ENERGY      -652.856599190779

DIPOLE MOMENT
-------------
                                X             Y             Z
Electronic contribution:     -3.82246      -2.44594      -0.95950
Nuclear contribution   :      4.72983       3.31172       0.95211
                        -----------------------------------------
Total Dipole Moment    :      0.90736       0.86578      -0.00738
                        -----------------------------------------
Magnitude (a.u.)       :      1.25417
Magnitude (Debye)      :      3.18785

Rotational constants in cm-1:     0.058982     0.013625     0.013196
Rotational constants in MHz :  1768.245382   408.454417   395.615511

                             ****ORCA TERMINATED NORMALLY****
TOTAL RUN TIME: 0 days 0 hours 25 minutes 22 seconds 683 msec
