                         Program Version 4.2.0 -  RELEASE  -
|  1> # Test redundant internal optimization
|  2> #
|  3> ! RKS B3LYP  Opt TightSCF SmallPrint
|  4>
|  5> %basis
|  6>         Basis "6-31G"
|  7> end
|  8>
|  9> %geom
| 10> Constraints
| 11> { D 4  0  15  12  330.0   C } # D for Dihedral angle
| 12> { D 0  15  12  16  255.0   C } # D for Dihedral angle
| 13> { D 0  4  3  2   C } # D for Dihedral angle
| 14> { D 4  3  2  1   C } # D for Dihedral angle
| 15> { D 3  2  1  0   C } # D for Dihedral angle
| 16> { D 2  1  0  4   C } # D for Dihedral angle
| 17> { D 1  0  4  3   C } # D for Dihedral angle
| 18> { D 16  20  19  18   C } # D for Dihedral angle
| 19> { D 20  19  18  17   C } # D for Dihedral angle
| 20> { D 19  18  17  16   C } # D for Dihedral angle
| 21> { D 18  17  16  20   C } # D for Dihedral angle
| 22> { D 17  16  20  19   C } # D for Dihedral angle
| 23> { D 15  12  16  20   C } # D for Dihedral angle
| 24> end
| 25> end
| 26>
| 27>
| 28> #%pal
| 29> #nprocs 8
| 30> #end
| 31>
| 32> * xyz 0 1
| 33> C  -21.048   26.222   46.251
| 34> C  -20.361   27.558   45.944
| 35> C  -20.329   28.222   47.341
| 36> C  -20.110   27.022   48.296
| 37> O  -20.473   25.807   47.535
| 38> H  -20.833   25.428   45.533
| 39> H  -19.344   27.382   45.576
| 40> H  -20.898   28.157   45.201
| 41> H  -19.543   28.978   47.434
| 42> H  -21.289   28.710   47.548
| 43> H  -20.733   27.082   49.195
| 44> H  -19.064   26.913   48.597
| 45> C  -23.271   25.476   47.424
| 46> H  -22.507   25.056   48.091
| 47> H  -23.980   26.051   48.033
| 48> O  -22.586   26.394   46.375
| 49> C  -24.051   24.300   46.774
| 50> C  -23.106   23.343   46.039
| 51> C  -22.526   22.514   47.209
| 52> C  -23.721   22.405   48.189
| 53> O  -24.676   23.467   47.807
| 54> H  -24.857   24.702   46.158
| 55> O  -23.914   22.436   45.071
| 56> H  -22.333   23.861   45.460
| 57> H  -22.155   21.535   46.893
| 58> H  -21.692   23.054   47.675
| 59> H  -23.423   22.549   49.233
| 60> H  -24.247   21.450   48.100
| 61> H  -24.695   21.905   45.629
| 62> *
| 63>
| 64>                          ****END OF INPUT****
 Total Charge           Charge          ....    0
 Multiplicity           Mult            ....    1
 Number of Electrons    NEL             ....  102
FINAL SINGLE POINT ENERGY      -652.839578332686
FINAL SINGLE POINT ENERGY      -652.861651298695
FINAL SINGLE POINT ENERGY      -652.865376340574
FINAL SINGLE POINT ENERGY      -652.866037593079
FINAL SINGLE POINT ENERGY      -652.866128206602
FINAL SINGLE POINT ENERGY      -652.866141310608
                    ***********************HURRAY********************

CARTESIAN COORDINATES (ANGSTROEM)
---------------------------------
  C    -21.040157   26.162074   46.303657
  C    -20.467436   27.538096   45.965588
  C    -20.423389   28.210121   47.355621
  C    -20.078512   27.043059   48.305637
  O    -20.393682   25.798483   47.544271
  H    -20.796643   25.365208   45.595054
  H    -19.461048   27.418458   45.548450
  H    -21.091688   28.074012   45.247822
  H    -19.686676   29.017452   47.409243
  H    -21.407331   28.624463   47.593585
  H    -20.663671   27.047442   49.228670
  H    -19.014450   26.989978   48.551648
  C    -23.186099   25.481014   47.406626
  H    -22.475720   25.113891   48.153495
  H    -23.905574   26.139490   47.900204
  O    -22.485514   26.298302   46.417141
  C    -23.945650   24.322498   46.752327
  C    -23.075331   23.285340   46.027204
  C    -22.541143   22.439781   47.212134
  C    -23.730028   22.433805   48.204897
  O    -24.617323   23.555278   47.809495
  H    -24.723017   24.709433   46.087489
  O    -23.879327   22.486302   45.113302
  H    -22.292390   23.723167   45.411186
  H    -22.261351   21.438331   46.877578
  H    -21.658125   22.919527   47.648296
  H    -23.416581   22.577636   49.243505
  H    -24.324313   21.516680   48.143271
  H    -24.722831   22.249678   45.553606

 Multiplicity           Mult            ....    1
 Number of Electrons    NEL             ....  102
 Basis Dimension        Dim             ....  149

ORBITAL ENERGIES
----------------

  NO   OCC          E(Eh)            E(eV)
   0   2.0000     -19.154502      -521.2205
   1   2.0000     -19.143315      -520.9161
   2   2.0000     -19.141570      -520.8686
   3   2.0000     -19.133152      -520.6395
   4   2.0000     -10.283480      -279.8277
   5   2.0000     -10.235247      -278.5152
   6   2.0000     -10.234604      -278.4977
   7   2.0000     -10.228343      -278.3274
   8   2.0000     -10.227880      -278.3148
   9   2.0000     -10.222939      -278.1803
  10   2.0000     -10.191043      -277.3124
  11   2.0000     -10.188578      -277.2453
  12   2.0000     -10.182658      -277.0842
  13   2.0000      -1.058686       -28.8083
  14   2.0000      -1.032944       -28.1078
  15   2.0000      -1.001704       -27.2577
  16   2.0000      -0.994921       -27.0732
  17   2.0000      -0.794392       -21.6165
  18   2.0000      -0.775049       -21.0902
  19   2.0000      -0.764837       -20.8123
  20   2.0000      -0.735143       -20.0043
  21   2.0000      -0.672513       -18.3000
  22   2.0000      -0.605822       -16.4853
  23   2.0000      -0.598923       -16.2975
  24   2.0000      -0.594725       -16.1833
  25   2.0000      -0.576339       -15.6830
  26   2.0000      -0.521996       -14.2042
  27   2.0000      -0.516727       -14.0609
  28   2.0000      -0.501939       -13.6585
  29   2.0000      -0.486715       -13.2442
  30   2.0000      -0.470966       -12.8156
  31   2.0000      -0.458433       -12.4746
  32   2.0000      -0.452421       -12.3110
  33   2.0000      -0.432214       -11.7612
  34   2.0000      -0.418080       -11.3765
  35   2.0000      -0.413633       -11.2555
  36   2.0000      -0.407031       -11.0759
  37   2.0000      -0.389077       -10.5873
  38   2.0000      -0.376471       -10.2443
  39   2.0000      -0.364649        -9.9226
  40   2.0000      -0.363729        -9.8976
  41   2.0000      -0.356966        -9.7136
  42   2.0000      -0.351943        -9.5769
  43   2.0000      -0.335423        -9.1273
  44   2.0000      -0.327525        -8.9124
  45   2.0000      -0.303597        -8.2613
  46   2.0000      -0.301280        -8.1983
  47   2.0000      -0.273145        -7.4326
  48   2.0000      -0.270009        -7.3473
  49   2.0000      -0.262615        -7.1461
  50   2.0000      -0.236960        -6.4480
  51   0.0000       0.068874         1.8742
  52   0.0000       0.074908         2.0384
  53   0.0000       0.093845         2.5537
  54   0.0000       0.098579         2.6825
  55   0.0000       0.106478         2.8974

MULLIKEN ATOMIC CHARGES
-----------------------
   0 C :    0.292443
   1 C :   -0.258880
   2 C :   -0.300942
   3 C :   -0.013293
   4 O :   -0.517946
   5 H :    0.151048
   6 H :    0.145071
   7 H :    0.164746
   8 H :    0.145890
   9 H :    0.162252
  10 H :    0.148049
  11 H :    0.150367
  12 C :   -0.031698
  13 H :    0.161671
  14 H :    0.155995
  15 O :   -0.534318
  16 C :    0.061224
  17 C :    0.087147
  18 C :   -0.302720
  19 C :   -0.030425
  20 O :   -0.527275
  21 H :    0.163046
  22 O :   -0.606147
  23 H :    0.158660
  24 H :    0.158780
  25 H :    0.162106
  26 H :    0.146551
  27 H :    0.144926
  28 H :    0.363670
Sum of atomic charges:   -0.0000000

LOEWDIN ATOMIC CHARGES
----------------------
   0 C :    0.176389
   1 C :   -0.214927
   2 C :   -0.216517
   3 C :   -0.029641
   4 O :   -0.325933
   5 H :    0.095378
   6 H :    0.113892
   7 H :    0.128295
   8 H :    0.116466
   9 H :    0.119248
  10 H :    0.105326
  11 H :    0.106918
  12 C :   -0.048954
  13 H :    0.111293
  14 H :    0.114356
  15 O :   -0.338621
  16 C :    0.011080
  17 C :    0.037290
  18 C :   -0.242708
  19 C :   -0.038304
  20 O :   -0.332349
  21 H :    0.116244
  22 O :   -0.417028
  23 H :    0.117683
  24 H :    0.125398
  25 H :    0.121957
  26 H :    0.103940
  27 H :    0.101663
  28 H :    0.282167

  Mayer bond orders larger than 0.100000
B(  0-C ,  1-C ) :   0.9437 B(  0-C ,  4-O ) :   0.9024 B(  0-C ,  5-H ) :   0.9132
B(  0-C , 15-O ) :   0.8499 B(  1-C ,  2-C ) :   0.9538 B(  1-C ,  6-H ) :   0.9375
B(  1-C ,  7-H ) :   0.9348 B(  2-C ,  3-C ) :   0.9561 B(  2-C ,  8-H ) :   0.9445
B(  2-C ,  9-H ) :   0.9442 B(  3-C ,  4-O ) :   0.8249 B(  3-C , 10-H ) :   0.9352
B(  3-C , 11-H ) :   0.9405 B( 12-C , 13-H ) :   0.9108 B( 12-C , 14-H ) :   0.9338
B( 12-C , 15-O ) :   0.8309 B( 12-C , 16-C ) :   0.8885 B( 16-C , 17-C ) :   0.9139
B( 16-C , 20-O ) :   0.8343 B( 16-C , 21-H ) :   0.9274 B( 17-C , 18-C ) :   0.9131
B( 17-C , 22-O ) :   0.8897 B( 17-C , 23-H ) :   0.9254 B( 18-C , 19-C ) :   0.9402
B( 18-C , 24-H ) :   0.9385 B( 18-C , 25-H ) :   0.9289 B( 19-C , 20-O ) :   0.8436
B( 19-C , 26-H ) :   0.9356 B( 19-C , 27-H ) :   0.9384 B( 22-O , 28-H ) :   0.7948

FINAL SINGLE POINT ENERGY      -652.866143445225

DIPOLE MOMENT
-------------
                                X             Y             Z
Electronic contribution:     -3.96947      -2.46996      -2.10060
Nuclear contribution   :      4.82795       3.02278       2.78007
                        -----------------------------------------
Total Dipole Moment    :      0.85848       0.55282       0.67947
                        -----------------------------------------
Magnitude (a.u.)       :      1.22649
Magnitude (Debye)      :      3.11749

Rotational constants in cm-1:     0.055822     0.013875     0.013293
Rotational constants in MHz :  1673.492014   415.949468   398.512527

                             ****ORCA TERMINATED NORMALLY****
TOTAL RUN TIME: 0 days 0 hours 24 minutes 45 seconds 822 msec
