                         Program Version 4.2.0 -  RELEASE  -
|  1> # Test redundant internal optimization
|  2> #
|  3> ! RKS B3LYP  Opt TightSCF SmallPrint
|  4>
|  5> %basis
|  6>         Basis "6-31G"
|  7> end
|  8>
|  9> %geom
| 10> Constraints
| 11> { D 4  0  15  12  255.0   C } # D for Dihedral angle
| 12> { D 0  15  12  16  105.0   C } # D for Dihedral angle
| 13> { D 0  4  3  2   C } # D for Dihedral angle
| 14> { D 4  3  2  1   C } # D for Dihedral angle
| 15> { D 3  2  1  0   C } # D for Dihedral angle
| 16> { D 2  1  0  4   C } # D for Dihedral angle
| 17> { D 1  0  4  3   C } # D for Dihedral angle
| 18> { D 16  20  19  18   C } # D for Dihedral angle
| 19> { D 20  19  18  17   C } # D for Dihedral angle
| 20> { D 19  18  17  16   C } # D for Dihedral angle
| 21> { D 18  17  16  20   C } # D for Dihedral angle
| 22> { D 17  16  20  19   C } # D for Dihedral angle
| 23> { D 15  12  16  20   C } # D for Dihedral angle
| 24> end
| 25> end
| 26>
| 27>
| 28> #%pal
| 29> #nprocs 8
| 30> #end
| 31>
| 32> * xyz 0 1
| 33> C  -21.048   26.222   46.251
| 34> C  -20.361   27.558   45.944
| 35> C  -20.329   28.222   47.341
| 36> C  -20.110   27.022   48.296
| 37> O  -20.473   25.807   47.535
| 38> H  -20.833   25.428   45.533
| 39> H  -19.344   27.382   45.576
| 40> H  -20.898   28.157   45.201
| 41> H  -19.543   28.978   47.434
| 42> H  -21.289   28.710   47.548
| 43> H  -20.733   27.082   49.195
| 44> H  -19.064   26.913   48.597
| 45> C  -23.431   25.260   45.734
| 46> H  -24.247   25.703   45.149
| 47> H  -22.813   24.656   45.056
| 48> O  -22.586   26.394   46.375
| 49> C  -24.050   24.302   46.789
| 50> C  -22.972   23.711   47.705
| 51> C  -22.721   24.881   48.688
| 52> C  -24.126   25.516   48.843
| 53> O  -24.932   25.041   47.698
| 54> H  -24.666   23.558   46.280
| 55> H  -23.367   22.839   48.236
| 56> O  -21.689   23.282   46.942
| 57> H  -22.305   24.550   49.644
| 58> H  -22.019   25.599   48.247
| 59> H  -24.095   26.611   48.832
| 60> H  -24.635   25.186   49.754
| 61> H  -21.277   24.142   46.402
| 62> *
| 63>
| 64>                          ****END OF INPUT****
 Total Charge           Charge          ....    0
 Multiplicity           Mult            ....    1
 Number of Electrons    NEL             ....  102
FINAL SINGLE POINT ENERGY      -652.806742947060
FINAL SINGLE POINT ENERGY      -652.841865938456
FINAL SINGLE POINT ENERGY      -652.858364452640
FINAL SINGLE POINT ENERGY      -652.862713300328
FINAL SINGLE POINT ENERGY      -652.864306439069
FINAL SINGLE POINT ENERGY      -652.865211235293
FINAL SINGLE POINT ENERGY      -652.865574998896
FINAL SINGLE POINT ENERGY      -652.865676291328
FINAL SINGLE POINT ENERGY      -652.865702513371
FINAL SINGLE POINT ENERGY      -652.865706584114
                    ***********************HURRAY********************

CARTESIAN COORDINATES (ANGSTROEM)
---------------------------------
  C    -21.013066   26.284528   46.182705
  C    -20.364939   27.620330   45.807366
  C    -20.297209   28.338349   47.179121
  C    -20.021497   27.178120   48.164986
  O    -20.393596   25.932801   47.442553
  H    -20.804410   25.458694   45.497595
  H    -19.359107   27.440357   45.410616
  H    -20.953739   28.160563   45.064429
  H    -19.518374   29.105592   47.218674
  H    -21.261100   28.807695   47.396482
  H    -20.614997   27.241171   49.080663
  H    -18.963823   27.080895   48.424922
  C    -23.286016   25.416066   45.755628
  H    -24.067589   25.935068   45.191501
  H    -22.704001   24.796202   45.061349
  O    -22.442382   26.489284   46.290056
  C    -23.984087   24.482227   46.746891
  C    -23.088586   23.632958   47.666142
  C    -22.861125   24.595873   48.876262
  C    -24.215059   25.335615   48.966998
  O    -24.897495   25.143509   47.667430
  H    -24.612020   23.835218   46.119483
  H    -23.620698   22.726842   47.966709
  O    -21.848244   23.203950   47.040412
  H    -22.619386   24.050890   49.794164
  H    -22.047401   25.276277   48.632749
  H    -24.097480   26.409021   49.145445
  H    -24.872649   24.916060   49.734950
  H    -21.125924   23.817847   47.298720

 Multiplicity           Mult            ....    1
 Number of Electrons    NEL             ....  102
 Basis Dimension        Dim             ....  149

ORBITAL ENERGIES
----------------

  NO   OCC          E(Eh)            E(eV)
   0   2.0000     -19.161172      -521.4020
   1   2.0000     -19.150880      -521.1219
   2   2.0000     -19.128506      -520.5131
   3   2.0000     -19.127004      -520.4722
   4   2.0000     -10.288666      -279.9688
   5   2.0000     -10.239534      -278.6319
   6   2.0000     -10.229473      -278.3581
   7   2.0000     -10.226898      -278.2881
   8   2.0000     -10.223550      -278.1969
   9   2.0000     -10.216945      -278.0172
  10   2.0000     -10.194618      -277.4097
  11   2.0000     -10.192399      -277.3493
  12   2.0000     -10.171669      -276.7852
  13   2.0000      -1.063984       -28.9525
  14   2.0000      -1.019658       -27.7463
  15   2.0000      -1.004426       -27.3318
  16   2.0000      -0.998487       -27.1702
  17   2.0000      -0.795599       -21.6494
  18   2.0000      -0.768036       -20.8993
  19   2.0000      -0.760188       -20.6858
  20   2.0000      -0.737316       -20.0634
  21   2.0000      -0.674278       -18.3480
  22   2.0000      -0.609822       -16.5941
  23   2.0000      -0.602674       -16.3996
  24   2.0000      -0.596393       -16.2287
  25   2.0000      -0.567681       -15.4474
  26   2.0000      -0.522744       -14.2246
  27   2.0000      -0.505076       -13.7438
  28   2.0000      -0.501700       -13.6520
  29   2.0000      -0.486818       -13.2470
  30   2.0000      -0.474174       -12.9029
  31   2.0000      -0.453483       -12.3399
  32   2.0000      -0.445058       -12.1106
  33   2.0000      -0.429227       -11.6799
  34   2.0000      -0.421970       -11.4824
  35   2.0000      -0.413442       -11.2503
  36   2.0000      -0.408697       -11.1212
  37   2.0000      -0.397243       -10.8095
  38   2.0000      -0.371230       -10.1017
  39   2.0000      -0.367355        -9.9962
  40   2.0000      -0.363750        -9.8981
  41   2.0000      -0.352729        -9.5982
  42   2.0000      -0.347487        -9.4556
  43   2.0000      -0.338030        -9.1983
  44   2.0000      -0.318250        -8.6600
  45   2.0000      -0.307395        -8.3646
  46   2.0000      -0.300859        -8.1868
  47   2.0000      -0.279026        -7.5927
  48   2.0000      -0.266527        -7.2526
  49   2.0000      -0.253412        -6.8957
  50   2.0000      -0.230086        -6.2610
  51   0.0000       0.069889         1.9018
  52   0.0000       0.082338         2.2405
  53   0.0000       0.085982         2.3397
  54   0.0000       0.098348         2.6762
  55   0.0000       0.110382         3.0036

MULLIKEN ATOMIC CHARGES
-----------------------
   0 C :    0.274845
   1 C :   -0.252527
   2 C :   -0.302497
   3 C :   -0.002741
   4 O :   -0.533674
   5 H :    0.156293
   6 H :    0.145803
   7 H :    0.160860
   8 H :    0.146990
   9 H :    0.169586
  10 H :    0.147898
  11 H :    0.151009
  12 C :   -0.023117
  13 H :    0.158733
  14 H :    0.140621
  15 O :   -0.516232
  16 C :    0.106187
  17 C :    0.093529
  18 C :   -0.353785
  19 C :   -0.005621
  20 O :   -0.522856
  21 H :    0.142128
  22 H :    0.152717
  23 O :   -0.640274
  24 H :    0.137091
  25 H :    0.199397
  26 H :    0.142070
  27 H :    0.139158
  28 H :    0.388408
Sum of atomic charges:   -0.0000000

LOEWDIN ATOMIC CHARGES
----------------------
   0 C :    0.165895
   1 C :   -0.215223
   2 C :   -0.215057
   3 C :   -0.025877
   4 O :   -0.332928
   5 H :    0.102869
   6 H :    0.114096
   7 H :    0.126022
   8 H :    0.116819
   9 H :    0.122898
  10 H :    0.105649
  11 H :    0.106901
  12 C :   -0.042408
  13 H :    0.116052
  14 H :    0.106289
  15 O :   -0.326272
  16 C :    0.013970
  17 C :    0.039318
  18 C :   -0.254599
  19 C :   -0.026188
  20 O :   -0.324478
  21 H :    0.112602
  22 H :    0.109481
  23 O :   -0.430024
  24 H :    0.112887
  25 H :    0.132580
  26 H :    0.101876
  27 H :    0.099116
  28 H :    0.287732

  Mayer bond orders larger than 0.100000
B(  0-C ,  1-C ) :   0.9453 B(  0-C ,  4-O ) :   0.8651 B(  0-C ,  5-H ) :   0.9134
B(  0-C , 15-O ) :   0.8760 B(  1-C ,  2-C ) :   0.9561 B(  1-C ,  6-H ) :   0.9381
B(  1-C ,  7-H ) :   0.9380 B(  2-C ,  3-C ) :   0.9558 B(  2-C ,  8-H ) :   0.9445
B(  2-C ,  9-H ) :   0.9423 B(  3-C ,  4-O ) :   0.8145 B(  3-C , 10-H ) :   0.9342
B(  3-C , 11-H ) :   0.9407 B( 12-C , 13-H ) :   0.9347 B( 12-C , 14-H ) :   0.9064
B( 12-C , 15-O ) :   0.8498 B( 12-C , 16-C ) :   0.9004 B( 16-C , 17-C ) :   0.8891
B( 16-C , 20-O ) :   0.8769 B( 16-C , 21-H ) :   0.9215 B( 17-C , 18-C ) :   0.9444
B( 17-C , 22-H ) :   0.9351 B( 17-C , 23-O ) :   0.8939 B( 18-C , 19-C ) :   0.9461
B( 18-C , 24-H ) :   0.9439 B( 18-C , 25-H ) :   0.8973 B( 19-C , 20-O ) :   0.8424
B( 19-C , 26-H ) :   0.9332 B( 19-C , 27-H ) :   0.9381 B( 23-O , 28-H ) :   0.7587

FINAL SINGLE POINT ENERGY      -652.865707639011

DIPOLE MOMENT
-------------
                                X             Y             Z
Electronic contribution:     -2.72481      -3.43192      -1.40653
Nuclear contribution   :      3.74027       4.35602       1.50651
                        -----------------------------------------
Total Dipole Moment    :      1.01546       0.92411       0.09998
                        -----------------------------------------
Magnitude (a.u.)       :      1.37664
Magnitude (Debye)      :      3.49914

Rotational constants in cm-1:     0.044216     0.018083     0.017837
Rotational constants in MHz :  1325.550110   542.103964   534.742433

                             ****ORCA TERMINATED NORMALLY****
TOTAL RUN TIME: 0 days 0 hours 52 minutes 11 seconds 563 msec
