                         Program Version 4.2.1 -  RELEASE  -
|  1> # Test redundant internal optimization
|  2> #
|  3> ! RKS B3LYP  Opt TightSCF SmallPrint
|  4>
|  5> %basis
|  6>         Basis "6-31G"
|  7> end
|  8>
|  9> %geom
| 10> Constraints
| 11> { D 4  0  19  14  330.0   C } # D for Dihedral angle
| 12> { D 0  19  14  12  60.0   C } # D for Dihedral angle
| 13> { D 0  4  3  2   C } # D for Dihedral angle
| 14> { D 4  3  2  1   C } # D for Dihedral angle
| 15> { D 3  2  1  0   C } # D for Dihedral angle
| 16> { D 2  1  0  4   C } # D for Dihedral angle
| 17> { D 1  0  4  3   C } # D for Dihedral angle
| 18> { D 14  15  16  17   C } # D for Dihedral angle
| 19> { D 15  16  17  12   C } # D for Dihedral angle
| 20> { D 16  17  12  14   C } # D for Dihedral angle
| 21> { D 17  12  14  15   C } # D for Dihedral angle
| 22> { D 12  14  15  16   C } # D for Dihedral angle
| 23> end
| 24> end
| 25>
| 26>
| 27> #%pal
| 28> #nprocs 8
| 29> #end
| 30>
| 31> * xyz 0 1
| 32> C  -21.048   26.222   46.251
| 33> C  -20.361   27.558   45.944
| 34> C  -20.329   28.222   47.341
| 35> C  -20.110   27.022   48.296
| 36> O  -20.473   25.807   47.535
| 37> H  -20.833   25.428   45.533
| 38> H  -19.344   27.382   45.576
| 39> H  -20.898   28.157   45.201
| 40> H  -19.543   28.978   47.434
| 41> H  -21.289   28.710   47.548
| 42> H  -20.733   27.082   49.195
| 43> H  -19.064   26.913   48.597
| 44> C  -22.500   25.801   48.730
| 45> H  -22.728   24.984   49.432
| 46> C  -23.087   25.523   47.341
| 47> C  -24.572   25.905   47.545
| 48> C  -24.497   27.097   48.531
| 49> O  -23.158   27.041   49.158
| 50> H  -21.426   25.990   48.738
| 51> O  -22.472   26.381   46.366
| 52> H  -22.955   24.485   47.019
| 53> H  -25.076   26.167   46.610
| 54> H  -25.118   25.066   47.995
| 55> H  -25.261   27.044   49.314
| 56> H  -24.575   28.064   48.024
| 57> *
| 58>
| 59>                          ****END OF INPUT****
 Total Charge           Charge          ....    0
 Multiplicity           Mult            ....    1
 Number of Electrons    NEL             ....   86
FINAL SINGLE POINT ENERGY      -538.374596999923
FINAL SINGLE POINT ENERGY      -538.429360947727
FINAL SINGLE POINT ENERGY      -538.432661627742
FINAL SINGLE POINT ENERGY      -538.433109396165
FINAL SINGLE POINT ENERGY      -538.433180102284
FINAL SINGLE POINT ENERGY      -538.433196137805
                    ***********************HURRAY********************

CARTESIAN COORDINATES (ANGSTROEM)
---------------------------------
  C    -20.953370   26.209053   46.314999
  C    -20.496768   27.616959   45.930409
  C    -20.327800   28.280757   47.315771
  C    -19.814624   27.129833   48.205613
  O    -20.149885   25.871169   47.468481
  H    -20.723826   25.431647   45.577479
  H    -19.539744   27.550683   45.400089
  H    -21.225869   28.123388   45.294639
  H    -19.637065   29.129264   47.295901
  H    -21.298780   28.626898   47.680089
  H    -20.293950   27.110178   49.186863
  H    -18.727769   27.127589   48.328118
  C    -22.729903   25.590381   48.935063
  H    -23.210674   24.795857   49.526665
  C    -23.116278   25.407799   47.467127
  C    -24.544364   25.982477   47.449423
  C    -24.479913   27.143317   48.468834
  O    -23.276836   26.902584   49.297872
  H    -21.663785   25.589262   49.126484
  O    -22.392220   26.238802   46.503894
  H    -23.067425   24.353868   47.160662
  H    -24.814450   26.310283   46.443987
  H    -25.256160   25.212909   47.771239
  H    -25.359668   27.180245   49.120617
  H    -24.348874   28.113799   47.983682

 Multiplicity           Mult            ....    1
 Number of Electrons    NEL             ....   86
 Basis Dimension        Dim             ....  127

ORBITAL ENERGIES
----------------

  NO   OCC          E(Eh)            E(eV)
   0   2.0000     -19.145975      -520.9885
   1   2.0000     -19.137302      -520.7525
   2   2.0000     -19.129223      -520.5326
   3   2.0000     -10.277015      -279.6518
   4   2.0000     -10.239170      -278.6220
   5   2.0000     -10.223933      -278.2074
   6   2.0000     -10.218929      -278.0712
   7   2.0000     -10.215368      -277.9743
   8   2.0000     -10.182129      -277.0698
   9   2.0000     -10.181752      -277.0596
  10   2.0000     -10.180792      -277.0334
  11   2.0000      -1.049213       -28.5505
  12   2.0000      -1.011782       -27.5320
  13   2.0000      -0.987203       -26.8632
  14   2.0000      -0.791823       -21.5466
  15   2.0000      -0.774864       -21.0851
  16   2.0000      -0.736913       -20.0524
  17   2.0000      -0.718538       -19.5524
  18   2.0000      -0.615358       -16.7447
  19   2.0000      -0.597421       -16.2567
  20   2.0000      -0.590953       -16.0806
  21   2.0000      -0.565190       -15.3796
  22   2.0000      -0.510702       -13.8969
  23   2.0000      -0.502480       -13.6732
  24   2.0000      -0.486110       -13.2277
  25   2.0000      -0.480862       -13.0849
  26   2.0000      -0.450411       -12.2563
  27   2.0000      -0.442119       -12.0307
  28   2.0000      -0.423055       -11.5119
  29   2.0000      -0.410281       -11.1643
  30   2.0000      -0.401543       -10.9266
  31   2.0000      -0.380957       -10.3664
  32   2.0000      -0.367589       -10.0026
  33   2.0000      -0.363531        -9.8922
  34   2.0000      -0.355478        -9.6730
  35   2.0000      -0.353143        -9.6095
  36   2.0000      -0.338994        -9.2245
  37   2.0000      -0.325282        -8.8514
  38   2.0000      -0.307068        -8.3557
  39   2.0000      -0.297408        -8.0929
  40   2.0000      -0.258385        -7.0310
  41   2.0000      -0.253143        -6.8884
  42   2.0000      -0.235269        -6.4020
  43   0.0000       0.080360         2.1867
  44   0.0000       0.094093         2.5604
  45   0.0000       0.102584         2.7914
  46   0.0000       0.110372         3.0034
  47   0.0000       0.126189         3.4338

MULLIKEN ATOMIC CHARGES
-----------------------
   0 C :    0.314259
   1 C :   -0.262924
   2 C :   -0.304144
   3 C :   -0.025665
   4 O :   -0.519127
   5 H :    0.145305
   6 H :    0.142997
   7 H :    0.158356
   8 H :    0.140547
   9 H :    0.175984
  10 H :    0.158443
  11 H :    0.148014
  12 C :   -0.019605
  13 H :    0.122861
  14 C :    0.093159
  15 C :   -0.294667
  16 C :    0.006310
  17 O :   -0.531306
  18 H :    0.182804
  19 O :   -0.546325
  20 H :    0.128157
  21 H :    0.164936
  22 H :    0.140156
  23 H :    0.134100
  24 H :    0.147374
Sum of atomic charges:   -0.0000000

LOEWDIN ATOMIC CHARGES
----------------------
   0 C :    0.181871
   1 C :   -0.215963
   2 C :   -0.217880
   3 C :   -0.033482
   4 O :   -0.327670
   5 H :    0.095512
   6 H :    0.112611
   7 H :    0.124912
   8 H :    0.114286
   9 H :    0.125287
  10 H :    0.109487
  11 H :    0.104959
  12 C :   -0.052417
  13 H :    0.092353
  14 C :    0.049001
  15 C :   -0.224212
  16 C :   -0.027110
  17 O :   -0.338750
  18 H :    0.127388
  19 O :   -0.339165
  20 H :    0.096732
  21 H :    0.128981
  22 H :    0.110794
  23 H :    0.097598
  24 H :    0.104878

  Mayer bond orders larger than 0.100000
B(  0-C ,  1-C ) :   0.9411 B(  0-C ,  4-O ) :   0.9050 B(  0-C ,  5-H ) :   0.9268
B(  0-C , 19-O ) :   0.8426 B(  1-C ,  2-C ) :   0.9570 B(  1-C ,  6-H ) :   0.9380
B(  1-C ,  7-H ) :   0.9366 B(  2-C ,  3-C ) :   0.9586 B(  2-C ,  8-H ) :   0.9442
B(  2-C ,  9-H ) :   0.9367 B(  3-C ,  4-O ) :   0.8231 B(  3-C , 10-H ) :   0.9228
B(  3-C , 11-H ) :   0.9411 B( 12-C , 13-H ) :   0.9121 B( 12-C , 14-C ) :   0.9149
B( 12-C , 17-O ) :   0.8613 B( 12-C , 18-H ) :   0.9100 B( 14-C , 15-C ) :   0.9581
B( 14-C , 19-O ) :   0.8255 B( 14-C , 20-H ) :   0.9228 B( 15-C , 16-C ) :   0.9453
B( 15-C , 21-H ) :   0.9362 B( 15-C , 22-H ) :   0.9420 B( 16-C , 17-O ) :   0.8531
B( 16-C , 23-H ) :   0.9342 B( 16-C , 24-H ) :   0.9381

FINAL SINGLE POINT ENERGY      -538.433197714627

DIPOLE MOMENT
-------------
                                X             Y             Z
Electronic contribution:      0.63815      -2.34179      -0.05699
Nuclear contribution   :     -0.77309       2.40394      -0.33670
                        -----------------------------------------
Total Dipole Moment    :     -0.13494       0.06215      -0.39369
                        -----------------------------------------
Magnitude (a.u.)       :      0.42079
Magnitude (Debye)      :      1.06956

Rotational constants in cm-1:     0.065163     0.027284     0.025584
Rotational constants in MHz :  1953.543096   817.966589   767.003620

                             ****ORCA TERMINATED NORMALLY****
TOTAL RUN TIME: 0 days 0 hours 8 minutes 52 seconds 937 msec
