                         Program Version 4.2.0 -  RELEASE  -
|  1> # Test redundant internal optimization
|  2> #
|  3> ! RKS B3LYP  Opt TightSCF SmallPrint
|  4>
|  5> %basis
|  6>         Basis "6-31G"
|  7> end
|  8>
|  9> %geom
| 10> Constraints
| 11> { D 4  0  15  12  75.0   C } # D for Dihedral angle
| 12> { D 0  15  12  16  285.0   C } # D for Dihedral angle
| 13> { D 0  4  3  2   C } # D for Dihedral angle
| 14> { D 4  3  2  1   C } # D for Dihedral angle
| 15> { D 3  2  1  0   C } # D for Dihedral angle
| 16> { D 2  1  0  4   C } # D for Dihedral angle
| 17> { D 1  0  4  3   C } # D for Dihedral angle
| 18> { D 16  20  19  18   C } # D for Dihedral angle
| 19> { D 20  19  18  17   C } # D for Dihedral angle
| 20> { D 19  18  17  16   C } # D for Dihedral angle
| 21> { D 18  17  16  20   C } # D for Dihedral angle
| 22> { D 17  16  20  19   C } # D for Dihedral angle
| 23> { D 15  12  16  20   C } # D for Dihedral angle
| 24> end
| 25> end
| 26>
| 27>
| 28> #%pal
| 29> #nprocs 8
| 30> #end
| 31>
| 32> * xyz 0 1
| 33> C  -21.048   26.222   46.251
| 34> C  -20.361   27.558   45.944
| 35> C  -20.329   28.222   47.341
| 36> C  -20.110   27.022   48.296
| 37> O  -20.473   25.807   47.535
| 38> H  -20.833   25.428   45.533
| 39> H  -19.344   27.382   45.576
| 40> H  -20.898   28.157   45.201
| 41> H  -19.543   28.978   47.434
| 42> H  -21.289   28.710   47.548
| 43> H  -20.733   27.082   49.195
| 44> H  -19.064   26.913   48.597
| 45> C  -23.049   27.675   47.122
| 46> H  -22.475   28.535   46.756
| 47> H  -24.113   27.867   46.931
| 48> O  -22.586   26.394   46.375
| 49> C  -22.855   27.576   48.660
| 50> C  -23.428   28.806   49.374
| 51> C  -24.941   28.484   49.389
| 52> C  -24.971   26.946   49.571
| 53> O  -23.626   26.453   49.203
| 54> H  -21.803   27.377   48.876
| 55> O  -22.870   28.890   50.821
| 56> H  -23.199   29.746   48.860
| 57> H  -25.479   29.009   50.185
| 58> H  -25.396   28.768   48.433
| 59> H  -25.717   26.462   48.931
| 60> H  -25.150   26.651   50.609
| 61> H  -23.089   27.959   51.354
| 62> *
| 63>
| 64>                          ****END OF INPUT****
 Total Charge           Charge          ....    0
 Multiplicity           Mult            ....    1
 Number of Electrons    NEL             ....  102
FINAL SINGLE POINT ENERGY      -652.767694574133
FINAL SINGLE POINT ENERGY      -652.821257239339
FINAL SINGLE POINT ENERGY      -652.843666858040
FINAL SINGLE POINT ENERGY      -652.849444818398
FINAL SINGLE POINT ENERGY      -652.850317118081
FINAL SINGLE POINT ENERGY      -652.850508485154
FINAL SINGLE POINT ENERGY      -652.850547244537
FINAL SINGLE POINT ENERGY      -652.850564804626
FINAL SINGLE POINT ENERGY      -652.850565926821
                    ***********************HURRAY********************

CARTESIAN COORDINATES (ANGSTROEM)
---------------------------------
  C    -21.132761   26.361983   46.364856
  C    -20.255802   27.525012   45.876196
  C    -19.811258   28.185647   47.215590
  C    -19.666134   26.960359   48.156642
  O    -20.419934   25.857788   47.517240
  H    -21.153401   25.526364   45.663520
  H    -19.391651   27.112049   45.345924
  H    -20.785108   28.207400   45.205480
  H    -18.870648   28.736423   47.119594
  H    -20.568023   28.886503   47.580466
  H    -20.055609   27.135371   49.163872
  H    -18.627995   26.624501   48.238886
  C    -23.118043   27.738030   47.229092
  H    -22.661549   28.683985   46.899182
  H    -24.161355   27.738269   46.901610
  O    -22.547497   26.610114   46.515757
  C    -23.051807   27.649516   48.756787
  C    -23.728232   28.837421   49.458512
  C    -25.222105   28.416452   49.425727
  C    -25.153215   26.879075   49.601428
  O    -23.763985   26.478553   49.272095
  H    -22.019897   27.545676   49.090739
  O    -23.234332   28.975765   50.819799
  H    -23.541064   29.803145   48.986260
  H    -25.779217   28.915220   50.222736
  H    -25.673528   28.691098   48.465855
  H    -25.842773   26.344422   48.941972
  H    -25.343611   26.565975   50.632483
  H    -23.191467   28.086884   51.232701

 Multiplicity           Mult            ....    1
 Number of Electrons    NEL             ....  102
 Basis Dimension        Dim             ....  149

ORBITAL ENERGIES
----------------

  NO   OCC          E(Eh)            E(eV)
   0   2.0000     -19.142357      -520.8900
   1   2.0000     -19.142211      -520.8860
   2   2.0000     -19.140880      -520.8498
   3   2.0000     -19.140204      -520.8314
   4   2.0000     -10.276782      -279.6454
   5   2.0000     -10.246287      -278.8156
   6   2.0000     -10.235829      -278.5311
   7   2.0000     -10.234677      -278.4997
   8   2.0000     -10.229916      -278.3702
   9   2.0000     -10.229437      -278.3571
  10   2.0000     -10.195079      -277.4222
  11   2.0000     -10.192007      -277.3386
  12   2.0000     -10.191521      -277.3254
  13   2.0000      -1.049333       -28.5538
  14   2.0000      -1.037306       -28.2265
  15   2.0000      -1.007989       -27.4288
  16   2.0000      -0.995830       -27.0979
  17   2.0000      -0.789196       -21.4751
  18   2.0000      -0.787759       -21.4360
  19   2.0000      -0.771448       -20.9922
  20   2.0000      -0.734629       -19.9903
  21   2.0000      -0.681442       -18.5430
  22   2.0000      -0.610379       -16.6092
  23   2.0000      -0.605647       -16.4805
  24   2.0000      -0.604226       -16.4418
  25   2.0000      -0.570412       -15.5217
  26   2.0000      -0.525124       -14.2894
  27   2.0000      -0.513252       -13.9663
  28   2.0000      -0.503091       -13.6898
  29   2.0000      -0.492506       -13.4018
  30   2.0000      -0.471805       -12.8385
  31   2.0000      -0.462653       -12.5894
  32   2.0000      -0.453660       -12.3447
  33   2.0000      -0.442142       -12.0313
  34   2.0000      -0.424589       -11.5537
  35   2.0000      -0.419178       -11.4064
  36   2.0000      -0.403415       -10.9775
  37   2.0000      -0.395404       -10.7595
  38   2.0000      -0.381573       -10.3831
  39   2.0000      -0.374459       -10.1895
  40   2.0000      -0.364248        -9.9117
  41   2.0000      -0.362033        -9.8514
  42   2.0000      -0.345720        -9.4075
  43   2.0000      -0.338133        -9.2011
  44   2.0000      -0.314677        -8.5628
  45   2.0000      -0.309871        -8.4320
  46   2.0000      -0.299377        -8.1465
  47   2.0000      -0.273907        -7.4534
  48   2.0000      -0.265730        -7.2309
  49   2.0000      -0.257801        -7.0151
  50   2.0000      -0.238947        -6.5021
  51   0.0000       0.060946         1.6584
  52   0.0000       0.075179         2.0457
  53   0.0000       0.085453         2.3253
  54   0.0000       0.087508         2.3812
  55   0.0000       0.094393         2.5686

MULLIKEN ATOMIC CHARGES
-----------------------
   0 C :    0.304462
   1 C :   -0.283385
   2 C :   -0.315784
   3 C :   -0.017777
   4 O :   -0.497166
   5 H :    0.169464
   6 H :    0.157616
   7 H :    0.147207
   8 H :    0.148570
   9 H :    0.145728
  10 H :    0.150213
  11 H :    0.148940
  12 C :   -0.006451
  13 H :    0.116663
  14 H :    0.155347
  15 O :   -0.509852
  16 C :    0.052362
  17 C :    0.074391
  18 C :   -0.296683
  19 C :   -0.027605
  20 O :   -0.503598
  21 H :    0.171153
  22 O :   -0.603755
  23 H :    0.148925
  24 H :    0.164798
  25 H :    0.142154
  26 H :    0.153373
  27 H :    0.143991
  28 H :    0.366701
Sum of atomic charges:   -0.0000000

LOEWDIN ATOMIC CHARGES
----------------------
   0 C :    0.174770
   1 C :   -0.230136
   2 C :   -0.224106
   3 C :   -0.036602
   4 O :   -0.314625
   5 H :    0.114961
   6 H :    0.122878
   7 H :    0.117065
   8 H :    0.117366
   9 H :    0.106260
  10 H :    0.100922
  11 H :    0.105649
  12 C :   -0.041481
  13 H :    0.089177
  14 H :    0.114892
  15 O :   -0.308020
  16 C :    0.004225
  17 C :    0.033783
  18 C :   -0.240954
  19 C :   -0.038121
  20 O :   -0.316497
  21 H :    0.117282
  22 O :   -0.415699
  23 H :    0.113062
  24 H :    0.127409
  25 H :    0.112115
  26 H :    0.107828
  27 H :    0.102187
  28 H :    0.284412

  Mayer bond orders larger than 0.100000
B(  0-C ,  1-C ) :   0.9169 B(  0-C ,  4-O ) :   0.9015 B(  0-C ,  5-H ) :   0.9371
B(  0-C , 15-O ) :   0.9023 B(  1-C ,  2-C ) :   0.9541 B(  1-C ,  6-H ) :   0.9355
B(  1-C ,  7-H ) :   0.9364 B(  2-C ,  3-C ) :   0.9469 B(  2-C ,  8-H ) :   0.9451
B(  2-C ,  9-H ) :   0.9411 B(  3-C ,  4-O ) :   0.8477 B(  3-C , 10-H ) :   0.9188
B(  3-C , 11-H ) :   0.9379 B( 12-C , 13-H ) :   0.9066 B( 12-C , 14-H ) :   0.9390
B( 12-C , 15-O ) :   0.8674 B( 12-C , 16-C ) :   0.8736 B( 16-C , 17-C ) :   0.8937
B( 16-C , 20-O ) :   0.8678 B( 16-C , 21-H ) :   0.9077 B( 17-C , 18-C ) :   0.9120
B( 17-C , 22-O ) :   0.8901 B( 17-C , 23-H ) :   0.9334 B( 18-C , 19-C ) :   0.9381
B( 18-C , 24-H ) :   0.9371 B( 18-C , 25-H ) :   0.9345 B( 19-C , 20-O ) :   0.8521
B( 19-C , 26-H ) :   0.9332 B( 19-C , 27-H ) :   0.9380 B( 22-O , 28-H ) :   0.7928

FINAL SINGLE POINT ENERGY      -652.850564391993

DIPOLE MOMENT
-------------
                                X             Y             Z
Electronic contribution:     -0.69505      -4.40784       0.94045
Nuclear contribution   :      0.64873       5.56489      -1.32181
                        -----------------------------------------
Total Dipole Moment    :     -0.04631       1.15705      -0.38136
                        -----------------------------------------
Magnitude (a.u.)       :      1.21916
Magnitude (Debye)      :      3.09886

Rotational constants in cm-1:     0.048978     0.015900     0.014593
Rotational constants in MHz :  1468.322410   476.681570   437.489051

                             ****ORCA TERMINATED NORMALLY****
TOTAL RUN TIME: 0 days 0 hours 30 minutes 52 seconds 72 msec
