                         Program Version 4.2.0 -  RELEASE  -
|  1> # Test redundant internal optimization
|  2> #
|  3> ! RKS B3LYP  Opt TightSCF SmallPrint
|  4>
|  5> %basis
|  6>         Basis "6-31G"
|  7> end
|  8>
|  9> %geom
| 10> Constraints
| 11> { D 4  0  15  12  195.0   C } # D for Dihedral angle
| 12> { D 0  15  12  16  105.0   C } # D for Dihedral angle
| 13> { D 0  4  3  2   C } # D for Dihedral angle
| 14> { D 4  3  2  1   C } # D for Dihedral angle
| 15> { D 3  2  1  0   C } # D for Dihedral angle
| 16> { D 2  1  0  4   C } # D for Dihedral angle
| 17> { D 1  0  4  3   C } # D for Dihedral angle
| 18> { D 16  20  19  18   C } # D for Dihedral angle
| 19> { D 20  19  18  17   C } # D for Dihedral angle
| 20> { D 19  18  17  16   C } # D for Dihedral angle
| 21> { D 18  17  16  20   C } # D for Dihedral angle
| 22> { D 17  16  20  19   C } # D for Dihedral angle
| 23> { D 15  12  16  20   C } # D for Dihedral angle
| 24> end
| 25> end
| 26>
| 27>
| 28> #%pal
| 29> #nprocs 8
| 30> #end
| 31>
| 32> * xyz 0 1
| 33> C  -21.048   26.222   46.251
| 34> C  -20.361   27.558   45.944
| 35> C  -20.329   28.222   47.341
| 36> C  -20.110   27.022   48.296
| 37> O  -20.473   25.807   47.535
| 38> H  -20.833   25.428   45.533
| 39> H  -19.344   27.382   45.576
| 40> H  -20.898   28.157   45.201
| 41> H  -19.543   28.978   47.434
| 42> H  -21.289   28.710   47.548
| 43> H  -20.733   27.082   49.195
| 44> H  -19.064   26.913   48.597
| 45> C  -23.353   26.472   45.026
| 46> H  -24.076   27.296   45.068
| 47> H  -22.657   26.668   44.200
| 48> O  -22.586   26.394   46.375
| 49> C  -24.122   25.163   44.696
| 50> C  -23.187   23.949   44.709
| 51> C  -23.055   23.671   46.226
| 52> C  -24.458   24.034   46.773
| 53> O  -25.109   24.871   45.741
| 54> H  -24.674   25.298   43.764
| 55> H  -23.662   23.103   44.201
| 56> O  -21.819   24.224   44.027
| 57> H  -22.777   22.635   46.446
| 58> H  -22.290   24.323   46.663
| 59> H  -24.411   24.594   47.713
| 60> H  -25.091   23.153   46.918
| 61> H  -21.325   25.068   44.520
| 62> *
| 63>
| 64>                          ****END OF INPUT****
 Total Charge           Charge          ....    0
 Multiplicity           Mult            ....    1
 Number of Electrons    NEL             ....  102
FINAL SINGLE POINT ENERGY      -652.809075507661
FINAL SINGLE POINT ENERGY      -652.837927854222
FINAL SINGLE POINT ENERGY      -652.851554461598
FINAL SINGLE POINT ENERGY      -652.853818372328
FINAL SINGLE POINT ENERGY      -652.854467782611
FINAL SINGLE POINT ENERGY      -652.854797144639
FINAL SINGLE POINT ENERGY      -652.855054232526
FINAL SINGLE POINT ENERGY      -652.855488674940
FINAL SINGLE POINT ENERGY      -652.856049107741
FINAL SINGLE POINT ENERGY      -652.856598772819
FINAL SINGLE POINT ENERGY      -652.859283974789
FINAL SINGLE POINT ENERGY      -652.859397746603
FINAL SINGLE POINT ENERGY      -652.859572619428
FINAL SINGLE POINT ENERGY      -652.859711105346
FINAL SINGLE POINT ENERGY      -652.860059639291
FINAL SINGLE POINT ENERGY      -652.860408576678
FINAL SINGLE POINT ENERGY      -652.860724881615
FINAL SINGLE POINT ENERGY      -652.860818917021
FINAL SINGLE POINT ENERGY      -652.860826410744
                    ***********************HURRAY********************

CARTESIAN COORDINATES (ANGSTROEM)
---------------------------------
  C    -21.015528   26.332092   46.250142
  C    -20.335798   27.670749   45.967674
  C    -20.387115   28.357090   47.355364
  C    -20.202046   27.173296   48.328469
  O    -20.513465   25.953007   47.540062
  H    -20.800435   25.531307   45.541991
  H    -19.299537   27.492520   45.655426
  H    -20.834565   28.249986   45.185664
  H    -19.614354   29.122298   47.476362
  H    -21.366092   28.823020   47.498849
  H    -20.874101   27.213751   49.189177
  H    -19.170405   27.065555   48.677053
  C    -23.220593   26.559041   45.139675
  H    -23.944367   27.371143   45.260123
  H    -22.565449   26.789356   44.289575
  O    -22.464802   26.506516   46.386428
  C    -24.009744   25.282710   44.830366
  C    -23.208033   23.979281   44.689220
  C    -23.067418   23.522284   46.173408
  C    -24.412636   23.973303   46.788510
  O    -24.985026   24.978436   45.864643
  H    -24.585463   25.486848   43.918137
  H    -23.805332   23.253417   44.121112
  O    -21.955563   24.238600   43.997659
  H    -22.917373   22.439986   46.261391
  H    -22.231832   24.037546   46.647068
  H    -24.280280   24.433728   47.770617
  H    -25.139086   23.157170   46.862167
  H    -21.470563   23.402965   43.850666

 Multiplicity           Mult            ....    1
 Number of Electrons    NEL             ....  102
 Basis Dimension        Dim             ....  149

ORBITAL ENERGIES
----------------

  NO   OCC          E(Eh)            E(eV)
   0   2.0000     -19.153100      -521.1824
   1   2.0000     -19.135161      -520.6942
   2   2.0000     -19.130347      -520.5632
   3   2.0000     -19.127520      -520.4863
   4   2.0000     -10.265304      -279.3331
   5   2.0000     -10.242331      -278.7080
   6   2.0000     -10.227531      -278.3053
   7   2.0000     -10.219735      -278.0931
   8   2.0000     -10.219468      -278.0859
   9   2.0000     -10.215971      -277.9907
  10   2.0000     -10.179918      -277.0097
  11   2.0000     -10.179185      -276.9897
  12   2.0000     -10.175773      -276.8969
  13   2.0000      -1.044698       -28.4277
  14   2.0000      -1.031236       -28.0614
  15   2.0000      -1.010960       -27.5096
  16   2.0000      -0.982683       -26.7402
  17   2.0000      -0.779242       -21.2042
  18   2.0000      -0.770682       -20.9713
  19   2.0000      -0.758851       -20.6494
  20   2.0000      -0.724825       -19.7235
  21   2.0000      -0.670231       -18.2379
  22   2.0000      -0.598589       -16.2884
  23   2.0000      -0.593956       -16.1624
  24   2.0000      -0.586482       -15.9590
  25   2.0000      -0.556292       -15.1375
  26   2.0000      -0.525901       -14.3105
  27   2.0000      -0.508583       -13.8392
  28   2.0000      -0.489080       -13.3085
  29   2.0000      -0.487616       -13.2687
  30   2.0000      -0.460840       -12.5401
  31   2.0000      -0.450767       -12.2660
  32   2.0000      -0.437024       -11.8920
  33   2.0000      -0.427918       -11.6443
  34   2.0000      -0.421106       -11.4589
  35   2.0000      -0.406366       -11.0578
  36   2.0000      -0.398841       -10.8530
  37   2.0000      -0.389634       -10.6025
  38   2.0000      -0.369782       -10.0623
  39   2.0000      -0.360729        -9.8159
  40   2.0000      -0.354038        -9.6339
  41   2.0000      -0.350366        -9.5339
  42   2.0000      -0.344806        -9.3826
  43   2.0000      -0.330205        -8.9853
  44   2.0000      -0.307730        -8.3738
  45   2.0000      -0.296414        -8.0658
  46   2.0000      -0.293738        -7.9930
  47   2.0000      -0.273885        -7.4528
  48   2.0000      -0.256807        -6.9881
  49   2.0000      -0.248922        -6.7735
  50   2.0000      -0.226515        -6.1638
  51   0.0000       0.052426         1.4266
  52   0.0000       0.085775         2.3340
  53   0.0000       0.099169         2.6985
  54   0.0000       0.115900         3.1538
  55   0.0000       0.118286         3.2187

MULLIKEN ATOMIC CHARGES
-----------------------
   0 C :    0.283559
   1 C :   -0.266417
   2 C :   -0.297530
   3 C :    0.001304
   4 O :   -0.519606
   5 H :    0.169417
   6 H :    0.140964
   7 H :    0.143459
   8 H :    0.138114
   9 H :    0.161138
  10 H :    0.151475
  11 H :    0.137983
  12 C :   -0.011423
  13 H :    0.156258
  14 H :    0.138031
  15 O :   -0.518733
  16 C :    0.102948
  17 C :    0.074493
  18 C :   -0.324004
  19 C :   -0.006390
  20 O :   -0.520420
  21 H :    0.140517
  22 H :    0.141695
  23 O :   -0.611866
  24 H :    0.127091
  25 H :    0.203846
  26 H :    0.161087
  27 H :    0.136897
  28 H :    0.366111
Sum of atomic charges:   -0.0000000

LOEWDIN ATOMIC CHARGES
----------------------
   0 C :    0.166487
   1 C :   -0.226693
   2 C :   -0.217100
   3 C :   -0.024813
   4 O :   -0.312275
   5 H :    0.108576
   6 H :    0.111656
   7 H :    0.114401
   8 H :    0.112353
   9 H :    0.118877
  10 H :    0.107994
  11 H :    0.100271
  12 C :   -0.042042
  13 H :    0.115240
  14 H :    0.104385
  15 O :   -0.337658
  16 C :    0.027814
  17 C :    0.031692
  18 C :   -0.246919
  19 C :   -0.023536
  20 O :   -0.321845
  21 H :    0.110010
  22 H :    0.098854
  23 O :   -0.418093
  24 H :    0.106122
  25 H :    0.138725
  26 H :    0.112620
  27 H :    0.097655
  28 H :    0.287241

  Mayer bond orders larger than 0.100000
B(  0-C ,  1-C ) :   0.9365 B(  0-C ,  4-O ) :   0.8997 B(  0-C ,  5-H ) :   0.8899
B(  0-C , 15-O ) :   0.8184 B(  1-C ,  2-C ) :   0.9504 B(  1-C ,  6-H ) :   0.9355
B(  1-C ,  7-H ) :   0.9361 B(  2-C ,  3-C ) :   0.9571 B(  2-C ,  8-H ) :   0.9454
B(  2-C ,  9-H ) :   0.9438 B(  3-C ,  4-O ) :   0.8358 B(  3-C , 10-H ) :   0.9351
B(  3-C , 11-H ) :   0.9404 B( 12-C , 13-H ) :   0.9321 B( 12-C , 14-H ) :   0.9067
B( 12-C , 15-O ) :   0.8686 B( 12-C , 16-C ) :   0.9010 B( 16-C , 17-C ) :   0.9267
B( 16-C , 20-O ) :   0.8835 B( 16-C , 21-H ) :   0.9237 B( 17-C , 18-C ) :   0.9253
B( 17-C , 22-H ) :   0.9245 B( 17-C , 23-O ) :   0.8627 B( 18-C , 19-C ) :   0.9474
B( 18-C , 24-H ) :   0.9424 B( 18-C , 25-H ) :   0.9143 B( 19-C , 20-O ) :   0.8386
B( 19-C , 26-H ) :   0.9303 B( 19-C , 27-H ) :   0.9365 B( 23-O , 28-H ) :   0.8001

FINAL SINGLE POINT ENERGY      -652.860827112236

DIPOLE MOMENT
-------------
                                X             Y             Z
Electronic contribution:     -2.65985      -2.48879      -1.28549
Nuclear contribution   :      3.44615       2.22200       0.69404
                        -----------------------------------------
Total Dipole Moment    :      0.78630      -0.26679      -0.59145
                        -----------------------------------------
Magnitude (a.u.)       :      1.01944
Magnitude (Debye)      :      2.59122

Rotational constants in cm-1:     0.047962     0.016383     0.015875
Rotational constants in MHz :  1437.863447   491.139774   475.927287

                             ****ORCA TERMINATED NORMALLY****
TOTAL RUN TIME: 0 days 0 hours 59 minutes 40 seconds 700 msec
