                         Program Version 4.2.0 -  RELEASE  -
|  1> # Test redundant internal optimization
|  2> #
|  3> ! RKS B3LYP  Opt TightSCF SmallPrint
|  4>
|  5> %basis
|  6>         Basis "6-31G"
|  7> end
|  8>
|  9> %geom
| 10> Constraints
| 11> { D 4  0  15  12  285.0   C } # D for Dihedral angle
| 12> { D 0  15  12  16  330.0   C } # D for Dihedral angle
| 13> { D 0  4  3  2   C } # D for Dihedral angle
| 14> { D 4  3  2  1   C } # D for Dihedral angle
| 15> { D 3  2  1  0   C } # D for Dihedral angle
| 16> { D 2  1  0  4   C } # D for Dihedral angle
| 17> { D 1  0  4  3   C } # D for Dihedral angle
| 18> { D 16  20  19  18   C } # D for Dihedral angle
| 19> { D 20  19  18  17   C } # D for Dihedral angle
| 20> { D 19  18  17  16   C } # D for Dihedral angle
| 21> { D 18  17  16  20   C } # D for Dihedral angle
| 22> { D 17  16  20  19   C } # D for Dihedral angle
| 23> { D 15  12  16  20   C } # D for Dihedral angle
| 24> end
| 25> end
| 26>
| 27>
| 28> #%pal
| 29> #nprocs 8
| 30> #end
| 31>
| 32> * xyz 0 1
| 33> C  -21.048   26.222   46.251
| 34> C  -20.361   27.558   45.944
| 35> C  -20.329   28.222   47.341
| 36> C  -20.110   27.022   48.296
| 37> O  -20.473   25.807   47.535
| 38> H  -20.833   25.428   45.533
| 39> H  -19.344   27.382   45.576
| 40> H  -20.898   28.157   45.201
| 41> H  -19.543   28.978   47.434
| 42> H  -21.289   28.710   47.548
| 43> H  -20.733   27.082   49.195
| 44> H  -19.064   26.913   48.597
| 45> C  -23.396   25.070   46.435
| 46> H  -23.509   24.762   47.482
| 47> H  -24.397   25.213   46.009
| 48> O  -22.586   26.394   46.375
| 49> C  -22.712   23.912   45.657
| 50> C  -23.592   22.657   45.640
| 51> C  -24.613   23.005   44.531
| 52> C  -23.768   23.816   43.518
| 53> O  -22.560   24.265   44.242
| 54> H  -21.708   23.755   46.058
| 55> O  -22.746   21.418   45.238
| 56> H  -24.067   22.452   46.606
| 57> H  -25.068   22.117   44.079
| 58> H  -25.420   23.622   44.943
| 59> H  -24.302   24.693   43.134
| 60> H  -23.431   23.208   42.673
| 61> H  -22.261   21.601   44.273
| 62> *
| 63>
| 64>                          ****END OF INPUT****
 Total Charge           Charge          ....    0
 Multiplicity           Mult            ....    1
 Number of Electrons    NEL             ....  102
FINAL SINGLE POINT ENERGY      -652.834514464986
FINAL SINGLE POINT ENERGY      -652.858424748359
FINAL SINGLE POINT ENERGY      -652.863124124915
FINAL SINGLE POINT ENERGY      -652.863911894997
FINAL SINGLE POINT ENERGY      -652.864040956229
FINAL SINGLE POINT ENERGY      -652.864057676165
                    ***********************HURRAY********************

CARTESIAN COORDINATES (ANGSTROEM)
---------------------------------
  C    -20.975776   26.195381   46.196882
  C    -20.439474   27.610211   45.970526
  C    -20.456313   28.189036   47.405241
  C    -20.098268   26.964572   48.278630
  O    -20.348066   25.771645   47.433175
  H    -20.706508   25.467599   45.431902
  H    -19.416734   27.549179   45.581308
  H    -21.056670   28.173091   45.268012
  H    -19.748407   29.013099   47.537051
  H    -21.460685   28.551369   47.641789
  H    -20.707388   26.892302   49.183651
  H    -19.039755   26.936257   48.555096
  C    -23.221824   25.109684   46.372811
  H    -23.354195   24.812185   47.422889
  H    -24.190704   25.423408   45.975328
  O    -22.404822   26.317459   46.328443
  C    -22.682348   23.901857   45.606044
  C    -23.634195   22.695712   45.648067
  C    -24.646722   23.052335   44.525767
  C    -23.761671   23.770038   43.474434
  O    -22.522516   24.182087   44.175980
  H    -21.698581   23.616705   45.988329
  O    -22.921821   21.462679   45.358534
  H    -24.102959   22.534619   46.619407
  H    -25.125144   22.150709   44.136499
  H    -25.426555   23.717175   44.912954
  H    -24.241914   24.656674   43.050704
  H    -23.463780   23.108806   42.654799
  H    -22.307205   21.615130   44.609750

 Multiplicity           Mult            ....    1
 Number of Electrons    NEL             ....  102
 Basis Dimension        Dim             ....  149

ORBITAL ENERGIES
----------------

  NO   OCC          E(Eh)            E(eV)
   0   2.0000     -19.147210      -521.0221
   1   2.0000     -19.141749      -520.8735
   2   2.0000     -19.138301      -520.7797
   3   2.0000     -19.132459      -520.6207
   4   2.0000     -10.268818      -279.4287
   5   2.0000     -10.246673      -278.8262
   6   2.0000     -10.237374      -278.5731
   7   2.0000     -10.235162      -278.5129
   8   2.0000     -10.230454      -278.3848
   9   2.0000     -10.219400      -278.0840
  10   2.0000     -10.193278      -277.3732
  11   2.0000     -10.178554      -276.9725
  12   2.0000     -10.177208      -276.9359
  13   2.0000      -1.048816       -28.5397
  14   2.0000      -1.038747       -28.2657
  15   2.0000      -1.009858       -27.4796
  16   2.0000      -0.986725       -26.8501
  17   2.0000      -0.789910       -21.4945
  18   2.0000      -0.779631       -21.2148
  19   2.0000      -0.765815       -20.8389
  20   2.0000      -0.730251       -19.8711
  21   2.0000      -0.673065       -18.3150
  22   2.0000      -0.608387       -16.5550
  23   2.0000      -0.607156       -16.5216
  24   2.0000      -0.591472       -16.0948
  25   2.0000      -0.565235       -15.3808
  26   2.0000      -0.530146       -14.4260
  27   2.0000      -0.510194       -13.8831
  28   2.0000      -0.493528       -13.4296
  29   2.0000      -0.482334       -13.1250
  30   2.0000      -0.475518       -12.9395
  31   2.0000      -0.456988       -12.4353
  32   2.0000      -0.449795       -12.2395
  33   2.0000      -0.438154       -11.9228
  34   2.0000      -0.424403       -11.5486
  35   2.0000      -0.406359       -11.0576
  36   2.0000      -0.398346       -10.8396
  37   2.0000      -0.396084       -10.7780
  38   2.0000      -0.379487       -10.3264
  39   2.0000      -0.366769        -9.9803
  40   2.0000      -0.362180        -9.8554
  41   2.0000      -0.349460        -9.5093
  42   2.0000      -0.341371        -9.2892
  43   2.0000      -0.333998        -9.0886
  44   2.0000      -0.322882        -8.7861
  45   2.0000      -0.312156        -8.4942
  46   2.0000      -0.294656        -8.0180
  47   2.0000      -0.276894        -7.5347
  48   2.0000      -0.265790        -7.2325
  49   2.0000      -0.245454        -6.6792
  50   2.0000      -0.243215        -6.6182
  51   0.0000       0.062925         1.7123
  52   0.0000       0.085892         2.3373
  53   0.0000       0.089635         2.4391
  54   0.0000       0.098018         2.6672
  55   0.0000       0.101093         2.7509

MULLIKEN ATOMIC CHARGES
-----------------------
   0 C :    0.270618
   1 C :   -0.257224
   2 C :   -0.297217
   3 C :   -0.001047
   4 O :   -0.519064
   5 H :    0.173347
   6 H :    0.142906
   7 H :    0.156690
   8 H :    0.137194
   9 H :    0.160407
  10 H :    0.143186
  11 H :    0.140289
  12 C :    0.033131
  13 H :    0.139047
  14 H :    0.142939
  15 O :   -0.527413
  16 C :    0.013193
  17 C :    0.081451
  18 C :   -0.294793
  19 C :   -0.027583
  20 O :   -0.526145
  21 H :    0.187063
  22 O :   -0.600006
  23 H :    0.154838
  24 H :    0.163301
  25 H :    0.146176
  26 H :    0.151344
  27 H :    0.148421
  28 H :    0.364950
Sum of atomic charges:   -0.0000000

LOEWDIN ATOMIC CHARGES
----------------------
   0 C :    0.166828
   1 C :   -0.212426
   2 C :   -0.216343
   3 C :   -0.027495
   4 O :   -0.337001
   5 H :    0.109657
   6 H :    0.112642
   7 H :    0.124253
   8 H :    0.111389
   9 H :    0.118232
  10 H :    0.103111
  11 H :    0.101250
  12 C :   -0.036814
  13 H :    0.102858
  14 H :    0.109066
  15 O :   -0.320920
  16 C :   -0.003452
  17 C :    0.040380
  18 C :   -0.240181
  19 C :   -0.036454
  20 O :   -0.333662
  21 H :    0.125046
  22 O :   -0.412313
  23 H :    0.117253
  24 H :    0.127314
  25 H :    0.113707
  26 H :    0.107037
  27 H :    0.103511
  28 H :    0.283526

  Mayer bond orders larger than 0.100000
B(  0-C ,  1-C ) :   0.9473 B(  0-C ,  4-O ) :   0.8925 B(  0-C ,  5-H ) :   0.9038
B(  0-C , 15-O ) :   0.8613 B(  1-C ,  2-C ) :   0.9561 B(  1-C ,  6-H ) :   0.9417
B(  1-C ,  7-H ) :   0.9370 B(  2-C ,  3-C ) :   0.9555 B(  2-C ,  8-H ) :   0.9457
B(  2-C ,  9-H ) :   0.9445 B(  3-C ,  4-O ) :   0.8397 B(  3-C , 10-H ) :   0.9363
B(  3-C , 11-H ) :   0.9406 B( 12-C , 13-H ) :   0.9118 B( 12-C , 14-H ) :   0.9355
B( 12-C , 15-O ) :   0.8485 B( 12-C , 16-C ) :   0.8957 B( 16-C , 17-C ) :   0.8957
B( 16-C , 20-O ) :   0.8362 B( 16-C , 21-H ) :   0.9125 B( 17-C , 18-C ) :   0.9112
B( 17-C , 22-O ) :   0.8945 B( 17-C , 23-H ) :   0.9334 B( 18-C , 19-C ) :   0.9405
B( 18-C , 24-H ) :   0.9375 B( 18-C , 25-H ) :   0.9334 B( 19-C , 20-O ) :   0.8431
B( 19-C , 26-H ) :   0.9344 B( 19-C , 27-H ) :   0.9375 B( 22-O , 28-H ) :   0.7942

FINAL SINGLE POINT ENERGY      -652.864059915786

DIPOLE MOMENT
-------------
                                X             Y             Z
Electronic contribution:      0.85868      -3.57725      -0.49584
Nuclear contribution   :     -1.37753       4.09298       0.16617
                        -----------------------------------------
Total Dipole Moment    :     -0.51885       0.51573      -0.32967
                        -----------------------------------------
Magnitude (a.u.)       :      0.80241
Magnitude (Debye)      :      2.03957

Rotational constants in cm-1:     0.063977     0.012733     0.011950
Rotational constants in MHz :  1917.991535   381.722931   358.251994

                             ****ORCA TERMINATED NORMALLY****
TOTAL RUN TIME: 0 days 0 hours 33 minutes 22 seconds 9 msec
