                         Program Version 4.2.0 -  RELEASE  -
|  1> # Test redundant internal optimization
|  2> #
|  3> ! RKS B3LYP  Opt TightSCF SmallPrint
|  4>
|  5> %basis
|  6>         Basis "6-31G"
|  7> end
|  8>
|  9> %geom
| 10> Constraints
| 11> { D 4  0  15  12  330.0   C } # D for Dihedral angle
| 12> { D 0  15  12  16  105.0   C } # D for Dihedral angle
| 13> { D 0  4  3  2   C } # D for Dihedral angle
| 14> { D 4  3  2  1   C } # D for Dihedral angle
| 15> { D 3  2  1  0   C } # D for Dihedral angle
| 16> { D 2  1  0  4   C } # D for Dihedral angle
| 17> { D 1  0  4  3   C } # D for Dihedral angle
| 18> { D 16  20  19  18   C } # D for Dihedral angle
| 19> { D 20  19  18  17   C } # D for Dihedral angle
| 20> { D 19  18  17  16   C } # D for Dihedral angle
| 21> { D 18  17  16  20   C } # D for Dihedral angle
| 22> { D 17  16  20  19   C } # D for Dihedral angle
| 23> { D 15  12  16  20   C } # D for Dihedral angle
| 24> end
| 25> end
| 26>
| 27>
| 28> #%pal
| 29> #nprocs 8
| 30> #end
| 31>
| 32> * xyz 0 1
| 33> C  -21.048   26.222   46.251
| 34> C  -20.361   27.558   45.944
| 35> C  -20.329   28.222   47.341
| 36> C  -20.110   27.022   48.296
| 37> O  -20.473   25.807   47.535
| 38> H  -20.833   25.428   45.533
| 39> H  -19.344   27.382   45.576
| 40> H  -20.898   28.157   45.201
| 41> H  -19.543   28.978   47.434
| 42> H  -21.289   28.710   47.548
| 43> H  -20.733   27.082   49.195
| 44> H  -19.064   26.913   48.597
| 45> C  -23.271   25.476   47.424
| 46> H  -24.174   25.035   46.984
| 47> H  -22.598   24.659   47.717
| 48> O  -22.586   26.394   46.375
| 49> C  -23.678   26.238   48.715
| 50> C  -24.751   27.293   48.423
| 51> C  -26.031   26.427   48.347
| 52> C  -25.774   25.326   49.407
| 53> O  -24.319   25.326   49.668
| 54> H  -22.780   26.628   49.199
| 55> O  -24.841   28.301   49.601
| 56> H  -24.563   27.856   47.502
| 57> H  -26.942   26.997   48.549
| 58> H  -26.127   25.986   47.347
| 59> H  -26.076   24.333   49.062
| 60> H  -26.272   25.538   50.357
| 61> H  -25.030   27.760   50.536
| 62> *
| 63>
| 64>                          ****END OF INPUT****
 Total Charge           Charge          ....    0
 Multiplicity           Mult            ....    1
 Number of Electrons    NEL             ....  102
FINAL SINGLE POINT ENERGY      -652.840318125638
FINAL SINGLE POINT ENERGY      -652.862249787839
FINAL SINGLE POINT ENERGY      -652.865735638135
FINAL SINGLE POINT ENERGY      -652.866360126278
FINAL SINGLE POINT ENERGY      -652.866447798115
FINAL SINGLE POINT ENERGY      -652.866461862524
                    ***********************HURRAY********************

CARTESIAN COORDINATES (ANGSTROEM)
---------------------------------
  C    -21.097966   26.189091   46.342801
  C    -20.551257   27.580222   46.021910
  C    -20.474997   28.220570   47.426628
  C    -20.089086   27.034763   48.337659
  O    -20.412144   25.805248   47.554371
  H    -20.851818   25.411894   45.612444
  H    -19.555363   27.478047   45.576498
  H    -21.197432   28.128211   45.332930
  H    -19.744590   29.033803   47.477989
  H    -21.453475   28.622636   47.705774
  H    -20.638205   27.011234   49.281635
  H    -19.016643   26.989159   48.547322
  C    -23.212757   25.385773   47.419219
  H    -24.076493   24.960467   46.897751
  H    -22.551606   24.575454   47.737984
  O    -22.544916   26.265872   46.461692
  C    -23.649293   26.181379   48.648859
  C    -24.671915   27.292556   48.375726
  C    -25.995917   26.491810   48.317102
  C    -25.783075   25.374281   49.369063
  O    -24.320611   25.297481   49.610265
  H    -22.769117   26.580330   49.157799
  O    -24.670725   28.274535   49.450588
  H    -24.458396   27.851957   47.466069
  H    -26.848926   27.135641   48.545559
  H    -26.141655   26.073621   47.315551
  H    -26.140512   24.397159   49.030620
  H    -26.256042   25.603852   50.329552
  H    -24.663069   27.806953   50.312643

 Multiplicity           Mult            ....    1
 Number of Electrons    NEL             ....  102
 Basis Dimension        Dim             ....  149

ORBITAL ENERGIES
----------------

  NO   OCC          E(Eh)            E(eV)
   0   2.0000     -19.149624      -521.0878
   1   2.0000     -19.143122      -520.9108
   2   2.0000     -19.142846      -520.9033
   3   2.0000     -19.136476      -520.7300
   4   2.0000     -10.279965      -279.7321
   5   2.0000     -10.234805      -278.5032
   6   2.0000     -10.230545      -278.3873
   7   2.0000     -10.230275      -278.3799
   8   2.0000     -10.229131      -278.3488
   9   2.0000     -10.225530      -278.2508
  10   2.0000     -10.187604      -277.2188
  11   2.0000     -10.186630      -277.1923
  12   2.0000     -10.186390      -277.1858
  13   2.0000      -1.055130       -28.7115
  14   2.0000      -1.034469       -28.1493
  15   2.0000      -1.003959       -27.3191
  16   2.0000      -0.994288       -27.0559
  17   2.0000      -0.791352       -21.5338
  18   2.0000      -0.778494       -21.1839
  19   2.0000      -0.766471       -20.8567
  20   2.0000      -0.731463       -19.9041
  21   2.0000      -0.672690       -18.3048
  22   2.0000      -0.603383       -16.4189
  23   2.0000      -0.601718       -16.3736
  24   2.0000      -0.596060       -16.2196
  25   2.0000      -0.575027       -15.6473
  26   2.0000      -0.523874       -14.2553
  27   2.0000      -0.510074       -13.8798
  28   2.0000      -0.495992       -13.4966
  29   2.0000      -0.490114       -13.3367
  30   2.0000      -0.474545       -12.9130
  31   2.0000      -0.457271       -12.4430
  32   2.0000      -0.453390       -12.3374
  33   2.0000      -0.433786       -11.8039
  34   2.0000      -0.419206       -11.4072
  35   2.0000      -0.412944       -11.2368
  36   2.0000      -0.402071       -10.9409
  37   2.0000      -0.391742       -10.6598
  38   2.0000      -0.373845       -10.1728
  39   2.0000      -0.365363        -9.9420
  40   2.0000      -0.359901        -9.7934
  41   2.0000      -0.358663        -9.7597
  42   2.0000      -0.350515        -9.5380
  43   2.0000      -0.335295        -9.1238
  44   2.0000      -0.327213        -8.9039
  45   2.0000      -0.308737        -8.4012
  46   2.0000      -0.299457        -8.1486
  47   2.0000      -0.273820        -7.4510
  48   2.0000      -0.265144        -7.2149
  49   2.0000      -0.262234        -7.1358
  50   2.0000      -0.239488        -6.5168
  51   0.0000       0.064767         1.7624
  52   0.0000       0.076514         2.0820
  53   0.0000       0.091486         2.4895
  54   0.0000       0.098404         2.6777
  55   0.0000       0.103992         2.8298

MULLIKEN ATOMIC CHARGES
-----------------------
   0 C :    0.298194
   1 C :   -0.262116
   2 C :   -0.308604
   3 C :   -0.019009
   4 O :   -0.513290
   5 H :    0.151680
   6 H :    0.146343
   7 H :    0.160936
   8 H :    0.146327
   9 H :    0.169633
  10 H :    0.150490
  11 H :    0.150379
  12 C :   -0.022369
  13 H :    0.138191
  14 H :    0.175087
  15 O :   -0.537592
  16 C :    0.053611
  17 C :    0.094225
  18 C :   -0.298512
  19 C :   -0.029222
  20 O :   -0.527233
  21 H :    0.160571
  22 O :   -0.609555
  23 H :    0.171251
  24 H :    0.159979
  25 H :    0.147490
  26 H :    0.146327
  27 H :    0.144537
  28 H :    0.362249
Sum of atomic charges:   -0.0000000

LOEWDIN ATOMIC CHARGES
----------------------
   0 C :    0.178905
   1 C :   -0.215911
   2 C :   -0.218930
   3 C :   -0.031831
   4 O :   -0.323646
   5 H :    0.098614
   6 H :    0.114909
   7 H :    0.126222
   8 H :    0.116884
   9 H :    0.121054
  10 H :    0.103399
  11 H :    0.106674
  12 C :   -0.042596
  13 H :    0.103016
  14 H :    0.122150
  15 O :   -0.341252
  16 C :    0.008998
  17 C :    0.036149
  18 C :   -0.240386
  19 C :   -0.038006
  20 O :   -0.330758
  21 H :    0.112204
  22 O :   -0.418477
  23 H :    0.124805
  24 H :    0.125847
  25 H :    0.115185
  26 H :    0.104072
  27 H :    0.101384
  28 H :    0.281321

  Mayer bond orders larger than 0.100000
B(  0-C ,  1-C ) :   0.9435 B(  0-C ,  4-O ) :   0.9073 B(  0-C ,  5-H ) :   0.9249
B(  0-C , 15-O ) :   0.8459 B(  1-C ,  2-C ) :   0.9529 B(  1-C ,  6-H ) :   0.9376
B(  1-C ,  7-H ) :   0.9356 B(  2-C ,  3-C ) :   0.9555 B(  2-C ,  8-H ) :   0.9444
B(  2-C ,  9-H ) :   0.9401 B(  3-C ,  4-O ) :   0.8290 B(  3-C , 10-H ) :   0.9262
B(  3-C , 11-H ) :   0.9398 B( 12-C , 13-H ) :   0.9361 B( 12-C , 14-H ) :   0.9144
B( 12-C , 15-O ) :   0.8251 B( 12-C , 16-C ) :   0.8906 B( 16-C , 17-C ) :   0.9117
B( 16-C , 20-O ) :   0.8414 B( 16-C , 21-H ) :   0.9184 B( 17-C , 18-C ) :   0.9133
B( 17-C , 22-O ) :   0.8858 B( 17-C , 23-H ) :   0.9243 B( 18-C , 19-C ) :   0.9412
B( 18-C , 24-H ) :   0.9382 B( 18-C , 25-H ) :   0.9347 B( 19-C , 20-O ) :   0.8431
B( 19-C , 26-H ) :   0.9358 B( 19-C , 27-H ) :   0.9379 B( 22-O , 28-H ) :   0.7969

FINAL SINGLE POINT ENERGY      -652.866464388627

DIPOLE MOMENT
-------------
                                X             Y             Z
Electronic contribution:      0.01127      -2.25082       0.85976
Nuclear contribution   :     -0.07918       2.38805      -1.12287
                        -----------------------------------------
Total Dipole Moment    :     -0.06791       0.13724      -0.26311
                        -----------------------------------------
Magnitude (a.u.)       :      0.30442
Magnitude (Debye)      :      0.77377

Rotational constants in cm-1:     0.050291     0.015321     0.014476
Rotational constants in MHz :  1507.676489   459.321011   433.981813

                             ****ORCA TERMINATED NORMALLY****
TOTAL RUN TIME: 0 days 0 hours 23 minutes 21 seconds 270 msec
